 Entering Gaussian System, Link 0=/opt/g16/g16
 Input=MD_extract_014_gaussian.com
 Output=MD_extract_014_gaussian.log
 Initial command:
 /opt/g16/l1.exe "/tmp/Gau-317961.inp" -scrdir="/tmp/"
 Entering Link 1 = /opt/g16/l1.exe PID=    317963.
  
 Copyright (c) 1988,1990,1992,1993,1995,1998,2003,2009,2016,
            Gaussian, Inc.  All Rights Reserved.
  
 This is part of the Gaussian(R) 16 program.  It is based on
 the Gaussian(R) 09 system (copyright 2009, Gaussian, Inc.),
 the Gaussian(R) 03 system (copyright 2003, Gaussian, Inc.),
 the Gaussian(R) 98 system (copyright 1998, Gaussian, Inc.),
 the Gaussian(R) 94 system (copyright 1995, Gaussian, Inc.),
 the Gaussian 92(TM) system (copyright 1992, Gaussian, Inc.),
 the Gaussian 90(TM) system (copyright 1990, Gaussian, Inc.),
 the Gaussian 88(TM) system (copyright 1988, Gaussian, Inc.),
 the Gaussian 86(TM) system (copyright 1986, Carnegie Mellon
 University), and the Gaussian 82(TM) system (copyright 1983,
 Carnegie Mellon University). Gaussian is a federally registered
 trademark of Gaussian, Inc.
  
 This software contains proprietary and confidential information,
 including trade secrets, belonging to Gaussian, Inc.
  
 This software is provided under written license and may be
 used, copied, transmitted, or stored only in accord with that
 written license.
  
 The following legend is applicable only to US Government
 contracts under FAR:
  
                    RESTRICTED RIGHTS LEGEND
  
 Use, reproduction and disclosure by the US Government is
 subject to restrictions as set forth in subparagraphs (a)
 and (c) of the Commercial Computer Software - Restricted
 Rights clause in FAR 52.227-19.
  
 Gaussian, Inc.
 340 Quinnipiac St., Bldg. 40, Wallingford CT 06492
  
  
 ---------------------------------------------------------------
 Warning -- This program may not be used in any manner that
 competes with the business of Gaussian, Inc. or will provide
 assistance to any competitor of Gaussian, Inc.  The licensee
 of this program is prohibited from giving any competitor of
 Gaussian, Inc. access to this program.  By using this program,
 the user acknowledges that Gaussian, Inc. is engaged in the
 business of creating and licensing software in the field of
 computational chemistry and represents and warrants to the
 licensee that it is not a competitor of Gaussian, Inc. and that
 it will not use this program in any manner prohibited above.
 ---------------------------------------------------------------
  

 Cite this work as:
 Gaussian 16, Revision A.03,
 M. J. Frisch, G. W. Trucks, H. B. Schlegel, G. E. Scuseria, 
 M. A. Robb, J. R. Cheeseman, G. Scalmani, V. Barone, 
 G. A. Petersson, H. Nakatsuji, X. Li, M. Caricato, A. V. Marenich, 
 J. Bloino, B. G. Janesko, R. Gomperts, B. Mennucci, H. P. Hratchian, 
 J. V. Ortiz, A. F. Izmaylov, J. L. Sonnenberg, D. Williams-Young, 
 F. Ding, F. Lipparini, F. Egidi, J. Goings, B. Peng, A. Petrone, 
 T. Henderson, D. Ranasinghe, V. G. Zakrzewski, J. Gao, N. Rega, 
 G. Zheng, W. Liang, M. Hada, M. Ehara, K. Toyota, R. Fukuda, 
 J. Hasegawa, M. Ishida, T. Nakajima, Y. Honda, O. Kitao, H. Nakai, 
 T. Vreven, K. Throssell, J. A. Montgomery, Jr., J. E. Peralta, 
 F. Ogliaro, M. J. Bearpark, J. J. Heyd, E. N. Brothers, K. N. Kudin, 
 V. N. Staroverov, T. A. Keith, R. Kobayashi, J. Normand, 
 K. Raghavachari, A. P. Rendell, J. C. Burant, S. S. Iyengar, 
 J. Tomasi, M. Cossi, J. M. Millam, M. Klene, C. Adamo, R. Cammi, 
 J. W. Ochterski, R. L. Martin, K. Morokuma, O. Farkas, 
 J. B. Foresman, and D. J. Fox, Gaussian, Inc., Wallingford CT, 2016.
 
 ******************************************
 Gaussian 16:  ES64L-G16RevA.03 25-Dec-2016
                 7-Sep-2022 
 ******************************************
 %chk=MD_extract_014_gaussian.chk
 %nproc=1
 Will use up to    1 processors via shared memory.
 %mem=1000Mb
 ----------
 #p opt pm3
 ----------
 1/18=20,19=15,26=1,38=1/1,3;
 2/9=110,12=2,17=6,18=5,40=1/2;
 3/5=2,25=1,41=800000,71=1/1,2,3;
 4/35=1/1;
 5/5=2,35=1,38=5/2;
 6/7=2,8=2,9=2,10=2,28=1/1;
 7//1,2,3,16;
 1/18=20,19=15,26=1/3(2);
 2/9=110/2;
 99//99;
 2/9=110/2;
 3/5=2,25=1,41=800000,71=1,135=20/1,2,3;
 4/5=5,16=3,35=1/1;
 5/5=2,35=1,38=5/2;
 7//1,2,3,16;
 1/18=20,19=15,26=1/3(-5);
 2/9=110/2;
 6/7=2,8=2,9=2,10=2,19=2,28=1/1;
 99/9=1/99;
 Leave Link    1 at Wed Sep  7 15:35:16 2022, MaxMem=   131072000 cpu:               0.0 elap:              31.1
 (Enter /opt/g16/l101.exe)
 ------------------------------------------------
 Conformer number 014. Energy MM = 0.000 kcal/mol
 ------------------------------------------------
 Symbolic Z-matrix:
 Charge =  0 Multiplicity = 1
 C                     9.784     5.219     8.712 
 H                     10.214    4.522     7.937 
 H                     10.41     5.139     9.589 
 H                     9.891     6.292     8.38 
 C                     8.316     4.902     9.095 
 H                     7.718     5.757     8.889 
 H                     8.233     4.725     10.166 
 C                     7.539     3.979     8.293 
 H                     6.511     3.949     8.611 
 O                     7.3       4.433     6.981 
 C                     8.057     2.59      8.425 
 H                     8.142     4.651     6.602 
 H                     8.57      2.375     9.362 
 H                     7.189     1.961     8.314 
 C                     9.046     2.096     7.346 
 H                     9.008     0.963     7.481 
 H                     10.028    2.574     7.419 
 H                     8.667     2.316     6.35 
 
 ITRead=  0  0  0  0  0  0  0  0  0  0  0  0  0  0  0  0  0  0
 MicOpt= -1 -1 -1 -1 -1 -1 -1 -1 -1 -1 -1 -1 -1 -1 -1 -1 -1 -1
 NAtoms=     18 NQM=       18 NQMF=       0 NMMI=      0 NMMIF=      0
                NMic=       0 NMicF=      0.
                    Isotopes and Nuclear Properties:
 (Nuclear quadrupole moments (NQMom) in fm**2, nuclear magnetic moments (NMagM)
  in nuclear magnetons)

  Atom         1           2           3           4           5           6           7           8           9          10
 IAtWgt=          12           1           1           1          12           1           1          12           1          16
 AtmWgt=  12.0000000   1.0078250   1.0078250   1.0078250  12.0000000   1.0078250   1.0078250  12.0000000   1.0078250  15.9949146
 NucSpn=           0           1           1           1           0           1           1           0           1           0
 AtZEff=  -0.0000000  -0.0000000  -0.0000000  -0.0000000  -0.0000000  -0.0000000  -0.0000000  -0.0000000  -0.0000000  -0.0000000
 NQMom=    0.0000000   0.0000000   0.0000000   0.0000000   0.0000000   0.0000000   0.0000000   0.0000000   0.0000000   0.0000000
 NMagM=    0.0000000   2.7928460   2.7928460   2.7928460   0.0000000   2.7928460   2.7928460   0.0000000   2.7928460   0.0000000
 AtZNuc=   6.0000000   1.0000000   1.0000000   1.0000000   6.0000000   1.0000000   1.0000000   6.0000000   1.0000000   8.0000000

  Atom        11          12          13          14          15          16          17          18
 IAtWgt=          12           1           1           1          12           1           1           1
 AtmWgt=  12.0000000   1.0078250   1.0078250   1.0078250  12.0000000   1.0078250   1.0078250   1.0078250
 NucSpn=           0           1           1           1           0           1           1           1
 AtZEff=  -0.0000000  -0.0000000  -0.0000000  -0.0000000  -0.0000000  -0.0000000  -0.0000000  -0.0000000
 NQMom=    0.0000000   0.0000000   0.0000000   0.0000000   0.0000000   0.0000000   0.0000000   0.0000000
 NMagM=    0.0000000   2.7928460   2.7928460   2.7928460   0.0000000   2.7928460   2.7928460   2.7928460
 AtZNuc=   6.0000000   1.0000000   1.0000000   1.0000000   6.0000000   1.0000000   1.0000000   1.0000000
 Leave Link  101 at Wed Sep  7 15:35:16 2022, MaxMem=   131072000 cpu:               0.1 elap:               0.1
 (Enter /opt/g16/l103.exe)

 GradGradGradGradGradGradGradGradGradGradGradGradGradGradGradGradGradGrad
 Berny optimization.
 Initialization pass.
                           ----------------------------
                           !    Initial Parameters    !
                           ! (Angstroms and Degrees)  !
 --------------------------                            --------------------------
 ! Name  Definition              Value          Derivative Info.                !
 --------------------------------------------------------------------------------
 ! R1    R(1,2)                  1.1275         estimate D2E/DX2                !
 ! R2    R(1,3)                  1.0805         estimate D2E/DX2                !
 ! R3    R(1,4)                  1.1283         estimate D2E/DX2                !
 ! R4    R(1,5)                  1.5499         estimate D2E/DX2                !
 ! R5    R(5,6)                  1.0635         estimate D2E/DX2                !
 ! R6    R(5,7)                  1.0887         estimate D2E/DX2                !
 ! R7    R(5,8)                  1.4487         estimate D2E/DX2                !
 ! R8    R(8,9)                  1.0765         estimate D2E/DX2                !
 ! R9    R(8,10)                 1.4088         estimate D2E/DX2                !
 ! R10   R(8,11)                 1.4883         estimate D2E/DX2                !
 ! R11   R(10,12)                0.9488         estimate D2E/DX2                !
 ! R12   R(11,13)                1.0897         estimate D2E/DX2                !
 ! R13   R(11,14)                1.0777         estimate D2E/DX2                !
 ! R14   R(11,15)                1.5448         estimate D2E/DX2                !
 ! R15   R(15,16)                1.1416         estimate D2E/DX2                !
 ! R16   R(15,17)                1.0946         estimate D2E/DX2                !
 ! R17   R(15,18)                1.0881         estimate D2E/DX2                !
 ! A1    A(2,1,3)              106.9287         estimate D2E/DX2                !
 ! A2    A(2,1,4)              110.4543         estimate D2E/DX2                !
 ! A3    A(2,1,5)              113.8678         estimate D2E/DX2                !
 ! A4    A(3,1,4)              104.7328         estimate D2E/DX2                !
 ! A5    A(3,1,5)              109.4535         estimate D2E/DX2                !
 ! A6    A(4,1,5)              110.9189         estimate D2E/DX2                !
 ! A7    A(1,5,6)              108.6798         estimate D2E/DX2                !
 ! A8    A(1,5,7)              110.3991         estimate D2E/DX2                !
 ! A9    A(1,5,8)              120.0989         estimate D2E/DX2                !
 ! A10   A(6,5,7)              106.1639         estimate D2E/DX2                !
 ! A11   A(6,5,8)               95.9347         estimate D2E/DX2                !
 ! A12   A(7,5,8)              113.5854         estimate D2E/DX2                !
 ! A13   A(5,8,9)              111.4935         estimate D2E/DX2                !
 ! A14   A(5,8,10)             113.6553         estimate D2E/DX2                !
 ! A15   A(5,8,11)             111.0282         estimate D2E/DX2                !
 ! A16   A(9,8,10)              97.0126         estimate D2E/DX2                !
 ! A17   A(9,8,11)             106.2699         estimate D2E/DX2                !
 ! A18   A(10,8,11)            116.258          estimate D2E/DX2                !
 ! A19   A(8,10,12)            107.1889         estimate D2E/DX2                !
 ! A20   A(8,11,13)            115.1041         estimate D2E/DX2                !
 ! A21   A(8,11,14)            104.7886         estimate D2E/DX2                !
 ! A22   A(8,11,15)            117.3432         estimate D2E/DX2                !
 ! A23   A(13,11,14)           110.6463         estimate D2E/DX2                !
 ! A24   A(13,11,15)           103.6574         estimate D2E/DX2                !
 ! A25   A(14,11,15)           104.8959         estimate D2E/DX2                !
 ! A26   A(11,15,16)           102.325          estimate D2E/DX2                !
 ! A27   A(11,15,17)           112.8382         estimate D2E/DX2                !
 ! A28   A(11,15,18)           110.5906         estimate D2E/DX2                !
 ! A29   A(16,15,17)           117.088          estimate D2E/DX2                !
 ! A30   A(16,15,18)           107.295          estimate D2E/DX2                !
 ! A31   A(17,15,18)           106.5724         estimate D2E/DX2                !
 ! D1    D(2,1,5,6)           -121.1921         estimate D2E/DX2                !
 ! D2    D(2,1,5,7)            122.7515         estimate D2E/DX2                !
 ! D3    D(2,1,5,8)            -12.4004         estimate D2E/DX2                !
 ! D4    D(3,1,5,6)            119.206          estimate D2E/DX2                !
 ! D5    D(3,1,5,7)              3.1496         estimate D2E/DX2                !
 ! D6    D(3,1,5,8)           -132.0023         estimate D2E/DX2                !
 ! D7    D(4,1,5,6)              4.1343         estimate D2E/DX2                !
 ! D8    D(4,1,5,7)           -111.922          estimate D2E/DX2                !
 ! D9    D(4,1,5,8)            112.926          estimate D2E/DX2                !
 ! D10   D(1,5,8,9)           -173.2721         estimate D2E/DX2                !
 ! D11   D(1,5,8,10)           -64.8667         estimate D2E/DX2                !
 ! D12   D(1,5,8,11)            68.436          estimate D2E/DX2                !
 ! D13   D(6,5,8,9)            -57.6491         estimate D2E/DX2                !
 ! D14   D(6,5,8,10)            50.7563         estimate D2E/DX2                !
 ! D15   D(6,5,8,11)          -175.941          estimate D2E/DX2                !
 ! D16   D(7,5,8,9)             52.886          estimate D2E/DX2                !
 ! D17   D(7,5,8,10)           161.2914         estimate D2E/DX2                !
 ! D18   D(7,5,8,11)           -65.4059         estimate D2E/DX2                !
 ! D19   D(5,8,10,12)           53.5574         estimate D2E/DX2                !
 ! D20   D(9,8,10,12)          170.7448         estimate D2E/DX2                !
 ! D21   D(11,8,10,12)         -77.204          estimate D2E/DX2                !
 ! D22   D(5,8,11,13)           26.7082         estimate D2E/DX2                !
 ! D23   D(5,8,11,14)          148.4712         estimate D2E/DX2                !
 ! D24   D(5,8,11,15)          -95.691          estimate D2E/DX2                !
 ! D25   D(9,8,11,13)          -94.6985         estimate D2E/DX2                !
 ! D26   D(9,8,11,14)           27.0646         estimate D2E/DX2                !
 ! D27   D(9,8,11,15)          142.9024         estimate D2E/DX2                !
 ! D28   D(10,8,11,13)         158.6955         estimate D2E/DX2                !
 ! D29   D(10,8,11,14)         -79.5414         estimate D2E/DX2                !
 ! D30   D(10,8,11,15)          36.2964         estimate D2E/DX2                !
 ! D31   D(8,11,15,16)        -162.3748         estimate D2E/DX2                !
 ! D32   D(8,11,15,17)          70.915          estimate D2E/DX2                !
 ! D33   D(8,11,15,18)         -48.3485         estimate D2E/DX2                !
 ! D34   D(13,11,15,16)         69.5151         estimate D2E/DX2                !
 ! D35   D(13,11,15,17)        -57.1951         estimate D2E/DX2                !
 ! D36   D(13,11,15,18)       -176.4586         estimate D2E/DX2                !
 ! D37   D(14,11,15,16)        -46.5958         estimate D2E/DX2                !
 ! D38   D(14,11,15,17)       -173.306          estimate D2E/DX2                !
 ! D39   D(14,11,15,18)         67.4305         estimate D2E/DX2                !
 --------------------------------------------------------------------------------
 Trust Radius=3.00D-01 FncErr=1.00D-07 GrdErr=1.00D-07 EigMax=2.50D+02 EigMin=1.00D-04
 Number of steps in this run=     97 maximum allowed number of steps=    108.
 GradGradGradGradGradGradGradGradGradGradGradGradGradGradGradGradGradGrad

 Leave Link  103 at Wed Sep  7 15:35:16 2022, MaxMem=   131072000 cpu:               0.0 elap:               0.0
 (Enter /opt/g16/l202.exe)
                          Input orientation:                          
 ---------------------------------------------------------------------
 Center     Atomic      Atomic             Coordinates (Angstroms)
 Number     Number       Type             X           Y           Z
 ---------------------------------------------------------------------
      1          6           0        9.784000    5.219000    8.712000
      2          1           0       10.214000    4.522000    7.937000
      3          1           0       10.410000    5.139000    9.589000
      4          1           0        9.891000    6.292000    8.380000
      5          6           0        8.316000    4.902000    9.095000
      6          1           0        7.718000    5.757000    8.889000
      7          1           0        8.233000    4.725000   10.166000
      8          6           0        7.539000    3.979000    8.293000
      9          1           0        6.511000    3.949000    8.611000
     10          8           0        7.300000    4.433000    6.981000
     11          6           0        8.057000    2.590000    8.425000
     12          1           0        8.142000    4.651000    6.602000
     13          1           0        8.570000    2.375000    9.362000
     14          1           0        7.189000    1.961000    8.314000
     15          6           0        9.046000    2.096000    7.346000
     16          1           0        9.008000    0.963000    7.481000
     17          1           0       10.028000    2.574000    7.419000
     18          1           0        8.667000    2.316000    6.350000
 ---------------------------------------------------------------------
                    Distance matrix (angstroms):
                    1          2          3          4          5
     1  C    0.000000
     2  H    1.127534   0.000000
     3  H    1.080465   1.774319   0.000000
     4  H    1.128274   1.852965   1.749414   0.000000
     5  C    1.549904   2.255608   2.164496   2.218998   0.000000
     6  H    2.142225   2.943050   2.849349   2.295046   1.063515
     7  H    2.182602   2.988982   2.289903   2.897283   1.088696
     8  C    2.598689   2.752673   3.356763   3.299915   1.448745
     9  H    3.512212   3.807206   4.192229   4.119152   2.097734
    10  O    3.128005   3.068103   4.119733   3.482293   2.391906
    11  C    3.158566   2.936566   3.659085   4.131632   2.421017
    12  H    2.733293   2.468208   3.782081   2.985493   2.511638
    13  H    3.159847   3.056627   3.328186   4.248794   2.553729
    14  H    4.184136   3.981391   4.701080   5.105166   3.244930
    15  C    3.487654   2.756625   4.018880   4.403362   3.386080
    16  H    4.497897   3.785347   4.883466   5.475959   4.312723
    17  H    2.954219   2.024259   3.381427   3.842631   3.340584
    18  H    3.905655   3.127014   4.636647   4.629001   3.787561
                    6          7          8          9         10
     6  H    0.000000
     7  H    1.720749   0.000000
     8  C    1.883757   2.132201   0.000000
     9  H    2.191574   2.446525   1.076479   0.000000
    10  O    2.359696   3.331663   1.408752   1.874480   0.000000
    11  C    3.218712   2.760486   1.488311   2.066783   2.460657
    12  H    2.575535   3.565929   1.916944   2.681240   0.948751
    13  H    3.519596   2.506489   2.185987   2.698325   3.393733
    14  H    3.875575   3.487053   2.048235   2.121329   2.810693
    15  C    4.188956   3.940179   2.591051   3.385271   2.939951
    16  H    5.160329   4.686416   3.451603   4.053160   3.899765
    17  H    4.198629   3.923625   2.988816   3.959896   3.330121
    18  H    4.380366   4.533596   2.795211   3.525216   2.597795
                   11         12         13         14         15
    11  C    0.000000
    12  H    2.752867   0.000000
    13  H    1.089662   3.602910   0.000000
    14  H    1.077676   3.327950   1.782375   0.000000
    15  C    1.544797   2.810476   2.090137   2.098499   0.000000
    16  H    2.107763   3.888951   2.392436   2.235767   1.141647
    17  H    2.212947   2.922056   2.437337   3.039196   1.094594
    18  H    2.180092   2.406523   3.014139   2.483507   1.088144
                   16         17         18
    16  H    0.000000
    17  H    1.907764   0.000000
    18  H    1.796121   1.749756   0.000000
 Stoichiometry    C5H12O
 Framework group  C1[X(C5H12O)]
 Deg. of freedom    48
 Full point group                 C1      NOp   1
 Largest Abelian subgroup         C1      NOp   1
 Largest concise Abelian subgroup C1      NOp   1
                         Standard orientation:                         
 ---------------------------------------------------------------------
 Center     Atomic      Atomic             Coordinates (Angstroms)
 Number     Number       Type             X           Y           Z
 ---------------------------------------------------------------------
      1          6           0        1.699393   -1.040578   -0.384154
      2          1           0        0.850038   -1.427551   -1.016753
      3          1           0        2.070876   -1.877311    0.189678
      4          1           0        2.567214   -0.731542   -1.035603
      5          6           0        1.293691    0.105286    0.577409
      6          1           0        1.885024    0.961096    0.356096
      7          1           0        1.523592   -0.163968    1.606926
      8          6           0        0.012770    0.764225    0.422800
      9          1           0       -0.078142    1.609581    1.083039
     10          8           0       -0.114496    1.475866   -0.786313
     11          6           0       -1.105815   -0.155424    0.766432
     12          1           0        0.090734    0.872894   -1.489473
     13          1           0       -0.854438   -0.944891    1.474185
     14          1           0       -1.874436    0.484354    1.168044
     15          6           0       -1.785838   -0.911202   -0.396652
     16          1           0       -2.770375   -1.247179    0.073629
     17          1           0       -1.148310   -1.689447   -0.827964
     18          1           0       -2.031019   -0.226803   -1.206307
 ---------------------------------------------------------------------
 Rotational constants (GHZ):           4.1457680           2.7531327           2.2522895
 Leave Link  202 at Wed Sep  7 15:35:16 2022, MaxMem=   131072000 cpu:               0.0 elap:               0.0
 (Enter /opt/g16/l301.exe)
 Standard basis: VSTO-6G (5D, 7F)
 Ernie: Thresh=  0.10000D-02 Tol=  0.10000D-05 Strict=F.
  NNHCO=     0 NNPyr=     0 NCTC=     0               EPep=         0.000000000
    EC=       131.500293579  ECS=         2.295399270   EG=         0.570201773
   EHC=         0.000000000  EAt=       -36.836480110  AtH=         2.452923921
 EPDDG=         0.000000000  ECC=       134.365894622 EAtT=        39.289404030
 There are    36 symmetry adapted cartesian basis functions of A   symmetry.
 There are    36 symmetry adapted basis functions of A   symmetry.
    36 basis functions,   216 primitive gaussians,    36 cartesian basis functions
    19 alpha electrons       19 beta electrons
       nuclear repulsion energy       173.6552986529 Hartrees.
 IExCor=    0 DFT=F Ex=HF Corr=None ExCW=0 ScaHFX=  1.000000
 ScaDFX=  1.000000  1.000000  1.000000  1.000000 ScalE2=  1.000000  1.000000
 IRadAn=      5 IRanWt=     -1 IRanGd=            0 ICorTp=0 IEmpDi=  4
 Integral buffers will be    131072 words long.
 Regular integral format.
 Two-electron integral symmetry is turned off.
 Leave Link  301 at Wed Sep  7 15:35:16 2022, MaxMem=   131072000 cpu:               0.0 elap:               0.0
 (Enter /opt/g16/l302.exe)
 Do NDO integrals.
 NPDir=0 NMtPBC=     1 NCelOv=     1 NCel=       1 NClECP=     1 NCelD=      1
         NCelK=      1 NCelE2=     1 NClLst=     1 CellRange=     0.0.
 One-electron integrals computed using PRISM.
 NBasis=    36 RedAO= F EigKep=  0.00D+00  NBF=    36
 NBsUse=    36 1.00D-04 EigRej=  0.00D+00 NBFU=    36
 Leave Link  302 at Wed Sep  7 15:35:16 2022, MaxMem=   131072000 cpu:               0.0 elap:               0.0
 (Enter /opt/g16/l303.exe)
 DipDrv:  MaxL=1.
 Leave Link  303 at Wed Sep  7 15:35:16 2022, MaxMem=   131072000 cpu:               0.0 elap:               0.0
 (Enter /opt/g16/l401.exe)
 Simple Huckel Guess.
 JPrj=0 DoOrth=F DoCkMO=F.
 Leave Link  401 at Wed Sep  7 15:35:16 2022, MaxMem=   131072000 cpu:               0.0 elap:               0.0
 (Enter /opt/g16/l502.exe)
 Keep J ints in memory in canonical form, NReq=862161.
 FoFCou: FMM=F IPFlag=           0 FMFlag=           0 FMFlg1=           0
         NFxFlg=           0 DoJE=F BraDBF=F KetDBF=F FulRan=T
         wScrn=  0.000000 ICntrl=       600 IOpCl=  2 I1Cent=           0 NGrid=           0
         NMat0=    1 NMatS0=     72 NMatT0=    0 NMatD0=    1 NMtDS0=    0 NMtDT0=    0
 Symmetry not used in FoFCou.
 Two-electron integral symmetry not used.
 Closed shell SCF:
 Using DIIS extrapolation, IDIIS=  1040.
 Overlap will be assumed to be unity.
 NGot=   131072000 LenX=   131006778 LenY=   131005041
 Requested convergence on RMS density matrix=1.00D-08 within 128 cycles.
 Requested convergence on MAX density matrix=1.00D-06.
 Requested convergence on             energy=1.00D-06.
 No special actions if energy rises.

 Cycle   1  Pass 1  IDiag  1:
 E= 0.200443486991333    
 DIIS: error= 7.20D-02 at cycle   1 NSaved=   1.
 NSaved= 1 IEnMin= 1 EnMin= 0.200443486991333     IErMin= 1 ErrMin= 7.20D-02
 ErrMax= 7.20D-02  0.00D+00 EMaxC= 1.00D-01 BMatC= 1.09D-01 BMatP= 1.09D-01
 IDIUse=3 WtCom= 2.80D-01 WtEn= 7.20D-01
 Coeff-Com:  0.100D+01
 Coeff-En:   0.100D+01
 Coeff:      0.100D+01
 GapD=    2.000 DampG=2.000 DampE=0.500 DampFc=1.0000 IDamp=-1.
 RMSDP=1.28D-02 MaxDP=1.53D-01              OVMax= 0.00D+00

 Cycle   2  Pass 1  IDiag  1:
 E=-0.609254532250532E-01 Delta-E=       -0.261368940216 Rises=F Damp=F
 DIIS: error= 1.72D-02 at cycle   2 NSaved=   2.
 NSaved= 2 IEnMin= 2 EnMin=-0.609254532250532E-01 IErMin= 2 ErrMin= 1.72D-02
 ErrMax= 1.72D-02  0.00D+00 EMaxC= 1.00D-01 BMatC= 7.22D-03 BMatP= 1.09D-01
 IDIUse=3 WtCom= 8.28D-01 WtEn= 1.72D-01
 Coeff-Com: -0.306D+00 0.131D+01
 Coeff-En:   0.000D+00 0.100D+01
 Coeff:     -0.254D+00 0.125D+01
 RMSDP=4.73D-03 MaxDP=6.24D-02 DE=-2.61D-01 OVMax= 0.00D+00

 Cycle   3  Pass 1  IDiag  3:
 E=-0.836217200092335E-01 Delta-E=       -0.022696266784 Rises=F Damp=F
 DIIS: error= 4.19D-03 at cycle   3 NSaved=   3.
 NSaved= 3 IEnMin= 3 EnMin=-0.836217200092335E-01 IErMin= 3 ErrMin= 4.19D-03
 ErrMax= 4.19D-03  0.00D+00 EMaxC= 1.00D-01 BMatC= 2.47D-04 BMatP= 7.22D-03
 IDIUse=3 WtCom= 9.58D-01 WtEn= 4.19D-02
 Coeff-Com:  0.147D+00-0.726D+00 0.158D+01
 Coeff-En:   0.000D+00 0.000D+00 0.100D+01
 Coeff:      0.141D+00-0.695D+00 0.155D+01
 Gap=     0.523 Goal=   None    Shift=    0.000
 RMSDP=1.43D-03 MaxDP=2.64D-02 DE=-2.27D-02 OVMax= 9.89D-03

 Cycle   4  Pass 1  IDiag  3:
 E=-0.849425823840306E-01 Delta-E=       -0.001320862375 Rises=F Damp=F
 DIIS: error= 8.37D-04 at cycle   4 NSaved=   4.
 NSaved= 4 IEnMin= 4 EnMin=-0.849425823840306E-01 IErMin= 4 ErrMin= 8.37D-04
 ErrMax= 8.37D-04  0.00D+00 EMaxC= 1.00D-01 BMatC= 9.76D-06 BMatP= 2.47D-04
 IDIUse=3 WtCom= 9.92D-01 WtEn= 8.37D-03
 Coeff-Com: -0.314D-01 0.171D+00-0.554D+00 0.141D+01
 Coeff-En:   0.000D+00 0.000D+00 0.000D+00 0.100D+01
 Coeff:     -0.311D-01 0.170D+00-0.549D+00 0.141D+01
 Gap=     0.523 Goal=   None    Shift=    0.000
 RMSDP=3.29D-04 MaxDP=5.82D-03 DE=-1.32D-03 OVMax= 2.32D-03

 Cycle   5  Pass 1  IDiag  3:
 E=-0.850000488664193E-01 Delta-E=       -0.000057466482 Rises=F Damp=F
 DIIS: error= 1.09D-04 at cycle   5 NSaved=   5.
 NSaved= 5 IEnMin= 5 EnMin=-0.850000488664193E-01 IErMin= 5 ErrMin= 1.09D-04
 ErrMax= 1.09D-04  0.00D+00 EMaxC= 1.00D-01 BMatC= 3.27D-07 BMatP= 9.76D-06
 IDIUse=3 WtCom= 9.99D-01 WtEn= 1.09D-03
 Coeff-Com:  0.216D-02-0.151D-01 0.816D-01-0.380D+00 0.131D+01
 Coeff-En:   0.000D+00 0.000D+00 0.000D+00 0.000D+00 0.100D+01
 Coeff:      0.216D-02-0.151D-01 0.815D-01-0.380D+00 0.131D+01
 Gap=     0.523 Goal=   None    Shift=    0.000
 RMSDP=5.44D-05 MaxDP=5.77D-04 DE=-5.75D-05 OVMax= 3.51D-04

 Cycle   6  Pass 1  IDiag  3:
 E=-0.850018735165463E-01 Delta-E=       -0.000001824650 Rises=F Damp=F
 DIIS: error= 3.25D-05 at cycle   6 NSaved=   6.
 NSaved= 6 IEnMin= 6 EnMin=-0.850018735165463E-01 IErMin= 6 ErrMin= 3.25D-05
 ErrMax= 3.25D-05  0.00D+00 EMaxC= 1.00D-01 BMatC= 2.44D-08 BMatP= 3.27D-07
 IDIUse=1 WtCom= 1.00D+00 WtEn= 0.00D+00
 Coeff-Com: -0.332D-03 0.339D-02-0.269D-01 0.154D+00-0.717D+00 0.159D+01
 Coeff:     -0.332D-03 0.339D-02-0.269D-01 0.154D+00-0.717D+00 0.159D+01
 Gap=     0.523 Goal=   None    Shift=    0.000
 RMSDP=1.66D-05 MaxDP=2.37D-04 DE=-1.82D-06 OVMax= 1.39D-04

 Cycle   7  Pass 1  IDiag  3:
 E=-0.850020245911480E-01 Delta-E=       -0.000000151075 Rises=F Damp=F
 DIIS: error= 5.62D-06 at cycle   7 NSaved=   7.
 NSaved= 7 IEnMin= 7 EnMin=-0.850020245911480E-01 IErMin= 7 ErrMin= 5.62D-06
 ErrMax= 5.62D-06  0.00D+00 EMaxC= 1.00D-01 BMatC= 1.50D-09 BMatP= 2.44D-08
 IDIUse=1 WtCom= 1.00D+00 WtEn= 0.00D+00
 Coeff-Com:  0.151D-03-0.159D-02 0.130D-01-0.756D-01 0.370D+00-0.977D+00
 Coeff-Com:  0.167D+01
 Coeff:      0.151D-03-0.159D-02 0.130D-01-0.756D-01 0.370D+00-0.977D+00
 Coeff:      0.167D+01
 Gap=     0.523 Goal=   None    Shift=    0.000
 RMSDP=4.47D-06 MaxDP=5.82D-05 DE=-1.51D-07 OVMax= 3.99D-05

 Cycle   8  Pass 1  IDiag  3:
 E=-0.850020341863171E-01 Delta-E=       -0.000000009595 Rises=F Damp=F
 DIIS: error= 9.40D-07 at cycle   8 NSaved=   8.
 NSaved= 8 IEnMin= 8 EnMin=-0.850020341863171E-01 IErMin= 8 ErrMin= 9.40D-07
 ErrMax= 9.40D-07  0.00D+00 EMaxC= 1.00D-01 BMatC= 6.92D-11 BMatP= 1.50D-09
 IDIUse=1 WtCom= 1.00D+00 WtEn= 0.00D+00
 Coeff-Com: -0.631D-04 0.730D-03-0.625D-02 0.367D-01-0.183D+00 0.499D+00
 Coeff-Com: -0.980D+00 0.163D+01
 Coeff:     -0.631D-04 0.730D-03-0.625D-02 0.367D-01-0.183D+00 0.499D+00
 Coeff:     -0.980D+00 0.163D+01
 Gap=     0.523 Goal=   None    Shift=    0.000
 RMSDP=9.36D-07 MaxDP=8.08D-06 DE=-9.60D-09 OVMax= 6.66D-06

 Cycle   9  Pass 1  IDiag  3:
 E=-0.850020346359202E-01 Delta-E=       -0.000000000450 Rises=F Damp=F
 DIIS: error= 2.21D-07 at cycle   9 NSaved=   9.
 NSaved= 9 IEnMin= 9 EnMin=-0.850020346359202E-01 IErMin= 9 ErrMin= 2.21D-07
 ErrMax= 2.21D-07  0.00D+00 EMaxC= 1.00D-01 BMatC= 3.92D-12 BMatP= 6.92D-11
 IDIUse=1 WtCom= 1.00D+00 WtEn= 0.00D+00
 Coeff-Com:  0.190D-04-0.263D-03 0.245D-02-0.147D-01 0.741D-01-0.206D+00
 Coeff-Com:  0.417D+00-0.863D+00 0.159D+01
 Coeff:      0.190D-04-0.263D-03 0.245D-02-0.147D-01 0.741D-01-0.206D+00
 Coeff:      0.417D+00-0.863D+00 0.159D+01
 Gap=     0.523 Goal=   None    Shift=    0.000
 RMSDP=2.35D-07 MaxDP=1.77D-06 DE=-4.50D-10 OVMax= 1.36D-06

 Cycle  10  Pass 1  IDiag  3:
 E=-0.850020346615565E-01 Delta-E=       -0.000000000026 Rises=F Damp=F
 DIIS: error= 4.61D-08 at cycle  10 NSaved=  10.
 NSaved=10 IEnMin=10 EnMin=-0.850020346615565E-01 IErMin=10 ErrMin= 4.61D-08
 ErrMax= 4.61D-08  0.00D+00 EMaxC= 1.00D-01 BMatC= 1.48D-13 BMatP= 3.92D-12
 IDIUse=1 WtCom= 1.00D+00 WtEn= 0.00D+00
 Coeff-Com: -0.640D-05 0.908D-04-0.855D-03 0.516D-02-0.261D-01 0.727D-01
 Coeff-Com: -0.148D+00 0.317D+00-0.712D+00 0.149D+01
 Coeff:     -0.640D-05 0.908D-04-0.855D-03 0.516D-02-0.261D-01 0.727D-01
 Coeff:     -0.148D+00 0.317D+00-0.712D+00 0.149D+01
 Gap=     0.523 Goal=   None    Shift=    0.000
 RMSDP=4.29D-08 MaxDP=3.29D-07 DE=-2.56D-11 OVMax= 2.93D-07

 Cycle  11  Pass 1  IDiag  3:
 E=-0.850020346622671E-01 Delta-E=       -0.000000000001 Rises=F Damp=F
 DIIS: error= 1.11D-08 at cycle  11 NSaved=  11.
 NSaved=11 IEnMin=11 EnMin=-0.850020346622671E-01 IErMin=11 ErrMin= 1.11D-08
 ErrMax= 1.11D-08  0.00D+00 EMaxC= 1.00D-01 BMatC= 7.04D-15 BMatP= 1.48D-13
 IDIUse=1 WtCom= 1.00D+00 WtEn= 0.00D+00
 Coeff-Com:  0.181D-05-0.252D-04 0.236D-03-0.142D-02 0.720D-02-0.201D-01
 Coeff-Com:  0.411D-01-0.877D-01 0.211D+00-0.591D+00 0.144D+01
 Coeff:      0.181D-05-0.252D-04 0.236D-03-0.142D-02 0.720D-02-0.201D-01
 Coeff:      0.411D-01-0.877D-01 0.211D+00-0.591D+00 0.144D+01
 Gap=     0.523 Goal=   None    Shift=    0.000
 RMSDP=8.59D-09 MaxDP=8.33D-08 DE=-7.11D-13 OVMax= 4.59D-08

 Cycle  12  Pass 2  IDiag  1:
 SCF Done:  E(RPM3) = -0.850020346623E-01 A.U. after   12 cycles
            NFock= 11  Conv=0.86D-08     -V/T= 0.9986
 KE=-5.975530501984D+01 PE=-2.614336904896D+02 EE= 1.474486948219D+02
 Leave Link  502 at Wed Sep  7 15:35:16 2022, MaxMem=   131072000 cpu:               0.0 elap:               0.0
 (Enter /opt/g16/l601.exe)
 Copying SCF densities to generalized density rwf, IOpCl= 0 IROHF=0.

 **********************************************************************

            Population analysis using the SCF density.

 **********************************************************************

 Orbital symmetries:
       Occupied  (A) (A) (A) (A) (A) (A) (A) (A) (A) (A) (A) (A)
                 (A) (A) (A) (A) (A) (A) (A)
       Virtual   (A) (A) (A) (A) (A) (A) (A) (A) (A) (A) (A) (A)
                 (A) (A) (A) (A) (A)
 The electronic state is 1-A.
 Alpha  occ. eigenvalues --   -1.51889  -1.24860  -1.18278  -0.99984  -0.82471
 Alpha  occ. eigenvalues --   -0.73839  -0.66258  -0.60397  -0.59046  -0.57461
 Alpha  occ. eigenvalues --   -0.52516  -0.51339  -0.49115  -0.48580  -0.46674
 Alpha  occ. eigenvalues --   -0.45369  -0.43477  -0.42548  -0.40479
 Alpha virt. eigenvalues --    0.11785   0.12113   0.12927   0.13494   0.14153
 Alpha virt. eigenvalues --    0.14298   0.14650   0.15129   0.15443   0.15732
 Alpha virt. eigenvalues --    0.16494   0.16958   0.17285   0.17963   0.18317
 Alpha virt. eigenvalues --    0.19203   0.21530
          Condensed to atoms (all electrons):
               1          2          3          4          5          6
     1  C    4.105702   0.000000   0.000000   0.000000   0.000000   0.000000
     2  H    0.000000   0.950325   0.000000   0.000000   0.000000   0.000000
     3  H    0.000000   0.000000   0.965223   0.000000   0.000000   0.000000
     4  H    0.000000   0.000000   0.000000   0.958972   0.000000   0.000000
     5  C    0.000000   0.000000   0.000000   0.000000   4.150640   0.000000
     6  H    0.000000   0.000000   0.000000   0.000000   0.000000   0.949564
     7  H    0.000000   0.000000   0.000000   0.000000   0.000000   0.000000
     8  C    0.000000   0.000000   0.000000   0.000000   0.000000   0.000000
     9  H    0.000000   0.000000   0.000000   0.000000   0.000000   0.000000
    10  O    0.000000   0.000000   0.000000   0.000000   0.000000   0.000000
    11  C    0.000000   0.000000   0.000000   0.000000   0.000000   0.000000
    12  H    0.000000   0.000000   0.000000   0.000000   0.000000   0.000000
    13  H    0.000000   0.000000   0.000000   0.000000   0.000000   0.000000
    14  H    0.000000   0.000000   0.000000   0.000000   0.000000   0.000000
    15  C    0.000000   0.000000   0.000000   0.000000   0.000000   0.000000
    16  H    0.000000   0.000000   0.000000   0.000000   0.000000   0.000000
    17  H    0.000000   0.000000   0.000000   0.000000   0.000000   0.000000
    18  H    0.000000   0.000000   0.000000   0.000000   0.000000   0.000000
               7          8          9         10         11         12
     1  C    0.000000   0.000000   0.000000   0.000000   0.000000   0.000000
     2  H    0.000000   0.000000   0.000000   0.000000   0.000000   0.000000
     3  H    0.000000   0.000000   0.000000   0.000000   0.000000   0.000000
     4  H    0.000000   0.000000   0.000000   0.000000   0.000000   0.000000
     5  C    0.000000   0.000000   0.000000   0.000000   0.000000   0.000000
     6  H    0.000000   0.000000   0.000000   0.000000   0.000000   0.000000
     7  H    0.929166   0.000000   0.000000   0.000000   0.000000   0.000000
     8  C    0.000000   3.916031   0.000000   0.000000   0.000000   0.000000
     9  H    0.000000   0.000000   0.934808   0.000000   0.000000   0.000000
    10  O    0.000000   0.000000   0.000000   6.303719   0.000000   0.000000
    11  C    0.000000   0.000000   0.000000   0.000000   4.151325   0.000000
    12  H    0.000000   0.000000   0.000000   0.000000   0.000000   0.817127
    13  H    0.000000   0.000000   0.000000   0.000000   0.000000   0.000000
    14  H    0.000000   0.000000   0.000000   0.000000   0.000000   0.000000
    15  C    0.000000   0.000000   0.000000   0.000000   0.000000   0.000000
    16  H    0.000000   0.000000   0.000000   0.000000   0.000000   0.000000
    17  H    0.000000   0.000000   0.000000   0.000000   0.000000   0.000000
    18  H    0.000000   0.000000   0.000000   0.000000   0.000000   0.000000
              13         14         15         16         17         18
     1  C    0.000000   0.000000   0.000000   0.000000   0.000000   0.000000
     2  H    0.000000   0.000000   0.000000   0.000000   0.000000   0.000000
     3  H    0.000000   0.000000   0.000000   0.000000   0.000000   0.000000
     4  H    0.000000   0.000000   0.000000   0.000000   0.000000   0.000000
     5  C    0.000000   0.000000   0.000000   0.000000   0.000000   0.000000
     6  H    0.000000   0.000000   0.000000   0.000000   0.000000   0.000000
     7  H    0.000000   0.000000   0.000000   0.000000   0.000000   0.000000
     8  C    0.000000   0.000000   0.000000   0.000000   0.000000   0.000000
     9  H    0.000000   0.000000   0.000000   0.000000   0.000000   0.000000
    10  O    0.000000   0.000000   0.000000   0.000000   0.000000   0.000000
    11  C    0.000000   0.000000   0.000000   0.000000   0.000000   0.000000
    12  H    0.000000   0.000000   0.000000   0.000000   0.000000   0.000000
    13  H    0.932550   0.000000   0.000000   0.000000   0.000000   0.000000
    14  H    0.000000   0.948269   0.000000   0.000000   0.000000   0.000000
    15  C    0.000000   0.000000   4.122089   0.000000   0.000000   0.000000
    16  H    0.000000   0.000000   0.000000   0.953297   0.000000   0.000000
    17  H    0.000000   0.000000   0.000000   0.000000   0.951426   0.000000
    18  H    0.000000   0.000000   0.000000   0.000000   0.000000   0.959767
 Mulliken charges:
               1
     1  C   -0.105702
     2  H    0.049675
     3  H    0.034777
     4  H    0.041028
     5  C   -0.150640
     6  H    0.050436
     7  H    0.070834
     8  C    0.083969
     9  H    0.065192
    10  O   -0.303719
    11  C   -0.151325
    12  H    0.182873
    13  H    0.067450
    14  H    0.051731
    15  C   -0.122089
    16  H    0.046703
    17  H    0.048574
    18  H    0.040233
 Sum of Mulliken charges =  -0.00000
 Mulliken charges with hydrogens summed into heavy atoms:
               1
     1  C    0.019778
     5  C   -0.029370
     8  C    0.149161
    10  O   -0.120846
    11  C   -0.032144
    15  C    0.013421
 Charge=             -0.0000 electrons
 Dipole moment (field-independent basis, Debye):
    X=              0.4466    Y=             -1.4574    Z=              0.1919  Tot=              1.5363
 N-N= 1.736552986529D+02 E-N=-2.614336906191D+02  KE=-5.975530501984D+01
 Leave Link  601 at Wed Sep  7 15:35:16 2022, MaxMem=   131072000 cpu:               0.0 elap:               0.0
 (Enter /opt/g16/l701.exe)
 ... and contract with generalized density number  0.
 Compute integral first derivatives.
 Leave Link  701 at Wed Sep  7 15:35:16 2022, MaxMem=   131072000 cpu:               0.0 elap:               0.0
 (Enter /opt/g16/l702.exe)
 L702 exits ... SP integral derivatives will be done elsewhere.
 Leave Link  702 at Wed Sep  7 15:35:16 2022, MaxMem=   131072000 cpu:               0.0 elap:               0.0
 (Enter /opt/g16/l703.exe)
 Integral derivatives from FoFJK, PRISM(SPDF).
 Compute integral first derivatives, UseDBF=F ICtDFT=           0.
 Calling FoFJK, ICntrl=      2127 FMM=F ISym2X=0 I1Cent= 0 IOpClX= 0 NMat=1 NMatS=1 NMatT=0.
 FoFJK:  IHMeth= 9 ICntrl=    2127 DoSepK=F KAlg= 0 I1Cent=           0 FoldK=F
 IRaf=         0 NMat=       1 IRICut=       1 DoRegI=T DoRafI=F ISym2E= 0 IDoP0=3 IntGTp=3.
 FoFCou: FMM=F IPFlag=           0 FMFlag=      100000 FMFlg1=         800
         NFxFlg=           0 DoJE=F BraDBF=F KetDBF=F FulRan=T
         wScrn=  0.000000 ICntrl=      2127 IOpCl=  0 I1Cent=           0 NGrid=           0
         NMat0=    1 NMatS0=      1 NMatT0=    0 NMatD0=    1 NMtDS0=    0 NMtDT0=    0
 Symmetry not used in FoFCou.
 Leave Link  703 at Wed Sep  7 15:35:16 2022, MaxMem=   131072000 cpu:               0.0 elap:               0.0
 (Enter /opt/g16/l716.exe)
 Dipole        = 1.75712809D-01-5.73373672D-01 7.55076606D-02
 ***** Axes restored to original set *****
 -------------------------------------------------------------------
 Center     Atomic                   Forces (Hartrees/Bohr)
 Number     Number              X              Y              Z
 -------------------------------------------------------------------
      1        6          -0.013938032   -0.000074805   -0.011847396
      2        1          -0.009240151    0.011202605    0.009996055
      3        1           0.007559133   -0.002887188    0.007830078
      4        1          -0.002154230   -0.019810271    0.000002510
      5        6           0.049069818    0.046150743    0.014263795
      6        1          -0.009797408    0.040583007    0.006425838
      7        1           0.001566540   -0.007871666    0.011401495
      8        6          -0.007978410   -0.025704047   -0.028287820
      9        1          -0.026846811    0.000254041    0.015100170
     10        8           0.004714387   -0.001049997   -0.012289889
     11        6           0.030302663   -0.031037966   -0.034236299
     12        1           0.001520801   -0.000674698   -0.002890994
     13        1          -0.002742634    0.002820038    0.014011475
     14        1          -0.014308222   -0.015602164    0.005563908
     15        6          -0.024847641   -0.014473964    0.016425708
     16        1           0.014942647    0.024670844   -0.008161875
     17        1           0.002794042   -0.005185045    0.003593903
     18        1          -0.000616490   -0.001309466   -0.006900662
 -------------------------------------------------------------------
 Cartesian Forces:  Max     0.049069818 RMS     0.017419268
 Leave Link  716 at Wed Sep  7 15:35:16 2022, MaxMem=   131072000 cpu:               0.0 elap:               0.0
 (Enter /opt/g16/l103.exe)

 GradGradGradGradGradGradGradGradGradGradGradGradGradGradGradGradGradGrad
 Berny optimization.
 FormGI is forming the generalized inverse of G from B-inverse, IUseBI=4.
 Internal  Forces:  Max     0.076319145 RMS     0.013325335
 Search for a local minimum.
 Step number   1 out of a maximum of   97
 All quantities printed in internal units (Hartrees-Bohrs-Radians)
 RMS Force = .13325D-01 SwitMx=.10000D-02 MixMth= 1
 Mixed Optimization -- RFO/linear search
 Second derivative matrix not updated -- first step.
 ITU=  0
     Eigenvalues ---    0.00230   0.00230   0.00921   0.01444   0.01576
     Eigenvalues ---    0.03041   0.03387   0.04058   0.04984   0.05022
     Eigenvalues ---    0.05106   0.05347   0.05367   0.05686   0.06272
     Eigenvalues ---    0.07846   0.09047   0.09756   0.12680   0.13400
     Eigenvalues ---    0.16000   0.16000   0.16000   0.16000   0.16000
     Eigenvalues ---    0.16000   0.16000   0.18151   0.21133   0.22003
     Eigenvalues ---    0.22140   0.27659   0.28098   0.29467   0.30739
     Eigenvalues ---    0.30812   0.33635   0.34287   0.34852   0.34964
     Eigenvalues ---    0.35028   0.35938   0.36277   0.36423   0.38062
     Eigenvalues ---    0.38410   0.44200   0.57965
 RFO step:  Lambda=-4.86613009D-02 EMin= 2.30000000D-03
 Linear search not attempted -- first point.
 Maximum step size (   0.300) exceeded in Quadratic search.
    -- Step size scaled by   0.807
 Iteration  1 RMS(Cart)=  0.07749704 RMS(Int)=  0.00328818
 Iteration  2 RMS(Cart)=  0.00384279 RMS(Int)=  0.00065582
 Iteration  3 RMS(Cart)=  0.00001179 RMS(Int)=  0.00065577
 Iteration  4 RMS(Cart)=  0.00000002 RMS(Int)=  0.00065577
 ITry= 1 IFail=0 DXMaxC= 3.09D-01 DCOld= 1.00D+10 DXMaxT= 3.00D-01 DXLimC= 3.00D+00 Rises=F
 Variable       Old X    -DE/DX   Delta X   Delta X   Delta X     New X
                                 (Linear)    (Quad)   (Total)
    R1        2.13073  -0.01732   0.00000  -0.03918  -0.03918   2.09155
    R2        2.04178   0.01095   0.00000   0.02166   0.02166   2.06344
    R3        2.13213  -0.01904   0.00000  -0.04317  -0.04317   2.08895
    R4        2.92889  -0.02068   0.00000  -0.05132  -0.05132   2.87758
    R5        2.00975   0.03689   0.00000   0.06936   0.06936   2.07912
    R6        2.05734   0.01238   0.00000   0.02508   0.02508   2.08242
    R7        2.73773   0.07632   0.00000   0.14235   0.14235   2.88008
    R8        2.03425   0.03009   0.00000   0.05883   0.05883   2.09308
    R9        2.66215   0.01252   0.00000   0.02060   0.02060   2.68276
   R10        2.81250   0.03850   0.00000   0.08072   0.08072   2.89322
   R11        1.79288   0.00235   0.00000   0.00302   0.00302   1.79590
   R12        2.05916   0.01020   0.00000   0.02073   0.02073   2.07989
   R13        2.03651   0.02006   0.00000   0.03935   0.03935   2.07586
   R14        2.91924  -0.00959   0.00000  -0.02349  -0.02349   2.89575
   R15        2.15740  -0.02595   0.00000  -0.06100  -0.06100   2.09640
   R16        2.06848   0.00048   0.00000   0.00099   0.00099   2.06948
   R17        2.05629   0.00627   0.00000   0.01268   0.01268   2.06897
    A1        1.86626   0.00063   0.00000   0.00270   0.00283   1.86909
    A2        1.92779  -0.00128   0.00000  -0.01483  -0.01507   1.91272
    A3        1.98737  -0.00490   0.00000  -0.02456  -0.02463   1.96274
    A4        1.82793   0.00143   0.00000   0.01725   0.01696   1.84490
    A5        1.91032   0.00318   0.00000   0.01813   0.01806   1.92838
    A6        1.93590   0.00151   0.00000   0.00537   0.00509   1.94099
    A7        1.89682  -0.00429   0.00000  -0.01173  -0.00918   1.88764
    A8        1.92683   0.00822   0.00000   0.00310   0.00057   1.92740
    A9        2.09612  -0.02229   0.00000  -0.06732  -0.06826   2.02786
   A10        1.85291  -0.00455   0.00000  -0.01085  -0.01137   1.84154
   A11        1.67438   0.02203   0.00000   0.11879   0.11960   1.79398
   A12        1.98244   0.00345   0.00000  -0.01077  -0.01338   1.96906
   A13        1.94593  -0.00479   0.00000  -0.01363  -0.01383   1.93209
   A14        1.98366   0.00120   0.00000  -0.00030  -0.00042   1.98324
   A15        1.93781   0.00841   0.00000   0.01995   0.01970   1.95750
   A16        1.69319   0.00533   0.00000   0.02920   0.02948   1.72267
   A17        1.85476   0.00099   0.00000   0.01172   0.01201   1.86677
   A18        2.02909  -0.01196   0.00000  -0.04542  -0.04528   1.98380
   A19        1.87080   0.00286   0.00000   0.01105   0.01105   1.88185
   A20        2.00895  -0.00576   0.00000  -0.04258  -0.04233   1.96661
   A21        1.82891   0.00736   0.00000   0.03719   0.03767   1.86657
   A22        2.04803  -0.01133   0.00000  -0.03069  -0.03081   2.01721
   A23        1.93114  -0.00453   0.00000  -0.02330  -0.02354   1.90760
   A24        1.80916   0.01075   0.00000   0.03637   0.03534   1.84450
   A25        1.83078   0.00380   0.00000   0.02612   0.02619   1.85697
   A26        1.78591   0.01899   0.00000   0.07265   0.07210   1.85801
   A27        1.96940  -0.00404   0.00000  -0.01996  -0.01971   1.94969
   A28        1.93017   0.00375   0.00000   0.01906   0.01844   1.94860
   A29        2.04357  -0.01226   0.00000  -0.05771  -0.05732   1.98625
   A30        1.87265  -0.00606   0.00000  -0.01233  -0.01389   1.85876
   A31        1.86004   0.00020   0.00000   0.00186   0.00196   1.86200
    D1       -2.11520  -0.00421   0.00000  -0.03341  -0.03364  -2.14884
    D2        2.14242  -0.00084   0.00000  -0.01527  -0.01507   2.12735
    D3       -0.21643   0.00855   0.00000   0.07302   0.07275  -0.14368
    D4        2.08054  -0.00406   0.00000  -0.03356  -0.03358   2.04696
    D5        0.05497  -0.00069   0.00000  -0.01543  -0.01501   0.03996
    D6       -2.30388   0.00870   0.00000   0.07286   0.07280  -2.23107
    D7        0.07216  -0.00853   0.00000  -0.06818  -0.06833   0.00383
    D8       -1.95341  -0.00515   0.00000  -0.05005  -0.04976  -2.00317
    D9        1.97093   0.00423   0.00000   0.03824   0.03805   2.00898
   D10       -3.02417  -0.00352   0.00000  -0.04702  -0.04591  -3.07008
   D11       -1.13214   0.00085   0.00000  -0.01943  -0.01823  -1.15037
   D12        1.19443  -0.00715   0.00000  -0.06595  -0.06483   1.12960
   D13       -1.00617  -0.00227   0.00000  -0.00553  -0.00647  -1.01264
   D14        0.88586   0.00211   0.00000   0.02206   0.02120   0.90707
   D15       -3.07075  -0.00590   0.00000  -0.02446  -0.02540  -3.09615
   D16        0.92303   0.00469   0.00000   0.03930   0.03904   0.96208
   D17        2.81507   0.00906   0.00000   0.06690   0.06672   2.88179
   D18       -1.14155   0.00106   0.00000   0.02038   0.02012  -1.12143
   D19        0.93475   0.00232   0.00000   0.00706   0.00725   0.94200
   D20        2.98006   0.00020   0.00000   0.00749   0.00770   2.98776
   D21       -1.34746   0.00047   0.00000   0.02303   0.02263  -1.32484
   D22        0.46615   0.00231   0.00000   0.02300   0.02346   0.48960
   D23        2.59131  -0.00158   0.00000  -0.00530  -0.00529   2.58602
   D24       -1.67012   0.00218   0.00000   0.03679   0.03646  -1.63366
   D25       -1.65280   0.00267   0.00000   0.02071   0.02101  -1.63179
   D26        0.47237  -0.00122   0.00000  -0.00758  -0.00774   0.46463
   D27        2.49412   0.00254   0.00000   0.03451   0.03401   2.52813
   D28        2.76976   0.00107   0.00000  -0.00097  -0.00048   2.76928
   D29       -1.38826  -0.00282   0.00000  -0.02926  -0.02923  -1.41749
   D30        0.63349   0.00094   0.00000   0.01283   0.01252   0.64601
   D31       -2.83398  -0.00757   0.00000  -0.06196  -0.06267  -2.89665
   D32        1.23770  -0.00315   0.00000  -0.02906  -0.02916   1.20854
   D33       -0.84384  -0.00331   0.00000  -0.03134  -0.03105  -0.87489
   D34        1.21327  -0.00091   0.00000  -0.01410  -0.01424   1.19902
   D35       -0.99824   0.00352   0.00000   0.01880   0.01927  -0.97897
   D36       -3.07978   0.00335   0.00000   0.01652   0.01738  -3.06240
   D37       -0.81325  -0.00187   0.00000  -0.01382  -0.01458  -0.82783
   D38       -3.02476   0.00256   0.00000   0.01908   0.01894  -3.00582
   D39        1.17688   0.00239   0.00000   0.01680   0.01705   1.19393
         Item               Value     Threshold  Converged?
 Maximum Force            0.076319     0.000450     NO 
 RMS     Force            0.013325     0.000300     NO 
 Maximum Displacement     0.309228     0.001800     NO 
 RMS     Displacement     0.077508     0.001200     NO 
 Predicted change in Energy=-2.676344D-02
 Lowest energy point so far.  Saving SCF results.
 GradGradGradGradGradGradGradGradGradGradGradGradGradGradGradGradGradGrad

 Leave Link  103 at Wed Sep  7 15:35:16 2022, MaxMem=   131072000 cpu:               0.0 elap:               0.0
 (Enter /opt/g16/l202.exe)
                          Input orientation:                          
 ---------------------------------------------------------------------
 Center     Atomic      Atomic             Coordinates (Angstroms)
 Number     Number       Type             X           Y           Z
 ---------------------------------------------------------------------
      1          6           0        9.761744    5.178278    8.706653
      2          1           0       10.085987    4.456148    7.933089
      3          1           0       10.424810    5.048900    9.564504
      4          1           0        9.935094    6.209184    8.347276
      5          6           0        8.310155    4.975595    9.119657
      6          1           0        7.771579    5.920636    8.954370
      7          1           0        8.241609    4.782802   10.202463
      8          6           0        7.507530    3.980373    8.290127
      9          1           0        6.450560    3.957894    8.620442
     10          8           0        7.304079    4.392553    6.946947
     11          6           0        8.046434    2.553227    8.420043
     12          1           0        8.154573    4.588248    6.570747
     13          1           0        8.543684    2.373620    9.385379
     14          1           0        7.186768    1.876277    8.323011
     15          6           0        9.055691    2.127066    7.348627
     16          1           0        9.146896    1.024014    7.423820
     17          1           0       10.007795    2.657577    7.455134
     18          1           0        8.688012    2.340611    6.339710
 ---------------------------------------------------------------------
                    Distance matrix (angstroms):
                    1          2          3          4          5
     1  C    0.000000
     2  H    1.106800   0.000000
     3  H    1.091926   1.768522   0.000000
     4  H    1.105427   1.807609   1.751492   0.000000
     5  C    1.522748   2.198032   2.162181   2.181454   0.000000
     6  H    2.138508   2.923050   2.858640   2.265529   1.100222
     7  H    2.169022   2.942531   2.290015   2.888628   1.101969
     8  C    2.586494   2.646182   3.358022   3.296048   1.524072
     9  H    3.529973   3.733234   4.228027   4.157512   2.177849
    10  O    3.123147   2.952208   4.125695   3.490460   2.464305
    11  C    3.148861   2.831609   3.632472   4.115623   2.535129
    12  H    2.737376   2.367232   3.785335   2.992281   2.582864
    13  H    3.132163   2.970651   3.275339   4.210134   2.625913
    14  H    4.204865   3.900416   4.700187   5.131079   3.391522
    15  C    3.413597   2.612993   3.914296   4.293523   3.436058
    16  H    4.391082   3.594550   4.734480   5.325412   4.380753
    17  H    2.825026   1.862636   3.215862   3.662665   3.320516
    18  H    3.848074   2.994777   4.555282   4.533365   3.848900
                    6          7          8          9         10
     6  H    0.000000
     7  H    1.753092   0.000000
     8  C    2.067743   2.199952   0.000000
     9  H    2.389342   2.528066   1.107609   0.000000
    10  O    2.565803   3.410226   1.419655   1.928214   0.000000
    11  C    3.420599   2.861139   1.531026   2.135430   2.470672
    12  H    2.757462   3.637964   1.935057   2.739024   0.950349
    13  H    3.655577   2.561841   2.203372   2.734267   3.399803
    14  H    4.134908   3.618413   2.128659   2.227913   2.870359
    15  C    4.314920   3.982467   2.591905   3.428724   2.891699
    16  H    5.311402   4.761186   3.489709   4.160503   3.869165
    17  H    4.230358   3.896641   2.949293   3.962661   3.252457
    18  H    4.526906   4.591779   2.808289   3.580996   2.548426
                   11         12         13         14         15
    11  C    0.000000
    12  H    2.751890   0.000000
    13  H    1.100632   3.602518   0.000000
    14  H    1.098500   3.370736   1.793655   0.000000
    15  C    1.532366   2.733959   2.114545   2.122544   0.000000
    16  H    2.131190   3.796867   2.456220   2.318836   1.109367
    17  H    2.188350   2.818522   2.439283   3.053168   1.095120
    18  H    2.187376   2.321597   3.049266   2.530380   1.094853
                   16         17         18
    16  H    0.000000
    17  H    1.846796   0.000000
    18  H    1.766153   1.756834   0.000000
 Stoichiometry    C5H12O
 Framework group  C1[X(C5H12O)]
 Deg. of freedom    48
 Full point group                 C1      NOp   1
 RotChk:  IX=0 Diff= 2.72D-02
 Largest Abelian subgroup         C1      NOp   1
 Largest concise Abelian subgroup C1      NOp   1
                         Standard orientation:                         
 ---------------------------------------------------------------------
 Center     Atomic      Atomic             Coordinates (Angstroms)
 Number     Number       Type             X           Y           Z
 ---------------------------------------------------------------------
      1          6           0        1.650183   -1.042205   -0.398911
      2          1           0        0.747654   -1.337364   -0.967531
      3          1           0        1.983473   -1.922914    0.153876
      4          1           0        2.469078   -0.802429   -1.101681
      5          6           0        1.384720    0.115920    0.553475
      6          1           0        2.082314    0.929958    0.306107
      7          1           0        1.625831   -0.174417    1.588803
      8          6           0        0.023096    0.789428    0.430341
      9          1           0       -0.045522    1.661011    1.110366
     10          8           0       -0.168411    1.464343   -0.803852
     11          6           0       -1.123904   -0.155534    0.798413
     12          1           0        0.003722    0.845007   -1.503820
     13          1           0       -0.821624   -0.928375    1.521417
     14          1           0       -1.918888    0.461948    1.238205
     15          6           0       -1.760781   -0.910669   -0.373042
     16          1           0       -2.712194   -1.335957    0.007270
     17          1           0       -1.078736   -1.658098   -0.791914
     18          1           0       -2.027697   -0.234750   -1.191939
 ---------------------------------------------------------------------
 Rotational constants (GHZ):           4.1078982           2.7340535           2.2474583
 Leave Link  202 at Wed Sep  7 15:35:16 2022, MaxMem=   131072000 cpu:               0.0 elap:               0.0
 (Enter /opt/g16/l301.exe)
 Standard basis: VSTO-6G (5D, 7F)
 Ernie: Thresh=  0.10000D-02 Tol=  0.10000D-05 Strict=F.
  NNHCO=     0 NNPyr=     0 NCTC=     0               EPep=         0.000000000
    EC=       130.921245469  ECS=         2.211644719   EG=         0.565327641
   EHC=         0.000000000  EAt=       -36.836480110  AtH=         2.452923921
 EPDDG=         0.000000000  ECC=       133.698217828 EAtT=        39.289404030
 There are    36 symmetry adapted cartesian basis functions of A   symmetry.
 There are    36 symmetry adapted basis functions of A   symmetry.
    36 basis functions,   216 primitive gaussians,    36 cartesian basis functions
    19 alpha electrons       19 beta electrons
       nuclear repulsion energy       172.9876218589 Hartrees.
 IExCor=    0 DFT=F Ex=HF Corr=None ExCW=0 ScaHFX=  1.000000
 ScaDFX=  1.000000  1.000000  1.000000  1.000000 ScalE2=  1.000000  1.000000
 IRadAn=      5 IRanWt=     -1 IRanGd=            0 ICorTp=0 IEmpDi=  4
 Integral buffers will be    131072 words long.
 Regular integral format.
 Two-electron integral symmetry is turned off.
 Leave Link  301 at Wed Sep  7 15:35:16 2022, MaxMem=   131072000 cpu:               0.0 elap:               0.0
 (Enter /opt/g16/l302.exe)
 Do NDO integrals.
 NPDir=0 NMtPBC=     1 NCelOv=     1 NCel=       1 NClECP=     1 NCelD=      1
         NCelK=      1 NCelE2=     1 NClLst=     1 CellRange=     0.0.
 One-electron integrals computed using PRISM.
 NBasis=    36 RedAO= F EigKep=  0.00D+00  NBF=    36
 NBsUse=    36 1.00D-04 EigRej=  0.00D+00 NBFU=    36
 Leave Link  302 at Wed Sep  7 15:35:16 2022, MaxMem=   131072000 cpu:               0.0 elap:               0.0
 (Enter /opt/g16/l303.exe)
 DipDrv:  MaxL=1.
 Leave Link  303 at Wed Sep  7 15:35:16 2022, MaxMem=   131072000 cpu:               0.0 elap:               0.0
 (Enter /opt/g16/l401.exe)
 Initial guess from the checkpoint file:  "MD_extract_014_gaussian.chk"
 B after Tr=     0.000000   -0.000000   -0.000000
         Rot=    0.999945    0.002673   -0.010100   -0.000374 Ang=   1.20 deg.
 Guess basis will be translated and rotated to current coordinates.
 JPrj=0 DoOrth=T DoCkMO=T.
 Leave Link  401 at Wed Sep  7 15:35:16 2022, MaxMem=   131072000 cpu:               0.0 elap:               0.0
 (Enter /opt/g16/l502.exe)
 Keep J ints in memory in canonical form, NReq=862161.
 FoFCou: FMM=F IPFlag=           0 FMFlag=           0 FMFlg1=           0
         NFxFlg=           0 DoJE=F BraDBF=F KetDBF=F FulRan=T
         wScrn=  0.000000 ICntrl=       600 IOpCl=  2 I1Cent=           0 NGrid=           0
         NMat0=    1 NMatS0=     72 NMatT0=    0 NMatD0=    1 NMtDS0=    0 NMtDT0=    0
 Symmetry not used in FoFCou.
 Two-electron integral symmetry not used.
 Closed shell SCF:
 Using DIIS extrapolation, IDIIS=  1040.
 Overlap will be assumed to be unity.
 NGot=   131072000 LenX=   131006778 LenY=   131005041
 Requested convergence on RMS density matrix=1.00D-08 within 128 cycles.
 Requested convergence on MAX density matrix=1.00D-06.
 Requested convergence on             energy=1.00D-06.
 No special actions if energy rises.

 Cycle   1  Pass 1  IDiag  1:
 E=-0.982640811375290E-01
 DIIS: error= 8.71D-03 at cycle   1 NSaved=   1.
 NSaved= 1 IEnMin= 1 EnMin=-0.982640811375290E-01 IErMin= 1 ErrMin= 8.71D-03
 ErrMax= 8.71D-03  0.00D+00 EMaxC= 1.00D-01 BMatC= 2.81D-03 BMatP= 2.81D-03
 IDIUse=3 WtCom= 9.13D-01 WtEn= 8.71D-02
 Coeff-Com:  0.100D+01
 Coeff-En:   0.100D+01
 Coeff:      0.100D+01
 GapD=    2.000 DampG=2.000 DampE=1.000 DampFc=2.0000 IDamp=-1.
 RMSDP=2.60D-03 MaxDP=1.64D-02              OVMax= 0.00D+00

 Cycle   2  Pass 1  IDiag  3:
 E=-0.107635835327301     Delta-E=       -0.009371754190 Rises=F Damp=F
 DIIS: error= 3.74D-03 at cycle   2 NSaved=   2.
 NSaved= 2 IEnMin= 2 EnMin=-0.107635835327301     IErMin= 2 ErrMin= 3.74D-03
 ErrMax= 3.74D-03  0.00D+00 EMaxC= 1.00D-01 BMatC= 3.81D-04 BMatP= 2.81D-03
 IDIUse=3 WtCom= 9.63D-01 WtEn= 3.74D-02
 Coeff-Com: -0.495D+00 0.149D+01
 Coeff-En:   0.000D+00 0.100D+01
 Coeff:     -0.476D+00 0.148D+01
 Gap=     0.522 Goal=   None    Shift=    0.000
 RMSDP=1.57D-03 MaxDP=1.10D-02 DE=-9.37D-03 OVMax= 8.67D-03

 Cycle   3  Pass 1  IDiag  3:
 E=-0.109404796140865     Delta-E=       -0.001768960814 Rises=F Damp=F
 DIIS: error= 6.33D-04 at cycle   3 NSaved=   3.
 NSaved= 3 IEnMin= 3 EnMin=-0.109404796140865     IErMin= 3 ErrMin= 6.33D-04
 ErrMax= 6.33D-04  0.00D+00 EMaxC= 1.00D-01 BMatC= 1.19D-05 BMatP= 3.81D-04
 IDIUse=3 WtCom= 9.94D-01 WtEn= 6.33D-03
 Coeff-Com:  0.172D+00-0.632D+00 0.146D+01
 Coeff-En:   0.000D+00 0.000D+00 0.100D+01
 Coeff:      0.171D+00-0.628D+00 0.146D+01
 Gap=     0.522 Goal=   None    Shift=    0.000
 RMSDP=3.42D-04 MaxDP=2.37D-03 DE=-1.77D-03 OVMax= 1.69D-03

 Cycle   4  Pass 1  IDiag  3:
 E=-0.109470522450323     Delta-E=       -0.000065726309 Rises=F Damp=F
 DIIS: error= 1.40D-04 at cycle   4 NSaved=   4.
 NSaved= 4 IEnMin= 4 EnMin=-0.109470522450323     IErMin= 4 ErrMin= 1.40D-04
 ErrMax= 1.40D-04  0.00D+00 EMaxC= 1.00D-01 BMatC= 4.43D-07 BMatP= 1.19D-05
 IDIUse=3 WtCom= 9.99D-01 WtEn= 1.40D-03
 Coeff-Com: -0.835D-01 0.316D+00-0.826D+00 0.159D+01
 Coeff-En:   0.000D+00 0.000D+00 0.000D+00 0.100D+01
 Coeff:     -0.833D-01 0.315D+00-0.825D+00 0.159D+01
 Gap=     0.522 Goal=   None    Shift=    0.000
 RMSDP=7.20D-05 MaxDP=8.04D-04 DE=-6.57D-05 OVMax= 6.85D-04

 Cycle   5  Pass 1  IDiag  3:
 E=-0.109473407360724     Delta-E=       -0.000002884910 Rises=F Damp=F
 DIIS: error= 4.12D-05 at cycle   5 NSaved=   5.
 NSaved= 5 IEnMin= 5 EnMin=-0.109473407360724     IErMin= 5 ErrMin= 4.12D-05
 ErrMax= 4.12D-05  0.00D+00 EMaxC= 1.00D-01 BMatC= 3.26D-08 BMatP= 4.43D-07
 IDIUse=1 WtCom= 1.00D+00 WtEn= 0.00D+00
 Coeff-Com:  0.424D-01-0.162D+00 0.436D+00-0.102D+01 0.171D+01
 Coeff:      0.424D-01-0.162D+00 0.436D+00-0.102D+01 0.171D+01
 Gap=     0.522 Goal=   None    Shift=    0.000
 RMSDP=2.33D-05 MaxDP=2.87D-04 DE=-2.88D-06 OVMax= 2.46D-04

 Cycle   6  Pass 1  IDiag  3:
 E=-0.109473646439653     Delta-E=       -0.000000239079 Rises=F Damp=F
 DIIS: error= 7.41D-06 at cycle   6 NSaved=   6.
 NSaved= 6 IEnMin= 6 EnMin=-0.109473646439653     IErMin= 6 ErrMin= 7.41D-06
 ErrMax= 7.41D-06  0.00D+00 EMaxC= 1.00D-01 BMatC= 1.39D-09 BMatP= 3.26D-08
 IDIUse=1 WtCom= 1.00D+00 WtEn= 0.00D+00
 Coeff-Com: -0.151D-01 0.578D-01-0.157D+00 0.388D+00-0.790D+00 0.152D+01
 Coeff:     -0.151D-01 0.578D-01-0.157D+00 0.388D+00-0.790D+00 0.152D+01
 Gap=     0.522 Goal=   None    Shift=    0.000
 RMSDP=4.55D-06 MaxDP=5.08D-05 DE=-2.39D-07 OVMax= 3.75D-05

 Cycle   7  Pass 1  IDiag  3:
 E=-0.109473655908346     Delta-E=       -0.000000009469 Rises=F Damp=F
 DIIS: error= 1.48D-06 at cycle   7 NSaved=   7.
 NSaved= 7 IEnMin= 7 EnMin=-0.109473655908346     IErMin= 7 ErrMin= 1.48D-06
 ErrMax= 1.48D-06  0.00D+00 EMaxC= 1.00D-01 BMatC= 6.98D-11 BMatP= 1.39D-09
 IDIUse=1 WtCom= 1.00D+00 WtEn= 0.00D+00
 Coeff-Com:  0.461D-02-0.176D-01 0.481D-01-0.120D+00 0.260D+00-0.640D+00
 Coeff-Com:  0.147D+01
 Coeff:      0.461D-02-0.176D-01 0.481D-01-0.120D+00 0.260D+00-0.640D+00
 Coeff:      0.147D+01
 Gap=     0.522 Goal=   None    Shift=    0.000
 RMSDP=9.16D-07 MaxDP=8.25D-06 DE=-9.47D-09 OVMax= 8.48D-06

 Cycle   8  Pass 1  IDiag  3:
 E=-0.109473656366731     Delta-E=       -0.000000000458 Rises=F Damp=F
 DIIS: error= 6.57D-07 at cycle   8 NSaved=   8.
 NSaved= 8 IEnMin= 8 EnMin=-0.109473656366731     IErMin= 8 ErrMin= 6.57D-07
 ErrMax= 6.57D-07  0.00D+00 EMaxC= 1.00D-01 BMatC= 5.54D-12 BMatP= 6.98D-11
 IDIUse=1 WtCom= 1.00D+00 WtEn= 0.00D+00
 Coeff-Com: -0.114D-02 0.436D-02-0.120D-01 0.301D-01-0.674D-01 0.189D+00
 Coeff-Com: -0.657D+00 0.151D+01
 Coeff:     -0.114D-02 0.436D-02-0.120D-01 0.301D-01-0.674D-01 0.189D+00
 Coeff:     -0.657D+00 0.151D+01
 Gap=     0.522 Goal=   None    Shift=    0.000
 RMSDP=2.78D-07 MaxDP=3.60D-06 DE=-4.58D-10 OVMax= 2.47D-06

 Cycle   9  Pass 1  IDiag  3:
 E=-0.109473656406010     Delta-E=       -0.000000000039 Rises=F Damp=F
 DIIS: error= 2.18D-07 at cycle   9 NSaved=   9.
 NSaved= 9 IEnMin= 9 EnMin=-0.109473656406010     IErMin= 9 ErrMin= 2.18D-07
 ErrMax= 2.18D-07  0.00D+00 EMaxC= 1.00D-01 BMatC= 4.58D-13 BMatP= 5.54D-12
 IDIUse=1 WtCom= 1.00D+00 WtEn= 0.00D+00
 Coeff-Com:  0.231D-03-0.883D-03 0.243D-02-0.616D-02 0.147D-01-0.487D-01
 Coeff-Com:  0.221D+00-0.758D+00 0.158D+01
 Coeff:      0.231D-03-0.883D-03 0.243D-02-0.616D-02 0.147D-01-0.487D-01
 Coeff:      0.221D+00-0.758D+00 0.158D+01
 Gap=     0.522 Goal=   None    Shift=    0.000
 RMSDP=8.50D-08 MaxDP=1.38D-06 DE=-3.93D-11 OVMax= 6.05D-07

 Cycle  10  Pass 1  IDiag  3:
 E=-0.109473656409165     Delta-E=       -0.000000000003 Rises=F Damp=F
 DIIS: error= 4.70D-08 at cycle  10 NSaved=  10.
 NSaved=10 IEnMin=10 EnMin=-0.109473656409165     IErMin=10 ErrMin= 4.70D-08
 ErrMax= 4.70D-08  0.00D+00 EMaxC= 1.00D-01 BMatC= 2.83D-14 BMatP= 4.58D-13
 IDIUse=1 WtCom= 1.00D+00 WtEn= 0.00D+00
 Coeff-Com: -0.281D-04 0.107D-03-0.300D-03 0.793D-03-0.231D-02 0.106D-01
 Coeff-Com: -0.614D-01 0.260D+00-0.768D+00 0.156D+01
 Coeff:     -0.281D-04 0.107D-03-0.300D-03 0.793D-03-0.231D-02 0.106D-01
 Coeff:     -0.614D-01 0.260D+00-0.768D+00 0.156D+01
 Gap=     0.522 Goal=   None    Shift=    0.000
 RMSDP=2.15D-08 MaxDP=3.40D-07 DE=-3.15D-12 OVMax= 1.70D-07

 Cycle  11  Pass 1  IDiag  3:
 E=-0.109473656409506     Delta-E=       -0.000000000000 Rises=F Damp=F
 DIIS: error= 5.32D-09 at cycle  11 NSaved=  11.
 NSaved=11 IEnMin=11 EnMin=-0.109473656409506     IErMin=11 ErrMin= 5.32D-09
 ErrMax= 5.32D-09  0.00D+00 EMaxC= 1.00D-01 BMatC= 8.90D-16 BMatP= 2.83D-14
 IDIUse=1 WtCom= 1.00D+00 WtEn= 0.00D+00
 Coeff-Com:  0.253D-05-0.954D-05 0.288D-04-0.874D-04 0.397D-03-0.261D-02
 Coeff-Com:  0.176D-01-0.815D-01 0.266D+00-0.667D+00 0.147D+01
 Coeff:      0.253D-05-0.954D-05 0.288D-04-0.874D-04 0.397D-03-0.261D-02
 Coeff:      0.176D-01-0.815D-01 0.266D+00-0.667D+00 0.147D+01
 Gap=     0.522 Goal=   None    Shift=    0.000
 RMSDP=3.27D-09 MaxDP=4.16D-08 DE=-3.41D-13 OVMax= 2.23D-08

 Cycle  12  Pass 2  IDiag  1:
 SCF Done:  E(RPM3) = -0.109473656410     A.U. after   12 cycles
            NFock= 11  Conv=0.33D-08     -V/T= 0.9982
 KE=-5.971028844615D+01 PE=-2.603092386139D+02 EE= 1.469224315448D+02
 Leave Link  502 at Wed Sep  7 15:35:16 2022, MaxMem=   131072000 cpu:               0.0 elap:               0.0
 (Enter /opt/g16/l701.exe)
 ... and contract with generalized density number  0.
 Compute integral first derivatives.
 Leave Link  701 at Wed Sep  7 15:35:16 2022, MaxMem=   131072000 cpu:               0.0 elap:               0.0
 (Enter /opt/g16/l702.exe)
 L702 exits ... SP integral derivatives will be done elsewhere.
 Leave Link  702 at Wed Sep  7 15:35:17 2022, MaxMem=   131072000 cpu:               0.0 elap:               0.0
 (Enter /opt/g16/l703.exe)
 Integral derivatives from FoFJK, PRISM(SPDF).
 Compute integral first derivatives, UseDBF=F ICtDFT=           0.
 Calling FoFJK, ICntrl=      2127 FMM=F ISym2X=0 I1Cent= 0 IOpClX= 0 NMat=1 NMatS=1 NMatT=0.
 FoFJK:  IHMeth= 9 ICntrl=    2127 DoSepK=F KAlg= 0 I1Cent=           0 FoldK=F
 IRaf=         0 NMat=       1 IRICut=       1 DoRegI=T DoRafI=F ISym2E= 0 IDoP0=3 IntGTp=3.
 FoFCou: FMM=F IPFlag=           0 FMFlag=      100000 FMFlg1=         800
         NFxFlg=           0 DoJE=F BraDBF=F KetDBF=F FulRan=T
         wScrn=  0.000000 ICntrl=      2127 IOpCl=  0 I1Cent=           0 NGrid=           0
         NMat0=    1 NMatS0=      1 NMatT0=    0 NMatD0=    1 NMtDS0=    0 NMtDT0=    0
 Symmetry not used in FoFCou.
 Leave Link  703 at Wed Sep  7 15:35:17 2022, MaxMem=   131072000 cpu:               0.0 elap:               0.0
 (Enter /opt/g16/l716.exe)
 Dipole        = 1.66366092D-01-5.83407029D-01 8.32489269D-02
 ***** Axes restored to original set *****
 -------------------------------------------------------------------
 Center     Atomic                   Forces (Hartrees/Bohr)
 Number     Number              X              Y              Z
 -------------------------------------------------------------------
      1        6          -0.004336365   -0.000240656   -0.000010602
      2        1          -0.000596118    0.001812594    0.001297793
      3        1           0.003332101   -0.001729876    0.002287021
      4        1          -0.000520279   -0.006448604   -0.001884465
      5        6           0.002112679    0.013963753   -0.009898792
      6        1          -0.000765193    0.009154176    0.004778935
      7        1          -0.001098928   -0.005864974    0.000858643
      8        6           0.002201836   -0.007520241   -0.005585183
      9        1          -0.004411981    0.002427998    0.005097992
     10        8           0.003857109   -0.000020919    0.007061452
     11        6           0.013107855   -0.005485239   -0.020029996
     12        1           0.000021877   -0.000993509    0.000844612
     13        1          -0.004900050    0.002534244    0.005983924
     14        1          -0.003534692   -0.004798338    0.004768303
     15        6          -0.016588856   -0.003598840    0.007416209
     16        1           0.008744300    0.008963529   -0.002112425
     17        1           0.003654738   -0.001401939    0.002194032
     18        1          -0.000280032   -0.000753160   -0.003067454
 -------------------------------------------------------------------
 Cartesian Forces:  Max     0.020029996 RMS     0.006089628
 Leave Link  716 at Wed Sep  7 15:35:17 2022, MaxMem=   131072000 cpu:               0.0 elap:               0.0
 (Enter /opt/g16/l103.exe)

 GradGradGradGradGradGradGradGradGradGradGradGradGradGradGradGradGradGrad
 Berny optimization.
 Using GEDIIS/GDIIS optimizer.
 FormGI is forming the generalized inverse of G from B-inverse, IUseBI=4.
 Internal  Forces:  Max     0.010565188 RMS     0.003814270
 Search for a local minimum.
 Step number   2 out of a maximum of   97
 All quantities printed in internal units (Hartrees-Bohrs-Radians)
 RMS Force = .38143D-02 SwitMx=.10000D-02 MixMth= 1
 Mixed Optimization -- RFO/linear search
 Update second derivatives using D2CorX and points    1    2
 DE= -2.45D-02 DEPred=-2.68D-02 R= 9.14D-01
 TightC=F SS=  1.41D+00  RLast= 3.72D-01 DXNew= 5.0454D-01 1.1162D+00
 Trust test= 9.14D-01 RLast= 3.72D-01 DXMaxT set to 5.05D-01
 ITU=  1  0
 Use linear search instead of GDIIS.
     Eigenvalues ---    0.00230   0.00230   0.00919   0.01443   0.01577
     Eigenvalues ---    0.03417   0.03515   0.04152   0.04998   0.05153
     Eigenvalues ---    0.05184   0.05285   0.05358   0.05535   0.05825
     Eigenvalues ---    0.07921   0.08725   0.09453   0.12335   0.12790
     Eigenvalues ---    0.15449   0.16000   0.16000   0.16000   0.16000
     Eigenvalues ---    0.16000   0.16064   0.18231   0.20914   0.21342
     Eigenvalues ---    0.22052   0.27713   0.27932   0.29314   0.30681
     Eigenvalues ---    0.30908   0.34042   0.34293   0.34835   0.34979
     Eigenvalues ---    0.35015   0.35849   0.36212   0.36447   0.37936
     Eigenvalues ---    0.42075   0.50379   0.58007
 RFO step:  Lambda=-1.14287115D-02 EMin= 2.29531543D-03
 Quartic linear search produced a step of  0.42773.
 Iteration  1 RMS(Cart)=  0.16403521 RMS(Int)=  0.01027701
 Iteration  2 RMS(Cart)=  0.01225098 RMS(Int)=  0.00180171
 Iteration  3 RMS(Cart)=  0.00006875 RMS(Int)=  0.00180076
 Iteration  4 RMS(Cart)=  0.00000011 RMS(Int)=  0.00180076
 ITry= 1 IFail=0 DXMaxC= 5.89D-01 DCOld= 1.00D+10 DXMaxT= 5.05D-01 DXLimC= 3.00D+00 Rises=F
 Variable       Old X    -DE/DX   Delta X   Delta X   Delta X     New X
                                 (Linear)    (Quad)   (Total)
    R1        2.09155  -0.00226  -0.01676   0.00577  -0.01099   2.08056
    R2        2.06344   0.00403   0.00926   0.00652   0.01578   2.07922
    R3        2.08895  -0.00548  -0.01847  -0.00668  -0.02515   2.06380
    R4        2.87758  -0.00336  -0.02195   0.00437  -0.01758   2.86000
    R5        2.07912   0.00752   0.02967  -0.00070   0.02897   2.10809
    R6        2.08242   0.00194   0.01073  -0.00247   0.00826   2.09068
    R7        2.88008   0.00457   0.06089  -0.04005   0.02083   2.90091
    R8        2.09308   0.00568   0.02516  -0.00223   0.02293   2.11601
    R9        2.68276  -0.00833   0.00881  -0.03359  -0.02478   2.65798
   R10        2.89322   0.00389   0.03453  -0.01647   0.01806   2.91128
   R11        1.79590  -0.00052   0.00129  -0.00239  -0.00110   1.79480
   R12        2.07989   0.00262   0.00887   0.00191   0.01078   2.09067
   R13        2.07586   0.00530   0.01683   0.00413   0.02097   2.09683
   R14        2.89575  -0.00693  -0.01005  -0.02353  -0.03358   2.86217
   R15        2.09640  -0.00834  -0.02609  -0.01347  -0.03956   2.05684
   R16        2.06948   0.00271   0.00043   0.01024   0.01066   2.08014
   R17        2.06897   0.00277   0.00542   0.00563   0.01106   2.08003
    A1        1.86909  -0.00086   0.00121  -0.01212  -0.01071   1.85838
    A2        1.91272  -0.00181  -0.00644  -0.02162  -0.02821   1.88451
    A3        1.96274  -0.00105  -0.01053  -0.00784  -0.01835   1.94439
    A4        1.84490   0.00032   0.00726   0.01489   0.02131   1.86621
    A5        1.92838   0.00171   0.00772   0.01388   0.02125   1.94963
    A6        1.94099   0.00168   0.00218   0.01316   0.01480   1.95579
    A7        1.88764   0.00155  -0.00393   0.04912   0.04770   1.93534
    A8        1.92740   0.00478   0.00024  -0.00441  -0.01382   1.91357
    A9        2.02786  -0.01057  -0.02920  -0.04190  -0.07522   1.95264
   A10        1.84154  -0.00206  -0.00486   0.00814   0.00570   1.84724
   A11        1.79398   0.00857   0.05116   0.06786   0.12160   1.91558
   A12        1.96906  -0.00117  -0.00572  -0.06139  -0.07294   1.89612
   A13        1.93209  -0.00057  -0.00592   0.00243  -0.00287   1.92922
   A14        1.98324  -0.00154  -0.00018  -0.03293  -0.03432   1.94892
   A15        1.95750  -0.00206   0.00843  -0.03602  -0.02874   1.92876
   A16        1.72267   0.00127   0.01261   0.02254   0.03520   1.75787
   A17        1.86677   0.00299   0.00514   0.04903   0.05438   1.92115
   A18        1.98380   0.00065  -0.01937   0.00903  -0.01223   1.97157
   A19        1.88185  -0.00176   0.00473  -0.01886  -0.01413   1.86772
   A20        1.96661  -0.00448  -0.01811  -0.06745  -0.08509   1.88152
   A21        1.86657   0.00444   0.01611   0.04351   0.06001   1.92658
   A22        2.01721  -0.00676  -0.01318  -0.02109  -0.03539   1.98182
   A23        1.90760  -0.00309  -0.01007  -0.03075  -0.04114   1.86646
   A24        1.84450   0.00674   0.01512   0.02667   0.03810   1.88260
   A25        1.85697   0.00343   0.01120   0.05309   0.06335   1.92032
   A26        1.85801   0.01028   0.03084   0.05256   0.08209   1.94010
   A27        1.94969  -0.00268  -0.00843  -0.02469  -0.03232   1.91737
   A28        1.94860   0.00158   0.00789   0.01642   0.02262   1.97122
   A29        1.98625  -0.00696  -0.02452  -0.05592  -0.07926   1.90699
   A30        1.85876  -0.00289  -0.00594   0.00839  -0.00104   1.85773
   A31        1.86200   0.00053   0.00084   0.00449   0.00566   1.86766
    D1       -2.14884  -0.00154  -0.01439  -0.05326  -0.06770  -2.21654
    D2        2.12735  -0.00251  -0.00644  -0.08831  -0.09419   2.03316
    D3       -0.14368   0.00411   0.03112   0.04169   0.07204  -0.07165
    D4        2.04696  -0.00093  -0.01436  -0.04220  -0.05626   1.99069
    D5        0.03996  -0.00190  -0.00642  -0.07725  -0.08275  -0.04279
    D6       -2.23107   0.00473   0.03114   0.05275   0.08348  -2.14760
    D7        0.00383  -0.00343  -0.02923  -0.07746  -0.10684  -0.10301
    D8       -2.00317  -0.00440  -0.02128  -0.11251  -0.13332  -2.13649
    D9        2.00898   0.00223   0.01628   0.01749   0.03290   2.04189
   D10       -3.07008  -0.00212  -0.01964  -0.08369  -0.10045   3.11266
   D11       -1.15037  -0.00178  -0.00780  -0.07305  -0.07840  -1.22877
   D12        1.12960  -0.00417  -0.02773  -0.12358  -0.14807   0.98153
   D13       -1.01264   0.00011  -0.00277   0.00089  -0.00182  -1.01446
   D14        0.90707   0.00046   0.00907   0.01153   0.02023   0.92730
   D15       -3.09615  -0.00193  -0.01086  -0.03900  -0.04943   3.13760
   D16        0.96208   0.00197   0.01670   0.02182   0.03564   0.99772
   D17        2.88179   0.00231   0.02854   0.03246   0.05769   2.93948
   D18       -1.12143  -0.00007   0.00860  -0.01807  -0.01197  -1.13340
   D19        0.94200  -0.00069   0.00310  -0.01362  -0.01012   0.93188
   D20        2.98776  -0.00124   0.00329  -0.01101  -0.00781   2.97995
   D21       -1.32484   0.00311   0.00968   0.06057   0.06994  -1.25490
   D22        0.48960   0.00322   0.01003   0.08017   0.09148   0.58108
   D23        2.58602  -0.00034  -0.00226   0.03076   0.02793   2.61395
   D24       -1.63366   0.00305   0.01560   0.11580   0.13020  -1.50346
   D25       -1.63179   0.00319   0.00899   0.06645   0.07702  -1.55477
   D26        0.46463  -0.00037  -0.00331   0.01703   0.01347   0.47810
   D27        2.52813   0.00302   0.01455   0.10208   0.11574   2.64387
   D28        2.76928  -0.00028  -0.00021   0.00819   0.00944   2.77872
   D29       -1.41749  -0.00384  -0.01250  -0.04122  -0.05411  -1.47160
   D30        0.64601  -0.00045   0.00536   0.04382   0.04816   0.69417
   D31       -2.89665  -0.00607  -0.02681  -0.15860  -0.18719  -3.08384
   D32        1.20854  -0.00276  -0.01247  -0.10923  -0.12205   1.08649
   D33       -0.87489  -0.00269  -0.01328  -0.10933  -0.12219  -0.99708
   D34        1.19902  -0.00090  -0.00609  -0.07730  -0.08361   1.11541
   D35       -0.97897   0.00240   0.00824  -0.02793  -0.01847  -0.99744
   D36       -3.06240   0.00247   0.00743  -0.02803  -0.01861  -3.08101
   D37       -0.82783  -0.00209  -0.00623  -0.07898  -0.08685  -0.91468
   D38       -3.00582   0.00122   0.00810  -0.02961  -0.02171  -3.02753
   D39        1.19393   0.00129   0.00729  -0.02971  -0.02185   1.17209
         Item               Value     Threshold  Converged?
 Maximum Force            0.010565     0.000450     NO 
 RMS     Force            0.003814     0.000300     NO 
 Maximum Displacement     0.588698     0.001800     NO 
 RMS     Displacement     0.166285     0.001200     NO 
 Predicted change in Energy=-7.668727D-03
 Lowest energy point so far.  Saving SCF results.
 GradGradGradGradGradGradGradGradGradGradGradGradGradGradGradGradGradGrad

[...]
 ! A10   A(6,5,7)              105.5728         -DE/DX =    0.0                 !
 ! A11   A(6,5,8)              108.6096         -DE/DX =    0.0                 !
 ! A12   A(7,5,8)              108.329          -DE/DX =    0.0                 !
 ! A13   A(5,8,9)              107.8682         -DE/DX =    0.0                 !
 ! A14   A(5,8,10)             113.0094         -DE/DX =    0.0                 !
 ! A15   A(5,8,11)             113.2648         -DE/DX =    0.0                 !
 ! A16   A(9,8,10)             100.7918         -DE/DX =    0.0                 !
 ! A17   A(9,8,11)             107.8717         -DE/DX =    0.0                 !
 ! A18   A(10,8,11)            113.0145         -DE/DX =    0.0                 !
 ! A19   A(8,10,12)            107.2173         -DE/DX =    0.0                 !
 ! A20   A(8,11,13)            108.3317         -DE/DX =    0.0                 !
 ! A21   A(8,11,14)            108.6093         -DE/DX =    0.0                 !
 ! A22   A(8,11,15)            115.5122         -DE/DX =    0.0                 !
 ! A23   A(13,11,14)           105.5717         -DE/DX =    0.0                 !
 ! A24   A(13,11,15)           109.6468         -DE/DX =    0.0                 !
 ! A25   A(14,11,15)           108.7071         -DE/DX =    0.0                 !
 ! A26   A(11,15,16)           110.8269         -DE/DX =    0.0                 !
 ! A27   A(11,15,17)           111.9388         -DE/DX =    0.0                 !
 ! A28   A(11,15,18)           112.2254         -DE/DX =    0.0                 !
 ! A29   A(16,15,17)           107.2916         -DE/DX =    0.0                 !
 ! A30   A(16,15,18)           106.9546         -DE/DX =    0.0                 !
 ! A31   A(17,15,18)           107.3251         -DE/DX =    0.0                 !
 ! D1    D(2,1,5,6)           -178.5322         -DE/DX =    0.0                 !
 ! D2    D(2,1,5,7)             66.5158         -DE/DX =    0.0                 !
 ! D3    D(2,1,5,8)            -56.1901         -DE/DX =    0.0                 !
 ! D4    D(3,1,5,6)             61.7305         -DE/DX =    0.0                 !
 ! D5    D(3,1,5,7)            -53.2214         -DE/DX =    0.0                 !
 ! D6    D(3,1,5,8)           -175.9273         -DE/DX =    0.0                 !
 ! D7    D(4,1,5,6)            -57.7763         -DE/DX =    0.0                 !
 ! D8    D(4,1,5,7)           -172.7282         -DE/DX =    0.0                 !
 ! D9    D(4,1,5,8)             64.5659         -DE/DX =    0.0                 !
 ! D10   D(1,5,8,9)           -163.1087         -DE/DX =    0.0                 !
 ! D11   D(1,5,8,10)           -52.5824         -DE/DX =    0.0                 !
 ! D12   D(1,5,8,11)            77.5782         -DE/DX =    0.0                 !
 ! D13   D(6,5,8,9)            -40.7122         -DE/DX =    0.0                 !
 ! D14   D(6,5,8,10)            69.8141         -DE/DX =    0.0                 !
 ! D15   D(6,5,8,11)          -160.0253         -DE/DX =    0.0                 !
 ! D16   D(7,5,8,9)             73.4903         -DE/DX =    0.0                 !
 ! D17   D(7,5,8,10)          -175.9833         -DE/DX =    0.0                 !
 ! D18   D(7,5,8,11)           -45.8227         -DE/DX =    0.0                 !
 ! D19   D(5,8,10,12)           65.1418         -DE/DX =    0.0                 !
 ! D20   D(9,8,10,12)         -180.0049         -DE/DX =    0.0                 !
 ! D21   D(11,8,10,12)         -65.1454         -DE/DX =    0.0                 !
 ! D22   D(5,8,11,13)           45.7767         -DE/DX =    0.0                 !
 ! D23   D(5,8,11,14)          159.9792         -DE/DX =    0.0                 !
 ! D24   D(5,8,11,15)          -77.6306         -DE/DX =    0.0                 !
 ! D25   D(9,8,11,13)          -73.5343         -DE/DX =    0.0                 !
 ! D26   D(9,8,11,14)           40.6682         -DE/DX =    0.0                 !
 ! D27   D(9,8,11,15)          163.0584         -DE/DX =    0.0                 !
 ! D28   D(10,8,11,13)         175.9347         -DE/DX =    0.0                 !
 ! D29   D(10,8,11,14)         -69.8628         -DE/DX =    0.0                 !
 ! D30   D(10,8,11,15)          52.5274         -DE/DX =    0.0                 !
 ! D31   D(8,11,15,16)         175.966          -DE/DX =    0.0                 !
 ! D32   D(8,11,15,17)          56.2261         -DE/DX =    0.0                 !
 ! D33   D(8,11,15,18)         -64.5304         -DE/DX =    0.0                 !
 ! D34   D(13,11,15,16)         53.254          -DE/DX =    0.0                 !
 ! D35   D(13,11,15,17)        -66.4859         -DE/DX =    0.0                 !
 ! D36   D(13,11,15,18)        172.7576         -DE/DX =    0.0                 !
 ! D37   D(14,11,15,16)        -61.6959         -DE/DX =    0.0                 !
 ! D38   D(14,11,15,17)        178.5642         -DE/DX =    0.0                 !
 ! D39   D(14,11,15,18)         57.8077         -DE/DX =    0.0                 !
 --------------------------------------------------------------------------------
 Lowest energy point so far.  Saving SCF results.
 Largest change from initial coordinates is atom    4       0.358 Angstoms.
 GradGradGradGradGradGradGradGradGradGradGradGradGradGradGradGradGradGrad

 Leave Link  103 at Wed Sep  7 15:35:23 2022, MaxMem=   131072000 cpu:               0.0 elap:               0.0
 (Enter /opt/g16/l202.exe)
                          Input orientation:                          
 ---------------------------------------------------------------------
 Center     Atomic      Atomic             Coordinates (Angstroms)
 Number     Number       Type             X           Y           Z
 ---------------------------------------------------------------------
      1          6           0        9.760063    5.218140    8.604458
      2          1           0       10.322981    4.315231    8.317064
      3          1           0       10.373948    5.768318    9.329445
      4          1           0        9.676928    5.850418    7.709888
      5          6           0        8.409580    4.878456    9.191899
      6          1           0        7.880673    5.821572    9.436328
      7          1           0        8.545109    4.354163   10.158787
      8          6           0        7.494608    4.018885    8.298721
      9          1           0        6.453798    4.101464    8.694485
     10          8           0        7.328515    4.551723    7.007771
     11          6           0        7.880055    2.527218    8.289684
     12          1           0        8.177274    4.524464    6.580810
     13          1           0        8.062567    2.208041    9.335122
     14          1           0        7.005807    1.938000    7.946958
     15          6           0        9.072472    2.168176    7.433225
     16          1           0        9.322534    1.104457    7.538528
     17          1           0        9.969076    2.744747    7.713166
     18          1           0        8.887012    2.349527    6.365661
 ---------------------------------------------------------------------
                    Distance matrix (angstroms):
                    1          2          3          4          5
     1  C    0.000000
     2  H    1.102141   0.000000
     3  H    1.097796   1.771715   0.000000
     4  H    1.098610   1.772807   1.765090   0.000000
     5  C    1.511383   2.177995   2.160906   2.178816   0.000000
     6  H    2.142019   3.080045   2.496133   2.491577   1.108582
     7  H    2.153720   2.560134   2.456073   3.084947   1.108207
     8  C    2.581468   2.843915   3.523281   2.909254   1.540715
     9  H    3.490911   3.893420   4.306872   3.796951   2.162457
    10  O    2.984283   3.276736   4.018076   2.773918   2.458836
    11  C    3.297661   3.027478   4.219636   3.822116   2.573462
    12  H    2.661120   2.768107   3.731963   2.298246   2.645197
    13  H    3.532147   3.253639   4.244772   4.302843   2.696674
    14  H    4.333307   4.097786   5.284598   4.743216   3.488085
    15  C    3.338690   2.637194   4.272062   3.741767   3.298179
    16  H    4.272005   3.451969   5.105336   4.762258   4.220213
    17  H    2.637377   1.719408   3.452284   3.119384   3.028431
    18  H    3.742108   3.119932   4.762681   3.832382   3.822441
                    6          7          8          9         10
     6  H    0.000000
     7  H    1.765421   0.000000
     8  C    2.166304   2.162362   0.000000
     9  H    2.354798   2.565466   1.116572   0.000000
    10  O    2.795583   3.383494   1.406434   1.952657   0.000000
    11  C    3.488202   2.696955   1.540689   2.162481   2.458885
    12  H    3.150308   3.600864   1.916471   2.759877   0.950489
    13  H    3.619522   2.348853   2.162374   2.565854   3.383525
    14  H    4.250381   3.619320   2.166274   2.354588   2.796025
    15  C    4.333603   3.533460   2.581447   3.490822   2.983906
    16  H    5.285053   4.246261   3.523223   4.306731   4.017643
    17  H    4.098483   3.255604   2.844169   3.893693   3.276477
    18  H    4.743080   4.303867   2.908998   3.796477   2.773245
                   11         12         13         14         15
    11  C    0.000000
    12  H    2.645294   0.000000
    13  H    1.108208   3.600724   0.000000
    14  H    1.108580   3.150950   1.765407   0.000000
    15  C    1.511388   2.660843   2.153767   2.141963   0.000000
    16  H    2.160840   3.731661   2.456250   2.495763   1.097778
    17  H    2.178003   2.767703   2.559994   3.080009   1.102134
    18  H    2.178854   2.297906   3.085033   2.491744   1.098625
                   16         17         18
    16  H    0.000000
    17  H    1.771741   0.000000
    18  H    1.765076   1.772803   0.000000
 Stoichiometry    C5H12O
 Framework group  C1[X(C5H12O)]
 Deg. of freedom    48
 Full point group                 C1      NOp   1
 RotChk:  IX=0 Diff= 9.58D-16
 Largest Abelian subgroup         C1      NOp   1
 Largest concise Abelian subgroup C1      NOp   1
                         Standard orientation:                         
 ---------------------------------------------------------------------
 Center     Atomic      Atomic             Coordinates (Angstroms)
 Number     Number       Type             X           Y           Z
 ---------------------------------------------------------------------
      1          6           0        1.669222   -1.001149   -0.346239
      2          1           0        0.859437   -1.728469   -0.519355
      3          1           0        2.552529   -1.567203   -0.022962
      4          1           0        1.915911   -0.549049   -1.316647
      5          6           0        1.286973    0.034359    0.686178
      6          1           0        2.125418    0.750822    0.798630
      7          1           0        1.175087   -0.450467    1.676405
      8          6           0        0.000040    0.826681    0.386457
      9          1           0        0.000055    1.737318    1.032577
     10          8           0       -0.000241    1.411368   -0.892682
     11          6           0       -1.286489    0.033945    0.686680
     12          1           0       -0.000197    0.702605   -1.525994
     13          1           0       -1.173766   -0.451547    1.676486
     14          1           0       -2.124963    0.750188    0.800289
     15          6           0       -1.669468   -1.000837   -0.346203
     16          1           0       -2.552807   -1.566758   -0.022841
     17          1           0       -0.859971   -1.728276   -0.520117
     18          1           0       -1.916471   -0.548105   -1.316254
 ---------------------------------------------------------------------
 Rotational constants (GHZ):           4.0858606           2.7570457           2.2822673
 Leave Link  202 at Wed Sep  7 15:35:23 2022, MaxMem=   131072000 cpu:               0.0 elap:               0.0
 (Enter /opt/g16/l601.exe)
 Copying SCF densities to generalized density rwf, IOpCl= 0 IROHF=0.

 **********************************************************************

            Population analysis using the SCF density.

 **********************************************************************

 Orbital symmetries:
       Occupied  (A) (A) (A) (A) (A) (A) (A) (A) (A) (A) (A) (A)
                 (A) (A) (A) (A) (A) (A) (A)
       Virtual   (A) (A) (A) (A) (A) (A) (A) (A) (A) (A) (A) (A)
                 (A) (A) (A) (A) (A)
 The electronic state is 1-A.
 Alpha  occ. eigenvalues --   -1.49419  -1.24779  -1.18294  -0.99176  -0.81403
 Alpha  occ. eigenvalues --   -0.73802  -0.65454  -0.60269  -0.58413  -0.57722
 Alpha  occ. eigenvalues --   -0.52378  -0.50961  -0.50806  -0.48501  -0.46802
 Alpha  occ. eigenvalues --   -0.45771  -0.42808  -0.42617  -0.40272
 Alpha virt. eigenvalues --    0.11545   0.12693   0.12947   0.13359   0.13719
 Alpha virt. eigenvalues --    0.14405   0.14448   0.14578   0.15496   0.15520
 Alpha virt. eigenvalues --    0.16716   0.17078   0.17556   0.17676   0.18164
 Alpha virt. eigenvalues --    0.18286   0.21410
          Condensed to atoms (all electrons):
               1          2          3          4          5          6
     1  C    4.122249   0.000000   0.000000   0.000000   0.000000   0.000000
     2  H    0.000000   0.952992   0.000000   0.000000   0.000000   0.000000
     3  H    0.000000   0.000000   0.957806   0.000000   0.000000   0.000000
     4  H    0.000000   0.000000   0.000000   0.959187   0.000000   0.000000
     5  C    0.000000   0.000000   0.000000   0.000000   4.130525   0.000000
     6  H    0.000000   0.000000   0.000000   0.000000   0.000000   0.943017
     7  H    0.000000   0.000000   0.000000   0.000000   0.000000   0.000000
     8  C    0.000000   0.000000   0.000000   0.000000   0.000000   0.000000
     9  H    0.000000   0.000000   0.000000   0.000000   0.000000   0.000000
    10  O    0.000000   0.000000   0.000000   0.000000   0.000000   0.000000
    11  C    0.000000   0.000000   0.000000   0.000000   0.000000   0.000000
    12  H    0.000000   0.000000   0.000000   0.000000   0.000000   0.000000
    13  H    0.000000   0.000000   0.000000   0.000000   0.000000   0.000000
    14  H    0.000000   0.000000   0.000000   0.000000   0.000000   0.000000
    15  C    0.000000   0.000000   0.000000   0.000000   0.000000   0.000000
    16  H    0.000000   0.000000   0.000000   0.000000   0.000000   0.000000
    17  H    0.000000   0.000000   0.000000   0.000000   0.000000   0.000000
    18  H    0.000000   0.000000   0.000000   0.000000   0.000000   0.000000
               7          8          9         10         11         12
     1  C    0.000000   0.000000   0.000000   0.000000   0.000000   0.000000
     2  H    0.000000   0.000000   0.000000   0.000000   0.000000   0.000000
     3  H    0.000000   0.000000   0.000000   0.000000   0.000000   0.000000
     4  H    0.000000   0.000000   0.000000   0.000000   0.000000   0.000000
     5  C    0.000000   0.000000   0.000000   0.000000   0.000000   0.000000
     6  H    0.000000   0.000000   0.000000   0.000000   0.000000   0.000000
     7  H    0.944928   0.000000   0.000000   0.000000   0.000000   0.000000
     8  C    0.000000   3.921233   0.000000   0.000000   0.000000   0.000000
     9  H    0.000000   0.000000   0.936749   0.000000   0.000000   0.000000
    10  O    0.000000   0.000000   0.000000   6.307503   0.000000   0.000000
    11  C    0.000000   0.000000   0.000000   0.000000   4.130515   0.000000
    12  H    0.000000   0.000000   0.000000   0.000000   0.000000   0.813126
    13  H    0.000000   0.000000   0.000000   0.000000   0.000000   0.000000
    14  H    0.000000   0.000000   0.000000   0.000000   0.000000   0.000000
    15  C    0.000000   0.000000   0.000000   0.000000   0.000000   0.000000
    16  H    0.000000   0.000000   0.000000   0.000000   0.000000   0.000000
    17  H    0.000000   0.000000   0.000000   0.000000   0.000000   0.000000
    18  H    0.000000   0.000000   0.000000   0.000000   0.000000   0.000000
              13         14         15         16         17         18
     1  C    0.000000   0.000000   0.000000   0.000000   0.000000   0.000000
     2  H    0.000000   0.000000   0.000000   0.000000   0.000000   0.000000
     3  H    0.000000   0.000000   0.000000   0.000000   0.000000   0.000000
     4  H    0.000000   0.000000   0.000000   0.000000   0.000000   0.000000
     5  C    0.000000   0.000000   0.000000   0.000000   0.000000   0.000000
     6  H    0.000000   0.000000   0.000000   0.000000   0.000000   0.000000
     7  H    0.000000   0.000000   0.000000   0.000000   0.000000   0.000000
     8  C    0.000000   0.000000   0.000000   0.000000   0.000000   0.000000
     9  H    0.000000   0.000000   0.000000   0.000000   0.000000   0.000000
    10  O    0.000000   0.000000   0.000000   0.000000   0.000000   0.000000
    11  C    0.000000   0.000000   0.000000   0.000000   0.000000   0.000000
    12  H    0.000000   0.000000   0.000000   0.000000   0.000000   0.000000
    13  H    0.944918   0.000000   0.000000   0.000000   0.000000   0.000000
    14  H    0.000000   0.943031   0.000000   0.000000   0.000000   0.000000
    15  C    0.000000   0.000000   4.122243   0.000000   0.000000   0.000000
    16  H    0.000000   0.000000   0.000000   0.957807   0.000000   0.000000
    17  H    0.000000   0.000000   0.000000   0.000000   0.953000   0.000000
    18  H    0.000000   0.000000   0.000000   0.000000   0.000000   0.959172
 Mulliken charges:
               1
     1  C   -0.122249
     2  H    0.047008
     3  H    0.042194
     4  H    0.040813
     5  C   -0.130525
     6  H    0.056983
     7  H    0.055072
     8  C    0.078767
     9  H    0.063251
    10  O   -0.307503
    11  C   -0.130515
    12  H    0.186874
    13  H    0.055082
    14  H    0.056969
    15  C   -0.122243
    16  H    0.042193
    17  H    0.047000
    18  H    0.040828
 Sum of Mulliken charges =  -0.00000
 Mulliken charges with hydrogens summed into heavy atoms:
               1
     1  C    0.007767
     5  C   -0.018470
     8  C    0.142017
    10  O   -0.120629
    11  C   -0.018464
    15  C    0.007778
 Charge=             -0.0000 electrons
 Dipole moment (field-independent basis, Debye):
    X=              0.0002    Y=             -1.5815    Z=              0.3913  Tot=              1.6292
 N-N= 1.731538791052D+02 E-N=-2.606422189072D+02  KE=-5.970948177147D+01
 Leave Link  601 at Wed Sep  7 15:35:23 2022, MaxMem=   131072000 cpu:               0.0 elap:               0.0
 (Enter /opt/g16/l9999.exe)
 1\1\GINC-TOTEM2\FOpt\RPM3\ZDO\C5H12O1\JRAMOS\07-Sep-2022\0\\#p opt pm3
 \\Conformer number 014. Energy MM = 0.000 kcal/mol\\0,1\C,9.7600633472
 ,5.2181395837,8.6044580327\H,10.3229808452,4.3152312927,8.3170642291\H
 ,10.3739479336,5.7683182054,9.329444736\H,9.6769281632,5.8504177201,7.
 7098878672\C,8.4095800184,4.8784564224,9.191899456\H,7.8806731286,5.82
 15720121,9.4363275038\H,8.5451091613,4.3541627697,10.1587869399\C,7.49
 46077202,4.0188852337,8.2987213038\H,6.4537981584,4.1014643407,8.69448
 51514\O,7.3285154188,4.5517229616,7.00777082\C,7.8800551497,2.52721847
 66,8.289684445\H,8.1772735058,4.5244642452,6.5808099362\H,8.0625669936
 ,2.2080405512,9.3351220659\H,7.0058071924,1.9380004553,7.9469579815\C,
 9.0724720172,2.1681755145,7.4332247292\H,9.3225335412,1.104456805,7.53
 85276095\H,9.9690755306,2.7447465936,7.7131664141\H,8.8870121749,2.349
 5268165,6.365660779\\Version=ES64L-G16RevA.03\State=1-A\HF=-0.1184503\
 RMSD=9.451e-09\RMSF=5.687e-06\Dipole=0.534642,-0.2250744,0.2726577\PG=
 C01 [X(C5H12O1)]\\@


 NOTHING MAKES A PERSON MORE PRODUCTIVE THAN THE LAST MINUTE.
 Job cpu time:       0 days  0 hours  0 minutes  7.3 seconds.
 Elapsed time:       0 days  0 hours  0 minutes 36.9 seconds.
 File lengths (MBytes):  RWF=      6 Int=      0 D2E=      0 Chk=      2 Scr=      1
 Normal termination of Gaussian 16 at Wed Sep  7 15:35:23 2022.
