 Entering Gaussian System, Link 0=/opt/g16/g16
 Input=MD_extract_000_gaussian.com
 Output=MD_extract_000_gaussian.log
 Initial command:
 /opt/g16/l1.exe "/tmp/Gau-315888.inp" -scrdir="/tmp/"
 Entering Link 1 = /opt/g16/l1.exe PID=    315894.
  
 Copyright (c) 1988,1990,1992,1993,1995,1998,2003,2009,2016,
            Gaussian, Inc.  All Rights Reserved.
  
 This is part of the Gaussian(R) 16 program.  It is based on
 the Gaussian(R) 09 system (copyright 2009, Gaussian, Inc.),
 the Gaussian(R) 03 system (copyright 2003, Gaussian, Inc.),
 the Gaussian(R) 98 system (copyright 1998, Gaussian, Inc.),
 the Gaussian(R) 94 system (copyright 1995, Gaussian, Inc.),
 the Gaussian 92(TM) system (copyright 1992, Gaussian, Inc.),
 the Gaussian 90(TM) system (copyright 1990, Gaussian, Inc.),
 the Gaussian 88(TM) system (copyright 1988, Gaussian, Inc.),
 the Gaussian 86(TM) system (copyright 1986, Carnegie Mellon
 University), and the Gaussian 82(TM) system (copyright 1983,
 Carnegie Mellon University). Gaussian is a federally registered
 trademark of Gaussian, Inc.
  
 This software contains proprietary and confidential information,
 including trade secrets, belonging to Gaussian, Inc.
  
 This software is provided under written license and may be
 used, copied, transmitted, or stored only in accord with that
 written license.
  
 The following legend is applicable only to US Government
 contracts under FAR:
  
                    RESTRICTED RIGHTS LEGEND
  
 Use, reproduction and disclosure by the US Government is
 subject to restrictions as set forth in subparagraphs (a)
 and (c) of the Commercial Computer Software - Restricted
 Rights clause in FAR 52.227-19.
  
 Gaussian, Inc.
 340 Quinnipiac St., Bldg. 40, Wallingford CT 06492
  
  
 ---------------------------------------------------------------
 Warning -- This program may not be used in any manner that
 competes with the business of Gaussian, Inc. or will provide
 assistance to any competitor of Gaussian, Inc.  The licensee
 of this program is prohibited from giving any competitor of
 Gaussian, Inc. access to this program.  By using this program,
 the user acknowledges that Gaussian, Inc. is engaged in the
 business of creating and licensing software in the field of
 computational chemistry and represents and warrants to the
 licensee that it is not a competitor of Gaussian, Inc. and that
 it will not use this program in any manner prohibited above.
 ---------------------------------------------------------------
  

 Cite this work as:
 Gaussian 16, Revision A.03,
 M. J. Frisch, G. W. Trucks, H. B. Schlegel, G. E. Scuseria, 
 M. A. Robb, J. R. Cheeseman, G. Scalmani, V. Barone, 
 G. A. Petersson, H. Nakatsuji, X. Li, M. Caricato, A. V. Marenich, 
 J. Bloino, B. G. Janesko, R. Gomperts, B. Mennucci, H. P. Hratchian, 
 J. V. Ortiz, A. F. Izmaylov, J. L. Sonnenberg, D. Williams-Young, 
 F. Ding, F. Lipparini, F. Egidi, J. Goings, B. Peng, A. Petrone, 
 T. Henderson, D. Ranasinghe, V. G. Zakrzewski, J. Gao, N. Rega, 
 G. Zheng, W. Liang, M. Hada, M. Ehara, K. Toyota, R. Fukuda, 
 J. Hasegawa, M. Ishida, T. Nakajima, Y. Honda, O. Kitao, H. Nakai, 
 T. Vreven, K. Throssell, J. A. Montgomery, Jr., J. E. Peralta, 
 F. Ogliaro, M. J. Bearpark, J. J. Heyd, E. N. Brothers, K. N. Kudin, 
 V. N. Staroverov, T. A. Keith, R. Kobayashi, J. Normand, 
 K. Raghavachari, A. P. Rendell, J. C. Burant, S. S. Iyengar, 
 J. Tomasi, M. Cossi, J. M. Millam, M. Klene, C. Adamo, R. Cammi, 
 J. W. Ochterski, R. L. Martin, K. Morokuma, O. Farkas, 
 J. B. Foresman, and D. J. Fox, Gaussian, Inc., Wallingford CT, 2016.
 
 ******************************************
 Gaussian 16:  ES64L-G16RevA.03 25-Dec-2016
                 7-Sep-2022 
 ******************************************
 %chk=MD_extract_000_gaussian.chk
 %nproc=1
 Will use up to    1 processors via shared memory.
 %mem=1000Mb
 ----------
 #p opt pm3
 ----------
 1/18=20,19=15,26=1,38=1/1,3;
 2/9=110,12=2,17=6,18=5,40=1/2;
 3/5=2,25=1,41=800000,71=1/1,2,3;
 4/35=1/1;
 5/5=2,35=1,38=5/2;
 6/7=2,8=2,9=2,10=2,28=1/1;
 7//1,2,3,16;
 1/18=20,19=15,26=1/3(2);
 2/9=110/2;
 99//99;
 2/9=110/2;
 3/5=2,25=1,41=800000,71=1,135=20/1,2,3;
 4/5=5,16=3,35=1/1;
 5/5=2,35=1,38=5/2;
 7//1,2,3,16;
 1/18=20,19=15,26=1/3(-5);
 2/9=110/2;
 6/7=2,8=2,9=2,10=2,19=2,28=1/1;
 99/9=1/99;
 Leave Link    1 at Wed Sep  7 15:33:19 2022, MaxMem=   131072000 cpu:               0.0 elap:               0.0
 (Enter /opt/g16/l101.exe)
 ------------------------------------------------
 Conformer number 000. Energy MM = 0.000 kcal/mol
 ------------------------------------------------
 Symbolic Z-matrix:
 Charge =  0 Multiplicity = 1
 C                     13.22     10.579    11.881 
 H                     13.031    9.512     11.768 
 H                     14.061    10.654    12.659 
 H                     13.501    10.95     10.845 
 C                     12.086    11.372    12.552 
 H                     11.626    10.765    13.356 
 H                     11.317    11.66     11.826 
 C                     12.523    12.586    13.251 
 H                     13.311    12.325    14.034 
 O                     13.183    13.522    12.396 
 C                     11.451    13.135    14.049 
 H                     12.449    13.979    11.975 
 H                     10.667    13.537    13.435 
 H                     11.131    12.312    14.603 
 C                     11.765    14.188    15.139 
 H                     12.553    13.73     15.822 
 H                     10.891    14.463    15.696 
 H                     12.264    15.092    14.683 
 
 ITRead=  0  0  0  0  0  0  0  0  0  0  0  0  0  0  0  0  0  0
 MicOpt= -1 -1 -1 -1 -1 -1 -1 -1 -1 -1 -1 -1 -1 -1 -1 -1 -1 -1
 NAtoms=     18 NQM=       18 NQMF=       0 NMMI=      0 NMMIF=      0
                NMic=       0 NMicF=      0.
                    Isotopes and Nuclear Properties:
 (Nuclear quadrupole moments (NQMom) in fm**2, nuclear magnetic moments (NMagM)
  in nuclear magnetons)

  Atom         1           2           3           4           5           6           7           8           9          10
 IAtWgt=          12           1           1           1          12           1           1          12           1          16
 AtmWgt=  12.0000000   1.0078250   1.0078250   1.0078250  12.0000000   1.0078250   1.0078250  12.0000000   1.0078250  15.9949146
 NucSpn=           0           1           1           1           0           1           1           0           1           0
 AtZEff=  -0.0000000  -0.0000000  -0.0000000  -0.0000000  -0.0000000  -0.0000000  -0.0000000  -0.0000000  -0.0000000  -0.0000000
 NQMom=    0.0000000   0.0000000   0.0000000   0.0000000   0.0000000   0.0000000   0.0000000   0.0000000   0.0000000   0.0000000
 NMagM=    0.0000000   2.7928460   2.7928460   2.7928460   0.0000000   2.7928460   2.7928460   0.0000000   2.7928460   0.0000000
 AtZNuc=   6.0000000   1.0000000   1.0000000   1.0000000   6.0000000   1.0000000   1.0000000   6.0000000   1.0000000   8.0000000

  Atom        11          12          13          14          15          16          17          18
 IAtWgt=          12           1           1           1          12           1           1           1
 AtmWgt=  12.0000000   1.0078250   1.0078250   1.0078250  12.0000000   1.0078250   1.0078250   1.0078250
 NucSpn=           0           1           1           1           0           1           1           1
 AtZEff=  -0.0000000  -0.0000000  -0.0000000  -0.0000000  -0.0000000  -0.0000000  -0.0000000  -0.0000000
 NQMom=    0.0000000   0.0000000   0.0000000   0.0000000   0.0000000   0.0000000   0.0000000   0.0000000
 NMagM=    0.0000000   2.7928460   2.7928460   2.7928460   0.0000000   2.7928460   2.7928460   2.7928460
 AtZNuc=   6.0000000   1.0000000   1.0000000   1.0000000   6.0000000   1.0000000   1.0000000   1.0000000
 Leave Link  101 at Wed Sep  7 15:33:19 2022, MaxMem=   131072000 cpu:               0.1 elap:               0.2
 (Enter /opt/g16/l103.exe)

 GradGradGradGradGradGradGradGradGradGradGradGradGradGradGradGradGradGrad
 Berny optimization.
 Initialization pass.
                           ----------------------------
                           !    Initial Parameters    !
                           ! (Angstroms and Degrees)  !
 --------------------------                            --------------------------
 ! Name  Definition              Value          Derivative Info.                !
 --------------------------------------------------------------------------------
 ! R1    R(1,2)                  1.0895         estimate D2E/DX2                !
 ! R2    R(1,3)                  1.1481         estimate D2E/DX2                !
 ! R3    R(1,4)                  1.1357         estimate D2E/DX2                !
 ! R4    R(1,5)                  1.5379         estimate D2E/DX2                !
 ! R5    R(5,6)                  1.1075         estimate D2E/DX2                !
 ! R6    R(5,7)                  1.0961         estimate D2E/DX2                !
 ! R7    R(5,8)                  1.4674         estimate D2E/DX2                !
 ! R8    R(8,9)                  1.1411         estimate D2E/DX2                !
 ! R9    R(8,10)                 1.4292         estimate D2E/DX2                !
 ! R10   R(8,11)                 1.4448         estimate D2E/DX2                !
 ! R11   R(10,12)                0.9617         estimate D2E/DX2                !
 ! R12   R(11,13)                1.0739         estimate D2E/DX2                !
 ! R13   R(11,14)                1.0424         estimate D2E/DX2                !
 ! R14   R(11,15)                1.5477         estimate D2E/DX2                !
 ! R15   R(15,16)                1.1389         estimate D2E/DX2                !
 ! R16   R(15,17)                1.0723         estimate D2E/DX2                !
 ! R17   R(15,18)                1.1288         estimate D2E/DX2                !
 ! A1    A(2,1,3)              105.149          estimate D2E/DX2                !
 ! A2    A(2,1,4)              105.5589         estimate D2E/DX2                !
 ! A3    A(2,1,5)              114.9825         estimate D2E/DX2                !
 ! A4    A(3,1,4)              114.5539         estimate D2E/DX2                !
 ! A5    A(3,1,5)              102.1685         estimate D2E/DX2                !
 ! A6    A(4,1,5)              114.3306         estimate D2E/DX2                !
 ! A7    A(1,5,6)              109.9023         estimate D2E/DX2                !
 ! A8    A(1,5,7)              111.3357         estimate D2E/DX2                !
 ! A9    A(1,5,8)              114.509          estimate D2E/DX2                !
 ! A10   A(6,5,7)              109.4793         estimate D2E/DX2                !
 ! A11   A(6,5,8)              103.3747         estimate D2E/DX2                !
 ! A12   A(7,5,8)              107.8827         estimate D2E/DX2                !
 ! A13   A(5,8,9)              110.0765         estimate D2E/DX2                !
 ! A14   A(5,8,10)             113.2255         estimate D2E/DX2                !
 ! A15   A(5,8,11)             110.8854         estimate D2E/DX2                !
 ! A16   A(9,8,10)             103.9682         estimate D2E/DX2                !
 ! A17   A(9,8,11)             102.7263         estimate D2E/DX2                !
 ! A18   A(10,8,11)            115.1001         estimate D2E/DX2                !
 ! A19   A(8,10,12)            102.7467         estimate D2E/DX2                !
 ! A20   A(8,11,13)            111.6005         estimate D2E/DX2                !
 ! A21   A(8,11,14)            102.7858         estimate D2E/DX2                !
 ! A22   A(8,11,15)            119.8001         estimate D2E/DX2                !
 ! A23   A(13,11,14)           112.0423         estimate D2E/DX2                !
 ! A24   A(13,11,15)           107.2227         estimate D2E/DX2                !
 ! A25   A(14,11,15)           103.011          estimate D2E/DX2                !
 ! A26   A(11,15,16)           106.8042         estimate D2E/DX2                !
 ! A27   A(11,15,17)           112.0215         estimate D2E/DX2                !
 ! A28   A(11,15,18)           110.4903         estimate D2E/DX2                !
 ! A29   A(16,15,17)           110.8279         estimate D2E/DX2                !
 ! A30   A(16,15,18)           104.978          estimate D2E/DX2                !
 ! A31   A(17,15,18)           111.3943         estimate D2E/DX2                !
 ! D1    D(2,1,5,6)             37.3734         estimate D2E/DX2                !
 ! D2    D(2,1,5,7)            -84.1035         estimate D2E/DX2                !
 ! D3    D(2,1,5,8)            153.1863         estimate D2E/DX2                !
 ! D4    D(3,1,5,6)            -75.9176         estimate D2E/DX2                !
 ! D5    D(3,1,5,7)            162.6055         estimate D2E/DX2                !
 ! D6    D(3,1,5,8)             39.8953         estimate D2E/DX2                !
 ! D7    D(4,1,5,6)            159.747          estimate D2E/DX2                !
 ! D8    D(4,1,5,7)             38.2701         estimate D2E/DX2                !
 ! D9    D(4,1,5,8)            -84.4401         estimate D2E/DX2                !
 ! D10   D(1,5,8,9)            -56.6232         estimate D2E/DX2                !
 ! D11   D(1,5,8,10)            59.2579         estimate D2E/DX2                !
 ! D12   D(1,5,8,11)          -169.6087         estimate D2E/DX2                !
 ! D13   D(6,5,8,9)             62.9121         estimate D2E/DX2                !
 ! D14   D(6,5,8,10)           178.7931         estimate D2E/DX2                !
 ! D15   D(6,5,8,11)           -50.0734         estimate D2E/DX2                !
 ! D16   D(7,5,8,9)            178.8171         estimate D2E/DX2                !
 ! D17   D(7,5,8,10)           -65.3019         estimate D2E/DX2                !
 ! D18   D(7,5,8,11)            65.8316         estimate D2E/DX2                !
 ! D19   D(5,8,10,12)           81.6801         estimate D2E/DX2                !
 ! D20   D(9,8,10,12)         -158.8695         estimate D2E/DX2                !
 ! D21   D(11,8,10,12)         -47.3266         estimate D2E/DX2                !
 ! D22   D(5,8,11,13)          -69.0            estimate D2E/DX2                !
 ! D23   D(5,8,11,14)           51.2486         estimate D2E/DX2                !
 ! D24   D(5,8,11,15)          164.5776         estimate D2E/DX2                !
 ! D25   D(9,8,11,13)          173.4293         estimate D2E/DX2                !
 ! D26   D(9,8,11,14)          -66.3221         estimate D2E/DX2                !
 ! D27   D(9,8,11,15)           47.0069         estimate D2E/DX2                !
 ! D28   D(10,8,11,13)          61.1537         estimate D2E/DX2                !
 ! D29   D(10,8,11,14)        -178.5977         estimate D2E/DX2                !
 ! D30   D(10,8,11,15)         -65.2687         estimate D2E/DX2                !
 ! D31   D(8,11,15,16)         -54.8199         estimate D2E/DX2                !
 ! D32   D(8,11,15,17)        -176.3402         estimate D2E/DX2                !
 ! D33   D(8,11,15,18)          58.8249         estimate D2E/DX2                !
 ! D34   D(13,11,15,16)        176.7414         estimate D2E/DX2                !
 ! D35   D(13,11,15,17)         55.2211         estimate D2E/DX2                !
 ! D36   D(13,11,15,18)        -69.6137         estimate D2E/DX2                !
 ! D37   D(14,11,15,16)         58.3892         estimate D2E/DX2                !
 ! D38   D(14,11,15,17)        -63.1311         estimate D2E/DX2                !
 ! D39   D(14,11,15,18)        172.034          estimate D2E/DX2                !
 --------------------------------------------------------------------------------
 Trust Radius=3.00D-01 FncErr=1.00D-07 GrdErr=1.00D-07 EigMax=2.50D+02 EigMin=1.00D-04
 Number of steps in this run=     97 maximum allowed number of steps=    108.
 GradGradGradGradGradGradGradGradGradGradGradGradGradGradGradGradGradGrad

 Leave Link  103 at Wed Sep  7 15:33:19 2022, MaxMem=   131072000 cpu:               0.0 elap:               0.0
 (Enter /opt/g16/l202.exe)
                          Input orientation:                          
 ---------------------------------------------------------------------
 Center     Atomic      Atomic             Coordinates (Angstroms)
 Number     Number       Type             X           Y           Z
 ---------------------------------------------------------------------
      1          6           0       13.220000   10.579000   11.881000
      2          1           0       13.031000    9.512000   11.768000
      3          1           0       14.061000   10.654000   12.659000
      4          1           0       13.501000   10.950000   10.845000
      5          6           0       12.086000   11.372000   12.552000
      6          1           0       11.626000   10.765000   13.356000
      7          1           0       11.317000   11.660000   11.826000
      8          6           0       12.523000   12.586000   13.251000
      9          1           0       13.311000   12.325000   14.034000
     10          8           0       13.183000   13.522000   12.396000
     11          6           0       11.451000   13.135000   14.049000
     12          1           0       12.449000   13.979000   11.975000
     13          1           0       10.667000   13.537000   13.435000
     14          1           0       11.131000   12.312000   14.603000
     15          6           0       11.765000   14.188000   15.139000
     16          1           0       12.553000   13.730000   15.822000
     17          1           0       10.891000   14.463000   15.696000
     18          1           0       12.264000   15.092000   14.683000
 ---------------------------------------------------------------------
                    Distance matrix (angstroms):
                    1          2          3          4          5
     1  C    0.000000
     2  H    1.089486   0.000000
     3  H    1.148125   1.777342   0.000000
     4  H    1.135737   1.772194   1.921409   0.000000
     5  C    1.537871   2.228740   2.104186   2.257024   0.000000
     6  H    2.179692   2.462880   2.535223   3.139263   1.107459
     7  H    2.189291   2.748648   3.038990   2.497262   1.096075
     8  C    2.527995   3.450627   2.539396   3.069498   1.467435
     9  H    2.773483   3.622999   2.290276   3.477995   2.145963
    10  O    2.987950   4.061722   3.010893   3.020250   2.418728
    11  C    3.789818   4.563495   3.859995   4.386609   2.398417
    12  H    3.487589   4.509508   3.757928   3.399771   2.694652
    13  H    4.205055   4.956613   4.520299   4.629495   2.735046
    14  H    3.844021   4.414434   3.887544   4.646989   2.449944
    15  C    5.075083   5.901811   4.889905   5.651263   3.837377
    16  H    5.089712   5.869832   4.662661   5.779069   4.058467
    17  H    5.921480   6.672420   5.812121   6.533412   4.568046
    18  H    5.397435   6.342075   5.198233   5.780707   4.290833
                    6          7          8          9         10
     6  H    0.000000
     7  H    1.799279   0.000000
     8  C    2.032652   2.083875   0.000000
     9  H    2.394266   3.048528   1.141120   0.000000
    10  O    3.308610   2.697017   1.429238   2.032790   0.000000
    11  C    2.475434   2.671200   1.444780   2.028774   2.425284
    12  H    3.593645   2.584838   1.890529   2.778172   0.961689
    13  H    2.934264   2.556269   2.093560   2.969593   2.722132
    14  H    2.047741   2.858571   1.959756   2.253071   3.247407
    15  C    3.862038   4.191355   2.589500   2.661186   3.158849
    16  H    3.966322   4.666970   2.814192   2.396984   3.489648
    17  H    4.437457   4.797414   3.487776   3.631761   4.126590
    18  H    4.570657   4.564853   2.897886   3.028811   2.922299
                   11         12         13         14         15
    11  C    0.000000
    12  H    2.451493   0.000000
    13  H    1.073898   2.345738   0.000000
    14  H    1.042423   3.379704   1.755034   0.000000
    15  C    1.547742   3.243830   2.129089   2.051494   0.000000
    16  H    2.170704   3.856453   3.048280   2.349206   1.138946
    17  H    2.188560   4.062937   2.453523   2.424675   1.072264
    18  H    2.211962   2.933642   2.554592   3.003080   1.128784
                   16         17         18
    16  H    0.000000
    17  H    1.820826   0.000000
    18  H    1.798857   1.818499   0.000000
 Stoichiometry    C5H12O
 Framework group  C1[X(C5H12O)]
 Deg. of freedom    48
 Full point group                 C1      NOp   1
 Largest Abelian subgroup         C1      NOp   1
 Largest concise Abelian subgroup C1      NOp   1
                         Standard orientation:                         
 ---------------------------------------------------------------------
 Center     Atomic      Atomic             Coordinates (Angstroms)
 Number     Number       Type             X           Y           Z
 ---------------------------------------------------------------------
      1          6           0        2.517539   -0.189108    0.308646
      2          1           0        3.295080   -0.951606    0.340357
      3          1           0        2.205217   -0.033396    1.402446
      4          1           0        2.999079    0.716961   -0.178237
      5          6           0        1.198343   -0.633477   -0.345040
      6          1           0        0.982442   -1.686896   -0.080159
      7          1           0        1.239639   -0.531911   -1.435617
      8          6           0        0.010941    0.086164    0.129892
      9          1           0       -0.080722   -0.014059    1.262900
     10          8           0        0.082733    1.497029   -0.086963
     11          6           0       -1.198480   -0.546058   -0.344433
     12          1           0       -0.181993    1.583976   -1.007401
     13          1           0       -1.314474   -0.431267   -1.405859
     14          1           0       -1.060188   -1.542567   -0.071506
     15          6           0       -2.557543   -0.192003    0.306027
     16          1           0       -2.444865   -0.374948    1.424522
     17          1           0       -3.360703   -0.777040   -0.096981
     18          1           0       -2.765183    0.913415    0.210684
 ---------------------------------------------------------------------
 Rotational constants (GHZ):           6.9455350           1.9366844           1.6791186
 Leave Link  202 at Wed Sep  7 15:33:19 2022, MaxMem=   131072000 cpu:               0.0 elap:               0.0
 (Enter /opt/g16/l301.exe)
 Standard basis: VSTO-6G (5D, 7F)
 Ernie: Thresh=  0.10000D-02 Tol=  0.10000D-05 Strict=F.
  NNHCO=     0 NNPyr=     0 NCTC=     0               EPep=         0.000000000
    EC=       128.433879519  ECS=         2.246477220   EG=         0.570918491
   EHC=         0.000000000  EAt=       -36.836480110  AtH=         2.452923921
 EPDDG=         0.000000000  ECC=       131.251275230 EAtT=        39.289404030
 There are    36 symmetry adapted cartesian basis functions of A   symmetry.
 There are    36 symmetry adapted basis functions of A   symmetry.
    36 basis functions,   216 primitive gaussians,    36 cartesian basis functions
    19 alpha electrons       19 beta electrons
       nuclear repulsion energy       170.5406792606 Hartrees.
 IExCor=    0 DFT=F Ex=HF Corr=None ExCW=0 ScaHFX=  1.000000
 ScaDFX=  1.000000  1.000000  1.000000  1.000000 ScalE2=  1.000000  1.000000
 IRadAn=      5 IRanWt=     -1 IRanGd=            0 ICorTp=0 IEmpDi=  4
 Integral buffers will be    131072 words long.
 Regular integral format.
 Two-electron integral symmetry is turned off.
 Leave Link  301 at Wed Sep  7 15:33:19 2022, MaxMem=   131072000 cpu:               0.0 elap:               0.0
 (Enter /opt/g16/l302.exe)
 Do NDO integrals.
 NPDir=0 NMtPBC=     1 NCelOv=     1 NCel=       1 NClECP=     1 NCelD=      1
         NCelK=      1 NCelE2=     1 NClLst=     1 CellRange=     0.0.
 One-electron integrals computed using PRISM.
 NBasis=    36 RedAO= F EigKep=  0.00D+00  NBF=    36
 NBsUse=    36 1.00D-04 EigRej=  0.00D+00 NBFU=    36
 Leave Link  302 at Wed Sep  7 15:33:19 2022, MaxMem=   131072000 cpu:               0.0 elap:               0.0
 (Enter /opt/g16/l303.exe)
 DipDrv:  MaxL=1.
 Leave Link  303 at Wed Sep  7 15:33:19 2022, MaxMem=   131072000 cpu:               0.0 elap:               0.0
 (Enter /opt/g16/l401.exe)
 Simple Huckel Guess.
 JPrj=0 DoOrth=F DoCkMO=F.
 Leave Link  401 at Wed Sep  7 15:33:19 2022, MaxMem=   131072000 cpu:               0.0 elap:               0.0
 (Enter /opt/g16/l502.exe)
 Keep J ints in memory in canonical form, NReq=862161.
 FoFCou: FMM=F IPFlag=           0 FMFlag=           0 FMFlg1=           0
         NFxFlg=           0 DoJE=F BraDBF=F KetDBF=F FulRan=T
         wScrn=  0.000000 ICntrl=       600 IOpCl=  2 I1Cent=           0 NGrid=           0
         NMat0=    1 NMatS0=     72 NMatT0=    0 NMatD0=    1 NMtDS0=    0 NMtDT0=    0
 Symmetry not used in FoFCou.
 Two-electron integral symmetry not used.
 Closed shell SCF:
 Using DIIS extrapolation, IDIIS=  1040.
 Overlap will be assumed to be unity.
 NGot=   131072000 LenX=   131006778 LenY=   131005041
 Requested convergence on RMS density matrix=1.00D-08 within 128 cycles.
 Requested convergence on MAX density matrix=1.00D-06.
 Requested convergence on             energy=1.00D-06.
 No special actions if energy rises.

 Cycle   1  Pass 1  IDiag  1:
 E= 0.200518534478164    
 DIIS: error= 7.09D-02 at cycle   1 NSaved=   1.
 NSaved= 1 IEnMin= 1 EnMin= 0.200518534478164     IErMin= 1 ErrMin= 7.09D-02
 ErrMax= 7.09D-02  0.00D+00 EMaxC= 1.00D-01 BMatC= 1.09D-01 BMatP= 1.09D-01
 IDIUse=3 WtCom= 2.91D-01 WtEn= 7.09D-01
 Coeff-Com:  0.100D+01
 Coeff-En:   0.100D+01
 Coeff:      0.100D+01
 GapD=    2.000 DampG=2.000 DampE=0.500 DampFc=1.0000 IDamp=-1.
 RMSDP=1.29D-02 MaxDP=1.51D-01              OVMax= 0.00D+00

 Cycle   2  Pass 1  IDiag  1:
 E=-0.630077907025566E-01 Delta-E=       -0.263526325181 Rises=F Damp=F
 DIIS: error= 1.40D-02 at cycle   2 NSaved=   2.
 NSaved= 2 IEnMin= 2 EnMin=-0.630077907025566E-01 IErMin= 2 ErrMin= 1.40D-02
 ErrMax= 1.40D-02  0.00D+00 EMaxC= 1.00D-01 BMatC= 7.14D-03 BMatP= 1.09D-01
 IDIUse=3 WtCom= 8.60D-01 WtEn= 1.40D-01
 Coeff-Com: -0.306D+00 0.131D+01
 Coeff-En:   0.000D+00 0.100D+01
 Coeff:     -0.263D+00 0.126D+01
 RMSDP=4.71D-03 MaxDP=5.19D-02 DE=-2.64D-01 OVMax= 0.00D+00

 Cycle   3  Pass 1  IDiag  3:
 E=-0.852551117746430E-01 Delta-E=       -0.022247321072 Rises=F Damp=F
 DIIS: error= 3.01D-03 at cycle   3 NSaved=   3.
 NSaved= 3 IEnMin= 3 EnMin=-0.852551117746430E-01 IErMin= 3 ErrMin= 3.01D-03
 ErrMax= 3.01D-03  0.00D+00 EMaxC= 1.00D-01 BMatC= 2.15D-04 BMatP= 7.14D-03
 IDIUse=3 WtCom= 9.70D-01 WtEn= 3.01D-02
 Coeff-Com:  0.141D+00-0.684D+00 0.154D+01
 Coeff-En:   0.000D+00 0.000D+00 0.100D+01
 Coeff:      0.137D+00-0.663D+00 0.153D+01
 Gap=     0.521 Goal=   None    Shift=    0.000
 RMSDP=1.30D-03 MaxDP=1.32D-02 DE=-2.22D-02 OVMax= 1.13D-02

 Cycle   4  Pass 1  IDiag  3:
 E=-0.863841468971600E-01 Delta-E=       -0.001129035123 Rises=F Damp=F
 DIIS: error= 6.52D-04 at cycle   4 NSaved=   4.
 NSaved= 4 IEnMin= 4 EnMin=-0.863841468971600E-01 IErMin= 4 ErrMin= 6.52D-04
 ErrMax= 6.52D-04  0.00D+00 EMaxC= 1.00D-01 BMatC= 9.26D-06 BMatP= 2.15D-04
 IDIUse=3 WtCom= 9.93D-01 WtEn= 6.52D-03
 Coeff-Com: -0.293D-01 0.157D+00-0.536D+00 0.141D+01
 Coeff-En:   0.000D+00 0.000D+00 0.000D+00 0.100D+01
 Coeff:     -0.292D-01 0.156D+00-0.533D+00 0.141D+01
 Gap=     0.521 Goal=   None    Shift=    0.000
 RMSDP=3.15D-04 MaxDP=3.43D-03 DE=-1.13D-03 OVMax= 2.54D-03

 Cycle   5  Pass 1  IDiag  3:
 E=-0.864381332239930E-01 Delta-E=       -0.000053986327 Rises=F Damp=F
 DIIS: error= 1.22D-04 at cycle   5 NSaved=   5.
 NSaved= 5 IEnMin= 5 EnMin=-0.864381332239930E-01 IErMin= 5 ErrMin= 1.22D-04
 ErrMax= 1.22D-04  0.00D+00 EMaxC= 1.00D-01 BMatC= 3.27D-07 BMatP= 9.26D-06
 IDIUse=3 WtCom= 9.99D-01 WtEn= 1.22D-03
 Coeff-Com:  0.147D-02-0.109D-01 0.729D-01-0.376D+00 0.131D+01
 Coeff-En:   0.000D+00 0.000D+00 0.000D+00 0.000D+00 0.100D+01
 Coeff:      0.147D-02-0.109D-01 0.728D-01-0.376D+00 0.131D+01
 Gap=     0.522 Goal=   None    Shift=    0.000
 RMSDP=5.49D-05 MaxDP=5.76D-04 DE=-5.40D-05 OVMax= 3.65D-04

 Cycle   6  Pass 1  IDiag  3:
 E=-0.864399452208033E-01 Delta-E=       -0.000001811997 Rises=F Damp=F
 DIIS: error= 3.54D-05 at cycle   6 NSaved=   6.
 NSaved= 6 IEnMin= 6 EnMin=-0.864399452208033E-01 IErMin= 6 ErrMin= 3.54D-05
 ErrMax= 3.54D-05  0.00D+00 EMaxC= 1.00D-01 BMatC= 2.20D-08 BMatP= 3.27D-07
 IDIUse=1 WtCom= 1.00D+00 WtEn= 0.00D+00
 Coeff-Com: -0.278D-03 0.285D-02-0.263D-01 0.159D+00-0.713D+00 0.158D+01
 Coeff:     -0.278D-03 0.285D-02-0.263D-01 0.159D+00-0.713D+00 0.158D+01
 Gap=     0.522 Goal=   None    Shift=    0.000
 RMSDP=1.57D-05 MaxDP=2.03D-04 DE=-1.81D-06 OVMax= 1.06D-04

 Cycle   7  Pass 1  IDiag  3:
 E=-0.864400822668472E-01 Delta-E=       -0.000000137046 Rises=F Damp=F
 DIIS: error= 5.81D-06 at cycle   7 NSaved=   7.
 NSaved= 7 IEnMin= 7 EnMin=-0.864400822668472E-01 IErMin= 7 ErrMin= 5.81D-06
 ErrMax= 5.81D-06  0.00D+00 EMaxC= 1.00D-01 BMatC= 1.45D-09 BMatP= 2.20D-08
 IDIUse=1 WtCom= 1.00D+00 WtEn= 0.00D+00
 Coeff-Com:  0.139D-03-0.141D-02 0.132D-01-0.802D-01 0.376D+00-0.100D+01
 Coeff-Com:  0.169D+01
 Coeff:      0.139D-03-0.141D-02 0.132D-01-0.802D-01 0.376D+00-0.100D+01
 Coeff:      0.169D+01
 Gap=     0.522 Goal=   None    Shift=    0.000
 RMSDP=4.51D-06 MaxDP=4.67D-05 DE=-1.37D-07 OVMax= 3.62D-05

 Cycle   8  Pass 1  IDiag  3:
 E=-0.864400916739498E-01 Delta-E=       -0.000000009407 Rises=F Damp=F
 DIIS: error= 1.15D-06 at cycle   8 NSaved=   8.
 NSaved= 8 IEnMin= 8 EnMin=-0.864400916739498E-01 IErMin= 8 ErrMin= 1.15D-06
 ErrMax= 1.15D-06  0.00D+00 EMaxC= 1.00D-01 BMatC= 6.04D-11 BMatP= 1.45D-09
 IDIUse=1 WtCom= 1.00D+00 WtEn= 0.00D+00
 Coeff-Com: -0.546D-04 0.618D-03-0.617D-02 0.382D-01-0.182D+00 0.503D+00
 Coeff-Com: -0.971D+00 0.162D+01
 Coeff:     -0.546D-04 0.618D-03-0.617D-02 0.382D-01-0.182D+00 0.503D+00
 Coeff:     -0.971D+00 0.162D+01
 Gap=     0.522 Goal=   None    Shift=    0.000
 RMSDP=8.74D-07 MaxDP=7.41D-06 DE=-9.41D-09 OVMax= 6.07D-06

 Cycle   9  Pass 1  IDiag  3:
 E=-0.864400920704327E-01 Delta-E=       -0.000000000396 Rises=F Damp=F
 DIIS: error= 2.49D-07 at cycle   9 NSaved=   9.
 NSaved= 9 IEnMin= 9 EnMin=-0.864400920704327E-01 IErMin= 9 ErrMin= 2.49D-07
 ErrMax= 2.49D-07  0.00D+00 EMaxC= 1.00D-01 BMatC= 3.78D-12 BMatP= 6.04D-11
 IDIUse=1 WtCom= 1.00D+00 WtEn= 0.00D+00
 Coeff-Com:  0.158D-04-0.224D-03 0.249D-02-0.158D-01 0.764D-01-0.215D+00
 Coeff-Com:  0.431D+00-0.897D+00 0.162D+01
 Coeff:      0.158D-04-0.224D-03 0.249D-02-0.158D-01 0.764D-01-0.215D+00
 Coeff:      0.431D+00-0.897D+00 0.162D+01
 Gap=     0.522 Goal=   None    Shift=    0.000
 RMSDP=2.35D-07 MaxDP=1.76D-06 DE=-3.96D-10 OVMax= 1.38D-06

 Cycle  10  Pass 1  IDiag  3:
 E=-0.864400920958701E-01 Delta-E=       -0.000000000025 Rises=F Damp=F
 DIIS: error= 5.36D-08 at cycle  10 NSaved=  10.
 NSaved=10 IEnMin=10 EnMin=-0.864400920958701E-01 IErMin=10 ErrMin= 5.36D-08
 ErrMax= 5.36D-08  0.00D+00 EMaxC= 1.00D-01 BMatC= 1.45D-13 BMatP= 3.78D-12
 IDIUse=1 WtCom= 1.00D+00 WtEn= 0.00D+00
 Coeff-Com: -0.511D-05 0.762D-04-0.870D-03 0.555D-02-0.270D-01 0.764D-01
 Coeff-Com: -0.154D+00 0.333D+00-0.731D+00 0.150D+01
 Coeff:     -0.511D-05 0.762D-04-0.870D-03 0.555D-02-0.270D-01 0.764D-01
 Coeff:     -0.154D+00 0.333D+00-0.731D+00 0.150D+01
 Gap=     0.522 Goal=   None    Shift=    0.000
 RMSDP=4.30D-08 MaxDP=3.27D-07 DE=-2.54D-11 OVMax= 2.57D-07

 Cycle  11  Pass 1  IDiag  3:
 E=-0.864400920966659E-01 Delta-E=       -0.000000000001 Rises=F Damp=F
 DIIS: error= 1.34D-08 at cycle  11 NSaved=  11.
 NSaved=11 IEnMin=11 EnMin=-0.864400920966659E-01 IErMin=11 ErrMin= 1.34D-08
 ErrMax= 1.34D-08  0.00D+00 EMaxC= 1.00D-01 BMatC= 7.43D-15 BMatP= 1.45D-13
 IDIUse=1 WtCom= 1.00D+00 WtEn= 0.00D+00
 Coeff-Com:  0.153D-05-0.227D-04 0.260D-03-0.166D-02 0.811D-02-0.231D-01
 Coeff-Com:  0.467D-01-0.101D+00 0.238D+00-0.650D+00 0.148D+01
 Coeff:      0.153D-05-0.227D-04 0.260D-03-0.166D-02 0.811D-02-0.231D-01
 Coeff:      0.467D-01-0.101D+00 0.238D+00-0.650D+00 0.148D+01
 Gap=     0.522 Goal=   None    Shift=    0.000
 RMSDP=9.25D-09 MaxDP=7.71D-08 DE=-7.96D-13 OVMax= 5.24D-08

 Cycle  12  Pass 2  IDiag  1:
 SCF Done:  E(RPM3) = -0.864400920967E-01 A.U. after   12 cycles
            NFock= 11  Conv=0.92D-08     -V/T= 0.9986
 KE=-5.968601328877D+01 PE=-2.553879187243D+02 EE= 1.444468126603D+02
 Leave Link  502 at Wed Sep  7 15:33:19 2022, MaxMem=   131072000 cpu:               0.0 elap:               0.0
 (Enter /opt/g16/l601.exe)
 Copying SCF densities to generalized density rwf, IOpCl= 0 IROHF=0.

 **********************************************************************

            Population analysis using the SCF density.

 **********************************************************************

 Orbital symmetries:
       Occupied  (A) (A) (A) (A) (A) (A) (A) (A) (A) (A) (A) (A)
                 (A) (A) (A) (A) (A) (A) (A)
       Virtual   (A) (A) (A) (A) (A) (A) (A) (A) (A) (A) (A) (A)
                 (A) (A) (A) (A) (A)
 The electronic state is 1-A.
 Alpha  occ. eigenvalues --   -1.51081  -1.24515  -1.20061  -0.96382  -0.79121
 Alpha  occ. eigenvalues --   -0.77074  -0.64948  -0.61596  -0.58510  -0.55488
 Alpha  occ. eigenvalues --   -0.53402  -0.51712  -0.49215  -0.47652  -0.45609
 Alpha  occ. eigenvalues --   -0.44524  -0.43906  -0.42986  -0.41233
 Alpha virt. eigenvalues --    0.10878   0.12469   0.12932   0.13954   0.14124
 Alpha virt. eigenvalues --    0.14447   0.14730   0.15258   0.15405   0.15811
 Alpha virt. eigenvalues --    0.16315   0.16906   0.17442   0.17530   0.18483
 Alpha virt. eigenvalues --    0.18675   0.20803
          Condensed to atoms (all electrons):
               1          2          3          4          5          6
     1  C    4.101705   0.000000   0.000000   0.000000   0.000000   0.000000
     2  H    0.000000   0.966011   0.000000   0.000000   0.000000   0.000000
     3  H    0.000000   0.000000   0.958564   0.000000   0.000000   0.000000
     4  H    0.000000   0.000000   0.000000   0.946294   0.000000   0.000000
     5  C    0.000000   0.000000   0.000000   0.000000   4.125724   0.000000
     6  H    0.000000   0.000000   0.000000   0.000000   0.000000   0.944059
     7  H    0.000000   0.000000   0.000000   0.000000   0.000000   0.000000
     8  C    0.000000   0.000000   0.000000   0.000000   0.000000   0.000000
     9  H    0.000000   0.000000   0.000000   0.000000   0.000000   0.000000
    10  O    0.000000   0.000000   0.000000   0.000000   0.000000   0.000000
    11  C    0.000000   0.000000   0.000000   0.000000   0.000000   0.000000
    12  H    0.000000   0.000000   0.000000   0.000000   0.000000   0.000000
    13  H    0.000000   0.000000   0.000000   0.000000   0.000000   0.000000
    14  H    0.000000   0.000000   0.000000   0.000000   0.000000   0.000000
    15  C    0.000000   0.000000   0.000000   0.000000   0.000000   0.000000
    16  H    0.000000   0.000000   0.000000   0.000000   0.000000   0.000000
    17  H    0.000000   0.000000   0.000000   0.000000   0.000000   0.000000
    18  H    0.000000   0.000000   0.000000   0.000000   0.000000   0.000000
               7          8          9         10         11         12
     1  C    0.000000   0.000000   0.000000   0.000000   0.000000   0.000000
     2  H    0.000000   0.000000   0.000000   0.000000   0.000000   0.000000
     3  H    0.000000   0.000000   0.000000   0.000000   0.000000   0.000000
     4  H    0.000000   0.000000   0.000000   0.000000   0.000000   0.000000
     5  C    0.000000   0.000000   0.000000   0.000000   0.000000   0.000000
     6  H    0.000000   0.000000   0.000000   0.000000   0.000000   0.000000
     7  H    0.947873   0.000000   0.000000   0.000000   0.000000   0.000000
     8  C    0.000000   3.946120   0.000000   0.000000   0.000000   0.000000
     9  H    0.000000   0.000000   0.932995   0.000000   0.000000   0.000000
    10  O    0.000000   0.000000   0.000000   6.297271   0.000000   0.000000
    11  C    0.000000   0.000000   0.000000   0.000000   4.147599   0.000000
    12  H    0.000000   0.000000   0.000000   0.000000   0.000000   0.820572
    13  H    0.000000   0.000000   0.000000   0.000000   0.000000   0.000000
    14  H    0.000000   0.000000   0.000000   0.000000   0.000000   0.000000
    15  C    0.000000   0.000000   0.000000   0.000000   0.000000   0.000000
    16  H    0.000000   0.000000   0.000000   0.000000   0.000000   0.000000
    17  H    0.000000   0.000000   0.000000   0.000000   0.000000   0.000000
    18  H    0.000000   0.000000   0.000000   0.000000   0.000000   0.000000
              13         14         15         16         17         18
     1  C    0.000000   0.000000   0.000000   0.000000   0.000000   0.000000
     2  H    0.000000   0.000000   0.000000   0.000000   0.000000   0.000000
     3  H    0.000000   0.000000   0.000000   0.000000   0.000000   0.000000
     4  H    0.000000   0.000000   0.000000   0.000000   0.000000   0.000000
     5  C    0.000000   0.000000   0.000000   0.000000   0.000000   0.000000
     6  H    0.000000   0.000000   0.000000   0.000000   0.000000   0.000000
     7  H    0.000000   0.000000   0.000000   0.000000   0.000000   0.000000
     8  C    0.000000   0.000000   0.000000   0.000000   0.000000   0.000000
     9  H    0.000000   0.000000   0.000000   0.000000   0.000000   0.000000
    10  O    0.000000   0.000000   0.000000   0.000000   0.000000   0.000000
    11  C    0.000000   0.000000   0.000000   0.000000   0.000000   0.000000
    12  H    0.000000   0.000000   0.000000   0.000000   0.000000   0.000000
    13  H    0.944898   0.000000   0.000000   0.000000   0.000000   0.000000
    14  H    0.000000   0.944434   0.000000   0.000000   0.000000   0.000000
    15  C    0.000000   0.000000   4.106106   0.000000   0.000000   0.000000
    16  H    0.000000   0.000000   0.000000   0.963507   0.000000   0.000000
    17  H    0.000000   0.000000   0.000000   0.000000   0.950919   0.000000
    18  H    0.000000   0.000000   0.000000   0.000000   0.000000   0.955349
 Mulliken charges:
               1
     1  C   -0.101705
     2  H    0.033989
     3  H    0.041436
     4  H    0.053706
     5  C   -0.125724
     6  H    0.055941
     7  H    0.052127
     8  C    0.053880
     9  H    0.067005
    10  O   -0.297271
    11  C   -0.147599
    12  H    0.179428
    13  H    0.055102
    14  H    0.055566
    15  C   -0.106106
    16  H    0.036493
    17  H    0.049081
    18  H    0.044651
 Sum of Mulliken charges =  -0.00000
 Mulliken charges with hydrogens summed into heavy atoms:
               1
     1  C    0.027425
     5  C   -0.017656
     8  C    0.120885
    10  O   -0.117843
    11  C   -0.036930
    15  C    0.024119
 Charge=             -0.0000 electrons
 Dipole moment (field-independent basis, Debye):
    X=             -0.4777    Y=             -1.2891    Z=             -0.8906  Tot=              1.6380
 N-N= 1.705406792606D+02 E-N=-2.553879189909D+02  KE=-5.968601328877D+01
 Leave Link  601 at Wed Sep  7 15:33:19 2022, MaxMem=   131072000 cpu:               0.0 elap:               0.0
 (Enter /opt/g16/l701.exe)
 ... and contract with generalized density number  0.
 Compute integral first derivatives.
 Leave Link  701 at Wed Sep  7 15:33:19 2022, MaxMem=   131072000 cpu:               0.0 elap:               0.0
 (Enter /opt/g16/l702.exe)
 L702 exits ... SP integral derivatives will be done elsewhere.
 Leave Link  702 at Wed Sep  7 15:33:19 2022, MaxMem=   131072000 cpu:               0.0 elap:               0.0
 (Enter /opt/g16/l703.exe)
 Integral derivatives from FoFJK, PRISM(SPDF).
 Compute integral first derivatives, UseDBF=F ICtDFT=           0.
 Calling FoFJK, ICntrl=      2127 FMM=F ISym2X=0 I1Cent= 0 IOpClX= 0 NMat=1 NMatS=1 NMatT=0.
 FoFJK:  IHMeth= 9 ICntrl=    2127 DoSepK=F KAlg= 0 I1Cent=           0 FoldK=F
 IRaf=         0 NMat=       1 IRICut=       1 DoRegI=T DoRafI=F ISym2E= 0 IDoP0=3 IntGTp=3.
 FoFCou: FMM=F IPFlag=           0 FMFlag=      100000 FMFlg1=         800
         NFxFlg=           0 DoJE=F BraDBF=F KetDBF=F FulRan=T
         wScrn=  0.000000 ICntrl=      2127 IOpCl=  0 I1Cent=           0 NGrid=           0
         NMat0=    1 NMatS0=      1 NMatT0=    0 NMatD0=    1 NMtDS0=    0 NMtDT0=    0
 Symmetry not used in FoFCou.
 Leave Link  703 at Wed Sep  7 15:33:19 2022, MaxMem=   131072000 cpu:               0.0 elap:               0.0
 (Enter /opt/g16/l716.exe)
 Dipole        =-1.87947054D-01-5.07179604D-01-3.50371523D-01
 ***** Axes restored to original set *****
 -------------------------------------------------------------------
 Center     Atomic                   Forces (Hartrees/Bohr)
 Number     Number              X              Y              Z
 -------------------------------------------------------------------
      1        6           0.014408950    0.018581242    0.016447292
      2        1          -0.006632924   -0.002109010   -0.000087543
      3        1          -0.009543970   -0.003369395   -0.028729717
      4        1          -0.002895004   -0.003259522    0.026078010
      5        6          -0.002499758   -0.046183587   -0.031954602
      6        1          -0.005032045   -0.007536641   -0.005678884
      7        1          -0.006615926   -0.005020675   -0.005714231
      8        6           0.088279291    0.023355059    0.003945143
      9        1           0.003404423    0.002007017   -0.013387133
     10        8          -0.019235205    0.000919066    0.001096690
     11        6          -0.029809496    0.064619279    0.043465924
     12        1           0.013518771   -0.002125787   -0.000223712
     13        1          -0.019875999    0.005979749   -0.012540052
     14        1          -0.028045033   -0.037109883    0.023159239
     15        6           0.049683909   -0.013654458   -0.023627121
     16        1          -0.018066055    0.013454988   -0.008265702
     17        1          -0.008801175    0.004409919    0.006314154
     18        1          -0.012242754   -0.012957361    0.009702246
 -------------------------------------------------------------------
 Cartesian Forces:  Max     0.088279291 RMS     0.023397812
 Leave Link  716 at Wed Sep  7 15:33:19 2022, MaxMem=   131072000 cpu:               0.0 elap:               0.0
 (Enter /opt/g16/l103.exe)

 GradGradGradGradGradGradGradGradGradGradGradGradGradGradGradGradGradGrad
 Berny optimization.
 FormGI is forming the generalized inverse of G from B-inverse, IUseBI=4.
 Internal  Forces:  Max     0.080334657 RMS     0.014721988
 Search for a local minimum.
 Step number   1 out of a maximum of   97
 All quantities printed in internal units (Hartrees-Bohrs-Radians)
 RMS Force = .14722D-01 SwitMx=.10000D-02 MixMth= 1
 Mixed Optimization -- RFO/linear search
 Second derivative matrix not updated -- first step.
 ITU=  0
     Eigenvalues ---    0.00230   0.00265   0.01197   0.01305   0.01496
     Eigenvalues ---    0.03403   0.03726   0.04355   0.04873   0.05002
     Eigenvalues ---    0.05245   0.05296   0.05711   0.06010   0.06073
     Eigenvalues ---    0.07515   0.08811   0.09521   0.12439   0.13068
     Eigenvalues ---    0.16000   0.16000   0.16000   0.16000   0.16000
     Eigenvalues ---    0.16000   0.16000   0.17905   0.21028   0.22063
     Eigenvalues ---    0.22296   0.27844   0.28708   0.28875   0.29515
     Eigenvalues ---    0.29718   0.30020   0.30689   0.32871   0.34120
     Eigenvalues ---    0.34872   0.36049   0.36742   0.36945   0.38937
     Eigenvalues ---    0.40945   0.41099   0.55112
 RFO step:  Lambda=-5.26990422D-02 EMin= 2.30000000D-03
 Linear search not attempted -- first point.
 Maximum step size (   0.300) exceeded in Quadratic search.
    -- Step size scaled by   0.787
 Iteration  1 RMS(Cart)=  0.07040338 RMS(Int)=  0.00202146
 Iteration  2 RMS(Cart)=  0.00223740 RMS(Int)=  0.00034158
 Iteration  3 RMS(Cart)=  0.00000324 RMS(Int)=  0.00034157
 Iteration  4 RMS(Cart)=  0.00000000 RMS(Int)=  0.00034157
 ITry= 1 IFail=0 DXMaxC= 2.43D-01 DCOld= 1.00D+10 DXMaxT= 3.00D-01 DXLimC= 3.00D+00 Rises=F
 Variable       Old X    -DE/DX   Delta X   Delta X   Delta X     New X
                                 (Linear)    (Quad)   (Total)
    R1        2.05883   0.00323   0.00000   0.00632   0.00632   2.06515
    R2        2.16964  -0.02668   0.00000  -0.06151  -0.06151   2.10813
    R3        2.14623  -0.02557   0.00000  -0.05703  -0.05703   2.08920
    R4        2.90615  -0.01450   0.00000  -0.03358  -0.03358   2.87257
    R5        2.09279   0.00210   0.00000   0.00433   0.00433   2.09712
    R6        2.07128   0.00711   0.00000   0.01420   0.01420   2.08549
    R7        2.77305   0.06017   0.00000   0.11464   0.11464   2.88769
    R8        2.15640  -0.00729   0.00000  -0.01651  -0.01651   2.13990
    R9        2.70087  -0.00395   0.00000  -0.00671  -0.00671   2.69416
   R10        2.73024   0.08033   0.00000   0.14305   0.14305   2.87329
   R11        1.81733  -0.01123   0.00000  -0.01464  -0.01464   1.80269
   R12        2.02937   0.02392   0.00000   0.04482   0.04482   2.07419
   R13        1.96989   0.05022   0.00000   0.08553   0.08553   2.05543
   R14        2.92481  -0.01499   0.00000  -0.03563  -0.03563   2.88918
   R15        2.15230  -0.02287   0.00000  -0.05145  -0.05145   2.10085
   R16        2.02629   0.01158   0.00000   0.02160   0.02160   2.04789
   R17        2.13309  -0.01971   0.00000  -0.04314  -0.04314   2.08995
    A1        1.83520  -0.00237   0.00000   0.00531   0.00573   1.84092
    A2        1.84235   0.00570   0.00000   0.01385   0.01307   1.85542
    A3        2.00682  -0.00909   0.00000  -0.03282  -0.03308   1.97375
    A4        1.99934  -0.01130   0.00000  -0.04593  -0.04556   1.95378
    A5        1.78318   0.02099   0.00000   0.08250   0.08292   1.86610
    A6        1.99544  -0.00480   0.00000  -0.02408  -0.02433   1.97111
    A7        1.91816  -0.00234   0.00000  -0.01415  -0.01417   1.90399
    A8        1.94318  -0.00117   0.00000  -0.01564  -0.01566   1.92751
    A9        1.99856  -0.00615   0.00000  -0.01334  -0.01318   1.98538
   A10        1.91077  -0.00339   0.00000  -0.02092  -0.02185   1.88892
   A11        1.80423   0.00877   0.00000   0.04645   0.04635   1.85058
   A12        1.88291   0.00493   0.00000   0.02112   0.02090   1.90381
   A13        1.92120  -0.00173   0.00000  -0.00285  -0.00381   1.91739
   A14        1.97616  -0.00312   0.00000  -0.01723  -0.01724   1.95892
   A15        1.93532   0.00596   0.00000   0.02027   0.01997   1.95528
   A16        1.81459  -0.00206   0.00000  -0.02142  -0.02137   1.79322
   A17        1.79291   0.00517   0.00000   0.03968   0.03949   1.83240
   A18        2.00888  -0.00399   0.00000  -0.01537  -0.01514   1.99373
   A19        1.79327   0.01390   0.00000   0.05146   0.05146   1.84473
   A20        1.94780   0.00618   0.00000   0.00841   0.00766   1.95546
   A21        1.79395   0.01019   0.00000   0.04859   0.04948   1.84343
   A22        2.09091  -0.02363   0.00000  -0.06581  -0.06559   2.02531
   A23        1.95551  -0.00761   0.00000  -0.03233  -0.03274   1.92276
   A24        1.87139   0.00771   0.00000   0.01214   0.01146   1.88285
   A25        1.79788   0.00664   0.00000   0.02932   0.03057   1.82845
   A26        1.86409   0.01028   0.00000   0.04219   0.04194   1.90602
   A27        1.95514  -0.00151   0.00000  -0.00999  -0.00996   1.94518
   A28        1.92842   0.00260   0.00000   0.00942   0.00913   1.93755
   A29        1.93431  -0.00512   0.00000  -0.01947  -0.01941   1.91491
   A30        1.83221  -0.00240   0.00000   0.00076   0.00015   1.83237
   A31        1.94420  -0.00336   0.00000  -0.01977  -0.01980   1.92440
    D1        0.65229  -0.00053   0.00000  -0.00017  -0.00036   0.65193
    D2       -1.46788   0.00612   0.00000   0.04624   0.04585  -1.42203
    D3        2.67361   0.00513   0.00000   0.04056   0.04020   2.71380
    D4       -1.32501  -0.00636   0.00000  -0.04169  -0.04155  -1.36656
    D5        2.83800   0.00029   0.00000   0.00472   0.00467   2.84267
    D6        0.69630  -0.00070   0.00000  -0.00096  -0.00099   0.69531
    D7        2.78811  -0.00423   0.00000  -0.02849  -0.02807   2.76004
    D8        0.66794   0.00241   0.00000   0.01792   0.01814   0.68608
    D9       -1.47376   0.00142   0.00000   0.01224   0.01249  -1.46127
   D10       -0.98826   0.00422   0.00000   0.02630   0.02618  -0.96208
   D11        1.03424  -0.00141   0.00000  -0.01292  -0.01286   1.02139
   D12       -2.96023  -0.00437   0.00000  -0.03132  -0.03134  -2.99157
   D13        1.09802   0.00387   0.00000   0.03254   0.03225   1.13027
   D14        3.12053  -0.00176   0.00000  -0.00668  -0.00679   3.11374
   D15       -0.87395  -0.00471   0.00000  -0.02508  -0.02527  -0.89922
   D16        3.12095   0.00627   0.00000   0.03977   0.03989  -3.12235
   D17       -1.13973   0.00064   0.00000   0.00055   0.00085  -1.13888
   D18        1.14898  -0.00231   0.00000  -0.01785  -0.01763   1.13135
   D19        1.42559   0.00136   0.00000  -0.00333  -0.00327   1.42231
   D20       -2.77280  -0.00369   0.00000  -0.02943  -0.02942  -2.80222
   D21       -0.82601  -0.00057   0.00000  -0.00192  -0.00198  -0.82799
   D22       -1.20428   0.00083   0.00000   0.00870   0.00899  -1.19529
   D23        0.89446   0.00090   0.00000   0.00330   0.00393   0.89839
   D24        2.87242   0.00489   0.00000   0.04260   0.04248   2.91490
   D25        3.02691  -0.00270   0.00000  -0.01895  -0.01926   3.00766
   D26       -1.15754  -0.00263   0.00000  -0.02435  -0.02431  -1.18185
   D27        0.82042   0.00137   0.00000   0.01495   0.01424   0.83466
   D28        1.06733  -0.00160   0.00000  -0.01057  -0.01049   1.05684
   D29       -3.11712  -0.00153   0.00000  -0.01598  -0.01555  -3.13267
   D30       -1.13915   0.00246   0.00000   0.02332   0.02300  -1.11615
   D31       -0.95679  -0.00463   0.00000  -0.03685  -0.03682  -0.99361
   D32       -3.07772  -0.00417   0.00000  -0.03461  -0.03437  -3.11209
   D33        1.02669  -0.00063   0.00000  -0.00852  -0.00814   1.01855
   D34        3.08472  -0.00093   0.00000  -0.00479  -0.00503   3.07969
   D35        0.96379  -0.00047   0.00000  -0.00256  -0.00259   0.96121
   D36       -1.21499   0.00308   0.00000   0.02354   0.02365  -1.19134
   D37        1.01908   0.00120   0.00000   0.01259   0.01225   1.03133
   D38       -1.10185   0.00166   0.00000   0.01483   0.01470  -1.08715
   D39        3.00256   0.00521   0.00000   0.04093   0.04093   3.04349
         Item               Value     Threshold  Converged?
 Maximum Force            0.080335     0.000450     NO 
 RMS     Force            0.014722     0.000300     NO 
 Maximum Displacement     0.242534     0.001800     NO 
 RMS     Displacement     0.070109     0.001200     NO 
 Predicted change in Energy=-2.809974D-02
 Lowest energy point so far.  Saving SCF results.
 GradGradGradGradGradGradGradGradGradGradGradGradGradGradGradGradGradGrad

 Leave Link  103 at Wed Sep  7 15:33:19 2022, MaxMem=   131072000 cpu:               0.0 elap:               0.0
 (Enter /opt/g16/l202.exe)
                          Input orientation:                          
 ---------------------------------------------------------------------
 Center     Atomic      Atomic             Coordinates (Angstroms)
 Number     Number       Type             X           Y           Z
 ---------------------------------------------------------------------
      1          6           0       13.248878   10.578808   11.863267
      2          1           0       13.044215    9.517241   11.703676
      3          1           0       14.110681   10.612750   12.570838
      4          1           0       13.510119   10.996790   10.873672
      5          6           0       12.098383   11.313752   12.531789
      6          1           0       11.631660   10.647333   13.286508
      7          1           0       11.329609   11.584252   11.787658
      8          6           0       12.527110   12.571230   13.286792
      9          1           0       13.331262   12.311863   14.040691
     10          8           0       13.182121   13.512308   12.439492
     11          6           0       11.390947   13.157535   14.109737
     12          1           0       12.485109   13.984887   11.991333
     13          1           0       10.597195   13.575364   13.477176
     14          1           0       11.002657   12.332445   14.702625
     15          6           0       11.784088   14.222210   15.134143
     16          1           0       12.542620   13.799440   15.828274
     17          1           0       10.924751   14.566631   15.697446
     18          1           0       12.288595   15.076160   14.644884
 ---------------------------------------------------------------------
                    Distance matrix (angstroms):
                    1          2          3          4          5
     1  C    0.000000
     2  H    1.092833   0.000000
     3  H    1.115577   1.757686   0.000000
     4  H    1.105556   1.759272   1.840796   0.000000
     5  C    1.520100   2.192675   2.131261   2.200640   0.000000
     6  H    2.155390   2.403701   2.580489   3.077744   1.109750
     7  H    2.168001   2.686906   3.048204   2.436207   1.103592
     8  C    2.552865   3.478578   2.618383   3.044391   1.528099
     9  H    2.784141   3.654306   2.378014   3.433863   2.189293
    10  O    2.990303   4.064604   3.047443   2.981142   2.452887
    11  C    3.892090   4.666279   4.030023   4.430781   2.527829
    12  H    3.493010   4.511675   3.788089   3.350901   2.752565
    13  H    4.314565   5.059799   4.684347   4.681068   2.874405
    14  H    4.022773   4.592062   4.142666   4.767832   2.636452
    15  C    5.110638   5.957580   5.001177   5.615526   3.915374
    16  H    5.156797   5.966669   4.819201   5.773992   4.152446
    17  H    6.000435   6.777807   5.963137   6.534270   4.688285
    18  H    5.374543   6.334292   5.248209   5.688183   4.319383
                    6          7          8          9         10
     6  H    0.000000
     7  H    1.793211   0.000000
     8  C    2.122077   2.157669   0.000000
     9  H    2.495616   3.100354   1.132385   0.000000
    10  O    3.365924   2.752106   1.425687   2.006775   0.000000
    11  C    2.652689   2.805536   1.520479   2.117723   2.474648
    12  H    3.680370   2.672024   1.917917   2.777562   0.953942
    13  H    3.111243   2.712089   2.183827   3.064164   2.786145
    14  H    2.289243   3.027164   2.094172   2.420947   3.356175
    15  C    4.027000   4.285363   2.586604   2.690503   3.117627
    16  H    4.150446   4.764980   2.822742   2.455666   3.460527
    17  H    4.655452   4.934059   3.515740   3.690543   4.101411
    18  H    4.678810   4.612681   2.859367   3.015550   2.847416
                   11         12         13         14         15
    11  C    0.000000
    12  H    2.523755   0.000000
    13  H    1.097614   2.437141   0.000000
    14  H    1.087685   3.504188   1.791918   0.000000
    15  C    1.528889   3.228778   2.138379   2.089989   0.000000
    16  H    2.166048   3.841851   3.059828   2.406377   1.111721
    17  H    2.173410   4.063055   2.453467   2.446901   1.083695
    18  H    2.184784   2.875905   2.544949   3.030667   1.105953
                   16         17         18
    16  H    0.000000
    17  H    1.795327   0.000000
    18  H    1.759248   1.796545   0.000000
 Stoichiometry    C5H12O
 Framework group  C1[X(C5H12O)]
 Deg. of freedom    48
 Full point group                 C1      NOp   1
 RotChk:  IX=0 Diff= 6.94D-02
 Largest Abelian subgroup         C1      NOp   1
 Largest concise Abelian subgroup C1      NOp   1
                         Standard orientation:                         
 ---------------------------------------------------------------------
 Center     Atomic      Atomic             Coordinates (Angstroms)
 Number     Number       Type             X           Y           Z
 ---------------------------------------------------------------------
      1          6           0        2.544004   -0.135314    0.309958
      2          1           0        3.344992   -0.878367    0.333906
      3          1           0        2.315664    0.090806    1.378248
      4          1           0        2.952518    0.744524   -0.220377
      5          6           0        1.261797   -0.660950   -0.314826
      6          1           0        1.121569   -1.721092   -0.018209
      7          1           0        1.322860   -0.615728   -1.415799
      8          6           0        0.005164    0.076054    0.146459
      9          1           0       -0.059917    0.055195    1.276780
     10          8           0        0.062524    1.471579   -0.139557
     11          6           0       -1.265401   -0.607598   -0.333270
     12          1           0       -0.189041    1.557791   -1.055683
     13          1           0       -1.387940   -0.532314   -1.421421
     14          1           0       -1.166476   -1.649833   -0.038281
     15          6           0       -2.566623   -0.139889    0.319088
     16          1           0       -2.489991   -0.267759    1.420769
     17          1           0       -3.419157   -0.694595   -0.054920
     18          1           0       -2.718920    0.944917    0.166989
 ---------------------------------------------------------------------
 Rotational constants (GHZ):           6.9407617           1.8797489           1.6365116
 Leave Link  202 at Wed Sep  7 15:33:19 2022, MaxMem=   131072000 cpu:               0.0 elap:               0.0
 (Enter /opt/g16/l301.exe)
 Standard basis: VSTO-6G (5D, 7F)
 Ernie: Thresh=  0.10000D-02 Tol=  0.10000D-05 Strict=F.
  NNHCO=     0 NNPyr=     0 NCTC=     0               EPep=         0.000000000
    EC=       127.307435457  ECS=         2.194355316   EG=         0.564183333
   EHC=         0.000000000  EAt=       -36.836480110  AtH=         2.452923921
 EPDDG=         0.000000000  ECC=       130.065974106 EAtT=        39.289404030
 There are    36 symmetry adapted cartesian basis functions of A   symmetry.
 There are    36 symmetry adapted basis functions of A   symmetry.
    36 basis functions,   216 primitive gaussians,    36 cartesian basis functions
    19 alpha electrons       19 beta electrons
       nuclear repulsion energy       169.3553781369 Hartrees.
 IExCor=    0 DFT=F Ex=HF Corr=None ExCW=0 ScaHFX=  1.000000
 ScaDFX=  1.000000  1.000000  1.000000  1.000000 ScalE2=  1.000000  1.000000
 IRadAn=      5 IRanWt=     -1 IRanGd=            0 ICorTp=0 IEmpDi=  4
 Integral buffers will be    131072 words long.
 Regular integral format.
 Two-electron integral symmetry is turned off.
 Leave Link  301 at Wed Sep  7 15:33:20 2022, MaxMem=   131072000 cpu:               0.0 elap:               0.0
 (Enter /opt/g16/l302.exe)
 Do NDO integrals.
 NPDir=0 NMtPBC=     1 NCelOv=     1 NCel=       1 NClECP=     1 NCelD=      1
         NCelK=      1 NCelE2=     1 NClLst=     1 CellRange=     0.0.
 One-electron integrals computed using PRISM.
 NBasis=    36 RedAO= F EigKep=  0.00D+00  NBF=    36
 NBsUse=    36 1.00D-04 EigRej=  0.00D+00 NBFU=    36
 Leave Link  302 at Wed Sep  7 15:33:20 2022, MaxMem=   131072000 cpu:               0.1 elap:               0.0
 (Enter /opt/g16/l303.exe)
 DipDrv:  MaxL=1.
 Leave Link  303 at Wed Sep  7 15:33:20 2022, MaxMem=   131072000 cpu:               0.0 elap:               0.0
 (Enter /opt/g16/l401.exe)
 Initial guess from the checkpoint file:  "MD_extract_000_gaussian.chk"
 B after Tr=     0.000000   -0.000000    0.000000
         Rot=    0.999718    0.023626   -0.001226   -0.001835 Ang=   2.72 deg.
 Guess basis will be translated and rotated to current coordinates.
 JPrj=0 DoOrth=T DoCkMO=T.
 Leave Link  401 at Wed Sep  7 15:33:20 2022, MaxMem=   131072000 cpu:               0.0 elap:               0.0
 (Enter /opt/g16/l502.exe)
 Keep J ints in memory in canonical form, NReq=862161.
 FoFCou: FMM=F IPFlag=           0 FMFlag=           0 FMFlg1=           0
         NFxFlg=           0 DoJE=F BraDBF=F KetDBF=F FulRan=T
         wScrn=  0.000000 ICntrl=       600 IOpCl=  2 I1Cent=           0 NGrid=           0
         NMat0=    1 NMatS0=     72 NMatT0=    0 NMatD0=    1 NMtDS0=    0 NMtDT0=    0
 Symmetry not used in FoFCou.
 Two-electron integral symmetry not used.
 Closed shell SCF:
 Using DIIS extrapolation, IDIIS=  1040.
 Overlap will be assumed to be unity.
 NGot=   131072000 LenX=   131006778 LenY=   131005041
 Requested convergence on RMS density matrix=1.00D-08 within 128 cycles.
 Requested convergence on MAX density matrix=1.00D-06.
 Requested convergence on             energy=1.00D-06.
 No special actions if energy rises.

 Cycle   1  Pass 1  IDiag  1:
 E=-0.105044247163022    
 DIIS: error= 7.07D-03 at cycle   1 NSaved=   1.
 NSaved= 1 IEnMin= 1 EnMin=-0.105044247163022     IErMin= 1 ErrMin= 7.07D-03
 ErrMax= 7.07D-03  0.00D+00 EMaxC= 1.00D-01 BMatC= 1.90D-03 BMatP= 1.90D-03
 IDIUse=3 WtCom= 9.29D-01 WtEn= 7.07D-02
 Coeff-Com:  0.100D+01
 Coeff-En:   0.100D+01
 Coeff:      0.100D+01
 GapD=    2.000 DampG=2.000 DampE=1.000 DampFc=2.0000 IDamp=-1.
 RMSDP=2.10D-03 MaxDP=1.37D-02              OVMax= 0.00D+00

 Cycle   2  Pass 1  IDiag  3:
 E=-0.111168183002576     Delta-E=       -0.006123935840 Rises=F Damp=F
 DIIS: error= 3.03D-03 at cycle   2 NSaved=   2.
 NSaved= 2 IEnMin= 2 EnMin=-0.111168183002576     IErMin= 2 ErrMin= 3.03D-03
 ErrMax= 3.03D-03  0.00D+00 EMaxC= 1.00D-01 BMatC= 2.34D-04 BMatP= 1.90D-03
 IDIUse=3 WtCom= 9.70D-01 WtEn= 3.03D-02
 Coeff-Com: -0.455D+00 0.146D+01
 Coeff-En:   0.000D+00 0.100D+01
 Coeff:     -0.442D+00 0.144D+01
 Gap=     0.519 Goal=   None    Shift=    0.000
 RMSDP=1.19D-03 MaxDP=9.05D-03 DE=-6.12D-03 OVMax= 7.02D-03

 Cycle   3  Pass 1  IDiag  3:
 E=-0.112221869425582     Delta-E=       -0.001053686423 Rises=F Damp=F
 DIIS: error= 5.72D-04 at cycle   3 NSaved=   3.
 NSaved= 3 IEnMin= 3 EnMin=-0.112221869425582     IErMin= 3 ErrMin= 5.72D-04
 ErrMax= 5.72D-04  0.00D+00 EMaxC= 1.00D-01 BMatC= 7.66D-06 BMatP= 2.34D-04
 IDIUse=3 WtCom= 9.94D-01 WtEn= 5.72D-03
 Coeff-Com:  0.168D+00-0.649D+00 0.148D+01
 Coeff-En:   0.000D+00 0.000D+00 0.100D+01
 Coeff:      0.167D+00-0.646D+00 0.148D+01
 Gap=     0.518 Goal=   None    Shift=    0.000
 RMSDP=2.73D-04 MaxDP=2.28D-03 DE=-1.05D-03 OVMax= 1.66D-03

 Cycle   4  Pass 1  IDiag  3:
 E=-0.112263098569116     Delta-E=       -0.000041229144 Rises=F Damp=F
 DIIS: error= 6.26D-05 at cycle   4 NSaved=   4.
 NSaved= 4 IEnMin= 4 EnMin=-0.112263098569116     IErMin= 4 ErrMin= 6.26D-05
 ErrMax= 6.26D-05  0.00D+00 EMaxC= 1.00D-01 BMatC= 1.77D-07 BMatP= 7.66D-06
 IDIUse=1 WtCom= 1.00D+00 WtEn= 0.00D+00
 Coeff-Com: -0.671D-01 0.265D+00-0.679D+00 0.148D+01
 Coeff:     -0.671D-01 0.265D+00-0.679D+00 0.148D+01
 Gap=     0.518 Goal=   None    Shift=    0.000
 RMSDP=4.19D-05 MaxDP=3.16D-04 DE=-4.12D-05 OVMax= 3.18D-04

 Cycle   5  Pass 1  IDiag  3:
 E=-0.112264122648725     Delta-E=       -0.000001024080 Rises=F Damp=F
 DIIS: error= 2.38D-05 at cycle   5 NSaved=   5.
 NSaved= 5 IEnMin= 5 EnMin=-0.112264122648725     IErMin= 5 ErrMin= 2.38D-05
 ErrMax= 2.38D-05  0.00D+00 EMaxC= 1.00D-01 BMatC= 1.06D-08 BMatP= 1.77D-07
 IDIUse=1 WtCom= 1.00D+00 WtEn= 0.00D+00
 Coeff-Com:  0.322D-01-0.128D+00 0.335D+00-0.860D+00 0.162D+01
 Coeff:      0.322D-01-0.128D+00 0.335D+00-0.860D+00 0.162D+01
 Gap=     0.518 Goal=   None    Shift=    0.000
 RMSDP=1.19D-05 MaxDP=1.38D-04 DE=-1.02D-06 OVMax= 1.28D-04

 Cycle   6  Pass 1  IDiag  3:
 E=-0.112264197029702     Delta-E=       -0.000000074381 Rises=F Damp=F
 DIIS: error= 7.34D-06 at cycle   6 NSaved=   6.
 NSaved= 6 IEnMin= 6 EnMin=-0.112264197029702     IErMin= 6 ErrMin= 7.34D-06
 ErrMax= 7.34D-06  0.00D+00 EMaxC= 1.00D-01 BMatC= 8.38D-10 BMatP= 1.06D-08
 IDIUse=1 WtCom= 1.00D+00 WtEn= 0.00D+00
 Coeff-Com: -0.143D-01 0.570D-01-0.150D+00 0.403D+00-0.956D+00 0.166D+01
 Coeff:     -0.143D-01 0.570D-01-0.150D+00 0.403D+00-0.956D+00 0.166D+01
 Gap=     0.518 Goal=   None    Shift=    0.000
 RMSDP=3.84D-06 MaxDP=5.05D-05 DE=-7.44D-08 OVMax= 4.39D-05

 Cycle   7  Pass 1  IDiag  3:
 E=-0.112264203627177     Delta-E=       -0.000000006597 Rises=F Damp=F
 DIIS: error= 1.53D-06 at cycle   7 NSaved=   7.
 NSaved= 7 IEnMin= 7 EnMin=-0.112264203627177     IErMin= 7 ErrMin= 1.53D-06
 ErrMax= 1.53D-06  0.00D+00 EMaxC= 1.00D-01 BMatC= 5.87D-11 BMatP= 8.38D-10
 IDIUse=1 WtCom= 1.00D+00 WtEn= 0.00D+00
 Coeff-Com:  0.569D-02-0.226D-01 0.598D-01-0.163D+00 0.419D+00-0.940D+00
 Coeff-Com:  0.164D+01
 Coeff:      0.569D-02-0.226D-01 0.598D-01-0.163D+00 0.419D+00-0.940D+00
 Coeff:      0.164D+01
 Gap=     0.518 Goal=   None    Shift=    0.000
 RMSDP=1.04D-06 MaxDP=1.24D-05 DE=-6.60D-09 OVMax= 1.06D-05

 Cycle   8  Pass 1  IDiag  3:
 E=-0.112264204072460     Delta-E=       -0.000000000445 Rises=F Damp=F
 DIIS: error= 2.33D-07 at cycle   8 NSaved=   8.
 NSaved= 8 IEnMin= 8 EnMin=-0.112264204072460     IErMin= 8 ErrMin= 2.33D-07
 ErrMax= 2.33D-07  0.00D+00 EMaxC= 1.00D-01 BMatC= 2.17D-12 BMatP= 5.87D-11
 IDIUse=1 WtCom= 1.00D+00 WtEn= 0.00D+00
 Coeff-Com: -0.108D-02 0.430D-02-0.114D-01 0.311D-01-0.833D-01 0.209D+00
 Coeff-Com: -0.527D+00 0.138D+01
 Coeff:     -0.108D-02 0.430D-02-0.114D-01 0.311D-01-0.833D-01 0.209D+00
 Coeff:     -0.527D+00 0.138D+01
 Gap=     0.518 Goal=   None    Shift=    0.000
 RMSDP=1.77D-07 MaxDP=1.65D-06 DE=-4.45D-10 OVMax= 1.56D-06

 Cycle   9  Pass 1  IDiag  3:
 E=-0.112264204086557     Delta-E=       -0.000000000014 Rises=F Damp=F
 DIIS: error= 4.50D-08 at cycle   9 NSaved=   9.
 NSaved= 9 IEnMin= 9 EnMin=-0.112264204086557     IErMin= 9 ErrMin= 4.50D-08
 ErrMax= 4.50D-08  0.00D+00 EMaxC= 1.00D-01 BMatC= 1.07D-13 BMatP= 2.17D-12
 IDIUse=1 WtCom= 1.00D+00 WtEn= 0.00D+00
 Coeff-Com:  0.183D-03-0.725D-03 0.191D-02-0.528D-02 0.149D-01-0.422D-01
 Coeff-Com:  0.135D+00-0.533D+00 0.143D+01
 Coeff:      0.183D-03-0.725D-03 0.191D-02-0.528D-02 0.149D-01-0.422D-01
 Coeff:      0.135D+00-0.533D+00 0.143D+01
 Gap=     0.518 Goal=   None    Shift=    0.000
 RMSDP=3.38D-08 MaxDP=2.68D-07 DE=-1.41D-11 OVMax= 2.39D-07

 Cycle  10  Pass 1  IDiag  3:
 E=-0.112264204087182     Delta-E=       -0.000000000001 Rises=F Damp=F
 DIIS: error= 1.06D-08 at cycle  10 NSaved=  10.
 NSaved=10 IEnMin=10 EnMin=-0.112264204087182     IErMin=10 ErrMin= 1.06D-08
 ErrMax= 1.06D-08  0.00D+00 EMaxC= 1.00D-01 BMatC= 7.25D-15 BMatP= 1.07D-13
 IDIUse=1 WtCom= 1.00D+00 WtEn= 0.00D+00
 Coeff-Com: -0.222D-04 0.877D-04-0.230D-03 0.662D-03-0.224D-02 0.837D-02
 Coeff-Com: -0.366D-01 0.186D+00-0.714D+00 0.156D+01
 Coeff:     -0.222D-04 0.877D-04-0.230D-03 0.662D-03-0.224D-02 0.837D-02
 Coeff:     -0.366D-01 0.186D+00-0.714D+00 0.156D+01
 Gap=     0.518 Goal=   None    Shift=    0.000
 RMSDP=9.56D-09 MaxDP=7.37D-08 DE=-6.25D-13 OVMax= 5.26D-08

 Cycle  11  Pass 2  IDiag  1:
 SCF Done:  E(RPM3) = -0.112264204087     A.U. after   11 cycles
            NFock= 10  Conv=0.96D-08     -V/T= 0.9981
 KE=-5.965624633791D+01 PE=-2.531821344665D+02 EE= 1.433707384635D+02
 Leave Link  502 at Wed Sep  7 15:33:20 2022, MaxMem=   131072000 cpu:               0.0 elap:               0.0
 (Enter /opt/g16/l701.exe)
 ... and contract with generalized density number  0.
 Compute integral first derivatives.
 Leave Link  701 at Wed Sep  7 15:33:20 2022, MaxMem=   131072000 cpu:               0.0 elap:               0.0
 (Enter /opt/g16/l702.exe)
 L702 exits ... SP integral derivatives will be done elsewhere.
 Leave Link  702 at Wed Sep  7 15:33:20 2022, MaxMem=   131072000 cpu:               0.0 elap:               0.0
 (Enter /opt/g16/l703.exe)
 Integral derivatives from FoFJK, PRISM(SPDF).
 Compute integral first derivatives, UseDBF=F ICtDFT=           0.
 Calling FoFJK, ICntrl=      2127 FMM=F ISym2X=0 I1Cent= 0 IOpClX= 0 NMat=1 NMatS=1 NMatT=0.
 FoFJK:  IHMeth= 9 ICntrl=    2127 DoSepK=F KAlg= 0 I1Cent=           0 FoldK=F
 IRaf=         0 NMat=       1 IRICut=       1 DoRegI=T DoRafI=F ISym2E= 0 IDoP0=3 IntGTp=3.
 FoFCou: FMM=F IPFlag=           0 FMFlag=      100000 FMFlg1=         800
         NFxFlg=           0 DoJE=F BraDBF=F KetDBF=F FulRan=T
         wScrn=  0.000000 ICntrl=      2127 IOpCl=  0 I1Cent=           0 NGrid=           0
         NMat0=    1 NMatS0=      1 NMatT0=    0 NMatD0=    1 NMtDS0=    0 NMtDT0=    0
 Symmetry not used in FoFCou.
 Leave Link  703 at Wed Sep  7 15:33:20 2022, MaxMem=   131072000 cpu:               0.0 elap:               0.0
 (Enter /opt/g16/l716.exe)
 Dipole        =-1.71427181D-01-4.84864000D-01-3.38263928D-01
 ***** Axes restored to original set *****
 -------------------------------------------------------------------
 Center     Atomic                   Forces (Hartrees/Bohr)
 Number     Number              X              Y              Z
 -------------------------------------------------------------------
      1        6           0.005496068    0.006476897    0.011414597
      2        1          -0.004403110   -0.002363000   -0.000866337
      3        1          -0.002442122    0.000390507   -0.013185628
      4        1           0.001729821    0.000317407    0.008694264
      5        6          -0.001709597   -0.003903520   -0.003051890
      6        1          -0.002494845   -0.000990784   -0.003994839
      7        1          -0.002596585   -0.002204164   -0.000521057
      8        6           0.027753986    0.009794183    0.005855447
      9        1          -0.000294209    0.001021080   -0.009586443
     10        8          -0.013420035   -0.004189405    0.005907269
     11        6          -0.001929219    0.014660286    0.010108445
     12        1           0.004864960   -0.002571232    0.000406626
     13        1          -0.004974800   -0.001852056   -0.004372190
     14        1          -0.012377200   -0.009923143    0.002661825
     15        6           0.024058519   -0.010704196   -0.014629539
     16        1          -0.007396248    0.004542055   -0.001187030
     17        1          -0.004041938    0.003134524    0.003413445
     18        1          -0.005823447   -0.001635439    0.002933035
 -------------------------------------------------------------------
 Cartesian Forces:  Max     0.027753986 RMS     0.008050639
 Leave Link  716 at Wed Sep  7 15:33:20 2022, MaxMem=   131072000 cpu:               0.0 elap:               0.0
 (Enter /opt/g16/l103.exe)

 GradGradGradGradGradGradGradGradGradGradGradGradGradGradGradGradGradGrad
 Berny optimization.
 Using GEDIIS/GDIIS optimizer.
 FormGI is forming the generalized inverse of G from B-inverse, IUseBI=4.
 Internal  Forces:  Max     0.014028157 RMS     0.004469158
 Search for a local minimum.
 Step number   2 out of a maximum of   97
 All quantities printed in internal units (Hartrees-Bohrs-Radians)
 RMS Force = .44692D-02 SwitMx=.10000D-02 MixMth= 1
 Mixed Optimization -- RFO/linear search
 Update second derivatives using D2CorX and points    1    2
 DE= -2.58D-02 DEPred=-2.81D-02 R= 9.19D-01
 TightC=F SS=  1.41D+00  RLast= 3.35D-01 DXNew= 5.0454D-01 1.0048D+00
 Trust test= 9.19D-01 RLast= 3.35D-01 DXMaxT set to 5.05D-01
 ITU=  1  0
 Use linear search instead of GDIIS.
     Eigenvalues ---    0.00230   0.00265   0.01197   0.01305   0.01497
     Eigenvalues ---    0.03686   0.03760   0.04344   0.05077   0.05140
     Eigenvalues ---    0.05269   0.05288   0.05603   0.05688   0.05740
     Eigenvalues ---    0.07715   0.08736   0.09033   0.12384   0.12652
     Eigenvalues ---    0.15302   0.16000   0.16000   0.16000   0.16000
     Eigenvalues ---    0.16000   0.16106   0.17925   0.20621   0.21266
     Eigenvalues ---    0.22029   0.27523   0.28524   0.28745   0.29364
     Eigenvalues ---    0.29721   0.30041   0.30700   0.32874   0.34119
     Eigenvalues ---    0.34828   0.36561   0.36822   0.37099   0.39921
     Eigenvalues ---    0.40620   0.50606   0.55023
 RFO step:  Lambda=-9.70060936D-03 EMin= 2.29999623D-03
 Quartic linear search produced a step of  0.44245.
 Iteration  1 RMS(Cart)=  0.08329246 RMS(Int)=  0.00428137
 Iteration  2 RMS(Cart)=  0.00512228 RMS(Int)=  0.00086737
 Iteration  3 RMS(Cart)=  0.00001355 RMS(Int)=  0.00086726
 Iteration  4 RMS(Cart)=  0.00000001 RMS(Int)=  0.00086726
 ITry= 1 IFail=0 DXMaxC= 2.73D-01 DCOld= 1.00D+10 DXMaxT= 5.05D-01 DXLimC= 3.00D+00 Rises=F
 Variable       Old X    -DE/DX   Delta X   Delta X   Delta X     New X
                                 (Linear)    (Quad)   (Total)
    R1        2.06515   0.00325   0.00280   0.01017   0.01297   2.07813
    R2        2.10813  -0.01024  -0.02721  -0.02214  -0.04936   2.05878
    R3        2.08920  -0.00725  -0.02523  -0.00861  -0.03384   2.05535
    R4        2.87257  -0.00471  -0.01486  -0.00800  -0.02286   2.84971
    R5        2.09712  -0.00107   0.00192  -0.00638  -0.00447   2.09266
    R6        2.08549   0.00162   0.00628   0.00045   0.00673   2.09222
    R7        2.88769   0.00442   0.05072  -0.03233   0.01839   2.90608
    R8        2.13990  -0.00683  -0.00730  -0.02472  -0.03203   2.10787
    R9        2.69416  -0.01215  -0.00297  -0.03824  -0.04121   2.65295
   R10        2.87329   0.00806   0.06329  -0.03263   0.03066   2.90395
   R11        1.80269  -0.00502  -0.00648  -0.00653  -0.01300   1.78969
   R12        2.07419   0.00541   0.01983   0.00116   0.02099   2.09518
   R13        2.05543   0.01340   0.03784   0.00887   0.04671   2.10214
   R14        2.88918  -0.00784  -0.01576  -0.02328  -0.03904   2.85014
   R15        2.10085  -0.00751  -0.02276  -0.01256  -0.03533   2.06552
   R16        2.04789   0.00598   0.00956   0.01316   0.02271   2.07060
   R17        2.08995  -0.00522  -0.01909  -0.00478  -0.02387   2.06608
    A1        1.84092  -0.00015   0.00253   0.02654   0.02896   1.86988
    A2        1.85542   0.00290   0.00578   0.00895   0.01336   1.86877
    A3        1.97375  -0.00534  -0.01463  -0.02275  -0.03817   1.93558
    A4        1.95378  -0.00705  -0.02016  -0.05575  -0.07483   1.87895
    A5        1.86610   0.01082   0.03669   0.05939   0.09660   1.96270
    A6        1.97111  -0.00160  -0.01077  -0.01665  -0.02753   1.94358
    A7        1.90399   0.00056  -0.00627   0.01229   0.00613   1.91012
    A8        1.92751   0.00106  -0.00693  -0.00052  -0.00750   1.92001
    A9        1.98538  -0.00511  -0.00583  -0.01919  -0.02493   1.96045
   A10        1.88892  -0.00258  -0.00967  -0.02748  -0.03785   1.85107
   A11        1.85058   0.00424   0.02051   0.03447   0.05492   1.90549
   A12        1.90381   0.00196   0.00925   0.00077   0.00963   1.91344
   A13        1.91739   0.00013  -0.00168   0.01813   0.01608   1.93347
   A14        1.95892   0.00131  -0.00763  -0.01173  -0.02148   1.93744
   A15        1.95528  -0.00353   0.00883  -0.04180  -0.03480   1.92049
   A16        1.79322  -0.00159  -0.00945  -0.00245  -0.01103   1.78219
   A17        1.83240   0.00551   0.01747   0.07455   0.09238   1.92478
   A18        1.99373  -0.00123  -0.00670  -0.02361  -0.03184   1.96189
   A19        1.84473   0.00310   0.02277   0.00287   0.02564   1.87036
   A20        1.95546   0.00150   0.00339  -0.03354  -0.03136   1.92410
   A21        1.84343   0.00513   0.02189   0.04228   0.06684   1.91027
   A22        2.02531  -0.01403  -0.02902  -0.05218  -0.08133   1.94399
   A23        1.92276  -0.00511  -0.01449  -0.04192  -0.05693   1.86583
   A24        1.88285   0.00636   0.00507   0.02244   0.02361   1.90646
   A25        1.82845   0.00628   0.01353   0.06785   0.08306   1.91152
   A26        1.90602   0.00481   0.01855   0.03243   0.05018   1.95620
   A27        1.94518  -0.00026  -0.00441  -0.01131  -0.01563   1.92955
   A28        1.93755   0.00122   0.00404   0.00820   0.01116   1.94870
   A29        1.91491  -0.00311  -0.00859  -0.02261  -0.03087   1.88404
   A30        1.83237  -0.00013   0.00007   0.02749   0.02571   1.85807
   A31        1.92440  -0.00251  -0.00876  -0.03173  -0.04065   1.88375
    D1        0.65193   0.00047  -0.00016   0.04138   0.04097   0.69290
    D2       -1.42203   0.00265   0.02029   0.06777   0.08773  -1.33430
    D3        2.71380   0.00299   0.01778   0.08117   0.09853   2.81233
    D4       -1.36656  -0.00314  -0.01838  -0.01529  -0.03389  -1.40045
    D5        2.84267  -0.00097   0.00206   0.01110   0.01287   2.85554
    D6        0.69531  -0.00063  -0.00044   0.02451   0.02367   0.71898
    D7        2.76004  -0.00089  -0.01242   0.02375   0.01205   2.77209
    D8        0.68608   0.00129   0.00803   0.05013   0.05882   0.74490
    D9       -1.46127   0.00163   0.00552   0.06354   0.06961  -1.39166
   D10       -0.96208   0.00156   0.01158   0.01473   0.02627  -0.93581
   D11        1.02139   0.00045  -0.00569   0.01598   0.01002   1.03140
   D12       -2.99157  -0.00320  -0.01387  -0.06361  -0.07719  -3.06877
   D13        1.13027   0.00213   0.01427   0.04194   0.05600   1.18627
   D14        3.11374   0.00102  -0.00300   0.04319   0.03974  -3.12970
   D15       -0.89922  -0.00263  -0.01118  -0.03641  -0.04747  -0.94669
   D16       -3.12235   0.00232   0.01765   0.02846   0.04627  -3.07608
   D17       -1.13888   0.00121   0.00038   0.02971   0.03001  -1.10887
   D18        1.13135  -0.00244  -0.00780  -0.04989  -0.05720   1.07415
   D19        1.42231  -0.00245  -0.00145  -0.08211  -0.08334   1.33897
   D20       -2.80222  -0.00261  -0.01302  -0.06770  -0.08067  -2.88289
   D21       -0.82799   0.00243  -0.00088   0.00856   0.00742  -0.82057
   D22       -1.19529   0.00172   0.00398   0.04631   0.05115  -1.14414
   D23        0.89839  -0.00043   0.00174   0.00335   0.00504   0.90342
   D24        2.91490   0.00319   0.01880   0.08757   0.10483   3.01974
   D25        3.00766   0.00006  -0.00852   0.00105  -0.00670   3.00095
   D26       -1.18185  -0.00209  -0.01076  -0.04190  -0.05282  -1.23467
   D27        0.83466   0.00153   0.00630   0.04232   0.04698   0.88164
   D28        1.05684  -0.00073  -0.00464  -0.02909  -0.03203   1.02481
   D29       -3.13267  -0.00288  -0.00688  -0.07204  -0.07815   3.07237
   D30       -1.11615   0.00074   0.01018   0.01218   0.02165  -1.09450
   D31       -0.99361  -0.00349  -0.01629  -0.06483  -0.08136  -1.07497
   D32       -3.11209  -0.00266  -0.01521  -0.05095  -0.06570   3.10540
   D33        1.01855  -0.00012  -0.00360  -0.00775  -0.01059   1.00796
   D34        3.07969  -0.00019  -0.00223   0.00135  -0.00102   3.07867
   D35        0.96121   0.00064  -0.00114   0.01523   0.01464   0.97585
   D36       -1.19134   0.00319   0.01046   0.05843   0.06976  -1.12158
   D37        1.03133  -0.00040   0.00542   0.00519   0.00929   1.04062
   D38       -1.08715   0.00042   0.00650   0.01907   0.02495  -1.06220
   D39        3.04349   0.00297   0.01811   0.06227   0.08006   3.12355
         Item               Value     Threshold  Converged?
 Maximum Force            0.014028     0.000450     NO 
 RMS     Force            0.004469     0.000300     NO 
 Maximum Displacement     0.273370     0.001800     NO 
 RMS     Displacement     0.084583     0.001200     NO 
 Predicted change in Energy=-6.402130D-03
 Lowest energy point so far.  Saving SCF results.
 GradGradGradGradGradGradGradGradGradGradGradGradGradGradGradGradGradGrad

 Leave Link  103 at Wed Sep  7 15:33:20 2022, MaxMem=   131072000 cpu:               0.0 elap:               0.0
 (Enter /opt/g16/l202.exe)
                          Input orientation:                          
 ---------------------------------------------------------------------
 Center     Atomic      Atomic             Coordinates (Angstroms)
 Number     Number       Type             X           Y           Z
 ---------------------------------------------------------------------
      1          6           0       13.253680   10.622786   11.866634
      2          1           0       12.991674    9.590448   11.592833
      3          1           0       14.151616   10.573730   12.481632
      4          1           0       13.512165   11.141451   10.946228
[...]
 ! A12   A(7,5,8)              110.0232         -DE/DX =    0.0                 !
 ! A13   A(5,8,9)              110.4619         -DE/DX =    0.0                 !
 ! A14   A(5,8,10)             112.1323         -DE/DX =    0.0                 !
 ! A15   A(5,8,11)             109.8922         -DE/DX =    0.0                 !
 ! A16   A(9,8,10)             101.5186         -DE/DX =    0.0                 !
 ! A17   A(9,8,11)             110.459          -DE/DX =    0.0                 !
 ! A18   A(10,8,11)            112.1314         -DE/DX =    0.0                 !
 ! A19   A(8,10,12)            107.3457         -DE/DX =    0.0                 !
 ! A20   A(8,11,13)            110.0213         -DE/DX =    0.0                 !
 ! A21   A(8,11,14)            108.9817         -DE/DX =    0.0                 !
 ! A22   A(8,11,15)            112.2747         -DE/DX =    0.0                 !
 ! A23   A(13,11,14)           105.6086         -DE/DX =    0.0                 !
 ! A24   A(13,11,15)           110.1006         -DE/DX =    0.0                 !
 ! A25   A(14,11,15)           109.6301         -DE/DX =    0.0                 !
 ! A26   A(11,15,16)           111.5694         -DE/DX =    0.0                 !
 ! A27   A(11,15,17)           111.1864         -DE/DX =    0.0                 !
 ! A28   A(11,15,18)           111.7072         -DE/DX =    0.0                 !
 ! A29   A(16,15,17)           107.4525         -DE/DX =    0.0                 !
 ! A30   A(16,15,18)           107.2333         -DE/DX =    0.0                 !
 ! A31   A(17,15,18)           107.4596         -DE/DX =    0.0                 !
 ! D1    D(2,1,5,6)             58.4935         -DE/DX =    0.0                 !
 ! D2    D(2,1,5,7)            -57.2756         -DE/DX =    0.0                 !
 ! D3    D(2,1,5,8)            179.7791         -DE/DX =    0.0                 !
 ! D4    D(3,1,5,6)            -61.4491         -DE/DX =    0.0                 !
 ! D5    D(3,1,5,7)           -177.2182         -DE/DX =    0.0                 !
 ! D6    D(3,1,5,8)             59.8365         -DE/DX =    0.0                 !
 ! D7    D(4,1,5,6)            178.5402         -DE/DX =    0.0                 !
 ! D8    D(4,1,5,7)             62.7712         -DE/DX =    0.0                 !
 ! D9    D(4,1,5,8)            -60.1741         -DE/DX =    0.0                 !
 ! D10   D(1,5,8,9)            -48.8574         -DE/DX =    0.0                 !
 ! D11   D(1,5,8,10)            63.5906         -DE/DX =    0.0                 !
 ! D12   D(1,5,8,11)          -170.982          -DE/DX =    0.0                 !
 ! D13   D(6,5,8,9)             72.7975         -DE/DX =    0.0                 !
 ! D14   D(6,5,8,10)          -174.7545         -DE/DX =    0.0                 !
 ! D15   D(6,5,8,11)           -49.3271         -DE/DX =    0.0                 !
 ! D16   D(7,5,8,9)           -171.843          -DE/DX =    0.0                 !
 ! D17   D(7,5,8,10)           -59.3951         -DE/DX =    0.0                 !
 ! D18   D(7,5,8,11)            66.0324         -DE/DX =    0.0                 !
 ! D19   D(5,8,10,12)           62.0923         -DE/DX =    0.0                 !
 ! D20   D(9,8,10,12)         -180.001          -DE/DX =    0.0                 !
 ! D21   D(11,8,10,12)         -62.098          -DE/DX =    0.0                 !
 ! D22   D(5,8,11,13)          -65.9864         -DE/DX =    0.0                 !
 ! D23   D(5,8,11,14)           49.3657         -DE/DX =    0.0                 !
 ! D24   D(5,8,11,15)          171.021          -DE/DX =    0.0                 !
 ! D25   D(9,8,11,13)          171.8873         -DE/DX =    0.0                 !
 ! D26   D(9,8,11,14)          -72.7606         -DE/DX =    0.0                 !
 ! D27   D(9,8,11,15)           48.8948         -DE/DX =    0.0                 !
 ! D28   D(10,8,11,13)          59.4416         -DE/DX =    0.0                 !
 ! D29   D(10,8,11,14)         174.7937         -DE/DX =    0.0                 !
 ! D30   D(10,8,11,15)         -63.551          -DE/DX =    0.0                 !
 ! D31   D(8,11,15,16)         -59.8404         -DE/DX =    0.0                 !
 ! D32   D(8,11,15,17)        -179.7807         -DE/DX =    0.0                 !
 ! D33   D(8,11,15,18)          60.1766         -DE/DX =    0.0                 !
 ! D34   D(13,11,15,16)        177.2117         -DE/DX =    0.0                 !
 ! D35   D(13,11,15,17)         57.2713         -DE/DX =    0.0                 !
 ! D36   D(13,11,15,18)        -62.7713         -DE/DX =    0.0                 !
 ! D37   D(14,11,15,16)         61.4439         -DE/DX =    0.0                 !
 ! D38   D(14,11,15,17)        -58.4965         -DE/DX =    0.0                 !
 ! D39   D(14,11,15,18)       -178.5391         -DE/DX =    0.0                 !
 --------------------------------------------------------------------------------
 Lowest energy point so far.  Saving SCF results.
 Largest change from initial coordinates is atom    2       0.164 Angstoms.
 GradGradGradGradGradGradGradGradGradGradGradGradGradGradGradGradGradGrad

 Leave Link  103 at Wed Sep  7 15:33:24 2022, MaxMem=   131072000 cpu:               0.0 elap:               0.0
 (Enter /opt/g16/l202.exe)
                          Input orientation:                          
 ---------------------------------------------------------------------
 Center     Atomic      Atomic             Coordinates (Angstroms)
 Number     Number       Type             X           Y           Z
 ---------------------------------------------------------------------
      1          6           0       13.261328   10.603533   11.905872
      2          1           0       12.922396    9.704610   11.375211
      3          1           0       14.017770   10.288789   12.637201
      4          1           0       13.765380   11.248149   11.173550
      5          6           0       12.105228   11.312650   12.572513
      6          1           0       11.606429   10.624448   13.283322
      7          1           0       11.334138   11.574806   11.820047
      8          6           0       12.553654   12.575269   13.329326
      9          1           0       13.428769   12.348483   13.981538
     10          8           0       13.091997   13.549480   12.464718
     11          6           0       11.386359   13.125540   14.167572
     12          1           0       12.403478   13.805637   11.863206
     13          1           0       10.576286   13.484404   13.500853
     14          1           0       10.943470   12.297665   14.755897
     15          6           0       11.821958   14.233490   15.098431
     16          1           0       12.590447   13.889592   15.803592
     17          1           0       10.977361   14.609780   15.689741
     18          1           0       12.243552   15.084674   14.547410
 ---------------------------------------------------------------------
                    Distance matrix (angstroms):
                    1          2          3          4          5
     1  C    0.000000
     2  H    1.097515   0.000000
     3  H    1.098230   1.770233   0.000000
     4  H    1.098132   1.770255   1.768148   0.000000
     5  C    1.511233   2.164969   2.170320   2.171949   0.000000
     6  H    2.153252   2.493744   2.518869   3.082403   1.108003
     7  H    2.159815   2.493608   3.086010   2.536849   1.108833
     8  C    2.532739   3.492166   2.801904   2.806582   1.538850
     9  H    2.716851   3.746922   2.529131   3.034607   2.193186
    10  O    3.003263   3.999852   3.393952   2.723359   2.447191
    11  C    3.871862   4.675410   4.160951   4.260107   2.519436
    12  H    3.315298   4.162432   3.946293   2.978447   2.609034
    13  H    4.248862   4.930459   4.775108   4.537344   2.813537
    14  H    4.045392   4.697779   4.239785   4.679517   2.662162
    15  C    5.043888   5.965240   5.141975   5.300362   3.871926
    16  H    5.142032   6.102035   5.002906   5.458478   4.161243
    17  H    5.965248   6.816086   6.101889   6.282483   4.675496
    18  H    5.300398   6.282418   5.458687   5.330837   4.259991
                    6          7          8          9         10
     6  H    0.000000
     7  H    1.765926   0.000000
     8  C    2.169114   2.183133   0.000000
     9  H    2.603983   3.107749   1.114738   0.000000
    10  O    3.381248   2.721215   1.409414   1.963810   0.000000
    11  C    2.661915   2.813961   1.538841   2.193141   2.447170
    12  H    3.573791   2.474260   1.919861   2.768005   0.949470
    13  H    3.047599   2.654432   2.183101   3.107738   2.721509
    14  H    2.325435   3.048666   2.169070   2.603638   3.381230
    15  C    4.045523   4.249043   2.532747   2.717084   3.002884
    16  H    4.240427   4.775477   2.801926   2.529364   3.393422
    17  H    4.697814   4.930810   3.492204   3.747109   3.999587
    18  H    4.679473   4.537038   2.806600   3.035077   2.722919
                   11         12         13         14         15
    11  C    0.000000
    12  H    2.609055   0.000000
    13  H    1.108835   2.474613   0.000000
    14  H    1.107996   3.573971   1.765873   0.000000
    15  C    1.511224   3.314801   2.159881   2.153251   0.000000
    16  H    2.170292   3.945713   3.086038   2.518815   1.098224
    17  H    2.165005   4.162070   2.493706   2.493810   1.097536
    18  H    2.171926   2.977661   2.536912   3.082385   1.098125
                   16         17         18
    16  H    0.000000
    17  H    1.770220   0.000000
    18  H    1.768206   1.770221   0.000000
 Stoichiometry    C5H12O
 Framework group  C1[X(C5H12O)]
 Deg. of freedom    48
 Full point group                 C1      NOp   1
 RotChk:  IX=0 Diff= 2.82D-16
 Largest Abelian subgroup         C1      NOp   1
 Largest concise Abelian subgroup C1      NOp   1
                         Standard orientation:                         
 ---------------------------------------------------------------------
 Center     Atomic      Atomic             Coordinates (Angstroms)
 Number     Number       Type             X           Y           Z
 ---------------------------------------------------------------------
      1          6           0        2.521967   -0.109339    0.322772
      2          1           0        3.408072   -0.648472   -0.035965
      3          1           0        2.501421   -0.200615    1.417009
      4          1           0        2.665427    0.953708    0.087729
      5          6           0        1.259779   -0.655021   -0.304075
      6          1           0        1.162803   -1.733148   -0.067627
      7          1           0        1.327370   -0.596799   -1.409314
      8          6           0        0.000030    0.080292    0.186238
      9          1           0        0.000126    0.154328    1.298515
     10          8           0       -0.000191    1.439579   -0.186302
     11          6           0       -1.259657   -0.655317   -0.303762
     12          1           0       -0.000271    1.473028   -1.135183
     13          1           0       -1.327062   -0.597800   -1.409050
     14          1           0       -1.162632   -1.733297   -0.066695
     15          6           0       -2.521921   -0.109342    0.322655
     16          1           0       -2.501484   -0.200080    1.416933
     17          1           0       -3.408014   -0.648677   -0.035872
     18          1           0       -2.665410    0.953550    0.086964
 ---------------------------------------------------------------------
 Rotational constants (GHZ):           6.9963877           1.9135054           1.6688988
 Leave Link  202 at Wed Sep  7 15:33:24 2022, MaxMem=   131072000 cpu:               0.0 elap:               0.0
 (Enter /opt/g16/l601.exe)
 Copying SCF densities to generalized density rwf, IOpCl= 0 IROHF=0.

 **********************************************************************

            Population analysis using the SCF density.

 **********************************************************************

 Orbital symmetries:
       Occupied  (A) (A) (A) (A) (A) (A) (A) (A) (A) (A) (A) (A)
                 (A) (A) (A) (A) (A) (A) (A)
       Virtual   (A) (A) (A) (A) (A) (A) (A) (A) (A) (A) (A) (A)
                 (A) (A) (A) (A) (A)
 The electronic state is 1-A.
 Alpha  occ. eigenvalues --   -1.48603  -1.24177  -1.21241  -0.94875  -0.78947
 Alpha  occ. eigenvalues --   -0.78588  -0.62883  -0.61512  -0.59183  -0.55241
 Alpha  occ. eigenvalues --   -0.53178  -0.51802  -0.48670  -0.48489  -0.46942
 Alpha  occ. eigenvalues --   -0.44127  -0.43608  -0.43402  -0.40750
 Alpha virt. eigenvalues --    0.11336   0.12738   0.13405   0.13924   0.14084
 Alpha virt. eigenvalues --    0.14275   0.14686   0.15319   0.15746   0.16148
 Alpha virt. eigenvalues --    0.17204   0.17295   0.17465   0.17617   0.18357
 Alpha virt. eigenvalues --    0.18526   0.21322
          Condensed to atoms (all electrons):
               1          2          3          4          5          6
     1  C    4.107024   0.000000   0.000000   0.000000   0.000000   0.000000
     2  H    0.000000   0.963920   0.000000   0.000000   0.000000   0.000000
     3  H    0.000000   0.000000   0.959916   0.000000   0.000000   0.000000
     4  H    0.000000   0.000000   0.000000   0.952054   0.000000   0.000000
     5  C    0.000000   0.000000   0.000000   0.000000   4.132966   0.000000
     6  H    0.000000   0.000000   0.000000   0.000000   0.000000   0.944308
     7  H    0.000000   0.000000   0.000000   0.000000   0.000000   0.000000
     8  C    0.000000   0.000000   0.000000   0.000000   0.000000   0.000000
     9  H    0.000000   0.000000   0.000000   0.000000   0.000000   0.000000
    10  O    0.000000   0.000000   0.000000   0.000000   0.000000   0.000000
    11  C    0.000000   0.000000   0.000000   0.000000   0.000000   0.000000
    12  H    0.000000   0.000000   0.000000   0.000000   0.000000   0.000000
    13  H    0.000000   0.000000   0.000000   0.000000   0.000000   0.000000
    14  H    0.000000   0.000000   0.000000   0.000000   0.000000   0.000000
    15  C    0.000000   0.000000   0.000000   0.000000   0.000000   0.000000
    16  H    0.000000   0.000000   0.000000   0.000000   0.000000   0.000000
    17  H    0.000000   0.000000   0.000000   0.000000   0.000000   0.000000
    18  H    0.000000   0.000000   0.000000   0.000000   0.000000   0.000000
               7          8          9         10         11         12
     1  C    0.000000   0.000000   0.000000   0.000000   0.000000   0.000000
     2  H    0.000000   0.000000   0.000000   0.000000   0.000000   0.000000
     3  H    0.000000   0.000000   0.000000   0.000000   0.000000   0.000000
     4  H    0.000000   0.000000   0.000000   0.000000   0.000000   0.000000
     5  C    0.000000   0.000000   0.000000   0.000000   0.000000   0.000000
     6  H    0.000000   0.000000   0.000000   0.000000   0.000000   0.000000
     7  H    0.951035   0.000000   0.000000   0.000000   0.000000   0.000000
     8  C    0.000000   3.929699   0.000000   0.000000   0.000000   0.000000
     9  H    0.000000   0.000000   0.924506   0.000000   0.000000   0.000000
    10  O    0.000000   0.000000   0.000000   6.304933   0.000000   0.000000
    11  C    0.000000   0.000000   0.000000   0.000000   4.132973   0.000000
    12  H    0.000000   0.000000   0.000000   0.000000   0.000000   0.818411
    13  H    0.000000   0.000000   0.000000   0.000000   0.000000   0.000000
    14  H    0.000000   0.000000   0.000000   0.000000   0.000000   0.000000
    15  C    0.000000   0.000000   0.000000   0.000000   0.000000   0.000000
    16  H    0.000000   0.000000   0.000000   0.000000   0.000000   0.000000
    17  H    0.000000   0.000000   0.000000   0.000000   0.000000   0.000000
    18  H    0.000000   0.000000   0.000000   0.000000   0.000000   0.000000
              13         14         15         16         17         18
     1  C    0.000000   0.000000   0.000000   0.000000   0.000000   0.000000
     2  H    0.000000   0.000000   0.000000   0.000000   0.000000   0.000000
     3  H    0.000000   0.000000   0.000000   0.000000   0.000000   0.000000
     4  H    0.000000   0.000000   0.000000   0.000000   0.000000   0.000000
     5  C    0.000000   0.000000   0.000000   0.000000   0.000000   0.000000
     6  H    0.000000   0.000000   0.000000   0.000000   0.000000   0.000000
     7  H    0.000000   0.000000   0.000000   0.000000   0.000000   0.000000
     8  C    0.000000   0.000000   0.000000   0.000000   0.000000   0.000000
     9  H    0.000000   0.000000   0.000000   0.000000   0.000000   0.000000
    10  O    0.000000   0.000000   0.000000   0.000000   0.000000   0.000000
    11  C    0.000000   0.000000   0.000000   0.000000   0.000000   0.000000
    12  H    0.000000   0.000000   0.000000   0.000000   0.000000   0.000000
    13  H    0.951040   0.000000   0.000000   0.000000   0.000000   0.000000
    14  H    0.000000   0.944315   0.000000   0.000000   0.000000   0.000000
    15  C    0.000000   0.000000   4.107011   0.000000   0.000000   0.000000
    16  H    0.000000   0.000000   0.000000   0.959909   0.000000   0.000000
    17  H    0.000000   0.000000   0.000000   0.000000   0.963926   0.000000
    18  H    0.000000   0.000000   0.000000   0.000000   0.000000   0.952054
 Mulliken charges:
               1
     1  C   -0.107024
     2  H    0.036080
     3  H    0.040084
     4  H    0.047946
     5  C   -0.132966
     6  H    0.055692
     7  H    0.048965
     8  C    0.070301
     9  H    0.075494
    10  O   -0.304933
    11  C   -0.132973
    12  H    0.181589
    13  H    0.048960
    14  H    0.055685
    15  C   -0.107011
    16  H    0.040091
    17  H    0.036074
    18  H    0.047946
 Sum of Mulliken charges =  -0.00000
 Mulliken charges with hydrogens summed into heavy atoms:
               1
     1  C    0.017086
     5  C   -0.028309
     8  C    0.145795
    10  O   -0.123344
    11  C   -0.028328
    15  C    0.017100
 Charge=             -0.0000 electrons
 Dipole moment (field-independent basis, Debye):
    X=              0.0001    Y=             -1.1958    Z=             -0.8677  Tot=              1.4774
 N-N= 1.698615404800D+02 E-N=-2.541550222813D+02  KE=-5.968309786264D+01
 Leave Link  601 at Wed Sep  7 15:33:24 2022, MaxMem=   131072000 cpu:               0.0 elap:               0.0
 (Enter /opt/g16/l9999.exe)
 1\1\GINC-TOTEM2\FOpt\RPM3\ZDO\C5H12O1\JRAMOS\07-Sep-2022\0\\#p opt pm3
 \\Conformer number 000. Energy MM = 0.000 kcal/mol\\0,1\C,13.261327737
 8,10.6035326016,11.9058722407\H,12.9223962396,9.7046095804,11.37521119
 79\H,14.0177695576,10.2887891529,12.6372009411\H,13.7653800907,11.2481
 488542,11.1735499625\C,12.1052279492,11.3126495954,12.5725132766\H,11.
 6064292237,10.6244479385,13.2833219135\H,11.3341376049,11.5748058261,1
 1.8200472475\C,12.5536538346,12.5752694952,13.3293259469\H,13.42876940
 78,12.3484832279,13.9815382216\O,13.0919974524,13.549479761,12.4647179
 803\C,11.3863589382,13.1255404523,14.1675718905\H,12.4034779713,13.805
 6372918,11.8632056522\H,10.5762862423,13.4844036673,13.5008525174\H,10
 .9434695194,12.2976653486,14.7558972184\C,11.8219577972,14.2334904798,
 15.0984305219\H,12.5904472879,13.8895919213,15.8035924428\H,10.9773614
 769,14.6097804055,15.689741119\H,12.2435516685,15.0846744002,14.547409
 7092\\Version=ES64L-G16RevA.03\State=1-A\HF=-0.1196939\RMSD=1.995e-09\
 RMSF=6.834e-06\Dipole=-0.5375423,-0.2209739,0.008832\PG=C01 [X(C5H12O1
 )]\\@


 "I COULD HAVE DONE IT IN A MUCH MORE COMPLICATED WAY"
 SAID THE RED QUEEN, IMMENSELY PROUD.

                                      -- LEWIS CARROLL
 Job cpu time:       0 days  0 hours  0 minutes  4.4 seconds.
 Elapsed time:       0 days  0 hours  0 minutes  3.7 seconds.
 File lengths (MBytes):  RWF=      6 Int=      0 D2E=      0 Chk=      2 Scr=      1
 Normal termination of Gaussian 16 at Wed Sep  7 15:33:24 2022.
