 Entering Gaussian System, Link 0=/opt/g16/g16
 Input=MD_extract_011_gaussian.com
 Output=MD_extract_011_gaussian.log
 Initial command:
 /opt/g16/l1.exe "/tmp/Gau-317038.inp" -scrdir="/tmp/"
 Entering Link 1 = /opt/g16/l1.exe PID=    317040.
  
 Copyright (c) 1988,1990,1992,1993,1995,1998,2003,2009,2016,
            Gaussian, Inc.  All Rights Reserved.
  
 This is part of the Gaussian(R) 16 program.  It is based on
 the Gaussian(R) 09 system (copyright 2009, Gaussian, Inc.),
 the Gaussian(R) 03 system (copyright 2003, Gaussian, Inc.),
 the Gaussian(R) 98 system (copyright 1998, Gaussian, Inc.),
 the Gaussian(R) 94 system (copyright 1995, Gaussian, Inc.),
 the Gaussian 92(TM) system (copyright 1992, Gaussian, Inc.),
 the Gaussian 90(TM) system (copyright 1990, Gaussian, Inc.),
 the Gaussian 88(TM) system (copyright 1988, Gaussian, Inc.),
 the Gaussian 86(TM) system (copyright 1986, Carnegie Mellon
 University), and the Gaussian 82(TM) system (copyright 1983,
 Carnegie Mellon University). Gaussian is a federally registered
 trademark of Gaussian, Inc.
  
 This software contains proprietary and confidential information,
 including trade secrets, belonging to Gaussian, Inc.
  
 This software is provided under written license and may be
 used, copied, transmitted, or stored only in accord with that
 written license.
  
 The following legend is applicable only to US Government
 contracts under FAR:
  
                    RESTRICTED RIGHTS LEGEND
  
 Use, reproduction and disclosure by the US Government is
 subject to restrictions as set forth in subparagraphs (a)
 and (c) of the Commercial Computer Software - Restricted
 Rights clause in FAR 52.227-19.
  
 Gaussian, Inc.
 340 Quinnipiac St., Bldg. 40, Wallingford CT 06492
  
  
 ---------------------------------------------------------------
 Warning -- This program may not be used in any manner that
 competes with the business of Gaussian, Inc. or will provide
 assistance to any competitor of Gaussian, Inc.  The licensee
 of this program is prohibited from giving any competitor of
 Gaussian, Inc. access to this program.  By using this program,
 the user acknowledges that Gaussian, Inc. is engaged in the
 business of creating and licensing software in the field of
 computational chemistry and represents and warrants to the
 licensee that it is not a competitor of Gaussian, Inc. and that
 it will not use this program in any manner prohibited above.
 ---------------------------------------------------------------
  

 Cite this work as:
 Gaussian 16, Revision A.03,
 M. J. Frisch, G. W. Trucks, H. B. Schlegel, G. E. Scuseria, 
 M. A. Robb, J. R. Cheeseman, G. Scalmani, V. Barone, 
 G. A. Petersson, H. Nakatsuji, X. Li, M. Caricato, A. V. Marenich, 
 J. Bloino, B. G. Janesko, R. Gomperts, B. Mennucci, H. P. Hratchian, 
 J. V. Ortiz, A. F. Izmaylov, J. L. Sonnenberg, D. Williams-Young, 
 F. Ding, F. Lipparini, F. Egidi, J. Goings, B. Peng, A. Petrone, 
 T. Henderson, D. Ranasinghe, V. G. Zakrzewski, J. Gao, N. Rega, 
 G. Zheng, W. Liang, M. Hada, M. Ehara, K. Toyota, R. Fukuda, 
 J. Hasegawa, M. Ishida, T. Nakajima, Y. Honda, O. Kitao, H. Nakai, 
 T. Vreven, K. Throssell, J. A. Montgomery, Jr., J. E. Peralta, 
 F. Ogliaro, M. J. Bearpark, J. J. Heyd, E. N. Brothers, K. N. Kudin, 
 V. N. Staroverov, T. A. Keith, R. Kobayashi, J. Normand, 
 K. Raghavachari, A. P. Rendell, J. C. Burant, S. S. Iyengar, 
 J. Tomasi, M. Cossi, J. M. Millam, M. Klene, C. Adamo, R. Cammi, 
 J. W. Ochterski, R. L. Martin, K. Morokuma, O. Farkas, 
 J. B. Foresman, and D. J. Fox, Gaussian, Inc., Wallingford CT, 2016.
 
 ******************************************
 Gaussian 16:  ES64L-G16RevA.03 25-Dec-2016
                 7-Sep-2022 
 ******************************************
 %chk=MD_extract_011_gaussian.chk
 %nproc=1
 Will use up to    1 processors via shared memory.
 %mem=1000Mb
 ----------
 #p opt pm3
 ----------
 1/18=20,19=15,26=1,38=1/1,3;
 2/9=110,12=2,17=6,18=5,40=1/2;
 3/5=2,25=1,41=800000,71=1/1,2,3;
 4/35=1/1;
 5/5=2,35=1,38=5/2;
 6/7=2,8=2,9=2,10=2,28=1/1;
 7//1,2,3,16;
 1/18=20,19=15,26=1/3(2);
 2/9=110/2;
 99//99;
 2/9=110/2;
 3/5=2,25=1,41=800000,71=1,135=20/1,2,3;
 4/5=5,16=3,35=1/1;
 5/5=2,35=1,38=5/2;
 7//1,2,3,16;
 1/18=20,19=15,26=1/3(-5);
 2/9=110/2;
 6/7=2,8=2,9=2,10=2,19=2,28=1/1;
 99/9=1/99;
 Leave Link    1 at Wed Sep  7 15:34:28 2022, MaxMem=   131072000 cpu:               0.0 elap:              22.3
 (Enter /opt/g16/l101.exe)
 ------------------------------------------------
 Conformer number 011. Energy MM = 0.000 kcal/mol
 ------------------------------------------------
 Symbolic Z-matrix:
 Charge =  0 Multiplicity = 1
 C                     14.786    3.687     10.598 
 H                     15.617    3.755     11.275 
 H                     14.591    2.616     10.434 
 H                     13.977    4.251     11.069 
 C                     15.051    4.345     9.277 
 H                     15.512    3.627     8.602 
 H                     15.742    5.146     9.463 
 C                     13.919    4.82      8.443 
 H                     13.478    5.578     9.043 
 O                     14.442    5.522     7.325 
 C                     12.9      3.973     8.072 
 H                     14.837    4.87      6.752 
 H                     12.471    3.643     9.023 
 H                     12.147    4.56      7.454 
 C                     13.099    2.747     7.184 
 H                     13.85     2.022     7.683 
 H                     13.403    2.951     6.132 
 H                     12.106    2.238     7.025 
 
 ITRead=  0  0  0  0  0  0  0  0  0  0  0  0  0  0  0  0  0  0
 MicOpt= -1 -1 -1 -1 -1 -1 -1 -1 -1 -1 -1 -1 -1 -1 -1 -1 -1 -1
 NAtoms=     18 NQM=       18 NQMF=       0 NMMI=      0 NMMIF=      0
                NMic=       0 NMicF=      0.
                    Isotopes and Nuclear Properties:
 (Nuclear quadrupole moments (NQMom) in fm**2, nuclear magnetic moments (NMagM)
  in nuclear magnetons)

  Atom         1           2           3           4           5           6           7           8           9          10
 IAtWgt=          12           1           1           1          12           1           1          12           1          16
 AtmWgt=  12.0000000   1.0078250   1.0078250   1.0078250  12.0000000   1.0078250   1.0078250  12.0000000   1.0078250  15.9949146
 NucSpn=           0           1           1           1           0           1           1           0           1           0
 AtZEff=  -0.0000000  -0.0000000  -0.0000000  -0.0000000  -0.0000000  -0.0000000  -0.0000000  -0.0000000  -0.0000000  -0.0000000
 NQMom=    0.0000000   0.0000000   0.0000000   0.0000000   0.0000000   0.0000000   0.0000000   0.0000000   0.0000000   0.0000000
 NMagM=    0.0000000   2.7928460   2.7928460   2.7928460   0.0000000   2.7928460   2.7928460   0.0000000   2.7928460   0.0000000
 AtZNuc=   6.0000000   1.0000000   1.0000000   1.0000000   6.0000000   1.0000000   1.0000000   6.0000000   1.0000000   8.0000000

  Atom        11          12          13          14          15          16          17          18
 IAtWgt=          12           1           1           1          12           1           1           1
 AtmWgt=  12.0000000   1.0078250   1.0078250   1.0078250  12.0000000   1.0078250   1.0078250   1.0078250
 NucSpn=           0           1           1           1           0           1           1           1
 AtZEff=  -0.0000000  -0.0000000  -0.0000000  -0.0000000  -0.0000000  -0.0000000  -0.0000000  -0.0000000
 NQMom=    0.0000000   0.0000000   0.0000000   0.0000000   0.0000000   0.0000000   0.0000000   0.0000000
 NMagM=    0.0000000   2.7928460   2.7928460   2.7928460   0.0000000   2.7928460   2.7928460   2.7928460
 AtZNuc=   6.0000000   1.0000000   1.0000000   1.0000000   6.0000000   1.0000000   1.0000000   1.0000000
 Leave Link  101 at Wed Sep  7 15:34:28 2022, MaxMem=   131072000 cpu:               0.1 elap:               0.1
 (Enter /opt/g16/l103.exe)

 GradGradGradGradGradGradGradGradGradGradGradGradGradGradGradGradGradGrad
 Berny optimization.
 Initialization pass.
                           ----------------------------
                           !    Initial Parameters    !
                           ! (Angstroms and Degrees)  !
 --------------------------                            --------------------------
 ! Name  Definition              Value          Derivative Info.                !
 --------------------------------------------------------------------------------
 ! R1    R(1,2)                  1.074          estimate D2E/DX2                !
 ! R2    R(1,3)                  1.1009         estimate D2E/DX2                !
 ! R3    R(1,4)                  1.0929         estimate D2E/DX2                !
 ! R4    R(1,5)                  1.4994         estimate D2E/DX2                !
 ! R5    R(5,6)                  1.088          estimate D2E/DX2                !
 ! R6    R(5,7)                  1.0741         estimate D2E/DX2                !
 ! R7    R(5,8)                  1.4841         estimate D2E/DX2                !
 ! R8    R(8,9)                  1.0626         estimate D2E/DX2                !
 ! R9    R(8,10)                 1.4199         estimate D2E/DX2                !
 ! R10   R(8,11)                 1.376          estimate D2E/DX2                !
 ! R11   R(10,12)                0.9537         estimate D2E/DX2                !
 ! R12   R(11,13)                1.0942         estimate D2E/DX2                !
 ! R13   R(11,14)                1.1373         estimate D2E/DX2                !
 ! R14   R(11,15)                1.5268         estimate D2E/DX2                !
 ! R15   R(15,16)                1.157          estimate D2E/DX2                !
 ! R16   R(15,17)                1.1139         estimate D2E/DX2                !
 ! R17   R(15,18)                1.1271         estimate D2E/DX2                !
 ! A1    A(2,1,3)              107.0105         estimate D2E/DX2                !
 ! A2    A(2,1,4)              105.5699         estimate D2E/DX2                !
 ! A3    A(2,1,5)              113.0049         estimate D2E/DX2                !
 ! A4    A(3,1,4)              115.7937         estimate D2E/DX2                !
 ! A5    A(3,1,5)              109.0858         estimate D2E/DX2                !
 ! A6    A(4,1,5)              106.5018         estimate D2E/DX2                !
 ! A7    A(1,5,6)              109.3828         estimate D2E/DX2                !
 ! A8    A(1,5,7)              106.7621         estimate D2E/DX2                !
 ! A9    A(1,5,8)              120.0486         estimate D2E/DX2                !
 ! A10   A(6,5,7)              109.0864         estimate D2E/DX2                !
 ! A11   A(6,5,8)              100.7058         estimate D2E/DX2                !
 ! A12   A(7,5,8)              110.4464         estimate D2E/DX2                !
 ! A13   A(5,8,9)              103.1537         estimate D2E/DX2                !
 ! A14   A(5,8,10)             108.6476         estimate D2E/DX2                !
 ! A15   A(5,8,11)             121.2886         estimate D2E/DX2                !
 ! A16   A(9,8,10)             104.1691         estimate D2E/DX2                !
 ! A17   A(9,8,11)             106.4995         estimate D2E/DX2                !
 ! A18   A(10,8,11)            111.3947         estimate D2E/DX2                !
 ! A19   A(8,10,12)            106.7163         estimate D2E/DX2                !
 ! A20   A(8,11,13)            103.9837         estimate D2E/DX2                !
 ! A21   A(8,11,14)            108.609          estimate D2E/DX2                !
 ! A22   A(8,11,15)            123.6801         estimate D2E/DX2                !
 ! A23   A(13,11,14)           111.613          estimate D2E/DX2                !
 ! A24   A(13,11,15)           108.3249         estimate D2E/DX2                !
 ! A25   A(14,11,15)           100.6434         estimate D2E/DX2                !
 ! A26   A(11,15,16)           109.6896         estimate D2E/DX2                !
 ! A27   A(11,15,17)           115.9634         estimate D2E/DX2                !
 ! A28   A(11,15,18)           109.2586         estimate D2E/DX2                !
 ! A29   A(16,15,17)           110.1782         estimate D2E/DX2                !
 ! A30   A(16,15,18)           110.4701         estimate D2E/DX2                !
 ! A31   A(17,15,18)           100.948          estimate D2E/DX2                !
 ! D1    D(2,1,5,6)             88.3707         estimate D2E/DX2                !
 ! D2    D(2,1,5,7)            -29.5331         estimate D2E/DX2                !
 ! D3    D(2,1,5,8)           -156.0966         estimate D2E/DX2                !
 ! D4    D(3,1,5,6)            -30.5249         estimate D2E/DX2                !
 ! D5    D(3,1,5,7)           -148.4287         estimate D2E/DX2                !
 ! D6    D(3,1,5,8)             85.0078         estimate D2E/DX2                !
 ! D7    D(4,1,5,6)           -156.1674         estimate D2E/DX2                !
 ! D8    D(4,1,5,7)             85.9288         estimate D2E/DX2                !
 ! D9    D(4,1,5,8)            -40.6347         estimate D2E/DX2                !
 ! D10   D(1,5,8,9)             63.8312         estimate D2E/DX2                !
 ! D11   D(1,5,8,10)           173.9623         estimate D2E/DX2                !
 ! D12   D(1,5,8,11)           -55.0714         estimate D2E/DX2                !
 ! D13   D(6,5,8,9)           -176.1975         estimate D2E/DX2                !
 ! D14   D(6,5,8,10)           -66.0663         estimate D2E/DX2                !
 ! D15   D(6,5,8,11)            64.8999         estimate D2E/DX2                !
 ! D16   D(7,5,8,9)            -61.006          estimate D2E/DX2                !
 ! D17   D(7,5,8,10)            49.1252         estimate D2E/DX2                !
 ! D18   D(7,5,8,11)          -179.9086         estimate D2E/DX2                !
 ! D19   D(5,8,10,12)           71.4251         estimate D2E/DX2                !
 ! D20   D(9,8,10,12)         -179.1296         estimate D2E/DX2                !
 ! D21   D(11,8,10,12)         -64.7042         estimate D2E/DX2                !
 ! D22   D(5,8,11,13)           60.2583         estimate D2E/DX2                !
 ! D23   D(5,8,11,14)          179.2299         estimate D2E/DX2                !
 ! D24   D(5,8,11,15)          -63.4742         estimate D2E/DX2                !
 ! D25   D(9,8,11,13)          -56.9832         estimate D2E/DX2                !
 ! D26   D(9,8,11,14)           61.9883         estimate D2E/DX2                !
 ! D27   D(9,8,11,15)          179.2842         estimate D2E/DX2                !
 ! D28   D(10,8,11,13)        -169.9527         estimate D2E/DX2                !
 ! D29   D(10,8,11,14)         -50.9812         estimate D2E/DX2                !
 ! D30   D(10,8,11,15)          66.3148         estimate D2E/DX2                !
 ! D31   D(8,11,15,16)          59.4623         estimate D2E/DX2                !
 ! D32   D(8,11,15,17)         -66.1106         estimate D2E/DX2                !
 ! D33   D(8,11,15,18)        -179.3074         estimate D2E/DX2                !
 ! D34   D(13,11,15,16)        -62.3149         estimate D2E/DX2                !
 ! D35   D(13,11,15,17)        172.1122         estimate D2E/DX2                !
 ! D36   D(13,11,15,18)         58.9154         estimate D2E/DX2                !
 ! D37   D(14,11,15,16)       -179.5116         estimate D2E/DX2                !
 ! D38   D(14,11,15,17)         54.9155         estimate D2E/DX2                !
 ! D39   D(14,11,15,18)        -58.2813         estimate D2E/DX2                !
 --------------------------------------------------------------------------------
 Trust Radius=3.00D-01 FncErr=1.00D-07 GrdErr=1.00D-07 EigMax=2.50D+02 EigMin=1.00D-04
 Number of steps in this run=     97 maximum allowed number of steps=    108.
 GradGradGradGradGradGradGradGradGradGradGradGradGradGradGradGradGradGrad

 Leave Link  103 at Wed Sep  7 15:34:28 2022, MaxMem=   131072000 cpu:               0.0 elap:               0.0
 (Enter /opt/g16/l202.exe)
                          Input orientation:                          
 ---------------------------------------------------------------------
 Center     Atomic      Atomic             Coordinates (Angstroms)
 Number     Number       Type             X           Y           Z
 ---------------------------------------------------------------------
      1          6           0       14.786000    3.687000   10.598000
      2          1           0       15.617000    3.755000   11.275000
      3          1           0       14.591000    2.616000   10.434000
      4          1           0       13.977000    4.251000   11.069000
      5          6           0       15.051000    4.345000    9.277000
      6          1           0       15.512000    3.627000    8.602000
      7          1           0       15.742000    5.146000    9.463000
      8          6           0       13.919000    4.820000    8.443000
      9          1           0       13.478000    5.578000    9.043000
     10          8           0       14.442000    5.522000    7.325000
     11          6           0       12.900000    3.973000    8.072000
     12          1           0       14.837000    4.870000    6.752000
     13          1           0       12.471000    3.643000    9.023000
     14          1           0       12.147000    4.560000    7.454000
     15          6           0       13.099000    2.747000    7.184000
     16          1           0       13.850000    2.022000    7.683000
     17          1           0       13.403000    2.951000    6.132000
     18          1           0       12.106000    2.238000    7.025000
 ---------------------------------------------------------------------
                    Distance matrix (angstroms):
                    1          2          3          4          5
     1  C    0.000000
     2  H    1.074018   0.000000
     3  H    1.100891   1.748507   0.000000
     4  H    1.092894   1.725703   1.858345   0.000000
     5  C    1.499410   2.158810   2.130655   2.091310   0.000000
     6  H    2.124780   2.678122   2.286173   2.971816   1.087966
     7  H    2.081068   2.287761   2.944239   2.548624   1.074094
     8  C    2.584454   3.469532   3.045206   2.687564   1.484118
     9  H    2.775747   3.588938   3.456457   2.472773   2.012306
    10  O    3.768035   4.483906   4.258276   3.981106   2.359346
    11  C    3.165354   4.205808   3.206240   3.196752   2.493433
    12  H    4.024153   4.723257   4.324136   4.445138   2.587865
    13  H    2.800319   3.870577   2.745915   2.612243   2.685837
    14  H    4.196568   5.223884   4.316558   4.063571   3.435516
    15  C    3.922367   4.908428   3.578509   4.257479   3.277889
    16  H    3.485046   4.362114   2.910312   4.055806   3.062608
    17  H    4.732815   5.656736   4.475575   5.137455   3.814468
    18  H    4.695565   5.717597   4.235492   4.889453   4.264268
                    6          7          8          9         10
     6  H    0.000000
     7  H    1.761131   0.000000
     8  C    1.996542   2.114239   0.000000
     9  H    2.852725   2.342802   1.062565   0.000000
    10  O    2.523223   2.530300   1.419950   1.970775   0.000000
    11  C    2.687594   3.374578   1.376013   1.962893   2.309800
    12  H    2.328771   2.871362   1.924761   2.756234   0.953655
    13  H    3.070045   3.626576   1.954081   2.181439   3.209157
    14  H    3.675815   4.159748   2.045900   2.309287   2.491809
    15  C    2.933887   4.234913   2.560236   3.407944   3.086123
    16  H    2.486530   4.062935   2.900201   3.825326   3.567720
    17  H    3.317493   4.624339   3.016643   3.921820   3.018743
    18  H    4.002135   5.255550   3.458962   4.136461   4.041231
                   11         12         13         14         15
    11  C    0.000000
    12  H    2.509776   0.000000
    13  H    1.094231   3.501561   0.000000
    14  H    1.137322   2.797321   1.845976   0.000000
    15  C    1.526834   2.777480   2.139888   2.065472   0.000000
    16  H    2.204591   3.154684   2.514932   3.064979   1.156990
    17  H    2.249687   2.474534   3.115344   2.431892   1.113883
    18  H    2.176435   3.802672   2.469667   2.361653   1.127125
                   16         17         18
    16  H    0.000000
    17  H    1.862378   0.000000
    18  H    1.876474   1.728591   0.000000
 Stoichiometry    C5H12O
 Framework group  C1[X(C5H12O)]
 Deg. of freedom    48
 Full point group                 C1      NOp   1
 Largest Abelian subgroup         C1      NOp   1
 Largest concise Abelian subgroup C1      NOp   1
                         Standard orientation:                         
 ---------------------------------------------------------------------
 Center     Atomic      Atomic             Coordinates (Angstroms)
 Number     Number       Type             X           Y           Z
 ---------------------------------------------------------------------
      1          6           0        2.159997   -0.764594    0.034323
      2          1           0        3.160304   -0.605261   -0.322766
      3          1           0        1.820485   -1.727379   -0.377670
      4          1           0        2.225312   -0.710108    1.123903
      5          6           0        1.207786    0.313245   -0.389691
      6          1           0        0.780527    0.057540   -1.357025
      7          1           0        1.783743    1.214588   -0.487323
      8          6           0       -0.024425    0.568058    0.397285
      9          1           0        0.351451    0.889100    1.337867
     10          8           0       -0.670124    1.717662   -0.129725
     11          6           0       -0.925791   -0.438042    0.659417
     12          1           0       -1.035066    1.464606   -0.973667
     13          1           0       -0.343359   -1.175376    1.220179
     14          1           0       -1.774464   -0.011161    1.284740
     15          6           0       -1.714314   -1.171610   -0.422864
     16          1           0       -0.982858   -1.684240   -1.158262
     17          1           0       -2.457499   -0.560214   -0.983762
     18          1           0       -2.387098   -1.935729    0.060762
 ---------------------------------------------------------------------
 Rotational constants (GHZ):           4.2975279           2.6733447           1.9423001
 Leave Link  202 at Wed Sep  7 15:34:28 2022, MaxMem=   131072000 cpu:               0.0 elap:               0.0
 (Enter /opt/g16/l301.exe)
 Standard basis: VSTO-6G (5D, 7F)
 Ernie: Thresh=  0.10000D-02 Tol=  0.10000D-05 Strict=F.
  NNHCO=     0 NNPyr=     0 NCTC=     0               EPep=         0.000000000
    EC=       130.538464852  ECS=         2.342902107   EG=         0.575001742
   EHC=         0.000000000  EAt=       -36.836480110  AtH=         2.452923921
 EPDDG=         0.000000000  ECC=       133.456368701 EAtT=        39.289404030
 There are    36 symmetry adapted cartesian basis functions of A   symmetry.
 There are    36 symmetry adapted basis functions of A   symmetry.
    36 basis functions,   216 primitive gaussians,    36 cartesian basis functions
    19 alpha electrons       19 beta electrons
       nuclear repulsion energy       172.7457727317 Hartrees.
 IExCor=    0 DFT=F Ex=HF Corr=None ExCW=0 ScaHFX=  1.000000
 ScaDFX=  1.000000  1.000000  1.000000  1.000000 ScalE2=  1.000000  1.000000
 IRadAn=      5 IRanWt=     -1 IRanGd=            0 ICorTp=0 IEmpDi=  4
 Integral buffers will be    131072 words long.
 Regular integral format.
 Two-electron integral symmetry is turned off.
 Leave Link  301 at Wed Sep  7 15:34:28 2022, MaxMem=   131072000 cpu:               0.0 elap:               0.0
 (Enter /opt/g16/l302.exe)
 Do NDO integrals.
 NPDir=0 NMtPBC=     1 NCelOv=     1 NCel=       1 NClECP=     1 NCelD=      1
         NCelK=      1 NCelE2=     1 NClLst=     1 CellRange=     0.0.
 One-electron integrals computed using PRISM.
 NBasis=    36 RedAO= F EigKep=  0.00D+00  NBF=    36
 NBsUse=    36 1.00D-04 EigRej=  0.00D+00 NBFU=    36
 Leave Link  302 at Wed Sep  7 15:34:28 2022, MaxMem=   131072000 cpu:               0.0 elap:               0.0
 (Enter /opt/g16/l303.exe)
 DipDrv:  MaxL=1.
 Leave Link  303 at Wed Sep  7 15:34:28 2022, MaxMem=   131072000 cpu:               0.0 elap:               0.0
 (Enter /opt/g16/l401.exe)
 Simple Huckel Guess.
 JPrj=0 DoOrth=F DoCkMO=F.
 Leave Link  401 at Wed Sep  7 15:34:28 2022, MaxMem=   131072000 cpu:               0.0 elap:               0.0
 (Enter /opt/g16/l502.exe)
 Keep J ints in memory in canonical form, NReq=862161.
 FoFCou: FMM=F IPFlag=           0 FMFlag=           0 FMFlg1=           0
         NFxFlg=           0 DoJE=F BraDBF=F KetDBF=F FulRan=T
         wScrn=  0.000000 ICntrl=       600 IOpCl=  2 I1Cent=           0 NGrid=           0
         NMat0=    1 NMatS0=     72 NMatT0=    0 NMatD0=    1 NMtDS0=    0 NMtDT0=    0
 Symmetry not used in FoFCou.
 Two-electron integral symmetry not used.
 Closed shell SCF:
 Using DIIS extrapolation, IDIIS=  1040.
 Overlap will be assumed to be unity.
 NGot=   131072000 LenX=   131006778 LenY=   131005041
 Requested convergence on RMS density matrix=1.00D-08 within 128 cycles.
 Requested convergence on MAX density matrix=1.00D-06.
 Requested convergence on             energy=1.00D-06.
 No special actions if energy rises.

 Cycle   1  Pass 1  IDiag  1:
 E= 0.209292871482660    
 DIIS: error= 7.21D-02 at cycle   1 NSaved=   1.
 NSaved= 1 IEnMin= 1 EnMin= 0.209292871482660     IErMin= 1 ErrMin= 7.21D-02
 ErrMax= 7.21D-02  0.00D+00 EMaxC= 1.00D-01 BMatC= 1.08D-01 BMatP= 1.08D-01
 IDIUse=3 WtCom= 2.79D-01 WtEn= 7.21D-01
 Coeff-Com:  0.100D+01
 Coeff-En:   0.100D+01
 Coeff:      0.100D+01
 GapD=    2.000 DampG=2.000 DampE=0.500 DampFc=1.0000 IDamp=-1.
 RMSDP=1.27D-02 MaxDP=1.51D-01              OVMax= 0.00D+00

 Cycle   2  Pass 1  IDiag  1:
 E=-0.496576445520702E-01 Delta-E=       -0.258950516035 Rises=F Damp=F
 DIIS: error= 1.59D-02 at cycle   2 NSaved=   2.
 NSaved= 2 IEnMin= 2 EnMin=-0.496576445520702E-01 IErMin= 2 ErrMin= 1.59D-02
 ErrMax= 1.59D-02  0.00D+00 EMaxC= 1.00D-01 BMatC= 7.16D-03 BMatP= 1.08D-01
 IDIUse=3 WtCom= 8.41D-01 WtEn= 1.59D-01
 Coeff-Com: -0.306D+00 0.131D+01
 Coeff-En:   0.000D+00 0.100D+01
 Coeff:     -0.257D+00 0.126D+01
 RMSDP=4.72D-03 MaxDP=6.08D-02 DE=-2.59D-01 OVMax= 0.00D+00

 Cycle   3  Pass 1  IDiag  3:
 E=-0.721726635667039E-01 Delta-E=       -0.022515019015 Rises=F Damp=F
 DIIS: error= 3.87D-03 at cycle   3 NSaved=   3.
 NSaved= 3 IEnMin= 3 EnMin=-0.721726635667039E-01 IErMin= 3 ErrMin= 3.87D-03
 ErrMax= 3.87D-03  0.00D+00 EMaxC= 1.00D-01 BMatC= 2.43D-04 BMatP= 7.16D-03
 IDIUse=3 WtCom= 9.61D-01 WtEn= 3.87D-02
 Coeff-Com:  0.148D+00-0.725D+00 0.158D+01
 Coeff-En:   0.000D+00 0.000D+00 0.100D+01
 Coeff:      0.142D+00-0.697D+00 0.155D+01
 Gap=     0.519 Goal=   None    Shift=    0.000
 RMSDP=1.43D-03 MaxDP=2.20D-02 DE=-2.25D-02 OVMax= 1.11D-02

 Cycle   4  Pass 1  IDiag  3:
 E=-0.734806759462003E-01 Delta-E=       -0.001308012379 Rises=F Damp=F
 DIIS: error= 7.94D-04 at cycle   4 NSaved=   4.
 NSaved= 4 IEnMin= 4 EnMin=-0.734806759462003E-01 IErMin= 4 ErrMin= 7.94D-04
 ErrMax= 7.94D-04  0.00D+00 EMaxC= 1.00D-01 BMatC= 9.86D-06 BMatP= 2.43D-04
 IDIUse=3 WtCom= 9.92D-01 WtEn= 7.94D-03
 Coeff-Com: -0.319D-01 0.173D+00-0.560D+00 0.142D+01
 Coeff-En:   0.000D+00 0.000D+00 0.000D+00 0.100D+01
 Coeff:     -0.317D-01 0.172D+00-0.556D+00 0.142D+01
 Gap=     0.519 Goal=   None    Shift=    0.000
 RMSDP=3.34D-04 MaxDP=4.57D-03 DE=-1.31D-03 OVMax= 2.67D-03

 Cycle   5  Pass 1  IDiag  3:
 E=-0.735393600084819E-01 Delta-E=       -0.000058684062 Rises=F Damp=F
 DIIS: error= 1.17D-04 at cycle   5 NSaved=   5.
 NSaved= 5 IEnMin= 5 EnMin=-0.735393600084819E-01 IErMin= 5 ErrMin= 1.17D-04
 ErrMax= 1.17D-04  0.00D+00 EMaxC= 1.00D-01 BMatC= 3.24D-07 BMatP= 9.86D-06
 IDIUse=3 WtCom= 9.99D-01 WtEn= 1.17D-03
 Coeff-Com:  0.190D-02-0.137D-01 0.778D-01-0.370D+00 0.130D+01
 Coeff-En:   0.000D+00 0.000D+00 0.000D+00 0.000D+00 0.100D+01
 Coeff:      0.190D-02-0.137D-01 0.777D-01-0.369D+00 0.130D+01
 Gap=     0.519 Goal=   None    Shift=    0.000
 RMSDP=5.45D-05 MaxDP=6.38D-04 DE=-5.87D-05 OVMax= 3.86D-04

 Cycle   6  Pass 1  IDiag  3:
 E=-0.735411685042209E-01 Delta-E=       -0.000001808496 Rises=F Damp=F
 DIIS: error= 3.94D-05 at cycle   6 NSaved=   6.
 NSaved= 6 IEnMin= 6 EnMin=-0.735411685042209E-01 IErMin= 6 ErrMin= 3.94D-05
 ErrMax= 3.94D-05  0.00D+00 EMaxC= 1.00D-01 BMatC= 2.26D-08 BMatP= 3.24D-07
 IDIUse=1 WtCom= 1.00D+00 WtEn= 0.00D+00
 Coeff-Com: -0.294D-03 0.306D-02-0.245D-01 0.141D+00-0.674D+00 0.156D+01
 Coeff:     -0.294D-03 0.306D-02-0.245D-01 0.141D+00-0.674D+00 0.156D+01
 Gap=     0.519 Goal=   None    Shift=    0.000
 RMSDP=1.57D-05 MaxDP=2.55D-04 DE=-1.81D-06 OVMax= 1.06D-04

 Cycle   7  Pass 1  IDiag  3:
 E=-0.735413045576934E-01 Delta-E=       -0.000000136053 Rises=F Damp=F
 DIIS: error= 7.97D-06 at cycle   7 NSaved=   7.
 NSaved= 7 IEnMin= 7 EnMin=-0.735413045576934E-01 IErMin= 7 ErrMin= 7.97D-06
 ErrMax= 7.97D-06  0.00D+00 EMaxC= 1.00D-01 BMatC= 1.28D-09 BMatP= 2.26D-08
 IDIUse=1 WtCom= 1.00D+00 WtEn= 0.00D+00
 Coeff-Com:  0.160D-03-0.158D-02 0.123D-01-0.703D-01 0.351D+00-0.957D+00
 Coeff-Com:  0.167D+01
 Coeff:      0.160D-03-0.158D-02 0.123D-01-0.703D-01 0.351D+00-0.957D+00
 Coeff:      0.167D+01
 Gap=     0.519 Goal=   None    Shift=    0.000
 RMSDP=4.02D-06 MaxDP=6.28D-05 DE=-1.36D-07 OVMax= 2.49D-05

 Cycle   8  Pass 1  IDiag  3:
 E=-0.735413123866806E-01 Delta-E=       -0.000000007829 Rises=F Damp=F
 DIIS: error= 8.25D-07 at cycle   8 NSaved=   8.
 NSaved= 8 IEnMin= 8 EnMin=-0.735413123866806E-01 IErMin= 8 ErrMin= 8.25D-07
 ErrMax= 8.25D-07  0.00D+00 EMaxC= 1.00D-01 BMatC= 4.80D-11 BMatP= 1.28D-09
 IDIUse=1 WtCom= 1.00D+00 WtEn= 0.00D+00
 Coeff-Com: -0.591D-04 0.649D-03-0.539D-02 0.312D-01-0.159D+00 0.450D+00
 Coeff-Com: -0.893D+00 0.158D+01
 Coeff:     -0.591D-04 0.649D-03-0.539D-02 0.312D-01-0.159D+00 0.450D+00
 Coeff:     -0.893D+00 0.158D+01
 Gap=     0.519 Goal=   None    Shift=    0.000
 RMSDP=7.40D-07 MaxDP=7.99D-06 DE=-7.83D-09 OVMax= 6.01D-06

 Cycle   9  Pass 1  IDiag  3:
 E=-0.735413126874391E-01 Delta-E=       -0.000000000301 Rises=F Damp=F
 DIIS: error= 2.17D-07 at cycle   9 NSaved=   9.
 NSaved= 9 IEnMin= 9 EnMin=-0.735413126874391E-01 IErMin= 9 ErrMin= 2.17D-07
 ErrMax= 2.17D-07  0.00D+00 EMaxC= 1.00D-01 BMatC= 3.43D-12 BMatP= 4.80D-11
 IDIUse=1 WtCom= 1.00D+00 WtEn= 0.00D+00
 Coeff-Com:  0.204D-04-0.271D-03 0.246D-02-0.146D-01 0.759D-01-0.218D+00
 Coeff-Com:  0.449D+00-0.975D+00 0.168D+01
 Coeff:      0.204D-04-0.271D-03 0.246D-02-0.146D-01 0.759D-01-0.218D+00
 Coeff:      0.449D+00-0.975D+00 0.168D+01
 Gap=     0.519 Goal=   None    Shift=    0.000
 RMSDP=2.21D-07 MaxDP=2.24D-06 DE=-3.01D-10 OVMax= 1.94D-06

 Cycle  10  Pass 1  IDiag  3:
 E=-0.735413127104323E-01 Delta-E=       -0.000000000023 Rises=F Damp=F
 DIIS: error= 3.85D-08 at cycle  10 NSaved=  10.
 NSaved=10 IEnMin=10 EnMin=-0.735413127104323E-01 IErMin=10 ErrMin= 3.85D-08
 ErrMax= 3.85D-08  0.00D+00 EMaxC= 1.00D-01 BMatC= 1.49D-13 BMatP= 3.43D-12
 IDIUse=1 WtCom= 1.00D+00 WtEn= 0.00D+00
 Coeff-Com: -0.682D-05 0.948D-04-0.883D-03 0.529D-02-0.275D-01 0.797D-01
 Coeff-Com: -0.165D+00 0.374D+00-0.789D+00 0.152D+01
 Coeff:     -0.682D-05 0.948D-04-0.883D-03 0.529D-02-0.275D-01 0.797D-01
 Coeff:     -0.165D+00 0.374D+00-0.789D+00 0.152D+01
 Gap=     0.519 Goal=   None    Shift=    0.000
 RMSDP=4.51D-08 MaxDP=4.22D-07 DE=-2.30D-11 OVMax= 3.47D-07

 Cycle  11  Pass 1  IDiag  3:
 E=-0.735413127113418E-01 Delta-E=       -0.000000000001 Rises=F Damp=F
 DIIS: error= 1.29D-08 at cycle  11 NSaved=  11.
 NSaved=11 IEnMin=11 EnMin=-0.735413127113418E-01 IErMin=11 ErrMin= 1.29D-08
 ErrMax= 1.29D-08  0.00D+00 EMaxC= 1.00D-01 BMatC= 6.78D-15 BMatP= 1.49D-13
 IDIUse=1 WtCom= 1.00D+00 WtEn= 0.00D+00
 Coeff-Com:  0.191D-05-0.260D-04 0.240D-03-0.143D-02 0.750D-02-0.218D-01
 Coeff-Com:  0.454D-01-0.103D+00 0.230D+00-0.591D+00 0.143D+01
 Coeff:      0.191D-05-0.260D-04 0.240D-03-0.143D-02 0.750D-02-0.218D-01
 Coeff:      0.454D-01-0.103D+00 0.230D+00-0.591D+00 0.143D+01
 Gap=     0.519 Goal=   None    Shift=    0.000
 RMSDP=8.69D-09 MaxDP=8.24D-08 DE=-9.09D-13 OVMax= 4.87D-08

 Cycle  12  Pass 2  IDiag  1:
 SCF Done:  E(RPM3) = -0.735413127113E-01 A.U. after   12 cycles
            NFock= 11  Conv=0.87D-08     -V/T= 0.9988
 KE=-5.978593804111D+01 PE=-2.594762472283D+02 EE= 1.464428712250D+02
 Leave Link  502 at Wed Sep  7 15:34:28 2022, MaxMem=   131072000 cpu:               0.0 elap:               0.0
 (Enter /opt/g16/l601.exe)
 Copying SCF densities to generalized density rwf, IOpCl= 0 IROHF=0.

 **********************************************************************

            Population analysis using the SCF density.

 **********************************************************************

 Orbital symmetries:
       Occupied  (A) (A) (A) (A) (A) (A) (A) (A) (A) (A) (A) (A)
                 (A) (A) (A) (A) (A) (A) (A)
       Virtual   (A) (A) (A) (A) (A) (A) (A) (A) (A) (A) (A) (A)
                 (A) (A) (A) (A) (A)
 The electronic state is 1-A.
 Alpha  occ. eigenvalues --   -1.53117  -1.25698  -1.19456  -0.97566  -0.85601
 Alpha  occ. eigenvalues --   -0.72112  -0.64850  -0.63340  -0.58549  -0.57101
 Alpha  occ. eigenvalues --   -0.54047  -0.52590  -0.49505  -0.47009  -0.46968
 Alpha  occ. eigenvalues --   -0.44891  -0.43771  -0.42128  -0.40523
 Alpha virt. eigenvalues --    0.11319   0.12240   0.12613   0.13494   0.13792
 Alpha virt. eigenvalues --    0.14149   0.14532   0.14760   0.15480   0.15835
 Alpha virt. eigenvalues --    0.16526   0.17006   0.17223   0.17912   0.18708
 Alpha virt. eigenvalues --    0.19360   0.21290
          Condensed to atoms (all electrons):
               1          2          3          4          5          6
     1  C    4.099688   0.000000   0.000000   0.000000   0.000000   0.000000
     2  H    0.000000   0.959876   0.000000   0.000000   0.000000   0.000000
     3  H    0.000000   0.000000   0.956030   0.000000   0.000000   0.000000
     4  H    0.000000   0.000000   0.000000   0.957324   0.000000   0.000000
     5  C    0.000000   0.000000   0.000000   0.000000   4.144870   0.000000
     6  H    0.000000   0.000000   0.000000   0.000000   0.000000   0.958824
     7  H    0.000000   0.000000   0.000000   0.000000   0.000000   0.000000
     8  C    0.000000   0.000000   0.000000   0.000000   0.000000   0.000000
     9  H    0.000000   0.000000   0.000000   0.000000   0.000000   0.000000
    10  O    0.000000   0.000000   0.000000   0.000000   0.000000   0.000000
    11  C    0.000000   0.000000   0.000000   0.000000   0.000000   0.000000
    12  H    0.000000   0.000000   0.000000   0.000000   0.000000   0.000000
    13  H    0.000000   0.000000   0.000000   0.000000   0.000000   0.000000
    14  H    0.000000   0.000000   0.000000   0.000000   0.000000   0.000000
    15  C    0.000000   0.000000   0.000000   0.000000   0.000000   0.000000
    16  H    0.000000   0.000000   0.000000   0.000000   0.000000   0.000000
    17  H    0.000000   0.000000   0.000000   0.000000   0.000000   0.000000
    18  H    0.000000   0.000000   0.000000   0.000000   0.000000   0.000000
               7          8          9         10         11         12
     1  C    0.000000   0.000000   0.000000   0.000000   0.000000   0.000000
     2  H    0.000000   0.000000   0.000000   0.000000   0.000000   0.000000
     3  H    0.000000   0.000000   0.000000   0.000000   0.000000   0.000000
     4  H    0.000000   0.000000   0.000000   0.000000   0.000000   0.000000
     5  C    0.000000   0.000000   0.000000   0.000000   0.000000   0.000000
     6  H    0.000000   0.000000   0.000000   0.000000   0.000000   0.000000
     7  H    0.930855   0.000000   0.000000   0.000000   0.000000   0.000000
     8  C    0.000000   3.917441   0.000000   0.000000   0.000000   0.000000
     9  H    0.000000   0.000000   0.941481   0.000000   0.000000   0.000000
    10  O    0.000000   0.000000   0.000000   6.317381   0.000000   0.000000
    11  C    0.000000   0.000000   0.000000   0.000000   4.144717   0.000000
    12  H    0.000000   0.000000   0.000000   0.000000   0.000000   0.815105
    13  H    0.000000   0.000000   0.000000   0.000000   0.000000   0.000000
    14  H    0.000000   0.000000   0.000000   0.000000   0.000000   0.000000
    15  C    0.000000   0.000000   0.000000   0.000000   0.000000   0.000000
    16  H    0.000000   0.000000   0.000000   0.000000   0.000000   0.000000
    17  H    0.000000   0.000000   0.000000   0.000000   0.000000   0.000000
    18  H    0.000000   0.000000   0.000000   0.000000   0.000000   0.000000
              13         14         15         16         17         18
     1  C    0.000000   0.000000   0.000000   0.000000   0.000000   0.000000
     2  H    0.000000   0.000000   0.000000   0.000000   0.000000   0.000000
     3  H    0.000000   0.000000   0.000000   0.000000   0.000000   0.000000
     4  H    0.000000   0.000000   0.000000   0.000000   0.000000   0.000000
     5  C    0.000000   0.000000   0.000000   0.000000   0.000000   0.000000
     6  H    0.000000   0.000000   0.000000   0.000000   0.000000   0.000000
     7  H    0.000000   0.000000   0.000000   0.000000   0.000000   0.000000
     8  C    0.000000   0.000000   0.000000   0.000000   0.000000   0.000000
     9  H    0.000000   0.000000   0.000000   0.000000   0.000000   0.000000
    10  O    0.000000   0.000000   0.000000   0.000000   0.000000   0.000000
    11  C    0.000000   0.000000   0.000000   0.000000   0.000000   0.000000
    12  H    0.000000   0.000000   0.000000   0.000000   0.000000   0.000000
    13  H    0.935145   0.000000   0.000000   0.000000   0.000000   0.000000
    14  H    0.000000   0.929460   0.000000   0.000000   0.000000   0.000000
    15  C    0.000000   0.000000   4.112801   0.000000   0.000000   0.000000
    16  H    0.000000   0.000000   0.000000   0.957582   0.000000   0.000000
    17  H    0.000000   0.000000   0.000000   0.000000   0.961217   0.000000
    18  H    0.000000   0.000000   0.000000   0.000000   0.000000   0.960203
 Mulliken charges:
               1
     1  C   -0.099688
     2  H    0.040124
     3  H    0.043970
     4  H    0.042676
     5  C   -0.144870
     6  H    0.041176
     7  H    0.069145
     8  C    0.082559
     9  H    0.058519
    10  O   -0.317381
    11  C   -0.144717
    12  H    0.184895
    13  H    0.064855
    14  H    0.070540
    15  C   -0.112801
    16  H    0.042418
    17  H    0.038783
    18  H    0.039797
 Sum of Mulliken charges =   0.00000
 Mulliken charges with hydrogens summed into heavy atoms:
               1
     1  C    0.027082
     5  C   -0.034549
     8  C    0.141078
    10  O   -0.132487
    11  C   -0.009323
    15  C    0.008198
 Charge=              0.0000 electrons
 Dipole moment (field-independent basis, Debye):
    X=              0.1126    Y=             -1.5385    Z=             -0.5319  Tot=              1.6318
 N-N= 1.727457727317D+02 E-N=-2.594762473854D+02  KE=-5.978593804111D+01
 Leave Link  601 at Wed Sep  7 15:34:28 2022, MaxMem=   131072000 cpu:               0.0 elap:               0.0
 (Enter /opt/g16/l701.exe)
 ... and contract with generalized density number  0.
 Compute integral first derivatives.
 Leave Link  701 at Wed Sep  7 15:34:28 2022, MaxMem=   131072000 cpu:               0.0 elap:               0.0
 (Enter /opt/g16/l702.exe)
 L702 exits ... SP integral derivatives will be done elsewhere.
 Leave Link  702 at Wed Sep  7 15:34:28 2022, MaxMem=   131072000 cpu:               0.0 elap:               0.0
 (Enter /opt/g16/l703.exe)
 Integral derivatives from FoFJK, PRISM(SPDF).
 Compute integral first derivatives, UseDBF=F ICtDFT=           0.
 Calling FoFJK, ICntrl=      2127 FMM=F ISym2X=0 I1Cent= 0 IOpClX= 0 NMat=1 NMatS=1 NMatT=0.
 FoFJK:  IHMeth= 9 ICntrl=    2127 DoSepK=F KAlg= 0 I1Cent=           0 FoldK=F
 IRaf=         0 NMat=       1 IRICut=       1 DoRegI=T DoRafI=F ISym2E= 0 IDoP0=3 IntGTp=3.
 FoFCou: FMM=F IPFlag=           0 FMFlag=      100000 FMFlg1=         800
         NFxFlg=           0 DoJE=F BraDBF=F KetDBF=F FulRan=T
         wScrn=  0.000000 ICntrl=      2127 IOpCl=  0 I1Cent=           0 NGrid=           0
         NMat0=    1 NMatS0=      1 NMatT0=    0 NMatD0=    1 NMtDS0=    0 NMtDT0=    0
 Symmetry not used in FoFCou.
 Leave Link  703 at Wed Sep  7 15:34:28 2022, MaxMem=   131072000 cpu:               0.0 elap:               0.0
 (Enter /opt/g16/l716.exe)
 Dipole        = 4.43053780D-02-6.05308629D-01-2.09276331D-01
 ***** Axes restored to original set *****
 -------------------------------------------------------------------
 Center     Atomic                   Forces (Hartrees/Bohr)
 Number     Number              X              Y              Z
 -------------------------------------------------------------------
      1        6          -0.016610134    0.000614932   -0.009913161
      2        1           0.015876032    0.000231947    0.008103660
      3        1          -0.007966901    0.003494538    0.006483180
      4        1          -0.008304954   -0.008580860    0.005400323
      5        6           0.024107699   -0.032196062    0.004177699
      6        1           0.018588266   -0.012048109   -0.002761261
      7        1           0.015648263    0.018157248    0.000015849
      8        6           0.085552960    0.080670760    0.008308356
      9        1          -0.016596670    0.034179316    0.014932351
     10        8           0.007919535    0.009562337   -0.010486996
     11        6          -0.115234044   -0.089744176   -0.056189678
     12        1          -0.001424717    0.003180990    0.001360994
     13        1          -0.013005732   -0.005535546    0.004049545
     14        1           0.001624745   -0.004360890    0.015325642
     15        6           0.010660474   -0.020640424    0.008194088
     16        1          -0.022532789    0.018131681   -0.018975749
     17        1           0.005721831    0.002287822    0.013248103
     18        1           0.015976137    0.002594497    0.008727054
 -------------------------------------------------------------------
 Cartesian Forces:  Max     0.115234044 RMS     0.029454508
 Leave Link  716 at Wed Sep  7 15:34:28 2022, MaxMem=   131072000 cpu:               0.0 elap:               0.0
 (Enter /opt/g16/l103.exe)

 GradGradGradGradGradGradGradGradGradGradGradGradGradGradGradGradGradGrad
 Berny optimization.
 FormGI is forming the generalized inverse of G from B-inverse, IUseBI=4.
 Internal  Forces:  Max     0.153268167 RMS     0.020017318
 Search for a local minimum.
 Step number   1 out of a maximum of   97
 All quantities printed in internal units (Hartrees-Bohrs-Radians)
 RMS Force = .20017D-01 SwitMx=.10000D-02 MixMth= 1
 Mixed Optimization -- RFO/linear search
 Second derivative matrix not updated -- first step.
 ITU=  0
     Eigenvalues ---    0.00411   0.00774   0.00976   0.01428   0.02406
     Eigenvalues ---    0.03377   0.03637   0.04129   0.05055   0.05132
     Eigenvalues ---    0.05485   0.05613   0.05765   0.05883   0.06205
     Eigenvalues ---    0.08778   0.09641   0.10364   0.13078   0.13461
     Eigenvalues ---    0.16000   0.16000   0.16000   0.16000   0.16000
     Eigenvalues ---    0.16000   0.16000   0.19524   0.20819   0.22136
     Eigenvalues ---    0.22318   0.28091   0.29718   0.29870   0.30852
     Eigenvalues ---    0.32192   0.32439   0.33584   0.34102   0.34328
     Eigenvalues ---    0.34480   0.35049   0.36717   0.36727   0.38186
     Eigenvalues ---    0.42468   0.49838   0.56861
 RFO step:  Lambda=-7.44880643D-02 EMin= 4.10989757D-03
 Linear search not attempted -- first point.
 Maximum step size (   0.300) exceeded in Quadratic search.
    -- Step size scaled by   0.730
 Iteration  1 RMS(Cart)=  0.06546953 RMS(Int)=  0.00189808
 Iteration  2 RMS(Cart)=  0.00287433 RMS(Int)=  0.00026053
 Iteration  3 RMS(Cart)=  0.00000462 RMS(Int)=  0.00026052
 Iteration  4 RMS(Cart)=  0.00000000 RMS(Int)=  0.00026052
 ITry= 1 IFail=0 DXMaxC= 1.89D-01 DCOld= 1.00D+10 DXMaxT= 3.00D-01 DXLimC= 3.00D+00 Rises=F
 Variable       Old X    -DE/DX   Delta X   Delta X   Delta X     New X
                                 (Linear)    (Quad)   (Total)
    R1        2.02960   0.01741   0.00000   0.02876   0.02876   2.05836
    R2        2.08038  -0.00295   0.00000  -0.00526  -0.00526   2.07513
    R3        2.06527   0.00405   0.00000   0.00704   0.00704   2.07232
    R4        2.83347   0.01374   0.00000   0.02514   0.02514   2.85862
    R5        2.05596   0.01754   0.00000   0.03013   0.03013   2.08608
    R6        2.02974   0.02361   0.00000   0.03902   0.03902   2.06876
    R7        2.80458   0.04770   0.00000   0.08379   0.08379   2.88837
    R8        2.00796   0.03970   0.00000   0.06350   0.06350   2.07146
    R9        2.68332   0.01588   0.00000   0.02322   0.02322   2.70653
   R10        2.60029   0.15327   0.00000   0.19528   0.19528   2.79556
   R11        1.80215  -0.00358   0.00000  -0.00407  -0.00407   1.79808
   R12        2.06780   0.01029   0.00000   0.01797   0.01797   2.08577
   R13        2.14923  -0.01165   0.00000  -0.02279  -0.02279   2.12643
   R14        2.88530  -0.00714   0.00000  -0.01401  -0.01401   2.87128
   R15        2.18640  -0.03417   0.00000  -0.07018  -0.07018   2.11622
   R16        2.10493  -0.01053   0.00000  -0.01939  -0.01939   2.08554
   R17        2.12996  -0.01648   0.00000  -0.03140  -0.03140   2.09856
    A1        1.86769  -0.00075   0.00000  -0.00190  -0.00180   1.86588
    A2        1.84254  -0.00037   0.00000   0.00441   0.00450   1.84704
    A3        1.97231  -0.00620   0.00000  -0.01666  -0.01657   1.95574
    A4        2.02098  -0.01311   0.00000  -0.04642  -0.04665   1.97433
    A5        1.90391   0.00745   0.00000   0.02061   0.02055   1.92446
    A6        1.85881   0.01202   0.00000   0.03728   0.03720   1.89601
    A7        1.90909  -0.00064   0.00000  -0.00629  -0.00529   1.90380
    A8        1.86335   0.01092   0.00000   0.02419   0.02386   1.88720
    A9        2.09524  -0.02442   0.00000  -0.05931  -0.05915   2.03609
   A10        1.90392  -0.00627   0.00000  -0.01781  -0.01811   1.88581
   A11        1.75765   0.01705   0.00000   0.05824   0.05824   1.81589
   A12        1.92765   0.00358   0.00000   0.00193   0.00171   1.92936
   A13        1.80037   0.00904   0.00000   0.02879   0.02902   1.82939
   A14        1.89626   0.00546   0.00000   0.01194   0.01210   1.90836
   A15        2.11689  -0.02174   0.00000  -0.05577  -0.05553   2.06135
   A16        1.81809  -0.00785   0.00000  -0.02529  -0.02559   1.79251
   A17        1.85877   0.00431   0.00000   0.01346   0.01386   1.87263
   A18        1.94420   0.01176   0.00000   0.02920   0.02914   1.97334
   A19        1.86255   0.00189   0.00000   0.00590   0.00590   1.86845
   A20        1.81486   0.01475   0.00000   0.04175   0.04134   1.85620
   A21        1.89559   0.00473   0.00000   0.01336   0.01387   1.90945
   A22        2.15862  -0.02733   0.00000  -0.06499  -0.06463   2.09399
   A23        1.94801  -0.00847   0.00000  -0.02936  -0.02969   1.91833
   A24        1.89063   0.00194   0.00000  -0.00367  -0.00323   1.88739
   A25        1.75656   0.01324   0.00000   0.03824   0.03864   1.79520
   A26        1.91444   0.00719   0.00000   0.01794   0.01790   1.93235
   A27        2.02394  -0.00813   0.00000  -0.02472  -0.02466   1.99928
   A28        1.90692   0.00178   0.00000   0.00931   0.00935   1.91627
   A29        1.92297  -0.00279   0.00000  -0.01451  -0.01452   1.90845
   A30        1.92807  -0.00551   0.00000  -0.01869  -0.01876   1.90931
   A31        1.76188   0.00702   0.00000   0.03029   0.03043   1.79230
    D1        1.54236  -0.00409   0.00000  -0.02436  -0.02453   1.51783
    D2       -0.51545  -0.00242   0.00000  -0.01344  -0.01349  -0.52894
    D3       -2.72440   0.00186   0.00000   0.00870   0.00891  -2.71549
    D4       -0.53276  -0.00428   0.00000  -0.02541  -0.02549  -0.55825
    D5       -2.59057  -0.00261   0.00000  -0.01450  -0.01446  -2.60503
    D6        1.48367   0.00167   0.00000   0.00765   0.00795   1.49162
    D7       -2.72564  -0.00048   0.00000  -0.00507  -0.00532  -2.73096
    D8        1.49974   0.00119   0.00000   0.00584   0.00571   1.50545
    D9       -0.70921   0.00547   0.00000   0.02799   0.02812  -0.68109
   D10        1.11406   0.00050   0.00000  -0.00146  -0.00113   1.11293
   D11        3.03622  -0.00222   0.00000  -0.01250  -0.01204   3.02418
   D12       -0.96118   0.00049   0.00000  -0.00928  -0.00864  -0.96982
   D13       -3.07523  -0.00055   0.00000   0.00300   0.00239  -3.07283
   D14       -1.15307  -0.00327   0.00000  -0.00805  -0.00851  -1.16159
   D15        1.13272  -0.00056   0.00000  -0.00483  -0.00511   1.12760
   D16       -1.06476   0.00225   0.00000   0.01271   0.01254  -1.05222
   D17        0.85740  -0.00047   0.00000   0.00167   0.00163   0.85903
   D18       -3.14000   0.00224   0.00000   0.00489   0.00503  -3.13497
   D19        1.24660  -0.00774   0.00000  -0.02103  -0.02093   1.22567
   D20       -3.12640   0.00103   0.00000   0.00465   0.00468  -3.12173
   D21       -1.12930   0.00713   0.00000   0.01986   0.01974  -1.10956
   D22        1.05171  -0.00046   0.00000   0.00393   0.00368   1.05539
   D23        3.12815  -0.00030   0.00000  -0.00189  -0.00171   3.12645
   D24       -1.10783   0.00288   0.00000   0.01711   0.01746  -1.09038
   D25       -0.99455  -0.00210   0.00000  -0.00978  -0.01007  -1.00462
   D26        1.08190  -0.00194   0.00000  -0.01560  -0.01546   1.06644
   D27        3.12910   0.00124   0.00000   0.00339   0.00370   3.13280
   D28       -2.96623  -0.00095   0.00000  -0.00161  -0.00210  -2.96833
   D29       -0.88979  -0.00079   0.00000  -0.00742  -0.00748  -0.89727
   D30        1.15741   0.00239   0.00000   0.01157   0.01168   1.16909
   D31        1.03781  -0.00092   0.00000  -0.00820  -0.00783   1.02999
   D32       -1.15385   0.00315   0.00000   0.01574   0.01609  -1.13776
   D33       -3.12950  -0.00210   0.00000  -0.01415  -0.01371   3.13997
   D34       -1.08760  -0.00223   0.00000  -0.01274  -0.01298  -1.10058
   D35        3.00392   0.00185   0.00000   0.01120   0.01094   3.01486
   D36        1.02827  -0.00340   0.00000  -0.01869  -0.01886   1.00940
   D37       -3.13307   0.00032   0.00000   0.00362   0.00343  -3.12963
   D38        0.95846   0.00439   0.00000   0.02756   0.02735   0.98581
   D39       -1.01720  -0.00085   0.00000  -0.00233  -0.00245  -1.01965
         Item               Value     Threshold  Converged?
 Maximum Force            0.153268     0.000450     NO 
 RMS     Force            0.020017     0.000300     NO 
 Maximum Displacement     0.189430     0.001800     NO 
 RMS     Displacement     0.065901     0.001200     NO 
 Predicted change in Energy=-3.813047D-02
 Lowest energy point so far.  Saving SCF results.
 GradGradGradGradGradGradGradGradGradGradGradGradGradGradGradGradGradGrad

 Leave Link  103 at Wed Sep  7 15:34:28 2022, MaxMem=   131072000 cpu:               0.0 elap:               0.0
 (Enter /opt/g16/l202.exe)
                          Input orientation:                          
 ---------------------------------------------------------------------
 Center     Atomic      Atomic             Coordinates (Angstroms)
 Number     Number       Type             X           Y           Z
 ---------------------------------------------------------------------
      1          6           0       14.753444    3.678020   10.575013
      2          1           0       15.586980    3.700576   11.275831
      3          1           0       14.492867    2.622223   10.422565
      4          1           0       13.949974    4.256019   11.047171
      5          6           0       15.103974    4.327098    9.254356
      6          1           0       15.569021    3.574211    8.594428
      7          1           0       15.842242    5.112374    9.446084
      8          6           0       13.939936    4.875144    8.429219
      9          1           0       13.512465    5.675331    9.044487
     10          8           0       14.454255    5.587934    7.298421
     11          6           0       12.837697    3.952253    8.080197
     12          1           0       14.828562    4.942243    6.708221
     13          1           0       12.408913    3.604759    9.036042
     14          1           0       12.057538    4.508079    7.489755
     15          6           0       13.112738    2.734221    7.214526
     16          1           0       13.876986    2.071360    7.694746
     17          1           0       13.427132    2.966686    6.182491
     18          1           0       12.173276    2.162470    7.060447
 ---------------------------------------------------------------------
                    Distance matrix (angstroms):
                    1          2          3          4          5
     1  C    0.000000
     2  H    1.089237   0.000000
     3  H    1.098111   1.757268   0.000000
     4  H    1.096622   1.743729   1.831435   0.000000
     5  C    1.512716   2.170757   2.155171   2.133296   0.000000
     6  H    2.144448   2.684439   2.325182   3.016973   1.103908
     7  H    2.125403   2.325147   2.995861   2.622499   1.094742
     8  C    2.588307   3.492214   3.058564   2.690184   1.528460
     9  H    2.805672   3.630725   3.490237   2.493312   2.096349
    10  O    3.804384   4.545874   4.307808   4.010165   2.416097
    11  C    3.157435   4.223029   3.161527   3.183138   2.579761
    12  H    4.068905   4.793745   4.392213   4.479878   2.633830
    13  H    2.805463   3.889208   2.688993   2.616036   2.798711
    14  H    4.180397   5.238643   4.253075   4.037332   3.525243
    15  C    3.856882   4.852825   3.494111   4.207849   3.265452
    16  H    3.412546   4.289824   2.850220   4.002101   3.004369
    17  H    4.643205   5.580829   4.385508   5.059729   3.754847
    18  H    4.615878   5.638138   4.110439   4.840823   4.252980
                    6          7          8          9         10
     6  H    0.000000
     7  H    1.779302   0.000000
     8  C    2.091325   2.170038   0.000000
     9  H    2.974338   2.430240   1.096169   0.000000
    10  O    2.641480   2.600985   1.432235   1.985787   0.000000
    11  C    2.804903   3.498403   1.479349   2.086664   2.428968
    12  H    2.444907   2.924447   1.938038   2.779868   0.951503
    13  H    3.190962   3.772106   2.079938   2.346309   3.337024
    14  H    3.797753   4.303066   2.135591   2.428267   2.635706
    15  C    2.939904   4.252723   2.596783   3.486927   3.154422
    16  H    2.435358   4.022087   2.899072   3.865654   3.585611
    17  H    3.282410   4.592143   2.992151   3.941454   3.028403
    18  H    3.984619   5.277737   3.514715   4.250886   4.122293
                   11         12         13         14         15
    11  C    0.000000
    12  H    2.612650   0.000000
    13  H    1.103743   3.614182   0.000000
    14  H    1.125261   2.911678   1.824953   0.000000
    15  C    1.519418   2.841787   2.138019   2.082251   0.000000
    16  H    2.183220   3.181304   2.511100   3.047952   1.119853
    17  H    2.218121   2.478553   3.096233   2.441438   1.103622
    18  H    2.164409   3.860277   2.457376   2.387379   1.110508
                   16         17         18
    16  H    0.000000
    17  H    1.814082   0.000000
    18  H    1.820237   1.729082   0.000000
 Stoichiometry    C5H12O
 Framework group  C1[X(C5H12O)]
 Deg. of freedom    48
 Full point group                 C1      NOp   1
 RotChk:  IX=0 Diff= 2.36D-02
 Largest Abelian subgroup         C1      NOp   1
 Largest concise Abelian subgroup C1      NOp   1
                         Standard orientation:                         
 ---------------------------------------------------------------------
 Center     Atomic      Atomic             Coordinates (Angstroms)
 Number     Number       Type             X           Y           Z
 ---------------------------------------------------------------------
      1          6           0        2.130697   -0.776138    0.059948
      2          1           0        3.151877   -0.653274   -0.298566
      3          1           0        1.779740   -1.751092   -0.303563
      4          1           0        2.188839   -0.719816    1.153578
      5          6           0        1.219160    0.325867   -0.432998
      6          1           0        0.815892    0.045421   -1.421602
      7          1           0        1.818199    1.233850   -0.556193
      8          6           0       -0.024934    0.613899    0.406918
      9          1           0        0.362438    0.963523    1.370916
     10          8           0       -0.685714    1.775969   -0.107144
     11          6           0       -0.952284   -0.504615    0.685172
     12          1           0       -1.064677    1.533517   -0.945573
     13          1           0       -0.369065   -1.261828    1.237197
     14          1           0       -1.802373   -0.135482    1.323373
     15          6           0       -1.667222   -1.200969   -0.460510
     16          1           0       -0.929359   -1.636117   -1.181811
     17          1           0       -2.382846   -0.564492   -1.008926
     18          1           0       -2.315455   -2.010227   -0.062864
 ---------------------------------------------------------------------
 Rotational constants (GHZ):           4.0073974           2.6893023           1.9146438
 Leave Link  202 at Wed Sep  7 15:34:28 2022, MaxMem=   131072000 cpu:               0.0 elap:               0.0
 (Enter /opt/g16/l301.exe)
 Standard basis: VSTO-6G (5D, 7F)
 Ernie: Thresh=  0.10000D-02 Tol=  0.10000D-05 Strict=F.
  NNHCO=     0 NNPyr=     0 NCTC=     0               EPep=         0.000000000
    EC=       129.148300588  ECS=         2.222277356   EG=         0.566683925
   EHC=         0.000000000  EAt=       -36.836480110  AtH=         2.452923921
 EPDDG=         0.000000000  ECC=       131.937261869 EAtT=        39.289404030
 There are    36 symmetry adapted cartesian basis functions of A   symmetry.
 There are    36 symmetry adapted basis functions of A   symmetry.
    36 basis functions,   216 primitive gaussians,    36 cartesian basis functions
    19 alpha electrons       19 beta electrons
       nuclear repulsion energy       171.2266658994 Hartrees.
 IExCor=    0 DFT=F Ex=HF Corr=None ExCW=0 ScaHFX=  1.000000
 ScaDFX=  1.000000  1.000000  1.000000  1.000000 ScalE2=  1.000000  1.000000
 IRadAn=      5 IRanWt=     -1 IRanGd=            0 ICorTp=0 IEmpDi=  4
 Integral buffers will be    131072 words long.
 Regular integral format.
 Two-electron integral symmetry is turned off.
 Leave Link  301 at Wed Sep  7 15:34:28 2022, MaxMem=   131072000 cpu:               0.0 elap:               0.0
 (Enter /opt/g16/l302.exe)
 Do NDO integrals.
 NPDir=0 NMtPBC=     1 NCelOv=     1 NCel=       1 NClECP=     1 NCelD=      1
         NCelK=      1 NCelE2=     1 NClLst=     1 CellRange=     0.0.
 One-electron integrals computed using PRISM.
 NBasis=    36 RedAO= F EigKep=  0.00D+00  NBF=    36
 NBsUse=    36 1.00D-04 EigRej=  0.00D+00 NBFU=    36
 Leave Link  302 at Wed Sep  7 15:34:28 2022, MaxMem=   131072000 cpu:               0.1 elap:               0.1
 (Enter /opt/g16/l303.exe)
 DipDrv:  MaxL=1.
 Leave Link  303 at Wed Sep  7 15:34:28 2022, MaxMem=   131072000 cpu:               0.0 elap:               0.0
 (Enter /opt/g16/l401.exe)
 Initial guess from the checkpoint file:  "MD_extract_011_gaussian.chk"
 B after Tr=     0.000000    0.000000   -0.000000
         Rot=    0.999970   -0.005789    0.004258   -0.002831 Ang=  -0.89 deg.
 Guess basis will be translated and rotated to current coordinates.
 JPrj=0 DoOrth=T DoCkMO=T.
 Leave Link  401 at Wed Sep  7 15:34:28 2022, MaxMem=   131072000 cpu:               0.0 elap:               0.0
 (Enter /opt/g16/l502.exe)
 Keep J ints in memory in canonical form, NReq=862161.
 FoFCou: FMM=F IPFlag=           0 FMFlag=           0 FMFlg1=           0
         NFxFlg=           0 DoJE=F BraDBF=F KetDBF=F FulRan=T
         wScrn=  0.000000 ICntrl=       600 IOpCl=  2 I1Cent=           0 NGrid=           0
         NMat0=    1 NMatS0=     72 NMatT0=    0 NMatD0=    1 NMtDS0=    0 NMtDT0=    0
 Symmetry not used in FoFCou.
 Two-electron integral symmetry not used.
 Closed shell SCF:
 Using DIIS extrapolation, IDIIS=  1040.
 Overlap will be assumed to be unity.
 NGot=   131072000 LenX=   131006778 LenY=   131005041
 Requested convergence on RMS density matrix=1.00D-08 within 128 cycles.
 Requested convergence on MAX density matrix=1.00D-06.
 Requested convergence on             energy=1.00D-06.
 No special actions if energy rises.

 Cycle   1  Pass 1  IDiag  1:
 E=-0.998069170494773E-01
 DIIS: error= 5.20D-03 at cycle   1 NSaved=   1.
 NSaved= 1 IEnMin= 1 EnMin=-0.998069170494773E-01 IErMin= 1 ErrMin= 5.20D-03
 ErrMax= 5.20D-03  0.00D+00 EMaxC= 1.00D-01 BMatC= 2.14D-03 BMatP= 2.14D-03
 IDIUse=3 WtCom= 9.48D-01 WtEn= 5.20D-02
 Coeff-Com:  0.100D+01
 Coeff-En:   0.100D+01
 Coeff:      0.100D+01
 GapD=    2.000 DampG=2.000 DampE=1.000 DampFc=2.0000 IDamp=-1.
 RMSDP=2.26D-03 MaxDP=1.33D-02              OVMax= 0.00D+00

 Cycle   2  Pass 1  IDiag  3:
 E=-0.106796880055214     Delta-E=       -0.006989963006 Rises=F Damp=F
 DIIS: error= 2.29D-03 at cycle   2 NSaved=   2.
 NSaved= 2 IEnMin= 2 EnMin=-0.106796880055214     IErMin= 2 ErrMin= 2.29D-03
 ErrMax= 2.29D-03  0.00D+00 EMaxC= 1.00D-01 BMatC= 2.68D-04 BMatP= 2.14D-03
 IDIUse=3 WtCom= 9.77D-01 WtEn= 2.29D-02
 Coeff-Com: -0.466D+00 0.147D+01
 Coeff-En:   0.000D+00 0.100D+01
 Coeff:     -0.456D+00 0.146D+01
 Gap=     0.523 Goal=   None    Shift=    0.000
 RMSDP=1.30D-03 MaxDP=8.88D-03 DE=-6.99D-03 OVMax= 8.37D-03

 Cycle   3  Pass 1  IDiag  3:
 E=-0.108016445374517     Delta-E=       -0.001219565319 Rises=F Damp=F
 DIIS: error= 4.58D-04 at cycle   3 NSaved=   3.
 NSaved= 3 IEnMin= 3 EnMin=-0.108016445374517     IErMin= 3 ErrMin= 4.58D-04
 ErrMax= 4.58D-04  0.00D+00 EMaxC= 1.00D-01 BMatC= 8.59D-06 BMatP= 2.68D-04
 IDIUse=3 WtCom= 9.95D-01 WtEn= 4.58D-03
 Coeff-Com:  0.185D+00-0.683D+00 0.150D+01
 Coeff-En:   0.000D+00 0.000D+00 0.100D+01
 Coeff:      0.184D+00-0.680D+00 0.150D+01
 Gap=     0.523 Goal=   None    Shift=    0.000
 RMSDP=2.92D-04 MaxDP=2.14D-03 DE=-1.22D-03 OVMax= 1.71D-03

 Cycle   4  Pass 1  IDiag  3:
 E=-0.108063828594254     Delta-E=       -0.000047383220 Rises=F Damp=F
 DIIS: error= 1.09D-04 at cycle   4 NSaved=   4.
 NSaved= 4 IEnMin= 4 EnMin=-0.108063828594254     IErMin= 4 ErrMin= 1.09D-04
 ErrMax= 1.09D-04  0.00D+00 EMaxC= 1.00D-01 BMatC= 2.71D-07 BMatP= 8.59D-06
 IDIUse=3 WtCom= 9.99D-01 WtEn= 1.09D-03
 Coeff-Com: -0.839D-01 0.316D+00-0.777D+00 0.154D+01
 Coeff-En:   0.000D+00 0.000D+00 0.000D+00 0.100D+01
 Coeff:     -0.838D-01 0.316D+00-0.776D+00 0.154D+01
 Gap=     0.523 Goal=   None    Shift=    0.000
 RMSDP=5.45D-05 MaxDP=6.48D-04 DE=-4.74D-05 OVMax= 3.59D-04

 Cycle   5  Pass 1  IDiag  3:
 E=-0.108065533166581     Delta-E=       -0.000001704572 Rises=F Damp=F
 DIIS: error= 4.02D-05 at cycle   5 NSaved=   5.
 NSaved= 5 IEnMin= 5 EnMin=-0.108065533166581     IErMin= 5 ErrMin= 4.02D-05
 ErrMax= 4.02D-05  0.00D+00 EMaxC= 1.00D-01 BMatC= 2.17D-08 BMatP= 2.71D-07
 IDIUse=1 WtCom= 1.00D+00 WtEn= 0.00D+00
 Coeff-Com:  0.498D-01-0.188D+00 0.471D+00-0.110D+01 0.176D+01
 Coeff:      0.498D-01-0.188D+00 0.471D+00-0.110D+01 0.176D+01
 Gap=     0.523 Goal=   None    Shift=    0.000
 RMSDP=1.90D-05 MaxDP=2.69D-04 DE=-1.70D-06 OVMax= 1.32D-04

 Cycle   6  Pass 1  IDiag  3:
 E=-0.108065701034349     Delta-E=       -0.000000167868 Rises=F Damp=F
 DIIS: error= 8.87D-06 at cycle   6 NSaved=   6.
 NSaved= 6 IEnMin= 6 EnMin=-0.108065701034349     IErMin= 6 ErrMin= 8.87D-06
 ErrMax= 8.87D-06  0.00D+00 EMaxC= 1.00D-01 BMatC= 1.35D-09 BMatP= 2.17D-08
 IDIUse=1 WtCom= 1.00D+00 WtEn= 0.00D+00
 Coeff-Com: -0.172D-01 0.649D-01-0.163D+00 0.402D+00-0.857D+00 0.157D+01
 Coeff:     -0.172D-01 0.649D-01-0.163D+00 0.402D+00-0.857D+00 0.157D+01
 Gap=     0.523 Goal=   None    Shift=    0.000
 RMSDP=5.11D-06 MaxDP=6.56D-05 DE=-1.68D-07 OVMax= 4.34D-05

 Cycle   7  Pass 1  IDiag  3:
 E=-0.108065711531168     Delta-E=       -0.000000010497 Rises=F Damp=F
 DIIS: error= 9.18D-07 at cycle   7 NSaved=   7.
 NSaved= 7 IEnMin= 7 EnMin=-0.108065711531168     IErMin= 7 ErrMin= 9.18D-07
 ErrMax= 9.18D-07  0.00D+00 EMaxC= 1.00D-01 BMatC= 5.58D-11 BMatP= 1.35D-09
 IDIUse=1 WtCom= 1.00D+00 WtEn= 0.00D+00
 Coeff-Com:  0.445D-02-0.167D-01 0.419D-01-0.107D+00 0.258D+00-0.639D+00
 Coeff-Com:  0.146D+01
 Coeff:      0.445D-02-0.167D-01 0.419D-01-0.107D+00 0.258D+00-0.639D+00
 Coeff:      0.146D+01
 Gap=     0.523 Goal=   None    Shift=    0.000
 RMSDP=8.94D-07 MaxDP=7.42D-06 DE=-1.05D-08 OVMax= 8.61D-06

 Cycle   8  Pass 1  IDiag  3:
 E=-0.108065711907358     Delta-E=       -0.000000000376 Rises=F Damp=F
 DIIS: error= 2.70D-07 at cycle   8 NSaved=   8.
 NSaved= 8 IEnMin= 8 EnMin=-0.108065711907358     IErMin= 8 ErrMin= 2.70D-07
 ErrMax= 2.70D-07  0.00D+00 EMaxC= 1.00D-01 BMatC= 3.06D-12 BMatP= 5.58D-11
 IDIUse=1 WtCom= 1.00D+00 WtEn= 0.00D+00
 Coeff-Com: -0.703D-03 0.262D-02-0.650D-02 0.175D-01-0.496D-01 0.155D+00
 Coeff-Com: -0.550D+00 0.143D+01
 Coeff:     -0.703D-03 0.262D-02-0.650D-02 0.175D-01-0.496D-01 0.155D+00
 Coeff:     -0.550D+00 0.143D+01
 Gap=     0.523 Goal=   None    Shift=    0.000
 RMSDP=1.96D-07 MaxDP=1.57D-06 DE=-3.76D-10 OVMax= 1.94D-06

 Cycle   9  Pass 1  IDiag  3:
 E=-0.108065711927566     Delta-E=       -0.000000000020 Rises=F Damp=F
 DIIS: error= 9.21D-08 at cycle   9 NSaved=   9.
 NSaved= 9 IEnMin= 9 EnMin=-0.108065711927566     IErMin= 9 ErrMin= 9.21D-08
 ErrMax= 9.21D-08  0.00D+00 EMaxC= 1.00D-01 BMatC= 2.41D-13 BMatP= 3.06D-12
 IDIUse=1 WtCom= 1.00D+00 WtEn= 0.00D+00
 Coeff-Com:  0.119D-03-0.436D-03 0.105D-02-0.319D-02 0.118D-01-0.467D-01
 Coeff-Com:  0.210D+00-0.771D+00 0.160D+01
 Coeff:      0.119D-03-0.436D-03 0.105D-02-0.319D-02 0.118D-01-0.467D-01
 Coeff:      0.210D+00-0.771D+00 0.160D+01
 Gap=     0.523 Goal=   None    Shift=    0.000
 RMSDP=5.94D-08 MaxDP=6.52D-07 DE=-2.02D-11 OVMax= 6.29D-07

 Cycle  10  Pass 1  IDiag  3:
 E=-0.108065711929470     Delta-E=       -0.000000000002 Rises=F Damp=F
 DIIS: error= 2.23D-08 at cycle  10 NSaved=  10.
 NSaved=10 IEnMin=10 EnMin=-0.108065711929470     IErMin=10 ErrMin= 2.23D-08
 ErrMax= 2.23D-08  0.00D+00 EMaxC= 1.00D-01 BMatC= 1.56D-14 BMatP= 2.41D-13
 IDIUse=1 WtCom= 1.00D+00 WtEn= 0.00D+00
 Coeff-Com: -0.153D-04 0.517D-04-0.108D-03 0.525D-03-0.322D-02 0.162D-01
 Coeff-Com: -0.835D-01 0.343D+00-0.909D+00 0.164D+01
 Coeff:     -0.153D-04 0.517D-04-0.108D-03 0.525D-03-0.322D-02 0.162D-01
 Coeff:     -0.835D-01 0.343D+00-0.909D+00 0.164D+01
 Gap=     0.523 Goal=   None    Shift=    0.000
 RMSDP=1.61D-08 MaxDP=1.85D-07 DE=-1.90D-12 OVMax= 1.50D-07

 Cycle  11  Pass 1  IDiag  3:
 E=-0.108065711929356     Delta-E=        0.000000000000 Rises=F Damp=F
 DIIS: error= 2.71D-09 at cycle  11 NSaved=  11.
 NSaved=11 IEnMin=10 EnMin=-0.108065711929470     IErMin=11 ErrMin= 2.71D-09
 ErrMax= 2.71D-09  0.00D+00 EMaxC= 1.00D-01 BMatC= 5.04D-16 BMatP= 1.56D-14
 IDIUse=1 WtCom= 1.00D+00 WtEn= 0.00D+00
 Coeff-Com: -0.138D-06 0.249D-05-0.138D-04-0.483D-04 0.775D-03-0.469D-02
 Coeff-Com:  0.260D-01-0.111D+00 0.313D+00-0.691D+00 0.147D+01
 Coeff:     -0.138D-06 0.249D-05-0.138D-04-0.483D-04 0.775D-03-0.469D-02
 Coeff:      0.260D-01-0.111D+00 0.313D+00-0.691D+00 0.147D+01
 Gap=     0.523 Goal=   None    Shift=    0.000
 RMSDP=2.56D-09 MaxDP=2.12D-08 DE= 1.14D-13 OVMax= 2.26D-08

 Cycle  12  Pass 2  IDiag  1:
 SCF Done:  E(RPM3) = -0.108065711929     A.U. after   12 cycles
            NFock= 11  Conv=0.26D-08     -V/T= 0.9982
 KE=-5.969776516366D+01 PE=-2.567674191856D+02 EE= 1.451304527379D+02
 Leave Link  502 at Wed Sep  7 15:34:29 2022, MaxMem=   131072000 cpu:               0.0 elap:               0.0
 (Enter /opt/g16/l701.exe)
 ... and contract with generalized density number  0.
 Compute integral first derivatives.
 Leave Link  701 at Wed Sep  7 15:34:29 2022, MaxMem=   131072000 cpu:               0.0 elap:               0.0
 (Enter /opt/g16/l702.exe)
 L702 exits ... SP integral derivatives will be done elsewhere.
 Leave Link  702 at Wed Sep  7 15:34:29 2022, MaxMem=   131072000 cpu:               0.0 elap:               0.0
 (Enter /opt/g16/l703.exe)
 Integral derivatives from FoFJK, PRISM(SPDF).
 Compute integral first derivatives, UseDBF=F ICtDFT=           0.
 Calling FoFJK, ICntrl=      2127 FMM=F ISym2X=0 I1Cent= 0 IOpClX= 0 NMat=1 NMatS=1 NMatT=0.
 FoFJK:  IHMeth= 9 ICntrl=    2127 DoSepK=F KAlg= 0 I1Cent=           0 FoldK=F
 IRaf=         0 NMat=       1 IRICut=       1 DoRegI=T DoRafI=F ISym2E= 0 IDoP0=3 IntGTp=3.
 FoFCou: FMM=F IPFlag=           0 FMFlag=      100000 FMFlg1=         800
         NFxFlg=           0 DoJE=F BraDBF=F KetDBF=F FulRan=T
         wScrn=  0.000000 ICntrl=      2127 IOpCl=  0 I1Cent=           0 NGrid=           0
         NMat0=    1 NMatS0=      1 NMatT0=    0 NMatD0=    1 NMtDS0=    0 NMtDT0=    0
 Symmetry not used in FoFCou.
 Leave Link  703 at Wed Sep  7 15:34:29 2022, MaxMem=   131072000 cpu:               0.0 elap:               0.0
 (Enter /opt/g16/l716.exe)
 Dipole        = 4.95082836D-02-6.00466899D-01-2.23096693D-01
 ***** Axes restored to original set *****
 -------------------------------------------------------------------
 Center     Atomic                   Forces (Hartrees/Bohr)
 Number     Number              X              Y              Z
 -------------------------------------------------------------------
      1        6          -0.005262916    0.006400532   -0.007739254
      2        1           0.006422256   -0.000704218    0.002251262
      3        1          -0.005956792    0.002444190    0.003592367
      4        1          -0.004525105   -0.006384695    0.002016160
      5        6           0.002587374   -0.019859084   -0.006990191
      6        1           0.009088248   -0.002565494    0.001338660
      7        1           0.004825300    0.006618123   -0.002121976
      8        6           0.028737588    0.028178782   -0.001026590
      9        1          -0.006546632    0.013354218    0.002577503
     10        8          -0.004286627   -0.006355595    0.006486690
     11        6          -0.029354244   -0.023580878   -0.021958507
     12        1          -0.001710534    0.000869195    0.002165913
     13        1          -0.005343771   -0.000178703    0.000502532
     14        1           0.003010924   -0.000396019    0.011844092
     15        6           0.006189598   -0.007417035    0.004613467
     16        1          -0.010043952    0.006656968   -0.009118739
     17        1           0.005227939    0.002678507    0.005832128
     18        1           0.006941345    0.000241206    0.005734481
 -------------------------------------------------------------------
 Cartesian Forces:  Max     0.029354244 RMS     0.010033636
 Leave Link  716 at Wed Sep  7 15:34:29 2022, MaxMem=   131072000 cpu:               0.0 elap:               0.0
 (Enter /opt/g16/l103.exe)

 GradGradGradGradGradGradGradGradGradGradGradGradGradGradGradGradGradGrad
 Berny optimization.
 Using GEDIIS/GDIIS optimizer.
 FormGI is forming the generalized inverse of G from B-inverse, IUseBI=4.
 Internal  Forces:  Max     0.031738117 RMS     0.006470608
 Search for a local minimum.
 Step number   2 out of a maximum of   97
 All quantities printed in internal units (Hartrees-Bohrs-Radians)
 RMS Force = .64706D-02 SwitMx=.10000D-02 MixMth= 1
 Mixed Optimization -- RFO/linear search
 Update second derivatives using D2CorX and points    1    2
 DE= -3.45D-02 DEPred=-3.81D-02 R= 9.05D-01
 TightC=F SS=  1.41D+00  RLast= 3.11D-01 DXNew= 5.0454D-01 9.3287D-01
 Trust test= 9.05D-01 RLast= 3.11D-01 DXMaxT set to 5.05D-01
 ITU=  1  0
 Use linear search instead of GDIIS.
     Eigenvalues ---    0.00411   0.00774   0.00976   0.01428   0.02406
     Eigenvalues ---    0.03625   0.03879   0.04279   0.05145   0.05182
     Eigenvalues ---    0.05534   0.05644   0.05671   0.05810   0.06002
     Eigenvalues ---    0.08523   0.09179   0.09874   0.12673   0.13094
     Eigenvalues ---    0.15606   0.16000   0.16000   0.16000   0.16000
     Eigenvalues ---    0.16000   0.16035   0.19108   0.19695   0.21349
     Eigenvalues ---    0.22114   0.27923   0.29660   0.29787   0.30822
     Eigenvalues ---    0.32191   0.32499   0.33581   0.34315   0.34477
     Eigenvalues ---    0.34841   0.35308   0.36709   0.36753   0.38073
     Eigenvalues ---    0.42540   0.56831   0.64127
 RFO step:  Lambda=-1.67349690D-02 EMin= 4.10988057D-03
 Quartic linear search produced a step of  0.63158.
 Iteration  1 RMS(Cart)=  0.14205349 RMS(Int)=  0.00746392
 Iteration  2 RMS(Cart)=  0.01081117 RMS(Int)=  0.00137831
 Iteration  3 RMS(Cart)=  0.00007811 RMS(Int)=  0.00137768
 Iteration  4 RMS(Cart)=  0.00000013 RMS(Int)=  0.00137768
 ITry= 1 IFail=0 DXMaxC= 4.78D-01 DCOld= 1.00D+10 DXMaxT= 5.05D-01 DXLimC= 3.00D+00 Rises=F
 Variable       Old X    -DE/DX   Delta X   Delta X   Delta X     New X
                                 (Linear)    (Quad)   (Total)
    R1        2.05836   0.00635   0.01816   0.00832   0.02648   2.08484
    R2        2.07513  -0.00144  -0.00332  -0.00323  -0.00655   2.06858
    R3        2.07232   0.00082   0.00445  -0.00082   0.00363   2.07595
    R4        2.85862   0.00151   0.01588  -0.00871   0.00718   2.86579
    R5        2.08608   0.00478   0.01903   0.00185   0.02088   2.10696
    R6        2.06876   0.00763   0.02464   0.00717   0.03182   2.10058
    R7        2.88837   0.00637   0.05292  -0.02432   0.02860   2.91698
    R8        2.07146   0.01375   0.04011   0.01502   0.05513   2.12659
    R9        2.70653  -0.01172   0.01466  -0.05760  -0.04294   2.66360
   R10        2.79556   0.03174   0.12333  -0.02729   0.09604   2.89161
   R11        1.79808  -0.00261  -0.00257  -0.00451  -0.00708   1.79100
   R12        2.08577   0.00257   0.01135   0.00010   0.01146   2.09723
   R13        2.12643  -0.00850  -0.01440  -0.02909  -0.04348   2.08295
   R14        2.87128  -0.00425  -0.00885  -0.01302  -0.02187   2.84942
   R15        2.11622  -0.01471  -0.04432  -0.03582  -0.08014   2.03607
   R16        2.08554  -0.00340  -0.01225  -0.00395  -0.01620   2.06935
   R17        2.09856  -0.00679  -0.01983  -0.01390  -0.03373   2.06482
    A1        1.86588  -0.00008  -0.00114   0.00460   0.00366   1.86955
    A2        1.84704   0.00020   0.00284   0.02123   0.02367   1.87071
    A3        1.95574  -0.00351  -0.01047  -0.00991  -0.02049   1.93525
    A4        1.97433  -0.00850  -0.02946  -0.07484  -0.10434   1.87000
    A5        1.92446   0.00424   0.01298   0.01611   0.02918   1.95363
    A6        1.89601   0.00706   0.02350   0.04063   0.06390   1.95991
    A7        1.90380   0.00121  -0.00334   0.01715   0.01757   1.92138
    A8        1.88720   0.00747   0.01507   0.02306   0.03416   1.92136
    A9        2.03609  -0.01533  -0.03736  -0.06562  -0.10283   1.93326
   A10        1.88581  -0.00427  -0.01144  -0.02610  -0.03760   1.84820
   A11        1.81589   0.01002   0.03679   0.08206   0.12037   1.93627
   A12        1.92936   0.00120   0.00108  -0.02767  -0.02788   1.90149
   A13        1.82939   0.00632   0.01833   0.07165   0.09164   1.92103
   A14        1.90836   0.00635   0.00764   0.01917   0.02263   1.93100
   A15        2.06135  -0.01351  -0.03507  -0.07238  -0.10703   1.95433
   A16        1.79251  -0.00377  -0.01616  -0.01017  -0.02777   1.76474
   A17        1.87263   0.00364   0.00875   0.03622   0.04822   1.92084
   A18        1.97334   0.00244   0.01840  -0.02652  -0.01025   1.96309
   A19        1.86845  -0.00212   0.00372  -0.02273  -0.01901   1.84944
   A20        1.85620   0.00794   0.02611   0.02482   0.04997   1.90617
   A21        1.90945   0.00147   0.00876  -0.00552   0.00749   1.91694
   A22        2.09399  -0.01955  -0.04082  -0.08672  -0.12573   1.96826
   A23        1.91833  -0.00563  -0.01875  -0.04061  -0.06104   1.85729
   A24        1.88739   0.00401  -0.00204   0.01661   0.01455   1.90194
   A25        1.79520   0.01166   0.02441   0.08979   0.11468   1.90988
   A26        1.93235   0.00442   0.01131   0.01052   0.02130   1.95365
   A27        1.99928  -0.00561  -0.01558  -0.03441  -0.05017   1.94911
   A28        1.91627   0.00115   0.00590   0.02154   0.02762   1.94389
   A29        1.90845  -0.00178  -0.00917  -0.03445  -0.04444   1.86401
   A30        1.90931  -0.00356  -0.01185  -0.02744  -0.03945   1.86985
   A31        1.79230   0.00526   0.01922   0.06680   0.08649   1.87880
    D1        1.51783  -0.00250  -0.01549  -0.06686  -0.08269   1.43514
    D2       -0.52894  -0.00225  -0.00852  -0.05802  -0.06700  -0.59594
    D3       -2.71549   0.00140   0.00563   0.00945   0.01541  -2.70008
    D4       -0.55825  -0.00296  -0.01610  -0.07699  -0.09320  -0.65146
    D5       -2.60503  -0.00271  -0.00913  -0.06815  -0.07751  -2.68254
    D6        1.49162   0.00094   0.00502  -0.00067   0.00489   1.49651
    D7       -2.73096   0.00010  -0.00336  -0.02134  -0.02479  -2.75575
    D8        1.50545   0.00035   0.00361  -0.01250  -0.00910   1.49635
    D9       -0.68109   0.00399   0.01776   0.05497   0.07331  -0.60778
   D10        1.11293  -0.00034  -0.00072  -0.02708  -0.02684   1.08609
   D11        3.02418   0.00089  -0.00760   0.00253  -0.00241   3.02177
   D12       -0.96982  -0.00167  -0.00546  -0.08446  -0.08663  -1.05645
   D13       -3.07283  -0.00045   0.00151   0.01600   0.01507  -3.05776
   D14       -1.16159   0.00079  -0.00537   0.04561   0.03950  -1.12208
   D15        1.12760  -0.00178  -0.00323  -0.04138  -0.04473   1.08287
   D16       -1.05222   0.00052   0.00792   0.01704   0.02240  -1.02982
   D17        0.85903   0.00176   0.00103   0.04665   0.04683   0.90586
   D18       -3.13497  -0.00081   0.00318  -0.04035  -0.03740   3.11082
   D19        1.22567  -0.00598  -0.01322  -0.05082  -0.06454   1.16113
   D20       -3.12173   0.00177   0.00295   0.03224   0.03458  -3.08715
   D21       -1.10956   0.00496   0.01247   0.05703   0.07062  -1.03894
   D22        1.05539   0.00111   0.00232   0.05371   0.05451   1.10990
   D23        3.12645  -0.00032  -0.00108   0.01667   0.01412   3.14057
   D24       -1.09038   0.00282   0.01102   0.07204   0.08295  -1.00743
   D25       -1.00462  -0.00131  -0.00636  -0.02127  -0.02814  -1.03276
   D26        1.06644  -0.00273  -0.00976  -0.05832  -0.06853   0.99791
   D27        3.13280   0.00040   0.00234  -0.00295   0.00029   3.13310
   D28       -2.96833  -0.00017  -0.00133  -0.01679  -0.01755  -2.98589
   D29       -0.89727  -0.00159  -0.00473  -0.05384  -0.05794  -0.95522
   D30        1.16909   0.00154   0.00737   0.00153   0.01088   1.17997
   D31        1.02999  -0.00051  -0.00494  -0.02199  -0.02490   1.00509
   D32       -1.13776   0.00261   0.01016   0.04210   0.05379  -1.08396
   D33        3.13997  -0.00136  -0.00866  -0.03535  -0.04197   3.09800
   D34       -1.10058  -0.00036  -0.00820  -0.00598  -0.01406  -1.11464
   D35        3.01486   0.00276   0.00691   0.05811   0.06463   3.07949
   D36        1.00940  -0.00121  -0.01191  -0.01933  -0.03114   0.97827
   D37       -3.12963  -0.00123   0.00217  -0.00985  -0.00932  -3.13895
   D38        0.98581   0.00189   0.01728   0.05425   0.06937   1.05518
   D39       -1.01965  -0.00208  -0.00155  -0.02320  -0.02639  -1.04604
         Item               Value     Threshold  Converged?
 Maximum Force            0.031738     0.000450     NO 
 RMS     Force            0.006471     0.000300     NO 
 Maximum Displacement     0.478365     0.001800     NO 
 RMS     Displacement     0.143196     0.001200     NO 
 Predicted change in Energy=-9.321387D-03
 Lowest energy point so far.  Saving SCF results.
 GradGradGradGradGradGradGradGradGradGradGradGradGradGradGradGradGradGrad

[...]
 ! A11   A(6,5,8)              109.2796         -DE/DX =    0.0                 !
 ! A12   A(7,5,8)              109.9739         -DE/DX =    0.0                 !
 ! A13   A(5,8,9)              110.1371         -DE/DX =    0.0                 !
 ! A14   A(5,8,10)             111.5455         -DE/DX =    0.0                 !
 ! A15   A(5,8,11)             111.6355         -DE/DX =    0.0                 !
 ! A16   A(9,8,10)             101.1716         -DE/DX =    0.0                 !
 ! A17   A(9,8,11)             109.6389         -DE/DX =    0.0                 !
 ! A18   A(10,8,11)            112.226          -DE/DX =    0.0                 !
 ! A19   A(8,10,12)            107.2153         -DE/DX =    0.0                 !
 ! A20   A(8,11,13)            108.1946         -DE/DX =    0.0                 !
 ! A21   A(8,11,14)            109.5093         -DE/DX =    0.0                 !
 ! A22   A(8,11,15)            113.4371         -DE/DX =    0.0                 !
 ! A23   A(13,11,14)           105.8117         -DE/DX =    0.0                 !
 ! A24   A(13,11,15)           109.72           -DE/DX =    0.0                 !
 ! A25   A(14,11,15)           109.8741         -DE/DX =    0.0                 !
 ! A26   A(11,15,16)           110.841          -DE/DX =    0.0                 !
 ! A27   A(11,15,17)           112.2491         -DE/DX =    0.0                 !
 ! A28   A(11,15,18)           111.3298         -DE/DX =    0.0                 !
 ! A29   A(16,15,17)           107.3404         -DE/DX =    0.0                 !
 ! A30   A(16,15,18)           107.7378         -DE/DX =    0.0                 !
 ! A31   A(17,15,18)           107.1147         -DE/DX =    0.0                 !
 ! D1    D(2,1,5,6)             57.8507         -DE/DX =    0.0                 !
 ! D2    D(2,1,5,7)            -58.1889         -DE/DX =    0.0                 !
 ! D3    D(2,1,5,8)            179.592          -DE/DX =    0.0                 !
 ! D4    D(3,1,5,6)            -62.0468         -DE/DX =    0.0                 !
 ! D5    D(3,1,5,7)           -178.0865         -DE/DX =    0.0                 !
 ! D6    D(3,1,5,8)             59.6945         -DE/DX =    0.0                 !
 ! D7    D(4,1,5,6)            177.7213         -DE/DX =    0.0                 !
 ! D8    D(4,1,5,7)             61.6817         -DE/DX =    0.0                 !
 ! D9    D(4,1,5,8)            -60.5374         -DE/DX =    0.0                 !
 ! D10   D(1,5,8,9)             40.586          -DE/DX =    0.0                 !
 ! D11   D(1,5,8,10)           152.0947         -DE/DX =    0.0                 !
 ! D12   D(1,5,8,11)           -81.4564         -DE/DX =    0.0                 !
 ! D13   D(6,5,8,9)            162.8443         -DE/DX =    0.0                 !
 ! D14   D(6,5,8,10)           -85.6471         -DE/DX =    0.0                 !
 ! D15   D(6,5,8,11)            40.8019         -DE/DX =    0.0                 !
 ! D16   D(7,5,8,9)            -81.4185         -DE/DX =    0.0                 !
 ! D17   D(7,5,8,10)            30.0902         -DE/DX =    0.0                 !
 ! D18   D(7,5,8,11)           156.5391         -DE/DX =    0.0                 !
 ! D19   D(5,8,10,12)           65.1453         -DE/DX =    0.0                 !
 ! D20   D(9,8,10,12)         -177.7735         -DE/DX =    0.0                 !
 ! D21   D(11,8,10,12)         -60.9799         -DE/DX =    0.0                 !
 ! D22   D(5,8,11,13)           62.6544         -DE/DX =    0.0                 !
 ! D23   D(5,8,11,14)          177.5356         -DE/DX =    0.0                 !
 ! D24   D(5,8,11,15)          -59.3245         -DE/DX =    0.0                 !
 ! D25   D(9,8,11,13)          -59.6744         -DE/DX =    0.0                 !
 ! D26   D(9,8,11,14)           55.2069         -DE/DX =    0.0                 !
 ! D27   D(9,8,11,15)          178.3467         -DE/DX =    0.0                 !
 ! D28   D(10,8,11,13)        -171.2693         -DE/DX =    0.0                 !
 ! D29   D(10,8,11,14)         -56.3881         -DE/DX =    0.0                 !
 ! D30   D(10,8,11,15)          66.7518         -DE/DX =    0.0                 !
 ! D31   D(8,11,15,16)          48.4102         -DE/DX =    0.0                 !
 ! D32   D(8,11,15,17)         -71.6099         -DE/DX =    0.0                 !
 ! D33   D(8,11,15,18)         168.3184         -DE/DX =    0.0                 !
 ! D34   D(13,11,15,16)        -72.7154         -DE/DX =    0.0                 !
 ! D35   D(13,11,15,17)        167.2646         -DE/DX =    0.0                 !
 ! D36   D(13,11,15,18)         47.1928         -DE/DX =    0.0                 !
 ! D37   D(14,11,15,16)        171.3493         -DE/DX =    0.0                 !
 ! D38   D(14,11,15,17)         51.3293         -DE/DX =    0.0                 !
 ! D39   D(14,11,15,18)        -68.7425         -DE/DX =    0.0                 !
 --------------------------------------------------------------------------------
 Lowest energy point so far.  Saving SCF results.
 Largest change from initial coordinates is atom    3       0.337 Angstoms.
 GradGradGradGradGradGradGradGradGradGradGradGradGradGradGradGradGradGrad

 Leave Link  103 at Wed Sep  7 15:34:33 2022, MaxMem=   131072000 cpu:               0.0 elap:               0.0
 (Enter /opt/g16/l202.exe)
                          Input orientation:                          
 ---------------------------------------------------------------------
 Center     Atomic      Atomic             Coordinates (Angstroms)
 Number     Number       Type             X           Y           Z
 ---------------------------------------------------------------------
      1          6           0       14.730734    3.857076   10.650316
      2          1           0       15.567506    3.344723   11.142231
      3          1           0       13.844082    3.218157   10.763193
      4          1           0       14.539041    4.782864   11.209370
      5          6           0       15.040639    4.135614    9.198092
      6          1           0       15.270914    3.184851    8.665045
      7          1           0       15.958393    4.752330    9.125524
      8          6           0       13.872195    4.845779    8.489403
      9          1           0       13.426723    5.615967    9.161463
     10          8           0       14.324304    5.645041    7.420017
     11          6           0       12.783822    3.849139    8.051820
     12          1           0       14.695108    5.060701    6.769532
     13          1           0       12.366592    3.371306    8.960591
     14          1           0       11.942751    4.400244    7.587392
     15          6           0       13.288720    2.785551    7.101879
     16          1           0       14.220135    2.330962    7.480695
     17          1           0       13.503746    3.188327    6.102924
     18          1           0       12.552595    1.982371    6.974511
 ---------------------------------------------------------------------
                    Distance matrix (angstroms):
                    1          2          3          4          5
     1  C    0.000000
     2  H    1.097575   0.000000
     3  H    1.098686   1.769146   0.000000
     4  H    1.098349   1.769321   1.769279   0.000000
     5  C    1.510821   2.163971   2.173251   2.171583   0.000000
     6  H    2.164481   2.499994   2.537555   3.092389   1.114053
     7  H    2.152584   2.490232   3.083174   2.521489   1.108096
     8  C    2.526691   3.487799   2.796438   2.801225   1.540077
     9  H    2.647797   3.696612   2.913627   2.474921   2.190322
    10  O    3.714409   4.548834   4.158991   3.892128   2.439889
    11  C    3.246954   4.189745   2.978898   3.731321   2.547397
    12  H    4.063307   4.777672   4.479793   4.451260   2.621656
    13  H    2.946237   3.873772   2.335767   3.430603   2.791255
    14  H    4.177246   5.185542   3.885627   4.472789   3.501613
    15  C    3.977307   4.672256   3.728377   4.735403   3.047294
    16  H    3.554748   4.031124   3.421012   4.473985   2.622871
    17  H    4.757257   5.447767   4.672775   5.448869   3.583219
    18  H    4.665871   5.321238   4.189179   5.451858   3.971288
                    6          7          8          9         10
     6  H    0.000000
     7  H    1.772472   0.000000
     8  C    2.178519   2.183027   0.000000
     9  H    3.091568   2.675166   1.115033   0.000000
    10  O    2.915253   2.525062   1.409542   1.959370   0.000000
    11  C    2.646309   3.470807   1.539262   2.183188   2.448985
    12  H    2.728247   2.691037   1.918680   2.763775   0.949779
    13  H    2.925270   3.851684   2.159382   2.490529   3.372814
    14  H    3.703402   4.314533   2.175978   2.481502   2.692457
    15  C    2.555783   3.884651   2.551510   3.503167   3.057830
    16  H    1.798875   3.404413   2.731823   3.774353   3.316271
    17  H    3.112453   4.196130   2.928853   3.905640   2.905769
    18  H    3.419521   4.888659   3.497906   4.330113   4.092991
                   11         12         13         14         15
    11  C    0.000000
    12  H    2.600993   0.000000
    13  H    1.108273   3.616184   0.000000
    14  H    1.107615   2.946280   1.767493   0.000000
    15  C    1.512788   2.695309   2.155977   2.157449   0.000000
    16  H    2.166574   2.860564   2.589986   3.078927   1.103489
    17  H    2.180174   2.317217   3.081048   2.471658   1.098351
    18  H    2.167691   3.756127   2.430689   2.567809   1.096905
                   16         17         18
    16  H    0.000000
    17  H    1.773849   0.000000
    18  H    1.777196   1.765978   0.000000
 Stoichiometry    C5H12O
 Framework group  C1[X(C5H12O)]
 Deg. of freedom    48
 Full point group                 C1      NOp   1
 RotChk:  IX=0 Diff= 8.79D-17
 Largest Abelian subgroup         C1      NOp   1
 Largest concise Abelian subgroup C1      NOp   1
                         Standard orientation:                         
 ---------------------------------------------------------------------
 Center     Atomic      Atomic             Coordinates (Angstroms)
 Number     Number       Type             X           Y           Z
 ---------------------------------------------------------------------
      1          6           0        2.212018   -0.613074    0.117112
      2          1           0        2.975367   -0.948951   -0.596439
      3          1           0        1.844217   -1.503191    0.645815
      4          1           0        2.713895    0.022794    0.858841
      5          6           0        1.095789    0.123357   -0.585939
      6          1           0        0.631914   -0.530113   -1.359833
      7          1           0        1.511135    0.992262   -1.133998
      8          6           0        0.010044    0.593344    0.400015
      9          1           0        0.480846    0.977894    1.334769
     10          8           0       -0.649803    1.747533   -0.068234
     11          6           0       -0.972954   -0.540027    0.744270
     12          1           0       -1.116525    1.503364   -0.858571
     13          1           0       -0.406734   -1.347555    1.249803
     14          1           0       -1.709989   -0.177452    1.487324
     15          6           0       -1.692545   -1.099783   -0.462954
     16          1           0       -0.980433   -1.323345   -1.275729
     17          1           0       -2.438061   -0.400055   -0.864154
     18          1           0       -2.221312   -2.028816   -0.216977
 ---------------------------------------------------------------------
 Rotational constants (GHZ):           4.2097151           2.6101780           1.9757412
 Leave Link  202 at Wed Sep  7 15:34:33 2022, MaxMem=   131072000 cpu:               0.0 elap:               0.0
 (Enter /opt/g16/l601.exe)
 Copying SCF densities to generalized density rwf, IOpCl= 0 IROHF=0.

 **********************************************************************

            Population analysis using the SCF density.

 **********************************************************************

 Orbital symmetries:
       Occupied  (A) (A) (A) (A) (A) (A) (A) (A) (A) (A) (A) (A)
                 (A) (A) (A) (A) (A) (A) (A)
       Virtual   (A) (A) (A) (A) (A) (A) (A) (A) (A) (A) (A) (A)
                 (A) (A) (A) (A) (A)
 The electronic state is 1-A.
 Alpha  occ. eigenvalues --   -1.49462  -1.26019  -1.18479  -0.94214  -0.85450
 Alpha  occ. eigenvalues --   -0.73604  -0.63820  -0.61073  -0.58693  -0.56844
 Alpha  occ. eigenvalues --   -0.52860  -0.52255  -0.49781  -0.48282  -0.46524
 Alpha  occ. eigenvalues --   -0.44845  -0.44454  -0.42067  -0.40700
 Alpha virt. eigenvalues --    0.11631   0.12558   0.13110   0.13496   0.13991
 Alpha virt. eigenvalues --    0.14221   0.14375   0.14856   0.15168   0.15995
 Alpha virt. eigenvalues --    0.16509   0.17243   0.17275   0.17631   0.18257
 Alpha virt. eigenvalues --    0.18360   0.21297
          Condensed to atoms (all electrons):
               1          2          3          4          5          6
     1  C    4.103823   0.000000   0.000000   0.000000   0.000000   0.000000
     2  H    0.000000   0.961631   0.000000   0.000000   0.000000   0.000000
     3  H    0.000000   0.000000   0.961708   0.000000   0.000000   0.000000
     4  H    0.000000   0.000000   0.000000   0.959166   0.000000   0.000000
     5  C    0.000000   0.000000   0.000000   0.000000   4.147124   0.000000
     6  H    0.000000   0.000000   0.000000   0.000000   0.000000   0.941959
     7  H    0.000000   0.000000   0.000000   0.000000   0.000000   0.000000
     8  C    0.000000   0.000000   0.000000   0.000000   0.000000   0.000000
     9  H    0.000000   0.000000   0.000000   0.000000   0.000000   0.000000
    10  O    0.000000   0.000000   0.000000   0.000000   0.000000   0.000000
    11  C    0.000000   0.000000   0.000000   0.000000   0.000000   0.000000
    12  H    0.000000   0.000000   0.000000   0.000000   0.000000   0.000000
    13  H    0.000000   0.000000   0.000000   0.000000   0.000000   0.000000
    14  H    0.000000   0.000000   0.000000   0.000000   0.000000   0.000000
    15  C    0.000000   0.000000   0.000000   0.000000   0.000000   0.000000
    16  H    0.000000   0.000000   0.000000   0.000000   0.000000   0.000000
    17  H    0.000000   0.000000   0.000000   0.000000   0.000000   0.000000
    18  H    0.000000   0.000000   0.000000   0.000000   0.000000   0.000000
               7          8          9         10         11         12
     1  C    0.000000   0.000000   0.000000   0.000000   0.000000   0.000000
     2  H    0.000000   0.000000   0.000000   0.000000   0.000000   0.000000
     3  H    0.000000   0.000000   0.000000   0.000000   0.000000   0.000000
     4  H    0.000000   0.000000   0.000000   0.000000   0.000000   0.000000
     5  C    0.000000   0.000000   0.000000   0.000000   0.000000   0.000000
     6  H    0.000000   0.000000   0.000000   0.000000   0.000000   0.000000
     7  H    0.935645   0.000000   0.000000   0.000000   0.000000   0.000000
     8  C    0.000000   3.925276   0.000000   0.000000   0.000000   0.000000
     9  H    0.000000   0.000000   0.929233   0.000000   0.000000   0.000000
    10  O    0.000000   0.000000   0.000000   6.308972   0.000000   0.000000
    11  C    0.000000   0.000000   0.000000   0.000000   4.136400   0.000000
    12  H    0.000000   0.000000   0.000000   0.000000   0.000000   0.816416
    13  H    0.000000   0.000000   0.000000   0.000000   0.000000   0.000000
    14  H    0.000000   0.000000   0.000000   0.000000   0.000000   0.000000
    15  C    0.000000   0.000000   0.000000   0.000000   0.000000   0.000000
    16  H    0.000000   0.000000   0.000000   0.000000   0.000000   0.000000
    17  H    0.000000   0.000000   0.000000   0.000000   0.000000   0.000000
    18  H    0.000000   0.000000   0.000000   0.000000   0.000000   0.000000
              13         14         15         16         17         18
     1  C    0.000000   0.000000   0.000000   0.000000   0.000000   0.000000
     2  H    0.000000   0.000000   0.000000   0.000000   0.000000   0.000000
     3  H    0.000000   0.000000   0.000000   0.000000   0.000000   0.000000
     4  H    0.000000   0.000000   0.000000   0.000000   0.000000   0.000000
     5  C    0.000000   0.000000   0.000000   0.000000   0.000000   0.000000
     6  H    0.000000   0.000000   0.000000   0.000000   0.000000   0.000000
     7  H    0.000000   0.000000   0.000000   0.000000   0.000000   0.000000
     8  C    0.000000   0.000000   0.000000   0.000000   0.000000   0.000000
     9  H    0.000000   0.000000   0.000000   0.000000   0.000000   0.000000
    10  O    0.000000   0.000000   0.000000   0.000000   0.000000   0.000000
    11  C    0.000000   0.000000   0.000000   0.000000   0.000000   0.000000
    12  H    0.000000   0.000000   0.000000   0.000000   0.000000   0.000000
    13  H    0.941763   0.000000   0.000000   0.000000   0.000000   0.000000
    14  H    0.000000   0.937968   0.000000   0.000000   0.000000   0.000000
    15  C    0.000000   0.000000   4.119407   0.000000   0.000000   0.000000
    16  H    0.000000   0.000000   0.000000   0.954583   0.000000   0.000000
    17  H    0.000000   0.000000   0.000000   0.000000   0.962554   0.000000
    18  H    0.000000   0.000000   0.000000   0.000000   0.000000   0.956372
 Mulliken charges:
               1
     1  C   -0.103823
     2  H    0.038369
     3  H    0.038292
     4  H    0.040834
     5  C   -0.147124
     6  H    0.058041
     7  H    0.064355
     8  C    0.074724
     9  H    0.070767
    10  O   -0.308972
    11  C   -0.136400
    12  H    0.183584
    13  H    0.058237
    14  H    0.062032
    15  C   -0.119407
    16  H    0.045417
    17  H    0.037446
    18  H    0.043628
 Sum of Mulliken charges =  -0.00000
 Mulliken charges with hydrogens summed into heavy atoms:
               1
     1  C    0.013672
     5  C   -0.024728
     8  C    0.145491
    10  O   -0.125389
    11  C   -0.016131
    15  C    0.007084
 Charge=             -0.0000 electrons
 Dipole moment (field-independent basis, Debye):
    X=              0.0200    Y=             -1.5016    Z=             -0.6190  Tot=              1.6243
 N-N= 1.716920341620D+02 E-N=-2.577210249434D+02  KE=-5.971486102439D+01
 Leave Link  601 at Wed Sep  7 15:34:33 2022, MaxMem=   131072000 cpu:               0.0 elap:               0.0
 (Enter /opt/g16/l9999.exe)
 1\1\GINC-TOTEM2\FOpt\RPM3\ZDO\C5H12O1\JRAMOS\07-Sep-2022\0\\#p opt pm3
 \\Conformer number 011. Energy MM = 0.000 kcal/mol\\0,1\C,14.730734161
 4,3.8570756763,10.650316109\H,15.5675055569,3.3447227621,11.1422305294
 \H,13.8440816881,3.2181566043,10.7631931983\H,14.5390406492,4.78286356
 83,11.2093702794\C,15.040639318,4.1356138332,9.1980922478\H,15.2709143
 053,3.1848513857,8.6650454876\H,15.9583934644,4.7523296124,9.125524315
 5\C,13.8721954006,4.8457788241,8.4894028492\H,13.4267234115,5.61596681
 71,9.1614626661\O,14.324303936,5.6450407154,7.4200170031\C,12.78382153
 95,3.8491387409,8.0518204589\H,14.6951082716,5.0607005756,6.7695319668
 \H,12.366591722,3.3713056353,8.960590981\H,11.9427513699,4.4002443856,
 7.5873921331\C,13.2887195825,2.7855512116,7.1018792492\H,14.2201346604
 ,2.3309616611,7.4806951961\H,13.5037457628,3.1883268524,6.1029244736\H
 ,12.5525952,1.9823711388,6.9745108558\\Version=ES64L-G16RevA.03\State=
 1-A\HF=-0.1201521\RMSD=9.688e-09\RMSF=1.345e-05\Dipole=0.0217985,-0.63
 47662,0.0706588\PG=C01 [X(C5H12O1)]\\@


 SCIENCE AT ITS BEST PROVIDES US WITH BETTER QUESTIONS, 
 NOT ABSOLUTE ANSWERS

                                    -- NORMAN COUSINS, 1976
 Job cpu time:       0 days  0 hours  0 minutes  5.4 seconds.
 Elapsed time:       0 days  0 hours  0 minutes 26.7 seconds.
 File lengths (MBytes):  RWF=      6 Int=      0 D2E=      0 Chk=      2 Scr=      1
 Normal termination of Gaussian 16 at Wed Sep  7 15:34:33 2022.
