 Entering Gaussian System, Link 0=/opt/g16/g16
 Input=MD_extract_009_gaussian.com
 Output=MD_extract_009_gaussian.log
 Initial command:
 /opt/g16/l1.exe "/tmp/Gau-316948.inp" -scrdir="/tmp/"
 Entering Link 1 = /opt/g16/l1.exe PID=    316952.
  
 Copyright (c) 1988,1990,1992,1993,1995,1998,2003,2009,2016,
            Gaussian, Inc.  All Rights Reserved.
  
 This is part of the Gaussian(R) 16 program.  It is based on
 the Gaussian(R) 09 system (copyright 2009, Gaussian, Inc.),
 the Gaussian(R) 03 system (copyright 2003, Gaussian, Inc.),
 the Gaussian(R) 98 system (copyright 1998, Gaussian, Inc.),
 the Gaussian(R) 94 system (copyright 1995, Gaussian, Inc.),
 the Gaussian 92(TM) system (copyright 1992, Gaussian, Inc.),
 the Gaussian 90(TM) system (copyright 1990, Gaussian, Inc.),
 the Gaussian 88(TM) system (copyright 1988, Gaussian, Inc.),
 the Gaussian 86(TM) system (copyright 1986, Carnegie Mellon
 University), and the Gaussian 82(TM) system (copyright 1983,
 Carnegie Mellon University). Gaussian is a federally registered
 trademark of Gaussian, Inc.
  
 This software contains proprietary and confidential information,
 including trade secrets, belonging to Gaussian, Inc.
  
 This software is provided under written license and may be
 used, copied, transmitted, or stored only in accord with that
 written license.
  
 The following legend is applicable only to US Government
 contracts under FAR:
  
                    RESTRICTED RIGHTS LEGEND
  
 Use, reproduction and disclosure by the US Government is
 subject to restrictions as set forth in subparagraphs (a)
 and (c) of the Commercial Computer Software - Restricted
 Rights clause in FAR 52.227-19.
  
 Gaussian, Inc.
 340 Quinnipiac St., Bldg. 40, Wallingford CT 06492
  
  
 ---------------------------------------------------------------
 Warning -- This program may not be used in any manner that
 competes with the business of Gaussian, Inc. or will provide
 assistance to any competitor of Gaussian, Inc.  The licensee
 of this program is prohibited from giving any competitor of
 Gaussian, Inc. access to this program.  By using this program,
 the user acknowledges that Gaussian, Inc. is engaged in the
 business of creating and licensing software in the field of
 computational chemistry and represents and warrants to the
 licensee that it is not a competitor of Gaussian, Inc. and that
 it will not use this program in any manner prohibited above.
 ---------------------------------------------------------------
  

 Cite this work as:
 Gaussian 16, Revision A.03,
 M. J. Frisch, G. W. Trucks, H. B. Schlegel, G. E. Scuseria, 
 M. A. Robb, J. R. Cheeseman, G. Scalmani, V. Barone, 
 G. A. Petersson, H. Nakatsuji, X. Li, M. Caricato, A. V. Marenich, 
 J. Bloino, B. G. Janesko, R. Gomperts, B. Mennucci, H. P. Hratchian, 
 J. V. Ortiz, A. F. Izmaylov, J. L. Sonnenberg, D. Williams-Young, 
 F. Ding, F. Lipparini, F. Egidi, J. Goings, B. Peng, A. Petrone, 
 T. Henderson, D. Ranasinghe, V. G. Zakrzewski, J. Gao, N. Rega, 
 G. Zheng, W. Liang, M. Hada, M. Ehara, K. Toyota, R. Fukuda, 
 J. Hasegawa, M. Ishida, T. Nakajima, Y. Honda, O. Kitao, H. Nakai, 
 T. Vreven, K. Throssell, J. A. Montgomery, Jr., J. E. Peralta, 
 F. Ogliaro, M. J. Bearpark, J. J. Heyd, E. N. Brothers, K. N. Kudin, 
 V. N. Staroverov, T. A. Keith, R. Kobayashi, J. Normand, 
 K. Raghavachari, A. P. Rendell, J. C. Burant, S. S. Iyengar, 
 J. Tomasi, M. Cossi, J. M. Millam, M. Klene, C. Adamo, R. Cammi, 
 J. W. Ochterski, R. L. Martin, K. Morokuma, O. Farkas, 
 J. B. Foresman, and D. J. Fox, Gaussian, Inc., Wallingford CT, 2016.
 
 ******************************************
 Gaussian 16:  ES64L-G16RevA.03 25-Dec-2016
                 7-Sep-2022 
 ******************************************
 %chk=MD_extract_009_gaussian.chk
 %nproc=1
 Will use up to    1 processors via shared memory.
 %mem=1000Mb
 ----------
 #p opt pm3
 ----------
 1/18=20,19=15,26=1,38=1/1,3;
 2/9=110,12=2,17=6,18=5,40=1/2;
 3/5=2,25=1,41=800000,71=1/1,2,3;
 4/35=1/1;
 5/5=2,35=1,38=5/2;
 6/7=2,8=2,9=2,10=2,28=1/1;
 7//1,2,3,16;
 1/18=20,19=15,26=1/3(2);
 2/9=110/2;
 99//99;
 2/9=110/2;
 3/5=2,25=1,41=800000,71=1,135=20/1,2,3;
 4/5=5,16=3,35=1/1;
 5/5=2,35=1,38=5/2;
 7//1,2,3,16;
 1/18=20,19=15,26=1/3(-5);
 2/9=110/2;
 6/7=2,8=2,9=2,10=2,19=2,28=1/1;
 99/9=1/99;
 Leave Link    1 at Wed Sep  7 15:33:51 2022, MaxMem=   131072000 cpu:               0.0 elap:               2.1
 (Enter /opt/g16/l101.exe)
 ------------------------------------------------
 Conformer number 009. Energy MM = 0.000 kcal/mol
 ------------------------------------------------
 Symbolic Z-matrix:
 Charge =  0 Multiplicity = 1
 C                     12.197   -1.749     9.179 
 H                     13.057   -2.257     8.662 
 H                     11.449   -1.931     8.49 
 H                     11.944   -2.322     10.054 
 C                     12.621   -0.287     9.53 
 H                     13.124    0.27      8.66 
 H                     13.339   -0.308     10.433 
 C                     11.426    0.446     10.031 
 H                     10.743    0.734     9.25 
 O                     10.659   -0.275     10.972 
 C                     11.764    1.689     10.709 
 H                     9.913    -0.484     10.438 
 H                     11.907    1.353     11.756 
 H                     12.715    2.141     10.354 
 C                     10.66     2.75      10.674 
 H                     10.461    2.879     9.613 
 H                     10.86     3.674     11.231 
 H                     9.696     2.289     11.066 
 
 ITRead=  0  0  0  0  0  0  0  0  0  0  0  0  0  0  0  0  0  0
 MicOpt= -1 -1 -1 -1 -1 -1 -1 -1 -1 -1 -1 -1 -1 -1 -1 -1 -1 -1
 NAtoms=     18 NQM=       18 NQMF=       0 NMMI=      0 NMMIF=      0
                NMic=       0 NMicF=      0.
                    Isotopes and Nuclear Properties:
 (Nuclear quadrupole moments (NQMom) in fm**2, nuclear magnetic moments (NMagM)
  in nuclear magnetons)

  Atom         1           2           3           4           5           6           7           8           9          10
 IAtWgt=          12           1           1           1          12           1           1          12           1          16
 AtmWgt=  12.0000000   1.0078250   1.0078250   1.0078250  12.0000000   1.0078250   1.0078250  12.0000000   1.0078250  15.9949146
 NucSpn=           0           1           1           1           0           1           1           0           1           0
 AtZEff=  -0.0000000  -0.0000000  -0.0000000  -0.0000000  -0.0000000  -0.0000000  -0.0000000  -0.0000000  -0.0000000  -0.0000000
 NQMom=    0.0000000   0.0000000   0.0000000   0.0000000   0.0000000   0.0000000   0.0000000   0.0000000   0.0000000   0.0000000
 NMagM=    0.0000000   2.7928460   2.7928460   2.7928460   0.0000000   2.7928460   2.7928460   0.0000000   2.7928460   0.0000000
 AtZNuc=   6.0000000   1.0000000   1.0000000   1.0000000   6.0000000   1.0000000   1.0000000   6.0000000   1.0000000   8.0000000

  Atom        11          12          13          14          15          16          17          18
 IAtWgt=          12           1           1           1          12           1           1           1
 AtmWgt=  12.0000000   1.0078250   1.0078250   1.0078250  12.0000000   1.0078250   1.0078250   1.0078250
 NucSpn=           0           1           1           1           0           1           1           1
 AtZEff=  -0.0000000  -0.0000000  -0.0000000  -0.0000000  -0.0000000  -0.0000000  -0.0000000  -0.0000000
 NQMom=    0.0000000   0.0000000   0.0000000   0.0000000   0.0000000   0.0000000   0.0000000   0.0000000
 NMagM=    0.0000000   2.7928460   2.7928460   2.7928460   0.0000000   2.7928460   2.7928460   2.7928460
 AtZNuc=   6.0000000   1.0000000   1.0000000   1.0000000   6.0000000   1.0000000   1.0000000   1.0000000
 Leave Link  101 at Wed Sep  7 15:33:51 2022, MaxMem=   131072000 cpu:               0.1 elap:               0.1
 (Enter /opt/g16/l103.exe)

 GradGradGradGradGradGradGradGradGradGradGradGradGradGradGradGradGradGrad
 Berny optimization.
 Initialization pass.
                           ----------------------------
                           !    Initial Parameters    !
                           ! (Angstroms and Degrees)  !
 --------------------------                            --------------------------
 ! Name  Definition              Value          Derivative Info.                !
 --------------------------------------------------------------------------------
 ! R1    R(1,2)                  1.1247         estimate D2E/DX2                !
 ! R2    R(1,3)                  1.0331         estimate D2E/DX2                !
 ! R3    R(1,4)                  1.0761         estimate D2E/DX2                !
 ! R4    R(1,5)                  1.5622         estimate D2E/DX2                !
 ! R5    R(5,6)                  1.149          estimate D2E/DX2                !
 ! R6    R(5,7)                  1.1539         estimate D2E/DX2                !
 ! R7    R(5,8)                  1.4887         estimate D2E/DX2                !
 ! R8    R(8,9)                  1.0768         estimate D2E/DX2                !
 ! R9    R(8,10)                 1.412          estimate D2E/DX2                !
 ! R10   R(8,11)                 1.4557         estimate D2E/DX2                !
 ! R11   R(10,12)                0.9409         estimate D2E/DX2                !
 ! R12   R(11,13)                1.1089         estimate D2E/DX2                !
 ! R13   R(11,14)                1.1112         estimate D2E/DX2                !
 ! R14   R(11,15)                1.5316         estimate D2E/DX2                !
 ! R15   R(15,16)                1.0872         estimate D2E/DX2                !
 ! R16   R(15,17)                1.0973         estimate D2E/DX2                !
 ! R17   R(15,18)                1.1382         estimate D2E/DX2                !
 ! A1    A(2,1,3)               99.6416         estimate D2E/DX2                !
 ! A2    A(2,1,4)              108.2428         estimate D2E/DX2                !
 ! A3    A(2,1,5)              108.5695         estimate D2E/DX2                !
 ! A4    A(3,1,4)              106.1561         estimate D2E/DX2                !
 ! A5    A(3,1,5)              120.7451         estimate D2E/DX2                !
 ! A6    A(4,1,5)              112.2996         estimate D2E/DX2                !
 ! A7    A(1,5,6)              113.7269         estimate D2E/DX2                !
 ! A8    A(1,5,7)              109.129          estimate D2E/DX2                !
 ! A9    A(1,5,8)              108.5746         estimate D2E/DX2                !
 ! A10   A(6,5,7)              109.2072         estimate D2E/DX2                !
 ! A11   A(6,5,8)              111.5636         estimate D2E/DX2                !
 ! A12   A(7,5,8)              104.1868         estimate D2E/DX2                !
 ! A13   A(5,8,9)              113.376          estimate D2E/DX2                !
 ! A14   A(5,8,10)             114.1357         estimate D2E/DX2                !
 ! A15   A(5,8,11)             113.0038         estimate D2E/DX2                !
 ! A16   A(9,8,10)             105.9863         estimate D2E/DX2                !
 ! A17   A(9,8,11)             104.8758         estimate D2E/DX2                !
 ! A18   A(10,8,11)            104.5817         estimate D2E/DX2                !
 ! A19   A(8,10,12)             99.5482         estimate D2E/DX2                !
 ! A20   A(8,11,13)            102.1799         estimate D2E/DX2                !
 ! A21   A(8,11,14)            113.4073         estimate D2E/DX2                !
 ! A22   A(8,11,15)            114.4262         estimate D2E/DX2                !
 ! A23   A(13,11,14)           108.3334         estimate D2E/DX2                !
 ! A24   A(13,11,15)           108.9322         estimate D2E/DX2                !
 ! A25   A(14,11,15)           109.1364         estimate D2E/DX2                !
 ! A26   A(11,15,16)           103.6765         estimate D2E/DX2                !
 ! A27   A(11,15,17)           116.1272         estimate D2E/DX2                !
 ! A28   A(11,15,18)           108.7871         estimate D2E/DX2                !
 ! A29   A(16,15,17)           115.3939         estimate D2E/DX2                !
 ! A30   A(16,15,18)           103.2466         estimate D2E/DX2                !
 ! A31   A(17,15,18)           108.7001         estimate D2E/DX2                !
 ! D1    D(2,1,5,6)             46.9872         estimate D2E/DX2                !
 ! D2    D(2,1,5,7)            -75.2085         estimate D2E/DX2                !
 ! D3    D(2,1,5,8)            171.8233         estimate D2E/DX2                !
 ! D4    D(3,1,5,6)            -66.9294         estimate D2E/DX2                !
 ! D5    D(3,1,5,7)            170.8749         estimate D2E/DX2                !
 ! D6    D(3,1,5,8)             57.9067         estimate D2E/DX2                !
 ! D7    D(4,1,5,6)            166.6379         estimate D2E/DX2                !
 ! D8    D(4,1,5,7)             44.4422         estimate D2E/DX2                !
 ! D9    D(4,1,5,8)            -68.526          estimate D2E/DX2                !
 ! D10   D(1,5,8,9)            -75.9523         estimate D2E/DX2                !
 ! D11   D(1,5,8,10)            45.5444         estimate D2E/DX2                !
 ! D12   D(1,5,8,11)           164.881          estimate D2E/DX2                !
 ! D13   D(6,5,8,9)             50.1506         estimate D2E/DX2                !
 ! D14   D(6,5,8,10)           171.6473         estimate D2E/DX2                !
 ! D15   D(6,5,8,11)           -69.0161         estimate D2E/DX2                !
 ! D16   D(7,5,8,9)            167.8462         estimate D2E/DX2                !
 ! D17   D(7,5,8,10)           -70.6571         estimate D2E/DX2                !
 ! D18   D(7,5,8,11)            48.6795         estimate D2E/DX2                !
 ! D19   D(5,8,10,12)         -107.3404         estimate D2E/DX2                !
 ! D20   D(9,8,10,12)           18.1542         estimate D2E/DX2                !
 ! D21   D(11,8,10,12)         128.6701         estimate D2E/DX2                !
 ! D22   D(5,8,11,13)          -88.8915         estimate D2E/DX2                !
 ! D23   D(5,8,11,14)           27.4731         estimate D2E/DX2                !
 ! D24   D(5,8,11,15)          153.5548         estimate D2E/DX2                !
 ! D25   D(9,8,11,13)          147.1384         estimate D2E/DX2                !
 ! D26   D(9,8,11,14)          -96.497          estimate D2E/DX2                !
 ! D27   D(9,8,11,15)           29.5847         estimate D2E/DX2                !
 ! D28   D(10,8,11,13)          35.8205         estimate D2E/DX2                !
 ! D29   D(10,8,11,14)         152.1851         estimate D2E/DX2                !
 ! D30   D(10,8,11,15)         -81.7331         estimate D2E/DX2                !
 ! D31   D(8,11,15,16)         -56.0939         estimate D2E/DX2                !
 ! D32   D(8,11,15,17)         176.2487         estimate D2E/DX2                !
 ! D33   D(8,11,15,18)          53.2889         estimate D2E/DX2                !
 ! D34   D(13,11,15,16)       -169.7195         estimate D2E/DX2                !
 ! D35   D(13,11,15,17)         62.6231         estimate D2E/DX2                !
 ! D36   D(13,11,15,18)        -60.3367         estimate D2E/DX2                !
 ! D37   D(14,11,15,16)         72.1809         estimate D2E/DX2                !
 ! D38   D(14,11,15,17)        -55.4765         estimate D2E/DX2                !
 ! D39   D(14,11,15,18)       -178.4363         estimate D2E/DX2                !
 --------------------------------------------------------------------------------
 Trust Radius=3.00D-01 FncErr=1.00D-07 GrdErr=1.00D-07 EigMax=2.50D+02 EigMin=1.00D-04
 Number of steps in this run=     97 maximum allowed number of steps=    108.
 GradGradGradGradGradGradGradGradGradGradGradGradGradGradGradGradGradGrad

 Leave Link  103 at Wed Sep  7 15:33:51 2022, MaxMem=   131072000 cpu:               0.0 elap:               0.0
 (Enter /opt/g16/l202.exe)
                          Input orientation:                          
 ---------------------------------------------------------------------
 Center     Atomic      Atomic             Coordinates (Angstroms)
 Number     Number       Type             X           Y           Z
 ---------------------------------------------------------------------
      1          6           0       12.197000   -1.749000    9.179000
      2          1           0       13.057000   -2.257000    8.662000
      3          1           0       11.449000   -1.931000    8.490000
      4          1           0       11.944000   -2.322000   10.054000
      5          6           0       12.621000   -0.287000    9.530000
      6          1           0       13.124000    0.270000    8.660000
      7          1           0       13.339000   -0.308000   10.433000
      8          6           0       11.426000    0.446000   10.031000
      9          1           0       10.743000    0.734000    9.250000
     10          8           0       10.659000   -0.275000   10.972000
     11          6           0       11.764000    1.689000   10.709000
     12          1           0        9.913000   -0.484000   10.438000
     13          1           0       11.907000    1.353000   11.756000
     14          1           0       12.715000    2.141000   10.354000
     15          6           0       10.660000    2.750000   10.674000
     16          1           0       10.461000    2.879000    9.613000
     17          1           0       10.860000    3.674000   11.231000
     18          1           0        9.696000    2.289000   11.066000
 ---------------------------------------------------------------------
                    Distance matrix (angstroms):
                    1          2          3          4          5
     1  C    0.000000
     2  H    1.124701   0.000000
     3  H    1.033126   1.649704   0.000000
     4  H    1.076087   1.783440   1.686417   0.000000
     5  C    1.562185   2.196456   2.271105   2.207743   0.000000
     6  H    2.281458   2.527889   2.771088   3.170820   1.148981
     7  H    2.225570   2.648503   3.159348   2.479085   1.153852
     8  C    2.477573   3.441007   2.832903   2.816146   1.488729
     9  H    2.878271   3.827064   2.859766   3.380526   2.155858
    10  O    2.784415   3.874897   3.086545   2.585374   2.434944
    11  C    3.787906   4.629576   4.257650   4.068113   2.455416
    12  H    2.898614   4.022740   2.871900   2.765983   2.862959
    13  H    4.043196   4.891568   4.654157   4.050160   2.855604
    14  H    4.096468   4.724641   4.653862   4.539032   2.565735
    15  C    4.983813   5.904558   5.225336   5.268609   3.791784
    16  H    4.961898   5.832848   5.037199   5.426248   3.833542
    17  H    5.950395   6.826663   6.267059   6.205836   4.656613
    18  H    5.110892   6.143424   5.245683   5.228668   4.189355
                    6          7          8          9         10
     6  H    0.000000
     7  H    1.877189   0.000000
     8  C    2.189480   2.095158   0.000000
     9  H    2.496509   3.037181   1.076752   0.000000
    10  O    3.423243   2.733864   1.411953   1.997604   0.000000
    11  C    2.839289   2.558283   1.455671   2.020680   2.268808
    12  H    3.747042   3.430521   1.822009   1.893084   0.940932
    13  H    3.498456   2.561225   2.007395   2.831624   2.196029
    14  H    2.556865   2.528481   2.153805   2.662189   3.232045
    15  C    4.034587   4.072651   2.511697   2.469599   3.039643
    16  H    3.847942   4.371756   2.650554   2.193700   3.440029
    17  H    4.829384   4.758001   3.490034   3.547062   3.962585
    18  H    4.649342   4.518467   2.731442   2.609998   2.740493
                   11         12         13         14         15
    11  C    0.000000
    12  H    2.867328   0.000000
    13  H    1.108853   3.014586   0.000000
    14  H    1.111184   3.840428   1.799837   0.000000
    15  C    1.531588   3.327531   2.162716   2.167096   0.000000
    16  H    2.077288   3.505809   3.002006   2.484802   1.087181
    17  H    2.242749   4.337583   2.599784   2.561297   1.097281
    18  H    2.182676   2.851491   2.498143   3.105352   1.138192
                   16         17         18
    16  H    0.000000
    17  H    1.846388   0.000000
    18  H    1.744859   1.816685   0.000000
 Stoichiometry    C5H12O
 Framework group  C1[X(C5H12O)]
 Deg. of freedom    48
 Full point group                 C1      NOp   1
 Largest Abelian subgroup         C1      NOp   1
 Largest concise Abelian subgroup C1      NOp   1
                         Standard orientation:                         
 ---------------------------------------------------------------------
 Center     Atomic      Atomic             Coordinates (Angstroms)
 Number     Number       Type             X           Y           Z
 ---------------------------------------------------------------------
      1          6           0        2.466123   -0.006748    0.212082
      2          1           0        3.356143   -0.692045    0.155638
      3          1           0        2.621309    0.401671    1.148277
      4          1           0        2.612284    0.793913   -0.491865
      5          6           0        1.178697   -0.837133   -0.093559
      6          1           0        1.122952   -1.831412    0.479553
      7          1           0        1.125261   -1.048577   -1.226612
      8          6           0       -0.011061    0.016550    0.174804
      9          1           0       -0.224894    0.133864    1.223568
     10          8           0        0.085642    1.323413   -0.350904
     11          6           0       -1.236866   -0.519455   -0.398847
     12          1           0        0.214811    1.803776    0.447795
     13          1           0       -1.235263   -0.072445   -1.413605
     14          1           0       -1.228108   -1.625601   -0.504174
     15          6           0       -2.515538   -0.094544    0.329309
     16          1           0       -2.345287   -0.412975    1.354775
     17          1           0       -3.460049   -0.430283   -0.117012
     18          1           0       -2.532421    1.040788    0.408156
 ---------------------------------------------------------------------
 Rotational constants (GHZ):           7.3842412           1.9865651           1.7305683
 Leave Link  202 at Wed Sep  7 15:33:51 2022, MaxMem=   131072000 cpu:               0.0 elap:               0.0
 (Enter /opt/g16/l301.exe)
 Standard basis: VSTO-6G (5D, 7F)
 Ernie: Thresh=  0.10000D-02 Tol=  0.10000D-05 Strict=F.
  NNHCO=     0 NNPyr=     0 NCTC=     0               EPep=         0.000000000
    EC=       129.416559208  ECS=         2.268176529   EG=         0.565930973
   EHC=         0.000000000  EAt=       -36.836480110  AtH=         2.452923921
 EPDDG=         0.000000000  ECC=       132.250666709 EAtT=        39.289404030
 There are    36 symmetry adapted cartesian basis functions of A   symmetry.
 There are    36 symmetry adapted basis functions of A   symmetry.
    36 basis functions,   216 primitive gaussians,    36 cartesian basis functions
    19 alpha electrons       19 beta electrons
       nuclear repulsion energy       171.5400707399 Hartrees.
 IExCor=    0 DFT=F Ex=HF Corr=None ExCW=0 ScaHFX=  1.000000
 ScaDFX=  1.000000  1.000000  1.000000  1.000000 ScalE2=  1.000000  1.000000
 IRadAn=      5 IRanWt=     -1 IRanGd=            0 ICorTp=0 IEmpDi=  4
 Integral buffers will be    131072 words long.
 Regular integral format.
 Two-electron integral symmetry is turned off.
 Leave Link  301 at Wed Sep  7 15:33:51 2022, MaxMem=   131072000 cpu:               0.0 elap:               0.0
 (Enter /opt/g16/l302.exe)
 Do NDO integrals.
 NPDir=0 NMtPBC=     1 NCelOv=     1 NCel=       1 NClECP=     1 NCelD=      1
         NCelK=      1 NCelE2=     1 NClLst=     1 CellRange=     0.0.
 One-electron integrals computed using PRISM.
 NBasis=    36 RedAO= F EigKep=  0.00D+00  NBF=    36
 NBsUse=    36 1.00D-04 EigRej=  0.00D+00 NBFU=    36
 Leave Link  302 at Wed Sep  7 15:33:52 2022, MaxMem=   131072000 cpu:               0.0 elap:               0.0
 (Enter /opt/g16/l303.exe)
 DipDrv:  MaxL=1.
 Leave Link  303 at Wed Sep  7 15:33:52 2022, MaxMem=   131072000 cpu:               0.0 elap:               0.0
 (Enter /opt/g16/l401.exe)
 Simple Huckel Guess.
 JPrj=0 DoOrth=F DoCkMO=F.
 Leave Link  401 at Wed Sep  7 15:33:52 2022, MaxMem=   131072000 cpu:               0.0 elap:               0.0
 (Enter /opt/g16/l502.exe)
 Keep J ints in memory in canonical form, NReq=862161.
 FoFCou: FMM=F IPFlag=           0 FMFlag=           0 FMFlg1=           0
         NFxFlg=           0 DoJE=F BraDBF=F KetDBF=F FulRan=T
         wScrn=  0.000000 ICntrl=       600 IOpCl=  2 I1Cent=           0 NGrid=           0
         NMat0=    1 NMatS0=     72 NMatT0=    0 NMatD0=    1 NMtDS0=    0 NMtDT0=    0
 Symmetry not used in FoFCou.
 Two-electron integral symmetry not used.
 Closed shell SCF:
 Using DIIS extrapolation, IDIIS=  1040.
 Overlap will be assumed to be unity.
 NGot=   131072000 LenX=   131006778 LenY=   131005041
 Requested convergence on RMS density matrix=1.00D-08 within 128 cycles.
 Requested convergence on MAX density matrix=1.00D-06.
 Requested convergence on             energy=1.00D-06.
 No special actions if energy rises.

 Cycle   1  Pass 1  IDiag  1:
 E= 0.208174059012833    
 DIIS: error= 7.16D-02 at cycle   1 NSaved=   1.
 NSaved= 1 IEnMin= 1 EnMin= 0.208174059012833     IErMin= 1 ErrMin= 7.16D-02
 ErrMax= 7.16D-02  0.00D+00 EMaxC= 1.00D-01 BMatC= 1.11D-01 BMatP= 1.11D-01
 IDIUse=3 WtCom= 2.84D-01 WtEn= 7.16D-01
 Coeff-Com:  0.100D+01
 Coeff-En:   0.100D+01
 Coeff:      0.100D+01
 GapD=    2.000 DampG=2.000 DampE=0.500 DampFc=1.0000 IDamp=-1.
 RMSDP=1.29D-02 MaxDP=1.52D-01              OVMax= 0.00D+00

 Cycle   2  Pass 1  IDiag  1:
 E=-0.582490656757386E-01 Delta-E=       -0.266423124689 Rises=F Damp=F
 DIIS: error= 1.68D-02 at cycle   2 NSaved=   2.
 NSaved= 2 IEnMin= 2 EnMin=-0.582490656757386E-01 IErMin= 2 ErrMin= 1.68D-02
 ErrMax= 1.68D-02  0.00D+00 EMaxC= 1.00D-01 BMatC= 7.16D-03 BMatP= 1.11D-01
 IDIUse=3 WtCom= 8.32D-01 WtEn= 1.68D-01
 Coeff-Com: -0.305D+00 0.130D+01
 Coeff-En:   0.000D+00 0.100D+01
 Coeff:     -0.254D+00 0.125D+01
 RMSDP=4.60D-03 MaxDP=5.80D-02 DE=-2.66D-01 OVMax= 0.00D+00

 Cycle   3  Pass 1  IDiag  3:
 E=-0.800056313566699E-01 Delta-E=       -0.021756565681 Rises=F Damp=F
 DIIS: error= 4.09D-03 at cycle   3 NSaved=   3.
 NSaved= 3 IEnMin= 3 EnMin=-0.800056313566699E-01 IErMin= 3 ErrMin= 4.09D-03
 ErrMax= 4.09D-03  0.00D+00 EMaxC= 1.00D-01 BMatC= 2.05D-04 BMatP= 7.16D-03
 IDIUse=3 WtCom= 9.59D-01 WtEn= 4.09D-02
 Coeff-Com:  0.135D+00-0.669D+00 0.153D+01
 Coeff-En:   0.000D+00 0.000D+00 0.100D+01
 Coeff:      0.130D+00-0.642D+00 0.151D+01
 Gap=     0.525 Goal=   None    Shift=    0.000
 RMSDP=1.24D-03 MaxDP=2.29D-02 DE=-2.18D-02 OVMax= 6.20D-03

 Cycle   4  Pass 1  IDiag  3:
 E=-0.810536236867279E-01 Delta-E=       -0.001047992330 Rises=F Damp=F
 DIIS: error= 8.60D-04 at cycle   4 NSaved=   4.
 NSaved= 4 IEnMin= 4 EnMin=-0.810536236867279E-01 IErMin= 4 ErrMin= 8.60D-04
 ErrMax= 8.60D-04  0.00D+00 EMaxC= 1.00D-01 BMatC= 9.27D-06 BMatP= 2.05D-04
 IDIUse=3 WtCom= 9.91D-01 WtEn= 8.60D-03
 Coeff-Com: -0.295D-01 0.162D+00-0.566D+00 0.143D+01
 Coeff-En:   0.000D+00 0.000D+00 0.000D+00 0.100D+01
 Coeff:     -0.293D-01 0.161D+00-0.562D+00 0.143D+01
 Gap=     0.526 Goal=   None    Shift=    0.000
 RMSDP=3.16D-04 MaxDP=5.53D-03 DE=-1.05D-03 OVMax= 1.72D-03

 Cycle   5  Pass 1  IDiag  3:
 E=-0.811080636600536E-01 Delta-E=       -0.000054439973 Rises=F Damp=F
 DIIS: error= 1.34D-04 at cycle   5 NSaved=   5.
 NSaved= 5 IEnMin= 5 EnMin=-0.811080636600536E-01 IErMin= 5 ErrMin= 1.34D-04
 ErrMax= 1.34D-04  0.00D+00 EMaxC= 1.00D-01 BMatC= 3.36D-07 BMatP= 9.27D-06
 IDIUse=3 WtCom= 9.99D-01 WtEn= 1.34D-03
 Coeff-Com:  0.203D-02-0.147D-01 0.881D-01-0.404D+00 0.133D+01
 Coeff-En:   0.000D+00 0.000D+00 0.000D+00 0.000D+00 0.100D+01
 Coeff:      0.203D-02-0.146D-01 0.880D-01-0.404D+00 0.133D+01
 Gap=     0.526 Goal=   None    Shift=    0.000
 RMSDP=5.67D-05 MaxDP=7.18D-04 DE=-5.44D-05 OVMax= 3.53D-04

 Cycle   6  Pass 1  IDiag  3:
 E=-0.811099774979027E-01 Delta-E=       -0.000001913838 Rises=F Damp=F
 DIIS: error= 3.57D-05 at cycle   6 NSaved=   6.
 NSaved= 6 IEnMin= 6 EnMin=-0.811099774979027E-01 IErMin= 6 ErrMin= 3.57D-05
 ErrMax= 3.57D-05  0.00D+00 EMaxC= 1.00D-01 BMatC= 2.50D-08 BMatP= 3.36D-07
 IDIUse=1 WtCom= 1.00D+00 WtEn= 0.00D+00
 Coeff-Com: -0.393D-03 0.388D-02-0.318D-01 0.173D+00-0.748D+00 0.160D+01
 Coeff:     -0.393D-03 0.388D-02-0.318D-01 0.173D+00-0.748D+00 0.160D+01
 Gap=     0.526 Goal=   None    Shift=    0.000
 RMSDP=1.70D-05 MaxDP=2.33D-04 DE=-1.91D-06 OVMax= 1.19D-04

 Cycle   7  Pass 1  IDiag  3:
 E=-0.811101331321424E-01 Delta-E=       -0.000000155634 Rises=F Damp=F
 DIIS: error= 5.39D-06 at cycle   7 NSaved=   7.
 NSaved= 7 IEnMin= 7 EnMin=-0.811101331321424E-01 IErMin= 7 ErrMin= 5.39D-06
 ErrMax= 5.39D-06  0.00D+00 EMaxC= 1.00D-01 BMatC= 1.55D-09 BMatP= 2.50D-08
 IDIUse=1 WtCom= 1.00D+00 WtEn= 0.00D+00
 Coeff-Com:  0.185D-03-0.183D-02 0.151D-01-0.828D-01 0.378D+00-0.986D+00
 Coeff-Com:  0.168D+01
 Coeff:      0.185D-03-0.183D-02 0.151D-01-0.828D-01 0.378D+00-0.986D+00
 Coeff:      0.168D+01
 Gap=     0.526 Goal=   None    Shift=    0.000
 RMSDP=4.62D-06 MaxDP=4.73D-05 DE=-1.56D-07 OVMax= 2.98D-05

 Cycle   8  Pass 1  IDiag  3:
 E=-0.811101429205507E-01 Delta-E=       -0.000000009788 Rises=F Damp=F
 DIIS: error= 1.07D-06 at cycle   8 NSaved=   8.
 NSaved= 8 IEnMin= 8 EnMin=-0.811101429205507E-01 IErMin= 8 ErrMin= 1.07D-06
 ErrMax= 1.07D-06  0.00D+00 EMaxC= 1.00D-01 BMatC= 4.94D-11 BMatP= 1.55D-09
 IDIUse=1 WtCom= 1.00D+00 WtEn= 0.00D+00
 Coeff-Com: -0.568D-04 0.667D-03-0.613D-02 0.345D-01-0.161D+00 0.439D+00
 Coeff-Com: -0.854D+00 0.155D+01
 Coeff:     -0.568D-04 0.667D-03-0.613D-02 0.345D-01-0.161D+00 0.439D+00
 Coeff:     -0.854D+00 0.155D+01
 Gap=     0.526 Goal=   None    Shift=    0.000
 RMSDP=7.51D-07 MaxDP=7.87D-06 DE=-9.79D-09 OVMax= 5.77D-06

 Cycle   9  Pass 1  IDiag  3:
 E=-0.811101432244641E-01 Delta-E=       -0.000000000304 Rises=F Damp=F
 DIIS: error= 2.14D-07 at cycle   9 NSaved=   9.
 NSaved= 9 IEnMin= 9 EnMin=-0.811101432244641E-01 IErMin= 9 ErrMin= 2.14D-07
 ErrMax= 2.14D-07  0.00D+00 EMaxC= 1.00D-01 BMatC= 2.98D-12 BMatP= 4.94D-11
 IDIUse=1 WtCom= 1.00D+00 WtEn= 0.00D+00
 Coeff-Com:  0.194D-04-0.274D-03 0.273D-02-0.157D-01 0.746D-01-0.206D+00
 Coeff-Com:  0.414D+00-0.907D+00 0.164D+01
 Coeff:      0.194D-04-0.274D-03 0.273D-02-0.157D-01 0.746D-01-0.206D+00
 Coeff:      0.414D+00-0.907D+00 0.164D+01
 Gap=     0.526 Goal=   None    Shift=    0.000
 RMSDP=1.96D-07 MaxDP=1.85D-06 DE=-3.04D-10 OVMax= 1.61D-06

 Cycle  10  Pass 1  IDiag  3:
 E=-0.811101432438761E-01 Delta-E=       -0.000000000019 Rises=F Damp=F
 DIIS: error= 5.71D-08 at cycle  10 NSaved=  10.
 NSaved=10 IEnMin=10 EnMin=-0.811101432438761E-01 IErMin=10 ErrMin= 5.71D-08
 ErrMax= 5.71D-08  0.00D+00 EMaxC= 1.00D-01 BMatC= 1.42D-13 BMatP= 2.98D-12
 IDIUse=1 WtCom= 1.00D+00 WtEn= 0.00D+00
 Coeff-Com: -0.605D-05 0.946D-04-0.981D-03 0.569D-02-0.273D-01 0.759D-01
 Coeff-Com: -0.154D+00 0.351D+00-0.785D+00 0.153D+01
 Coeff:     -0.605D-05 0.946D-04-0.981D-03 0.569D-02-0.273D-01 0.759D-01
 Coeff:     -0.154D+00 0.351D+00-0.785D+00 0.153D+01
 Gap=     0.526 Goal=   None    Shift=    0.000
 RMSDP=4.23D-08 MaxDP=3.84D-07 DE=-1.94D-11 OVMax= 2.56D-07

 Cycle  11  Pass 1  IDiag  3:
 E=-0.811101432446151E-01 Delta-E=       -0.000000000001 Rises=F Damp=F
 DIIS: error= 1.33D-08 at cycle  11 NSaved=  11.
 NSaved=11 IEnMin=11 EnMin=-0.811101432446151E-01 IErMin=11 ErrMin= 1.33D-08
 ErrMax= 1.33D-08  0.00D+00 EMaxC= 1.00D-01 BMatC= 7.30D-15 BMatP= 1.42D-13
 IDIUse=1 WtCom= 1.00D+00 WtEn= 0.00D+00
 Coeff-Com:  0.168D-05-0.254D-04 0.260D-03-0.151D-02 0.723D-02-0.202D-01
 Coeff-Com:  0.410D-01-0.939D-01 0.228D+00-0.615D+00 0.145D+01
 Coeff:      0.168D-05-0.254D-04 0.260D-03-0.151D-02 0.723D-02-0.202D-01
 Coeff:      0.410D-01-0.939D-01 0.228D+00-0.615D+00 0.145D+01
 Gap=     0.526 Goal=   None    Shift=    0.000
 RMSDP=8.95D-09 MaxDP=8.83D-08 DE=-7.39D-13 OVMax= 4.11D-08

 Cycle  12  Pass 2  IDiag  1:
 SCF Done:  E(RPM3) = -0.811101432446E-01 A.U. after   12 cycles
            NFock= 11  Conv=0.90D-08     -V/T= 0.9986
 KE=-5.968776337644D+01 PE=-2.574132751239D+02 EE= 1.454798576172D+02
 Leave Link  502 at Wed Sep  7 15:33:52 2022, MaxMem=   131072000 cpu:               0.0 elap:               0.0
 (Enter /opt/g16/l601.exe)
 Copying SCF densities to generalized density rwf, IOpCl= 0 IROHF=0.

 **********************************************************************

            Population analysis using the SCF density.

 **********************************************************************

 Orbital symmetries:
       Occupied  (A) (A) (A) (A) (A) (A) (A) (A) (A) (A) (A) (A)
                 (A) (A) (A) (A) (A) (A) (A)
       Virtual   (A) (A) (A) (A) (A) (A) (A) (A) (A) (A) (A) (A)
                 (A) (A) (A) (A) (A)
 The electronic state is 1-A.
 Alpha  occ. eigenvalues --   -1.51590  -1.23980  -1.20026  -0.96356  -0.79908
 Alpha  occ. eigenvalues --   -0.75689  -0.67698  -0.59675  -0.57307  -0.55197
 Alpha  occ. eigenvalues --   -0.54051  -0.51575  -0.48576  -0.47764  -0.46405
 Alpha  occ. eigenvalues --   -0.45081  -0.42906  -0.42327  -0.40954
 Alpha virt. eigenvalues --    0.11610   0.12985   0.13017   0.13268   0.14031
 Alpha virt. eigenvalues --    0.14677   0.15074   0.15354   0.15758   0.16241
 Alpha virt. eigenvalues --    0.16823   0.17398   0.17836   0.18096   0.18698
 Alpha virt. eigenvalues --    0.19140   0.20752
          Condensed to atoms (all electrons):
               1          2          3          4          5          6
     1  C    4.107436   0.000000   0.000000   0.000000   0.000000   0.000000
     2  H    0.000000   0.975172   0.000000   0.000000   0.000000   0.000000
     3  H    0.000000   0.000000   0.967400   0.000000   0.000000   0.000000
     4  H    0.000000   0.000000   0.000000   0.948739   0.000000   0.000000
     5  C    0.000000   0.000000   0.000000   0.000000   4.106549   0.000000
     6  H    0.000000   0.000000   0.000000   0.000000   0.000000   0.933086
     7  H    0.000000   0.000000   0.000000   0.000000   0.000000   0.000000
     8  C    0.000000   0.000000   0.000000   0.000000   0.000000   0.000000
     9  H    0.000000   0.000000   0.000000   0.000000   0.000000   0.000000
    10  O    0.000000   0.000000   0.000000   0.000000   0.000000   0.000000
    11  C    0.000000   0.000000   0.000000   0.000000   0.000000   0.000000
    12  H    0.000000   0.000000   0.000000   0.000000   0.000000   0.000000
    13  H    0.000000   0.000000   0.000000   0.000000   0.000000   0.000000
    14  H    0.000000   0.000000   0.000000   0.000000   0.000000   0.000000
    15  C    0.000000   0.000000   0.000000   0.000000   0.000000   0.000000
    16  H    0.000000   0.000000   0.000000   0.000000   0.000000   0.000000
    17  H    0.000000   0.000000   0.000000   0.000000   0.000000   0.000000
    18  H    0.000000   0.000000   0.000000   0.000000   0.000000   0.000000
               7          8          9         10         11         12
     1  C    0.000000   0.000000   0.000000   0.000000   0.000000   0.000000
     2  H    0.000000   0.000000   0.000000   0.000000   0.000000   0.000000
     3  H    0.000000   0.000000   0.000000   0.000000   0.000000   0.000000
     4  H    0.000000   0.000000   0.000000   0.000000   0.000000   0.000000
     5  C    0.000000   0.000000   0.000000   0.000000   0.000000   0.000000
     6  H    0.000000   0.000000   0.000000   0.000000   0.000000   0.000000
     7  H    0.937343   0.000000   0.000000   0.000000   0.000000   0.000000
     8  C    0.000000   3.934868   0.000000   0.000000   0.000000   0.000000
     9  H    0.000000   0.000000   0.967167   0.000000   0.000000   0.000000
    10  O    0.000000   0.000000   0.000000   6.300794   0.000000   0.000000
    11  C    0.000000   0.000000   0.000000   0.000000   4.153675   0.000000
    12  H    0.000000   0.000000   0.000000   0.000000   0.000000   0.818194
    13  H    0.000000   0.000000   0.000000   0.000000   0.000000   0.000000
    14  H    0.000000   0.000000   0.000000   0.000000   0.000000   0.000000
    15  C    0.000000   0.000000   0.000000   0.000000   0.000000   0.000000
    16  H    0.000000   0.000000   0.000000   0.000000   0.000000   0.000000
    17  H    0.000000   0.000000   0.000000   0.000000   0.000000   0.000000
    18  H    0.000000   0.000000   0.000000   0.000000   0.000000   0.000000
              13         14         15         16         17         18
     1  C    0.000000   0.000000   0.000000   0.000000   0.000000   0.000000
     2  H    0.000000   0.000000   0.000000   0.000000   0.000000   0.000000
     3  H    0.000000   0.000000   0.000000   0.000000   0.000000   0.000000
     4  H    0.000000   0.000000   0.000000   0.000000   0.000000   0.000000
     5  C    0.000000   0.000000   0.000000   0.000000   0.000000   0.000000
     6  H    0.000000   0.000000   0.000000   0.000000   0.000000   0.000000
     7  H    0.000000   0.000000   0.000000   0.000000   0.000000   0.000000
     8  C    0.000000   0.000000   0.000000   0.000000   0.000000   0.000000
     9  H    0.000000   0.000000   0.000000   0.000000   0.000000   0.000000
    10  O    0.000000   0.000000   0.000000   0.000000   0.000000   0.000000
    11  C    0.000000   0.000000   0.000000   0.000000   0.000000   0.000000
    12  H    0.000000   0.000000   0.000000   0.000000   0.000000   0.000000
    13  H    0.928780   0.000000   0.000000   0.000000   0.000000   0.000000
    14  H    0.000000   0.937488   0.000000   0.000000   0.000000   0.000000
    15  C    0.000000   0.000000   4.105889   0.000000   0.000000   0.000000
    16  H    0.000000   0.000000   0.000000   0.969505   0.000000   0.000000
    17  H    0.000000   0.000000   0.000000   0.000000   0.942897   0.000000
    18  H    0.000000   0.000000   0.000000   0.000000   0.000000   0.965018
 Mulliken charges:
               1
     1  C   -0.107436
     2  H    0.024828
     3  H    0.032600
     4  H    0.051261
     5  C   -0.106549
     6  H    0.066914
     7  H    0.062657
     8  C    0.065132
     9  H    0.032833
    10  O   -0.300794
    11  C   -0.153675
    12  H    0.181806
    13  H    0.071220
    14  H    0.062512
    15  C   -0.105889
    16  H    0.030495
    17  H    0.057103
    18  H    0.034982
 Sum of Mulliken charges =  -0.00000
 Mulliken charges with hydrogens summed into heavy atoms:
               1
     1  C    0.001252
     5  C    0.023023
     8  C    0.097965
    10  O   -0.118988
    11  C   -0.019944
    15  C    0.016692
 Charge=             -0.0000 electrons
 Dipole moment (field-independent basis, Debye):
    X=              0.1138    Y=             -0.4718    Z=              1.3250  Tot=              1.4111
 N-N= 1.715400707399D+02 E-N=-2.574132753652D+02  KE=-5.968776337644D+01
 Leave Link  601 at Wed Sep  7 15:33:52 2022, MaxMem=   131072000 cpu:               0.0 elap:               0.0
 (Enter /opt/g16/l701.exe)
 ... and contract with generalized density number  0.
 Compute integral first derivatives.
 Leave Link  701 at Wed Sep  7 15:33:52 2022, MaxMem=   131072000 cpu:               0.0 elap:               0.0
 (Enter /opt/g16/l702.exe)
 L702 exits ... SP integral derivatives will be done elsewhere.
 Leave Link  702 at Wed Sep  7 15:33:52 2022, MaxMem=   131072000 cpu:               0.0 elap:               0.0
 (Enter /opt/g16/l703.exe)
 Integral derivatives from FoFJK, PRISM(SPDF).
 Compute integral first derivatives, UseDBF=F ICtDFT=           0.
 Calling FoFJK, ICntrl=      2127 FMM=F ISym2X=0 I1Cent= 0 IOpClX= 0 NMat=1 NMatS=1 NMatT=0.
 FoFJK:  IHMeth= 9 ICntrl=    2127 DoSepK=F KAlg= 0 I1Cent=           0 FoldK=F
 IRaf=         0 NMat=       1 IRICut=       1 DoRegI=T DoRafI=F ISym2E= 0 IDoP0=3 IntGTp=3.
 FoFCou: FMM=F IPFlag=           0 FMFlag=      100000 FMFlg1=         800
         NFxFlg=           0 DoJE=F BraDBF=F KetDBF=F FulRan=T
         wScrn=  0.000000 ICntrl=      2127 IOpCl=  0 I1Cent=           0 NGrid=           0
         NMat0=    1 NMatS0=      1 NMatT0=    0 NMatD0=    1 NMtDS0=    0 NMtDT0=    0
 Symmetry not used in FoFCou.
 Leave Link  703 at Wed Sep  7 15:33:52 2022, MaxMem=   131072000 cpu:               0.0 elap:               0.0
 (Enter /opt/g16/l716.exe)
 Dipole        = 4.47707304D-02-1.85637415D-01 5.21300617D-01
 ***** Axes restored to original set *****
 -------------------------------------------------------------------
 Center     Atomic                   Forces (Hartrees/Bohr)
 Number     Number              X              Y              Z
 -------------------------------------------------------------------
      1        6           0.070613404    0.017533732    0.005578880
      2        1          -0.001962800    0.004507442    0.012313651
      3        1          -0.044729675    0.008953743   -0.032139795
      4        1          -0.000192605   -0.006158181    0.015603720
      5        6           0.018499576   -0.035358225   -0.000566715
      6        1          -0.010799254   -0.015143233    0.019472394
      7        1          -0.006416755   -0.003141684   -0.025836019
      8        6          -0.020274104   -0.005330042   -0.014392497
      9        1          -0.014470625   -0.003043175   -0.026442601
     10        8          -0.005922684   -0.016148234    0.001789460
     11        6           0.019222078    0.061238344    0.043688352
     12        1          -0.011240969   -0.009449052    0.003882114
     13        1           0.008326707    0.010588573    0.006143977
     14        1          -0.001784475   -0.001624975    0.001083773
     15        6          -0.015751413   -0.031902209    0.002607150
     16        1          -0.002809937    0.016475722   -0.005168102
     17        1           0.002125084   -0.004838147   -0.005698986
     18        1           0.017568446    0.012839601   -0.001918756
 -------------------------------------------------------------------
 Cartesian Forces:  Max     0.070613404 RMS     0.020365802
 Leave Link  716 at Wed Sep  7 15:33:52 2022, MaxMem=   131072000 cpu:               0.0 elap:               0.0
 (Enter /opt/g16/l103.exe)

 GradGradGradGradGradGradGradGradGradGradGradGradGradGradGradGradGradGrad
 Berny optimization.
 FormGI is forming the generalized inverse of G from B-inverse, IUseBI=4.
 Internal  Forces:  Max     0.078824613 RMS     0.014580792
 Search for a local minimum.
 Step number   1 out of a maximum of   97
 All quantities printed in internal units (Hartrees-Bohrs-Radians)
 RMS Force = .14581D-01 SwitMx=.10000D-02 MixMth= 1
 Mixed Optimization -- RFO/linear search
 Second derivative matrix not updated -- first step.
 ITU=  0
     Eigenvalues ---    0.00230   0.00348   0.00915   0.01352   0.01534
     Eigenvalues ---    0.03703   0.03948   0.04260   0.04713   0.04962
     Eigenvalues ---    0.05006   0.05218   0.05252   0.05465   0.06363
     Eigenvalues ---    0.07815   0.08161   0.08814   0.11766   0.12547
     Eigenvalues ---    0.16000   0.16000   0.16000   0.16000   0.16000
     Eigenvalues ---    0.16000   0.16000   0.16919   0.20044   0.21923
     Eigenvalues ---    0.22002   0.26641   0.28365   0.28798   0.29277
     Eigenvalues ---    0.29789   0.31092   0.32475   0.32722   0.33589
     Eigenvalues ---    0.33985   0.35140   0.36390   0.36471   0.37512
     Eigenvalues ---    0.42308   0.43696   0.59785
 RFO step:  Lambda=-5.60849706D-02 EMin= 2.30000000D-03
 Linear search not attempted -- first point.
 Maximum step size (   0.300) exceeded in Quadratic search.
    -- Step size scaled by   0.747
 Iteration  1 RMS(Cart)=  0.07519053 RMS(Int)=  0.00183277
 Iteration  2 RMS(Cart)=  0.00254694 RMS(Int)=  0.00055167
 Iteration  3 RMS(Cart)=  0.00000402 RMS(Int)=  0.00055166
 Iteration  4 RMS(Cart)=  0.00000000 RMS(Int)=  0.00055166
 ITry= 1 IFail=0 DXMaxC= 2.45D-01 DCOld= 1.00D+10 DXMaxT= 3.00D-01 DXLimC= 3.00D+00 Rises=F
 Variable       Old X    -DE/DX   Delta X   Delta X   Delta X     New X
                                 (Linear)    (Quad)   (Total)
    R1        2.12538  -0.00920   0.00000  -0.01873  -0.01873   2.10665
    R2        1.95232   0.05224   0.00000   0.08150   0.08150   2.03382
    R3        2.03351   0.01601   0.00000   0.02844   0.02844   2.06195
    R4        2.95210  -0.02999   0.00000  -0.06951  -0.06951   2.88259
    R5        2.17126  -0.02681   0.00000  -0.05825  -0.05825   2.11301
    R6        2.18046  -0.02415   0.00000  -0.05315  -0.05315   2.12732
    R7        2.81329   0.03614   0.00000   0.06891   0.06891   2.88220
    R8        2.03477   0.02754   0.00000   0.04902   0.04902   2.08379
    R9        2.66820   0.02617   0.00000   0.03968   0.03968   2.70789
   R10        2.75082   0.07882   0.00000   0.13664   0.13664   2.88746
   R11        1.77810   0.00881   0.00000   0.01007   0.01007   1.78817
   R12        2.09543   0.00367   0.00000   0.00715   0.00715   2.10258
   R13        2.09983  -0.00253   0.00000  -0.00497  -0.00497   2.09486
   R14        2.89428  -0.00573   0.00000  -0.01227  -0.01227   2.88201
   R15        2.05447   0.00751   0.00000   0.01378   0.01378   2.06826
   R16        2.07356  -0.00658   0.00000  -0.01242  -0.01242   2.06114
   R17        2.15087  -0.02074   0.00000  -0.04380  -0.04380   2.10707
    A1        1.73907   0.01409   0.00000   0.05973   0.06032   1.79940
    A2        1.88919  -0.00076   0.00000  -0.00478  -0.00473   1.88446
    A3        1.89490   0.00021   0.00000   0.00621   0.00657   1.90147
    A4        1.85277   0.01155   0.00000   0.03274   0.03161   1.88438
    A5        2.10740  -0.02170   0.00000  -0.07440  -0.07478   2.03262
    A6        1.96000  -0.00064   0.00000  -0.00829  -0.00898   1.95102
    A7        1.98491  -0.00813   0.00000  -0.03690  -0.03695   1.94796
    A8        1.90466  -0.00531   0.00000  -0.01271  -0.01486   1.88980
    A9        1.89498   0.01660   0.00000   0.05033   0.05002   1.94500
   A10        1.90602   0.00032   0.00000  -0.01530  -0.01573   1.89030
   A11        1.94715  -0.00638   0.00000  -0.01950  -0.01872   1.92843
   A12        1.81840   0.00387   0.00000   0.04079   0.04050   1.85891
   A13        1.97878  -0.00249   0.00000  -0.02752  -0.02758   1.95120
   A14        1.99204  -0.00829   0.00000  -0.03169  -0.03168   1.96036
   A15        1.97229  -0.00706   0.00000  -0.01723  -0.01674   1.95554
   A16        1.84981   0.00027   0.00000   0.00247   0.00049   1.85030
   A17        1.83043   0.00609   0.00000   0.03533   0.03481   1.86523
   A18        1.82529   0.01401   0.00000   0.04989   0.04952   1.87481
   A19        1.73744   0.02174   0.00000   0.07521   0.07521   1.81265
   A20        1.78338   0.01050   0.00000   0.05610   0.05615   1.83953
   A21        1.97933  -0.00229   0.00000  -0.01461  -0.01461   1.96472
   A22        1.99711  -0.00256   0.00000  -0.00368  -0.00387   1.99325
   A23        1.89077  -0.00381   0.00000  -0.02209  -0.02206   1.86872
   A24        1.90123  -0.00322   0.00000  -0.00887  -0.00928   1.89195
   A25        1.90479   0.00150   0.00000  -0.00502  -0.00524   1.89955
   A26        1.80950   0.01841   0.00000   0.06684   0.06631   1.87581
   A27        2.02680  -0.00999   0.00000  -0.04216  -0.04184   1.98496
   A28        1.89869   0.00560   0.00000   0.02210   0.02126   1.91995
   A29        2.01400  -0.00970   0.00000  -0.04129  -0.04068   1.97333
   A30        1.80199  -0.00128   0.00000   0.01548   0.01349   1.81549
   A31        1.89717  -0.00112   0.00000  -0.01044  -0.01045   1.88672
    D1        0.82008  -0.00042   0.00000   0.00147   0.00171   0.82179
    D2       -1.31264   0.00867   0.00000   0.05592   0.05541  -1.25722
    D3        2.99888  -0.00178   0.00000  -0.01166  -0.01181   2.98707
    D4       -1.16814  -0.00554   0.00000  -0.03559  -0.03478  -1.20292
    D5        2.98233   0.00354   0.00000   0.01886   0.01892   3.00125
    D6        1.01066  -0.00691   0.00000  -0.04872  -0.04831   0.96235
    D7        2.90838  -0.00163   0.00000  -0.00551  -0.00541   2.90297
    D8        0.77566   0.00746   0.00000   0.04894   0.04829   0.82395
    D9       -1.19600  -0.00299   0.00000  -0.01864  -0.01894  -1.21494
   D10       -1.32562   0.00585   0.00000   0.04582   0.04625  -1.27937
   D11        0.79490  -0.00223   0.00000   0.00262   0.00330   0.79820
   D12        2.87772   0.00485   0.00000   0.03217   0.03272   2.91043
   D13        0.87529   0.00310   0.00000   0.02161   0.02160   0.89689
   D14        2.99581  -0.00497   0.00000  -0.02158  -0.02135   2.97446
   D15       -1.20456   0.00210   0.00000   0.00796   0.00807  -1.19649
   D16        2.92947   0.00258   0.00000   0.01752   0.01675   2.94621
   D17       -1.23320  -0.00550   0.00000  -0.02567  -0.02620  -1.25940
   D18        0.84962   0.00158   0.00000   0.00388   0.00321   0.85283
   D19       -1.87344   0.00265   0.00000   0.02810   0.02782  -1.84562
   D20        0.31685  -0.00591   0.00000  -0.02668  -0.02668   0.29017
   D21        2.24572   0.00660   0.00000   0.03358   0.03385   2.27957
   D22       -1.55145   0.00118   0.00000   0.00934   0.00948  -1.54197
   D23        0.47950   0.00183   0.00000   0.00971   0.00959   0.48908
   D24        2.68004  -0.00030   0.00000  -0.01332  -0.01343   2.66661
   D25        2.56805   0.00435   0.00000   0.02961   0.03027   2.59832
   D26       -1.68419   0.00500   0.00000   0.02998   0.03038  -1.65381
   D27        0.51635   0.00287   0.00000   0.00696   0.00737   0.52372
   D28        0.62519  -0.00370   0.00000  -0.00593  -0.00622   0.61897
   D29        2.65613  -0.00305   0.00000  -0.00556  -0.00611   2.65002
   D30       -1.42651  -0.00518   0.00000  -0.02858  -0.02912  -1.45564
   D31       -0.97902  -0.00020   0.00000  -0.00015  -0.00092  -0.97995
   D32        3.07612   0.00448   0.00000   0.02881   0.02892   3.10504
   D33        0.93007   0.00869   0.00000   0.05538   0.05589   0.98596
   D34       -2.96216  -0.00967   0.00000  -0.06181  -0.06244  -3.02461
   D35        1.09298  -0.00498   0.00000  -0.03285  -0.03259   1.06039
   D36       -1.05307  -0.00078   0.00000  -0.00628  -0.00562  -1.05870
   D37        1.25979  -0.00408   0.00000  -0.02722  -0.02799   1.23181
   D38       -0.96825   0.00060   0.00000   0.00174   0.00186  -0.96639
   D39       -3.11430   0.00481   0.00000   0.02831   0.02883  -3.08547
         Item               Value     Threshold  Converged?
 Maximum Force            0.078825     0.000450     NO 
 RMS     Force            0.014581     0.000300     NO 
 Maximum Displacement     0.245255     0.001800     NO 
 RMS     Displacement     0.074253     0.001200     NO 
 Predicted change in Energy=-2.965629D-02
 Lowest energy point so far.  Saving SCF results.
 GradGradGradGradGradGradGradGradGradGradGradGradGradGradGradGradGradGrad

 Leave Link  103 at Wed Sep  7 15:33:52 2022, MaxMem=   131072000 cpu:               0.0 elap:               0.0
 (Enter /opt/g16/l202.exe)
                          Input orientation:                          
 ---------------------------------------------------------------------
 Center     Atomic      Atomic             Coordinates (Angstroms)
 Number     Number       Type             X           Y           Z
 ---------------------------------------------------------------------
      1          6           0       12.256651   -1.769589    9.154790
      2          1           0       13.137170   -2.231091    8.650354
      3          1           0       11.469398   -1.891489    8.431125
      4          1           0       12.010285   -2.378624   10.025975
      5          6           0       12.604584   -0.336790    9.545790
      6          1           0       13.088350    0.214469    8.701778
      7          1           0       13.329125   -0.371787   10.406650
      8          6           0       11.376829    0.419167   10.043149
      9          1           0       10.693302    0.678266    9.217563
     10          8           0       10.602318   -0.350979   10.970704
     11          6           0       11.751304    1.728402   10.736253
     12          1           0        9.843996   -0.613783   10.469416
     13          1           0       11.916764    1.460857   11.803493
     14          1           0       12.701724    2.154206   10.356411
     15          6           0       10.669993    2.801918   10.671124
     16          1           0       10.433626    2.966716    9.615262
     17          1           0       10.930681    3.720094   11.198983
     18          1           0        9.718899    2.412039   11.103180
 ---------------------------------------------------------------------
                    Distance matrix (angstroms):
                    1          2          3          4          5
     1  C    0.000000
     2  H    1.114789   0.000000
     3  H    1.076252   1.716058   0.000000
     4  H    1.091139   1.784368   1.753113   0.000000
     5  C    1.525402   2.161904   2.224458   2.180104   0.000000
     6  H    2.198506   2.446588   2.670079   3.104811   1.118156
     7  H    2.161297   2.564846   3.109788   2.431388   1.125729
     8  C    2.520699   3.473118   2.818922   2.868658   1.525195
     9  H    2.905167   3.841689   2.797222   3.425281   2.188852
    10  O    2.836691   3.917183   3.094262   2.643147   2.457570
    11  C    3.871994   4.684996   4.300778   4.176030   2.531858
    12  H    2.980777   4.095079   2.903290   2.829154   2.924150
    13  H    4.191293   5.006213   4.776110   4.232013   2.966792
    14  H    4.127729   4.725577   4.646827   4.597154   2.621375
    15  C    5.071038   5.958327   5.261626   5.389862   3.854933
    16  H    5.095884   5.937794   5.106580   5.588130   3.953611
    17  H    6.006126   6.839643   6.280217   6.303639   4.689703
    18  H    5.265209   6.265748   5.359522   5.418605   4.278867
                    6          7          8          9         10
     6  H    0.000000
     7  H    1.818862   0.000000
     8  C    2.184143   2.137569   0.000000
     9  H    2.493471   3.076379   1.102694   0.000000
    10  O    3.412933   2.784613   1.432952   2.034976   0.000000
    11  C    2.866840   2.647442   1.527979   2.128044   2.387250
    12  H    3.786341   3.494084   1.896910   1.989434   0.946260
    13  H    3.542137   2.702687   2.115528   2.965863   2.388317
    14  H    2.578733   2.603228   2.205411   2.740280   3.325780
    15  C    4.052365   4.148895   2.563488   2.573574   3.167821
    16  H    3.931523   4.489522   2.750041   2.337220   3.587866
    17  H    4.814662   4.808723   3.525779   3.638007   4.090669
    18  H    4.685002   4.611787   2.800703   2.740617   2.903834
                   11         12         13         14         15
    11  C    0.000000
    12  H    3.032302   0.000000
    13  H    1.112636   3.221841   0.000000
    14  H    1.108552   3.980093   1.786321   0.000000
    15  C    1.525094   3.519938   2.152938   2.155576   0.000000
    16  H    2.127515   3.727897   3.042313   2.520663   1.094474
    17  H    2.203266   4.527212   2.538098   2.509686   1.090707
    18  H    2.175469   3.094011   2.495155   3.085674   1.115014
                   16         17         18
    16  H    0.000000
    17  H    1.822860   0.000000
    18  H    1.741380   1.785666   0.000000
 Stoichiometry    C5H12O
 Framework group  C1[X(C5H12O)]
 Deg. of freedom    48
 Full point group                 C1      NOp   1
 RotChk:  IX=0 Diff= 1.12D-02
 Largest Abelian subgroup         C1      NOp   1
 Largest concise Abelian subgroup C1      NOp   1
                         Standard orientation:                         
 ---------------------------------------------------------------------
 Center     Atomic      Atomic             Coordinates (Angstroms)
 Number     Number       Type             X           Y           Z
 ---------------------------------------------------------------------
      1          6           0        2.503563   -0.085807    0.205528
      2          1           0        3.349491   -0.808780    0.138671
      3          1           0        2.604848    0.316960    1.198422
      4          1           0        2.692417    0.720043   -0.505474
      5          6           0        1.200976   -0.817869   -0.101393
      6          1           0        1.127868   -1.781590    0.460898
      7          1           0        1.176715   -1.048512   -1.202974
      8          6           0       -0.012804    0.060381    0.184326
      9          1           0       -0.188039    0.177087    1.266734
     10          8           0        0.140248    1.386486   -0.336609
     11          6           0       -1.294055   -0.520350   -0.412220
     12          1           0        0.304849    1.914104    0.431462
     13          1           0       -1.348019   -0.115446   -1.447159
     14          1           0       -1.261500   -1.625224   -0.496357
     15          6           0       -2.565874   -0.120167    0.328213
     16          1           0       -2.445304   -0.419435    1.374050
     17          1           0       -3.478496   -0.509169   -0.125043
     18          1           0       -2.647651    0.990946    0.372909
 ---------------------------------------------------------------------
 Rotational constants (GHZ):           7.0711353           1.9101391           1.6584589
 Leave Link  202 at Wed Sep  7 15:33:52 2022, MaxMem=   131072000 cpu:               0.0 elap:               0.0
 (Enter /opt/g16/l301.exe)
 Standard basis: VSTO-6G (5D, 7F)
 Ernie: Thresh=  0.10000D-02 Tol=  0.10000D-05 Strict=F.
  NNHCO=     0 NNPyr=     0 NCTC=     0               EPep=         0.000000000
    EC=       127.687465436  ECS=         2.193382021   EG=         0.562103212
   EHC=         0.000000000  EAt=       -36.836480110  AtH=         2.452923921
 EPDDG=         0.000000000  ECC=       130.442950669 EAtT=        39.289404030
 There are    36 symmetry adapted cartesian basis functions of A   symmetry.
 There are    36 symmetry adapted basis functions of A   symmetry.
    36 basis functions,   216 primitive gaussians,    36 cartesian basis functions
    19 alpha electrons       19 beta electrons
       nuclear repulsion energy       169.7323546991 Hartrees.
 IExCor=    0 DFT=F Ex=HF Corr=None ExCW=0 ScaHFX=  1.000000
 ScaDFX=  1.000000  1.000000  1.000000  1.000000 ScalE2=  1.000000  1.000000
 IRadAn=      5 IRanWt=     -1 IRanGd=            0 ICorTp=0 IEmpDi=  4
 Integral buffers will be    131072 words long.
 Regular integral format.
 Two-electron integral symmetry is turned off.
 Leave Link  301 at Wed Sep  7 15:33:52 2022, MaxMem=   131072000 cpu:               0.0 elap:               0.0
 (Enter /opt/g16/l302.exe)
 Do NDO integrals.
 NPDir=0 NMtPBC=     1 NCelOv=     1 NCel=       1 NClECP=     1 NCelD=      1
         NCelK=      1 NCelE2=     1 NClLst=     1 CellRange=     0.0.
 One-electron integrals computed using PRISM.
 NBasis=    36 RedAO= F EigKep=  0.00D+00  NBF=    36
 NBsUse=    36 1.00D-04 EigRej=  0.00D+00 NBFU=    36
 Leave Link  302 at Wed Sep  7 15:33:52 2022, MaxMem=   131072000 cpu:               0.1 elap:               0.0
 (Enter /opt/g16/l303.exe)
 DipDrv:  MaxL=1.
 Leave Link  303 at Wed Sep  7 15:33:52 2022, MaxMem=   131072000 cpu:               0.0 elap:               0.0
 (Enter /opt/g16/l401.exe)
 Initial guess from the checkpoint file:  "MD_extract_009_gaussian.chk"
 B after Tr=    -0.000000    0.000000   -0.000000
         Rot=    0.999980   -0.004255    0.000707    0.004639 Ang=  -0.73 deg.
 Guess basis will be translated and rotated to current coordinates.
 JPrj=0 DoOrth=T DoCkMO=T.
 Leave Link  401 at Wed Sep  7 15:33:52 2022, MaxMem=   131072000 cpu:               0.1 elap:               0.0
 (Enter /opt/g16/l502.exe)
 Keep J ints in memory in canonical form, NReq=862161.
 FoFCou: FMM=F IPFlag=           0 FMFlag=           0 FMFlg1=           0
         NFxFlg=           0 DoJE=F BraDBF=F KetDBF=F FulRan=T
         wScrn=  0.000000 ICntrl=       600 IOpCl=  2 I1Cent=           0 NGrid=           0
         NMat0=    1 NMatS0=     72 NMatT0=    0 NMatD0=    1 NMtDS0=    0 NMtDT0=    0
 Symmetry not used in FoFCou.
 Two-electron integral symmetry not used.
 Closed shell SCF:
 Using DIIS extrapolation, IDIIS=  1040.
 Overlap will be assumed to be unity.
 NGot=   131072000 LenX=   131006778 LenY=   131005041
 Requested convergence on RMS density matrix=1.00D-08 within 128 cycles.
 Requested convergence on MAX density matrix=1.00D-06.
 Requested convergence on             energy=1.00D-06.
 No special actions if energy rises.

 Cycle   1  Pass 1  IDiag  1:
 E=-0.101172465584739    
 DIIS: error= 4.65D-03 at cycle   1 NSaved=   1.
 NSaved= 1 IEnMin= 1 EnMin=-0.101172465584739     IErMin= 1 ErrMin= 4.65D-03
 ErrMax= 4.65D-03  0.00D+00 EMaxC= 1.00D-01 BMatC= 1.59D-03 BMatP= 1.59D-03
 IDIUse=3 WtCom= 9.53D-01 WtEn= 4.65D-02
 Coeff-Com:  0.100D+01
 Coeff-En:   0.100D+01
 Coeff:      0.100D+01
 GapD=    2.000 DampG=2.000 DampE=1.000 DampFc=2.0000 IDamp=-1.
 RMSDP=1.95D-03 MaxDP=1.34D-02              OVMax= 0.00D+00

 Cycle   2  Pass 1  IDiag  3:
 E=-0.106399901003186     Delta-E=       -0.005227435418 Rises=F Damp=F
 DIIS: error= 2.09D-03 at cycle   2 NSaved=   2.
 NSaved= 2 IEnMin= 2 EnMin=-0.106399901003186     IErMin= 2 ErrMin= 2.09D-03
 ErrMax= 2.09D-03  0.00D+00 EMaxC= 1.00D-01 BMatC= 2.13D-04 BMatP= 1.59D-03
 IDIUse=3 WtCom= 9.79D-01 WtEn= 2.09D-02
 Coeff-Com: -0.465D+00 0.147D+01
 Coeff-En:   0.000D+00 0.100D+01
 Coeff:     -0.456D+00 0.146D+01
 Gap=     0.523 Goal=   None    Shift=    0.000
 RMSDP=1.17D-03 MaxDP=8.65D-03 DE=-5.23D-03 OVMax= 6.42D-03

 Cycle   3  Pass 1  IDiag  3:
 E=-0.107414252067912     Delta-E=       -0.001014351065 Rises=F Damp=F
 DIIS: error= 5.05D-04 at cycle   3 NSaved=   3.
 NSaved= 3 IEnMin= 3 EnMin=-0.107414252067912     IErMin= 3 ErrMin= 5.05D-04
 ErrMax= 5.05D-04  0.00D+00 EMaxC= 1.00D-01 BMatC= 9.85D-06 BMatP= 2.13D-04
 IDIUse=3 WtCom= 9.95D-01 WtEn= 5.05D-03
 Coeff-Com:  0.185D+00-0.716D+00 0.153D+01
 Coeff-En:   0.000D+00 0.000D+00 0.100D+01
 Coeff:      0.184D+00-0.713D+00 0.153D+01
 Gap=     0.523 Goal=   None    Shift=    0.000
 RMSDP=3.28D-04 MaxDP=2.74D-03 DE=-1.01D-03 OVMax= 2.87D-03

 Cycle   4  Pass 1  IDiag  3:
 E=-0.107472018048327     Delta-E=       -0.000057765980 Rises=F Damp=F
 DIIS: error= 1.50D-04 at cycle   4 NSaved=   4.
 NSaved= 4 IEnMin= 4 EnMin=-0.107472018048327     IErMin= 4 ErrMin= 1.50D-04
 ErrMax= 1.50D-04  0.00D+00 EMaxC= 1.00D-01 BMatC= 3.63D-07 BMatP= 9.85D-06
 IDIUse=3 WtCom= 9.99D-01 WtEn= 1.50D-03
 Coeff-Com: -0.859D-01 0.343D+00-0.835D+00 0.158D+01
 Coeff-En:   0.000D+00 0.000D+00 0.000D+00 0.100D+01
 Coeff:     -0.858D-01 0.343D+00-0.834D+00 0.158D+01
 Gap=     0.523 Goal=   None    Shift=    0.000
 RMSDP=6.58D-05 MaxDP=8.32D-04 DE=-5.78D-05 OVMax= 8.57D-04

 Cycle   5  Pass 1  IDiag  3:
 E=-0.107474355442093     Delta-E=       -0.000002337394 Rises=F Damp=F
 DIIS: error= 4.18D-05 at cycle   5 NSaved=   5.
 NSaved= 5 IEnMin= 5 EnMin=-0.107474355442093     IErMin= 5 ErrMin= 4.18D-05
 ErrMax= 4.18D-05  0.00D+00 EMaxC= 1.00D-01 BMatC= 2.45D-08 BMatP= 3.63D-07
 IDIUse=1 WtCom= 1.00D+00 WtEn= 0.00D+00
 Coeff-Com:  0.456D-01-0.184D+00 0.459D+00-0.103D+01 0.171D+01
 Coeff:      0.456D-01-0.184D+00 0.459D+00-0.103D+01 0.171D+01
 Gap=     0.523 Goal=   None    Shift=    0.000
 RMSDP=1.96D-05 MaxDP=2.69D-04 DE=-2.34D-06 OVMax= 2.54D-04

 Cycle   6  Pass 1  IDiag  3:
 E=-0.107474529222969     Delta-E=       -0.000000173781 Rises=F Damp=F
 DIIS: error= 6.69D-06 at cycle   6 NSaved=   6.
 NSaved= 6 IEnMin= 6 EnMin=-0.107474529222969     IErMin= 6 ErrMin= 6.69D-06
 ErrMax= 6.69D-06  0.00D+00 EMaxC= 1.00D-01 BMatC= 9.89D-10 BMatP= 2.45D-08
 IDIUse=1 WtCom= 1.00D+00 WtEn= 0.00D+00
 Coeff-Com: -0.154D-01 0.622D-01-0.157D+00 0.368D+00-0.749D+00 0.149D+01
 Coeff:     -0.154D-01 0.622D-01-0.157D+00 0.368D+00-0.749D+00 0.149D+01
 Gap=     0.523 Goal=   None    Shift=    0.000
 RMSDP=3.70D-06 MaxDP=4.63D-05 DE=-1.74D-07 OVMax= 3.85D-05

 Cycle   7  Pass 1  IDiag  3:
 E=-0.107474535555042     Delta-E=       -0.000000006332 Rises=F Damp=F
 DIIS: error= 8.39D-07 at cycle   7 NSaved=   7.
 NSaved= 7 IEnMin= 7 EnMin=-0.107474535555042     IErMin= 7 ErrMin= 8.39D-07
 ErrMax= 8.39D-07  0.00D+00 EMaxC= 1.00D-01 BMatC= 3.45D-11 BMatP= 9.89D-10
 IDIUse=1 WtCom= 1.00D+00 WtEn= 0.00D+00
 Coeff-Com:  0.420D-02-0.170D-01 0.429D-01-0.101D+00 0.212D+00-0.529D+00
 Coeff-Com:  0.139D+01
 Coeff:      0.420D-02-0.170D-01 0.429D-01-0.101D+00 0.212D+00-0.529D+00
 Coeff:      0.139D+01
 Gap=     0.523 Goal=   None    Shift=    0.000
 RMSDP=6.00D-07 MaxDP=5.46D-06 DE=-6.33D-09 OVMax= 6.38D-06

 Cycle   8  Pass 1  IDiag  3:
 E=-0.107474535760474     Delta-E=       -0.000000000205 Rises=F Damp=F
 DIIS: error= 3.16D-07 at cycle   8 NSaved=   8.
 NSaved= 8 IEnMin= 8 EnMin=-0.107474535760474     IErMin= 8 ErrMin= 3.16D-07
 ErrMax= 3.16D-07  0.00D+00 EMaxC= 1.00D-01 BMatC= 2.40D-12 BMatP= 3.45D-11
 IDIUse=1 WtCom= 1.00D+00 WtEn= 0.00D+00
 Coeff-Com: -0.140D-02 0.567D-02-0.143D-01 0.338D-01-0.719D-01 0.189D+00
 Coeff-Com: -0.660D+00 0.152D+01
 Coeff:     -0.140D-02 0.567D-02-0.143D-01 0.338D-01-0.719D-01 0.189D+00
 Coeff:     -0.660D+00 0.152D+01
 Gap=     0.523 Goal=   None    Shift=    0.000
 RMSDP=1.74D-07 MaxDP=1.64D-06 DE=-2.05D-10 OVMax= 1.97D-06

 Cycle   9  Pass 1  IDiag  3:
 E=-0.107474535777300     Delta-E=       -0.000000000017 Rises=F Damp=F
 DIIS: error= 1.37D-07 at cycle   9 NSaved=   9.
 NSaved= 9 IEnMin= 9 EnMin=-0.107474535777300     IErMin= 9 ErrMin= 1.37D-07
 ErrMax= 1.37D-07  0.00D+00 EMaxC= 1.00D-01 BMatC= 2.28D-13 BMatP= 2.40D-12
 IDIUse=1 WtCom= 1.00D+00 WtEn= 0.00D+00
 Coeff-Com:  0.457D-03-0.185D-02 0.469D-02-0.111D-01 0.238D-01-0.643D-01
 Coeff-Com:  0.256D+00-0.815D+00 0.161D+01
 Coeff:      0.457D-03-0.185D-02 0.469D-02-0.111D-01 0.238D-01-0.643D-01
 Coeff:      0.256D+00-0.815D+00 0.161D+01
 Gap=     0.523 Goal=   None    Shift=    0.000
 RMSDP=6.04D-08 MaxDP=8.52D-07 DE=-1.68D-11 OVMax= 6.47D-07

 Cycle  10  Pass 1  IDiag  3:
 E=-0.107474535779033     Delta-E=       -0.000000000002 Rises=F Damp=F
 DIIS: error= 4.09D-08 at cycle  10 NSaved=  10.
 NSaved=10 IEnMin=10 EnMin=-0.107474535779033     IErMin=10 ErrMin= 4.09D-08
 ErrMax= 4.09D-08  0.00D+00 EMaxC= 1.00D-01 BMatC= 1.95D-14 BMatP= 2.28D-13
 IDIUse=1 WtCom= 1.00D+00 WtEn= 0.00D+00
 Coeff-Com: -0.717D-04 0.291D-03-0.742D-03 0.178D-02-0.397D-02 0.118D-01
 Coeff-Com: -0.582D-01 0.244D+00-0.785D+00 0.159D+01
 Coeff:     -0.717D-04 0.291D-03-0.742D-03 0.178D-02-0.397D-02 0.118D-01
 Coeff:     -0.582D-01 0.244D+00-0.785D+00 0.159D+01
 Gap=     0.523 Goal=   None    Shift=    0.000
 RMSDP=1.98D-08 MaxDP=2.99D-07 DE=-1.73D-12 OVMax= 2.00D-07

 Cycle  11  Pass 1  IDiag  3:
 E=-0.107474535779033     Delta-E=        0.000000000000 Rises=F Damp=F
 DIIS: error= 5.71D-09 at cycle  11 NSaved=  11.
 NSaved=11 IEnMin=10 EnMin=-0.107474535779033     IErMin=11 ErrMin= 5.71D-09
 ErrMax= 5.71D-09  0.00D+00 EMaxC= 1.00D-01 BMatC= 6.93D-16 BMatP= 1.95D-14
 IDIUse=1 WtCom= 1.00D+00 WtEn= 0.00D+00
 Coeff-Com:  0.796D-05-0.326D-04 0.844D-04-0.211D-03 0.525D-03-0.190D-02
 Coeff-Com:  0.122D-01-0.605D-01 0.236D+00-0.633D+00 0.145D+01
 Coeff:      0.796D-05-0.326D-04 0.844D-04-0.211D-03 0.525D-03-0.190D-02
 Coeff:      0.122D-01-0.605D-01 0.236D+00-0.633D+00 0.145D+01
 Gap=     0.523 Goal=   None    Shift=    0.000
 RMSDP=3.08D-09 MaxDP=4.17D-08 DE= 0.00D+00 OVMax= 2.59D-08

 Cycle  12  Pass 2  IDiag  1:
 SCF Done:  E(RPM3) = -0.107474535779     A.U. after   12 cycles
            NFock= 11  Conv=0.31D-08     -V/T= 0.9982
 KE=-5.963836226336D+01 PE=-2.540047606328D+02 EE= 1.438032936612D+02
 Leave Link  502 at Wed Sep  7 15:33:52 2022, MaxMem=   131072000 cpu:               0.0 elap:               0.0
 (Enter /opt/g16/l701.exe)
 ... and contract with generalized density number  0.
 Compute integral first derivatives.
 Leave Link  701 at Wed Sep  7 15:33:52 2022, MaxMem=   131072000 cpu:               0.0 elap:               0.0
 (Enter /opt/g16/l702.exe)
 L702 exits ... SP integral derivatives will be done elsewhere.
 Leave Link  702 at Wed Sep  7 15:33:52 2022, MaxMem=   131072000 cpu:               0.0 elap:               0.0
 (Enter /opt/g16/l703.exe)
 Integral derivatives from FoFJK, PRISM(SPDF).
 Compute integral first derivatives, UseDBF=F ICtDFT=           0.
 Calling FoFJK, ICntrl=      2127 FMM=F ISym2X=0 I1Cent= 0 IOpClX= 0 NMat=1 NMatS=1 NMatT=0.
 FoFJK:  IHMeth= 9 ICntrl=    2127 DoSepK=F KAlg= 0 I1Cent=           0 FoldK=F
 IRaf=         0 NMat=       1 IRICut=       1 DoRegI=T DoRafI=F ISym2E= 0 IDoP0=3 IntGTp=3.
 FoFCou: FMM=F IPFlag=           0 FMFlag=      100000 FMFlg1=         800
         NFxFlg=           0 DoJE=F BraDBF=F KetDBF=F FulRan=T
         wScrn=  0.000000 ICntrl=      2127 IOpCl=  0 I1Cent=           0 NGrid=           0
         NMat0=    1 NMatS0=      1 NMatT0=    0 NMatD0=    1 NMtDS0=    0 NMtDT0=    0
 Symmetry not used in FoFCou.
 Leave Link  703 at Wed Sep  7 15:33:52 2022, MaxMem=   131072000 cpu:               0.0 elap:               0.0
 (Enter /opt/g16/l716.exe)
 Dipole        = 4.19297428D-02-1.85362546D-01 5.24423630D-01
 ***** Axes restored to original set *****
 -------------------------------------------------------------------
 Center     Atomic                   Forces (Hartrees/Bohr)
 Number     Number              X              Y              Z
 -------------------------------------------------------------------
      1        6           0.029175657    0.002508944   -0.004331917
      2        1          -0.004168747    0.001593286    0.007390679
      3        1          -0.015037200    0.005801501   -0.007263778
      4        1          -0.000983798   -0.002077603    0.003124020
      5        6          -0.000548754   -0.010786127    0.009649571
      6        1          -0.003648486   -0.003978697    0.007268419
      7        1          -0.001757750    0.000829850   -0.011777368
      8        6          -0.014247041    0.007255359    0.000972875
      9        1          -0.002589191   -0.002724623   -0.010128987
     10        8           0.006468779    0.002748803   -0.005830117
     11        6           0.001759542    0.007726750    0.018238217
     12        1           0.000437973   -0.001650822    0.001095114
     13        1           0.005107816    0.005527165   -0.000212588
     14        1          -0.001052870   -0.003663426   -0.001036127
     15        6          -0.009479491   -0.025923566   -0.003558712
     16        1           0.000645552    0.010467731   -0.001317157
     17        1           0.001936201    0.001047105   -0.002554355
     18        1           0.007981807    0.005298371    0.000272212
 -------------------------------------------------------------------
 Cartesian Forces:  Max     0.029175657 RMS     0.008199632
 Leave Link  716 at Wed Sep  7 15:33:52 2022, MaxMem=   131072000 cpu:               0.0 elap:               0.0
 (Enter /opt/g16/l103.exe)

 GradGradGradGradGradGradGradGradGradGradGradGradGradGradGradGradGradGrad
 Berny optimization.
 Using GEDIIS/GDIIS optimizer.
 FormGI is forming the generalized inverse of G from B-inverse, IUseBI=4.
 Internal  Forces:  Max     0.015226380 RMS     0.004421607
 Search for a local minimum.
 Step number   2 out of a maximum of   97
 All quantities printed in internal units (Hartrees-Bohrs-Radians)
 RMS Force = .44216D-02 SwitMx=.10000D-02 MixMth= 1
 Mixed Optimization -- RFO/linear search
 Update second derivatives using D2CorX and points    1    2
 DE= -2.64D-02 DEPred=-2.97D-02 R= 8.89D-01
 TightC=F SS=  1.41D+00  RLast= 3.48D-01 DXNew= 5.0454D-01 1.0429D+00
 Trust test= 8.89D-01 RLast= 3.48D-01 DXMaxT set to 5.05D-01
 ITU=  1  0
 Use linear search instead of GDIIS.
     Eigenvalues ---    0.00230   0.00348   0.00915   0.01352   0.01534
     Eigenvalues ---    0.03729   0.03796   0.04721   0.04802   0.05077
     Eigenvalues ---    0.05157   0.05185   0.05277   0.05566   0.05961
     Eigenvalues ---    0.07873   0.08282   0.08888   0.12091   0.12394
     Eigenvalues ---    0.15400   0.16000   0.16000   0.16000   0.16000
     Eigenvalues ---    0.16000   0.16397   0.17206   0.19956   0.21638
     Eigenvalues ---    0.22135   0.26520   0.27887   0.28671   0.29246
     Eigenvalues ---    0.29680   0.30978   0.32464   0.32728   0.33897
     Eigenvalues ---    0.34092   0.35119   0.36203   0.36468   0.40837
     Eigenvalues ---    0.41600   0.51862   0.60138
 RFO step:  Lambda=-9.52403597D-03 EMin= 2.29991038D-03
 Quartic linear search produced a step of  0.43292.
 Iteration  1 RMS(Cart)=  0.06402427 RMS(Int)=  0.00312597
 Iteration  2 RMS(Cart)=  0.00360486 RMS(Int)=  0.00127879
 Iteration  3 RMS(Cart)=  0.00000951 RMS(Int)=  0.00127876
 Iteration  4 RMS(Cart)=  0.00000002 RMS(Int)=  0.00127876
 ITry= 1 IFail=0 DXMaxC= 2.52D-01 DCOld= 1.00D+10 DXMaxT= 5.05D-01 DXLimC= 3.00D+00 Rises=F
 Variable       Old X    -DE/DX   Delta X   Delta X   Delta X     New X
                                 (Linear)    (Quad)   (Total)
    R1        2.10665  -0.00730  -0.00811  -0.02298  -0.03109   2.07556
    R2        2.03382   0.01523   0.03528   0.01050   0.04578   2.07961
    R3        2.06195   0.00388   0.01231   0.00079   0.01310   2.07505
    R4        2.88259  -0.00912  -0.03009  -0.01193  -0.04202   2.84057
    R5        2.11301  -0.00903  -0.02522  -0.01395  -0.03916   2.07384
    R6        2.12732  -0.01016  -0.02301  -0.02258  -0.04558   2.08173
    R7        2.88220   0.00414   0.02983  -0.01687   0.01296   2.89517
    R8        2.08379   0.00855   0.02122   0.00849   0.02971   2.11350
    R9        2.70789  -0.00739   0.01718  -0.04255  -0.02537   2.68252
   R10        2.88746   0.00656   0.05916  -0.04238   0.01677   2.90423
   R11        1.78817  -0.00047   0.00436  -0.00586  -0.00150   1.78667
   R12        2.10258  -0.00077   0.00310  -0.00677  -0.00368   2.09890
   R13        2.09486  -0.00195  -0.00215  -0.00583  -0.00798   2.08688
   R14        2.88201  -0.00688  -0.00531  -0.02611  -0.03142   2.85059
   R15        2.06826   0.00271   0.00597   0.00388   0.00984   2.07810
   R16        2.06114   0.00011  -0.00538   0.00654   0.00116   2.06230
   R17        2.10707  -0.00856  -0.01896  -0.01766  -0.03662   2.07045
    A1        1.79940   0.00618   0.02612   0.04414   0.07193   1.87133
    A2        1.88446  -0.00163  -0.00205  -0.00591  -0.00802   1.87644
    A3        1.90147   0.00247   0.00284   0.03412   0.03782   1.93929
    A4        1.88438   0.00334   0.01368  -0.01428  -0.00372   1.88066
    A5        2.03262  -0.01076  -0.03237  -0.05306  -0.08624   1.94638
    A6        1.95102   0.00117  -0.00389   0.00081  -0.00480   1.94621
    A7        1.94796  -0.00247  -0.01600  -0.02109  -0.03678   1.91118
    A8        1.88980  -0.00081  -0.00643   0.02819   0.01780   1.90760
    A9        1.94500   0.00532   0.02165   0.01563   0.03553   1.98053
   A10        1.89030  -0.00098  -0.00681  -0.02815  -0.03428   1.85601
   A11        1.92843  -0.00306  -0.00810  -0.03174  -0.03874   1.88969
   A12        1.85891   0.00209   0.01754   0.04014   0.05574   1.91465
   A13        1.95120  -0.00165  -0.01194  -0.01560  -0.02672   1.92448
   A14        1.96036  -0.00214  -0.01372  -0.01854  -0.03250   1.92786
   A15        1.95554  -0.00392  -0.00725  -0.02760  -0.03470   1.92085
   A16        1.85030   0.00111   0.00021   0.03251   0.03044   1.88075
   A17        1.86523   0.00421   0.01507   0.04562   0.05978   1.92501
   A18        1.87481   0.00309   0.02144  -0.01026   0.00931   1.88412
   A19        1.81265   0.00271   0.03256  -0.01762   0.01494   1.82759
   A20        1.83953   0.00687   0.02431   0.06179   0.08686   1.92639
   A21        1.96472  -0.00220  -0.00633  -0.04752  -0.05425   1.91046
   A22        1.99325  -0.00645  -0.00167  -0.03583  -0.03878   1.95447
   A23        1.86872  -0.00266  -0.00955  -0.01439  -0.02269   1.84603
   A24        1.89195   0.00034  -0.00402   0.02568   0.02143   1.91338
   A25        1.89955   0.00434  -0.00227   0.01533   0.01038   1.90994
   A26        1.87581   0.00967   0.02871   0.05021   0.07688   1.95269
   A27        1.98496  -0.00483  -0.01811  -0.03856  -0.05586   1.92911
   A28        1.91995   0.00211   0.00920   0.01936   0.02591   1.94586
   A29        1.97333  -0.00627  -0.01761  -0.05800  -0.07430   1.89903
   A30        1.81549   0.00010   0.00584   0.04272   0.04340   1.85889
   A31        1.88672  -0.00025  -0.00453  -0.00731  -0.01165   1.87507
    D1        0.82179   0.00058   0.00074   0.03095   0.03146   0.85326
    D2       -1.25722   0.00378   0.02399   0.06026   0.08378  -1.17344
    D3        2.98707  -0.00130  -0.00511  -0.01454  -0.02033   2.96673
    D4       -1.20292  -0.00239  -0.01506  -0.01700  -0.03057  -1.23349
    D5        3.00125   0.00081   0.00819   0.01231   0.02174   3.02299
    D6        0.96235  -0.00426  -0.02091  -0.06249  -0.08237   0.87998
    D7        2.90297   0.00088  -0.00234   0.04630   0.04339   2.94636
    D8        0.82395   0.00408   0.02091   0.07561   0.09571   0.91966
    D9       -1.21494  -0.00100  -0.00820   0.00082  -0.00840  -1.22335
   D10       -1.27937   0.00312   0.02002   0.07511   0.09611  -1.18327
   D11        0.79820   0.00194   0.00143   0.09323   0.09542   0.89362
   D12        2.91043   0.00159   0.01416   0.04663   0.06197   2.97240
   D13        0.89689   0.00153   0.00935   0.03575   0.04535   0.94224
   D14        2.97446   0.00036  -0.00924   0.05387   0.04467   3.01912
   D15       -1.19649  -0.00000   0.00349   0.00727   0.01121  -1.18528
   D16        2.94621  -0.00005   0.00725   0.00855   0.01459   2.96080
   D17       -1.25940  -0.00122  -0.01134   0.02667   0.01391  -1.24550
   D18        0.85283  -0.00158   0.00139  -0.01994  -0.01955   0.83328
   D19       -1.84562   0.00020   0.01205   0.01433   0.02632  -1.81930
   D20        0.29017  -0.00237  -0.01155   0.00563  -0.00622   0.28396
   D21        2.27957   0.00436   0.01466   0.06840   0.08340   2.36297
   D22       -1.54197   0.00127   0.00410   0.04600   0.05039  -1.49159
   D23        0.48908   0.00108   0.00415   0.04146   0.04428   0.53337
   D24        2.66661  -0.00010  -0.00581  -0.00659  -0.01191   2.65470
   D25        2.59832   0.00291   0.01311   0.05170   0.06607   2.66439
   D26       -1.65381   0.00271   0.01315   0.04715   0.05997  -1.59384
   D27        0.52372   0.00154   0.00319  -0.00089   0.00377   0.52749
   D28        0.61897  -0.00180  -0.00269  -0.00240  -0.00524   0.61373
   D29        2.65002  -0.00200  -0.00264  -0.00694  -0.01134   2.63868
   D30       -1.45564  -0.00317  -0.01261  -0.05499  -0.06754  -1.52318
   D31       -0.97995  -0.00049  -0.00040  -0.01026  -0.01230  -0.99225
   D32        3.10504   0.00362   0.01252   0.05379   0.06666  -3.11148
   D33        0.98596   0.00575   0.02420   0.07578   0.10143   1.08739
   D34       -3.02461  -0.00544  -0.02703  -0.08332  -0.11194  -3.13654
   D35        1.06039  -0.00132  -0.01411  -0.01927  -0.03298   1.02741
   D36       -1.05870   0.00081  -0.00244   0.00272   0.00179  -1.05691
   D37        1.23181  -0.00480  -0.01212  -0.08845  -0.10242   1.12938
   D38       -0.96639  -0.00068   0.00081  -0.02439  -0.02346  -0.98985
   D39       -3.08547   0.00145   0.01248  -0.00240   0.01131  -3.07416
         Item               Value     Threshold  Converged?
 Maximum Force            0.015226     0.000450     NO 
 RMS     Force            0.004422     0.000300     NO 
 Maximum Displacement     0.252090     0.001800     NO 
 RMS     Displacement     0.063818     0.001200     NO 
 Predicted change in Energy=-6.896742D-03
 Lowest energy point so far.  Saving SCF results.
 GradGradGradGradGradGradGradGradGradGradGradGradGradGradGradGradGradGrad

[...]
 ! A12   A(7,5,8)              109.8374         -DE/DX =    0.0                 !
 ! A13   A(5,8,9)              109.3443         -DE/DX =    0.0                 !
 ! A14   A(5,8,10)             111.9575         -DE/DX =    0.0                 !
 ! A15   A(5,8,11)             110.4942         -DE/DX =    0.0                 !
 ! A16   A(9,8,10)             107.8156         -DE/DX =    0.0                 !
 ! A17   A(9,8,11)             109.781          -DE/DX =    0.0                 !
 ! A18   A(10,8,11)            107.3845         -DE/DX =    0.0                 !
 ! A19   A(8,10,12)            106.028          -DE/DX =    0.0                 !
 ! A20   A(8,11,13)            110.0554         -DE/DX =    0.0                 !
 ! A21   A(8,11,14)            108.8663         -DE/DX =    0.0                 !
 ! A22   A(8,11,15)            112.2201         -DE/DX =    0.0                 !
 ! A23   A(13,11,14)           105.7737         -DE/DX =    0.0                 !
 ! A24   A(13,11,15)           110.0471         -DE/DX =    0.0                 !
 ! A25   A(14,11,15)           109.6668         -DE/DX =    0.0                 !
 ! A26   A(11,15,16)           111.7217         -DE/DX =    0.0                 !
 ! A27   A(11,15,17)           111.0655         -DE/DX =    0.0                 !
 ! A28   A(11,15,18)           111.7282         -DE/DX =    0.0                 !
 ! A29   A(16,15,17)           107.3854         -DE/DX =    0.0                 !
 ! A30   A(16,15,18)           107.3012         -DE/DX =    0.0                 !
 ! A31   A(17,15,18)           107.4017         -DE/DX =    0.0                 !
 ! D1    D(2,1,5,6)             66.1002         -DE/DX =    0.0                 !
 ! D2    D(2,1,5,7)            -50.1505         -DE/DX =    0.0                 !
 ! D3    D(2,1,5,8)           -172.4047         -DE/DX =    0.0                 !
 ! D4    D(3,1,5,6)            -54.3516         -DE/DX =    0.0                 !
 ! D5    D(3,1,5,7)           -170.6022         -DE/DX =    0.0                 !
 ! D6    D(3,1,5,8)             67.1436         -DE/DX =    0.0                 !
 ! D7    D(4,1,5,6)           -173.9691         -DE/DX =    0.0                 !
 ! D8    D(4,1,5,7)             69.7802         -DE/DX =    0.0                 !
 ! D9    D(4,1,5,8)            -52.474          -DE/DX =    0.0                 !
 ! D10   D(1,5,8,9)            -56.5605         -DE/DX =    0.0                 !
 ! D11   D(1,5,8,10)            62.8563         -DE/DX =    0.0                 !
 ! D12   D(1,5,8,11)          -177.4997         -DE/DX =    0.0                 !
 ! D13   D(6,5,8,9)             65.3287         -DE/DX =    0.0                 !
 ! D14   D(6,5,8,10)          -175.2545         -DE/DX =    0.0                 !
 ! D15   D(6,5,8,11)           -55.6104         -DE/DX =    0.0                 !
 ! D16   D(7,5,8,9)           -179.0218         -DE/DX =    0.0                 !
 ! D17   D(7,5,8,10)           -59.605          -DE/DX =    0.0                 !
 ! D18   D(7,5,8,11)            60.039          -DE/DX =    0.0                 !
 ! D19   D(5,8,10,12)          -42.8525         -DE/DX =    0.0                 !
 ! D20   D(9,8,10,12)           77.4593         -DE/DX =    0.0                 !
 ! D21   D(11,8,10,12)        -164.3049         -DE/DX =    0.0                 !
 ! D22   D(5,8,11,13)          -71.7371         -DE/DX =    0.0                 !
 ! D23   D(5,8,11,14)           43.7663         -DE/DX =    0.0                 !
 ! D24   D(5,8,11,15)          165.3526         -DE/DX =    0.0                 !
 ! D25   D(9,8,11,13)          167.5839         -DE/DX =    0.0                 !
 ! D26   D(9,8,11,14)          -76.9127         -DE/DX =    0.0                 !
 ! D27   D(9,8,11,15)           44.6736         -DE/DX =    0.0                 !
 ! D28   D(10,8,11,13)          50.628          -DE/DX =    0.0                 !
 ! D29   D(10,8,11,14)         166.1315         -DE/DX =    0.0                 !
 ! D30   D(10,8,11,15)         -72.2823         -DE/DX =    0.0                 !
 ! D31   D(8,11,15,16)         -59.1867         -DE/DX =    0.0                 !
 ! D32   D(8,11,15,17)        -179.0624         -DE/DX =    0.0                 !
 ! D33   D(8,11,15,18)          61.0369         -DE/DX =    0.0                 !
 ! D34   D(13,11,15,16)        177.8984         -DE/DX =    0.0                 !
 ! D35   D(13,11,15,17)         58.0227         -DE/DX =    0.0                 !
 ! D36   D(13,11,15,18)        -61.878          -DE/DX =    0.0                 !
 ! D37   D(14,11,15,16)         61.9404         -DE/DX =    0.0                 !
 ! D38   D(14,11,15,17)        -57.9353         -DE/DX =    0.0                 !
 ! D39   D(14,11,15,18)       -177.836          -DE/DX =    0.0                 !
 --------------------------------------------------------------------------------
 Lowest energy point so far.  Saving SCF results.
 Largest change from initial coordinates is atom   12       0.272 Angstoms.
 GradGradGradGradGradGradGradGradGradGradGradGradGradGradGradGradGradGrad

 Leave Link  103 at Wed Sep  7 15:34:05 2022, MaxMem=   131072000 cpu:               0.0 elap:               0.0
 (Enter /opt/g16/l202.exe)
                          Input orientation:                          
 ---------------------------------------------------------------------
 Center     Atomic      Atomic             Coordinates (Angstroms)
 Number     Number       Type             X           Y           Z
 ---------------------------------------------------------------------
      1          6           0       12.200488   -1.711325    9.059322
      2          1           0       13.070552   -2.367819    8.938068
      3          1           0       11.758659   -1.560740    8.065531
      4          1           0       11.457210   -2.253228    9.667593
      5          6           0       12.580338   -0.399483    9.709534
      6          1           0       13.241960    0.179523    9.036549
      7          1           0       13.172469   -0.584881   10.627791
      8          6           0       11.337111    0.442545   10.050591
      9          1           0       10.736344    0.609628    9.121514
     10          8           0       10.502389   -0.203796   10.996396
     11          6           0       11.751085    1.793282   10.651567
     12          1           0       10.459664   -1.116828   10.728826
     13          1           0       12.147424    1.647865   11.676337
     14          1           0       12.591788    2.206545   10.059201
     15          6           0       10.608744    2.783601   10.673342
     16          1           0       10.218780    2.976590    9.664837
     17          1           0       10.929468    3.746732   11.090820
     18          1           0        9.770527    2.423787   11.284179
 ---------------------------------------------------------------------
                    Distance matrix (angstroms):
                    1          2          3          4          5
     1  C    0.000000
     2  H    1.096676   0.000000
     3  H    1.097957   1.770243   0.000000
     4  H    1.102776   1.774319   1.771162   0.000000
     5  C    1.512611   2.170211   2.174033   2.167844   0.000000
     6  H    2.158816   2.555001   2.484264   3.082503   1.107204
     7  H    2.161878   2.458539   3.084855   2.578269   1.108236
     8  C    2.523330   3.484347   2.851546   2.725492   1.539787
     9  H    2.744888   3.787792   2.621207   3.002299   2.182747
    10  O    2.984701   3.938930   3.465470   2.622513   2.451975
    11  C    3.875497   4.689545   4.235222   4.174783   2.526520
    12  H    2.484178   3.404193   2.996263   1.847355   2.459837
    13  H    4.258608   4.947323   4.846051   4.441844   2.871822
    14  H    4.062337   4.734022   4.342955   4.618463   2.629407
    15  C    5.034191   5.967312   5.195795   5.205870   3.866282
    16  H    5.125462   6.101107   5.051373   5.374450   4.120294
    17  H    5.960945   6.826882   6.165160   6.188991   4.671662
    18  H    5.287141   6.273268   5.494436   5.228071   4.283153
                    6          7          8          9         10
     6  H    0.000000
     7  H    1.766690   0.000000
     8  C    2.173916   2.181124   0.000000
     9  H    2.543682   3.103293   1.118938   0.000000
    10  O    3.390160   2.722209   1.417415   2.057079   0.000000
    11  C    2.726758   2.770660   1.535265   2.184445   2.380435
    12  H    3.505067   2.766312   1.913520   2.375006   0.952390
    13  H    3.212868   2.671203   2.180012   3.097774   2.568484
    14  H    2.361643   2.907327   2.164714   2.621464   3.324706
    15  C    4.048968   4.233372   2.529601   2.674063   3.006695
    16  H    4.166287   4.726059   2.796579   2.483059   3.459528
    17  H    4.721507   4.899829   3.487965   3.709028   3.974668
    18  H    4.705254   4.588697   2.810916   2.983471   2.742742
                   11         12         13         14         15
    11  C    0.000000
    12  H    3.184725   0.000000
    13  H    1.108325   3.374883   0.000000
    14  H    1.108362   4.004892   1.767686   0.000000
    15  C    1.512002   3.903671   2.159498   2.154676   0.000000
    16  H    2.172973   4.236291   3.087282   2.525799   1.098362
    17  H    2.164247   4.899589   2.496296   2.489925   1.097621
    18  H    2.172636   3.649559   2.530905   3.083388   1.097814
                   16         17         18
    16  H    0.000000
    17  H    1.769639   0.000000
    18  H    1.768839   1.769382   0.000000
 Stoichiometry    C5H12O
 Framework group  C1[X(C5H12O)]
 Deg. of freedom    48
 Full point group                 C1      NOp   1
 RotChk:  IX=0 Diff= 1.23D-15
 Largest Abelian subgroup         C1      NOp   1
 Largest concise Abelian subgroup C1      NOp   1
                         Standard orientation:                         
 ---------------------------------------------------------------------
 Center     Atomic      Atomic             Coordinates (Angstroms)
 Number     Number       Type             X           Y           Z
 ---------------------------------------------------------------------
      1          6           0        2.500519   -0.112579    0.304937
      2          1           0        3.395090   -0.590255   -0.112516
      3          1           0        2.551662   -0.211893    1.397197
      4          1           0        2.559189    0.963842    0.072582
      5          6           0        1.233457   -0.719742   -0.255330
      6          1           0        1.137408   -1.771177    0.078074
      7          1           0        1.284232   -0.757980   -1.361742
      8          6           0       -0.013250    0.070227    0.183546
      9          1           0       -0.046797    0.118962    1.300919
     10          8           0        0.001313    1.399503   -0.308266
     11          6           0       -1.288638   -0.600769   -0.345780
     12          1           0        0.891539    1.715240   -0.186387
     13          1           0       -1.368456   -0.454320   -1.441483
     14          1           0       -1.207378   -1.695576   -0.193263
     15          6           0       -2.533471   -0.082685    0.338421
     16          1           0       -2.499511   -0.248037    1.423734
     17          1           0       -3.431428   -0.586306   -0.042120
     18          1           0       -2.667760    0.994766    0.176367
 ---------------------------------------------------------------------
 Rotational constants (GHZ):           7.1097901           1.9153223           1.6724110
 Leave Link  202 at Wed Sep  7 15:34:05 2022, MaxMem=   131072000 cpu:               0.0 elap:               0.0
 (Enter /opt/g16/l601.exe)
 Copying SCF densities to generalized density rwf, IOpCl= 0 IROHF=0.

 **********************************************************************

            Population analysis using the SCF density.

 **********************************************************************

 Orbital symmetries:
       Occupied  (A) (A) (A) (A) (A) (A) (A) (A) (A) (A) (A) (A)
                 (A) (A) (A) (A) (A) (A) (A)
       Virtual   (A) (A) (A) (A) (A) (A) (A) (A) (A) (A) (A) (A)
                 (A) (A) (A) (A) (A)
 The electronic state is 1-A.
 Alpha  occ. eigenvalues --   -1.48625  -1.24038  -1.21328  -0.95409  -0.79118
 Alpha  occ. eigenvalues --   -0.76032  -0.65830  -0.61755  -0.56448  -0.55601
 Alpha  occ. eigenvalues --   -0.53679  -0.51710  -0.49721  -0.48171  -0.47036
 Alpha  occ. eigenvalues --   -0.44414  -0.43791  -0.42904  -0.40140
 Alpha virt. eigenvalues --    0.11495   0.12632   0.12926   0.13655   0.13780
 Alpha virt. eigenvalues --    0.14522   0.14728   0.15174   0.15567   0.15889
 Alpha virt. eigenvalues --    0.16802   0.17077   0.17338   0.18400   0.18570
 Alpha virt. eigenvalues --    0.18885   0.21164
          Condensed to atoms (all electrons):
               1          2          3          4          5          6
     1  C    4.110454   0.000000   0.000000   0.000000   0.000000   0.000000
     2  H    0.000000   0.955445   0.000000   0.000000   0.000000   0.000000
     3  H    0.000000   0.000000   0.958854   0.000000   0.000000   0.000000
     4  H    0.000000   0.000000   0.000000   0.966418   0.000000   0.000000
     5  C    0.000000   0.000000   0.000000   0.000000   4.145553   0.000000
     6  H    0.000000   0.000000   0.000000   0.000000   0.000000   0.939329
     7  H    0.000000   0.000000   0.000000   0.000000   0.000000   0.000000
     8  C    0.000000   0.000000   0.000000   0.000000   0.000000   0.000000
     9  H    0.000000   0.000000   0.000000   0.000000   0.000000   0.000000
    10  O    0.000000   0.000000   0.000000   0.000000   0.000000   0.000000
    11  C    0.000000   0.000000   0.000000   0.000000   0.000000   0.000000
    12  H    0.000000   0.000000   0.000000   0.000000   0.000000   0.000000
    13  H    0.000000   0.000000   0.000000   0.000000   0.000000   0.000000
    14  H    0.000000   0.000000   0.000000   0.000000   0.000000   0.000000
    15  C    0.000000   0.000000   0.000000   0.000000   0.000000   0.000000
    16  H    0.000000   0.000000   0.000000   0.000000   0.000000   0.000000
    17  H    0.000000   0.000000   0.000000   0.000000   0.000000   0.000000
    18  H    0.000000   0.000000   0.000000   0.000000   0.000000   0.000000
               7          8          9         10         11         12
     1  C    0.000000   0.000000   0.000000   0.000000   0.000000   0.000000
     2  H    0.000000   0.000000   0.000000   0.000000   0.000000   0.000000
     3  H    0.000000   0.000000   0.000000   0.000000   0.000000   0.000000
     4  H    0.000000   0.000000   0.000000   0.000000   0.000000   0.000000
     5  C    0.000000   0.000000   0.000000   0.000000   0.000000   0.000000
     6  H    0.000000   0.000000   0.000000   0.000000   0.000000   0.000000
     7  H    0.937692   0.000000   0.000000   0.000000   0.000000   0.000000
     8  C    0.000000   3.922988   0.000000   0.000000   0.000000   0.000000
     9  H    0.000000   0.000000   0.954958   0.000000   0.000000   0.000000
    10  O    0.000000   0.000000   0.000000   6.317141   0.000000   0.000000
    11  C    0.000000   0.000000   0.000000   0.000000   4.105385   0.000000
    12  H    0.000000   0.000000   0.000000   0.000000   0.000000   0.808883
    13  H    0.000000   0.000000   0.000000   0.000000   0.000000   0.000000
    14  H    0.000000   0.000000   0.000000   0.000000   0.000000   0.000000
    15  C    0.000000   0.000000   0.000000   0.000000   0.000000   0.000000
    16  H    0.000000   0.000000   0.000000   0.000000   0.000000   0.000000
    17  H    0.000000   0.000000   0.000000   0.000000   0.000000   0.000000
    18  H    0.000000   0.000000   0.000000   0.000000   0.000000   0.000000
              13         14         15         16         17         18
     1  C    0.000000   0.000000   0.000000   0.000000   0.000000   0.000000
     2  H    0.000000   0.000000   0.000000   0.000000   0.000000   0.000000
     3  H    0.000000   0.000000   0.000000   0.000000   0.000000   0.000000
     4  H    0.000000   0.000000   0.000000   0.000000   0.000000   0.000000
     5  C    0.000000   0.000000   0.000000   0.000000   0.000000   0.000000
     6  H    0.000000   0.000000   0.000000   0.000000   0.000000   0.000000
     7  H    0.000000   0.000000   0.000000   0.000000   0.000000   0.000000
     8  C    0.000000   0.000000   0.000000   0.000000   0.000000   0.000000
     9  H    0.000000   0.000000   0.000000   0.000000   0.000000   0.000000
    10  O    0.000000   0.000000   0.000000   0.000000   0.000000   0.000000
    11  C    0.000000   0.000000   0.000000   0.000000   0.000000   0.000000
    12  H    0.000000   0.000000   0.000000   0.000000   0.000000   0.000000
    13  H    0.938750   0.000000   0.000000   0.000000   0.000000   0.000000
    14  H    0.000000   0.951476   0.000000   0.000000   0.000000   0.000000
    15  C    0.000000   0.000000   4.106970   0.000000   0.000000   0.000000
    16  H    0.000000   0.000000   0.000000   0.965529   0.000000   0.000000
    17  H    0.000000   0.000000   0.000000   0.000000   0.965046   0.000000
    18  H    0.000000   0.000000   0.000000   0.000000   0.000000   0.949130
 Mulliken charges:
               1
     1  C   -0.110454
     2  H    0.044555
     3  H    0.041146
     4  H    0.033582
     5  C   -0.145553
     6  H    0.060671
     7  H    0.062308
     8  C    0.077012
     9  H    0.045042
    10  O   -0.317141
    11  C   -0.105385
    12  H    0.191117
    13  H    0.061250
    14  H    0.048524
    15  C   -0.106970
    16  H    0.034471
    17  H    0.034954
    18  H    0.050870
 Sum of Mulliken charges =   0.00000
 Mulliken charges with hydrogens summed into heavy atoms:
               1
     1  C    0.008829
     5  C   -0.022574
     8  C    0.122054
    10  O   -0.126024
    11  C    0.004389
    15  C    0.013325
 Charge=             -0.0000 electrons
 Dipole moment (field-independent basis, Debye):
    X=              1.2453    Y=             -0.8607    Z=              0.5079  Tot=              1.5968
 N-N= 1.700407719301D+02 E-N=-2.545147459205D+02  KE=-5.968713700410D+01
 Leave Link  601 at Wed Sep  7 15:34:05 2022, MaxMem=   131072000 cpu:               0.0 elap:               0.0
 (Enter /opt/g16/l9999.exe)
 1\1\GINC-TOTEM2\FOpt\RPM3\ZDO\C5H12O1\JRAMOS\07-Sep-2022\0\\#p opt pm3
 \\Conformer number 009. Energy MM = 0.000 kcal/mol\\0,1\C,12.200488425
 1,-1.711325103,9.0593222199\H,13.0705519542,-2.3678190495,8.938068414\
 H,11.7586593777,-1.5607397129,8.0655309218\H,11.4572104967,-2.25322819
 13,9.6675932509\C,12.5803381519,-0.399482629,9.7095342676\H,13.2419595
 97,0.1795228305,9.0365488405\H,13.1724685211,-0.5848814798,10.62779112
 41\C,11.3371109089,0.4425452461,10.0505909564\H,10.7363441703,0.609628
 1047,9.1215139065\O,10.5023887058,-0.203795811,10.9963958222\C,11.7510
 853796,1.7932819937,10.6515674802\H,10.4596639283,-1.116827558,10.7288
 262644\H,12.1474236858,1.6478649959,11.6763374499\H,12.5917882345,2.20
 65452844,10.0592006148\C,10.6087436282,2.7836013648,10.6733421117\H,10
 .2187802784,2.9765899504,9.6648370665\H,10.9294675792,3.746732265,11.0
 908199881\H,9.7705269773,2.4237874989,11.2841793005\\Version=ES64L-G16
 RevA.03\State=1-A\HF=-0.1176668\RMSD=7.581e-09\RMSF=7.383e-06\Dipole=0
 .3279902,-0.2663922,-0.4648736\PG=C01 [X(C5H12O1)]\\@


 BETTER TO HUNT IN FIELDS, FOR HEALTH UNBOUGHT
 THAN FEE THE DOCTOR FOR A NAUSEOUS DRAUGHT.
 THE WISE, FOR CURE, ON EXERCISE DEPEND;
 GOD NEVER MADE HIS WORK FOR MAN TO MEND.
     -- JOHN DRYDEN (1631-1700)
 Job cpu time:       0 days  0 hours  0 minutes 14.1 seconds.
 Elapsed time:       0 days  0 hours  0 minutes 13.2 seconds.
 File lengths (MBytes):  RWF=      6 Int=      0 D2E=      0 Chk=      2 Scr=      1
 Normal termination of Gaussian 16 at Wed Sep  7 15:34:05 2022.
