 Entering Gaussian System, Link 0=/opt/g16/g16
 Input=MD_extract_002_gaussian.com
 Output=MD_extract_002_gaussian.log
 Initial command:
 /opt/g16/l1.exe "/tmp/Gau-316083.inp" -scrdir="/tmp/"
 Entering Link 1 = /opt/g16/l1.exe PID=    316085.
  
 Copyright (c) 1988,1990,1992,1993,1995,1998,2003,2009,2016,
            Gaussian, Inc.  All Rights Reserved.
  
 This is part of the Gaussian(R) 16 program.  It is based on
 the Gaussian(R) 09 system (copyright 2009, Gaussian, Inc.),
 the Gaussian(R) 03 system (copyright 2003, Gaussian, Inc.),
 the Gaussian(R) 98 system (copyright 1998, Gaussian, Inc.),
 the Gaussian(R) 94 system (copyright 1995, Gaussian, Inc.),
 the Gaussian 92(TM) system (copyright 1992, Gaussian, Inc.),
 the Gaussian 90(TM) system (copyright 1990, Gaussian, Inc.),
 the Gaussian 88(TM) system (copyright 1988, Gaussian, Inc.),
 the Gaussian 86(TM) system (copyright 1986, Carnegie Mellon
 University), and the Gaussian 82(TM) system (copyright 1983,
 Carnegie Mellon University). Gaussian is a federally registered
 trademark of Gaussian, Inc.
  
 This software contains proprietary and confidential information,
 including trade secrets, belonging to Gaussian, Inc.
  
 This software is provided under written license and may be
 used, copied, transmitted, or stored only in accord with that
 written license.
  
 The following legend is applicable only to US Government
 contracts under FAR:
  
                    RESTRICTED RIGHTS LEGEND
  
 Use, reproduction and disclosure by the US Government is
 subject to restrictions as set forth in subparagraphs (a)
 and (c) of the Commercial Computer Software - Restricted
 Rights clause in FAR 52.227-19.
  
 Gaussian, Inc.
 340 Quinnipiac St., Bldg. 40, Wallingford CT 06492
  
  
 ---------------------------------------------------------------
 Warning -- This program may not be used in any manner that
 competes with the business of Gaussian, Inc. or will provide
 assistance to any competitor of Gaussian, Inc.  The licensee
 of this program is prohibited from giving any competitor of
 Gaussian, Inc. access to this program.  By using this program,
 the user acknowledges that Gaussian, Inc. is engaged in the
 business of creating and licensing software in the field of
 computational chemistry and represents and warrants to the
 licensee that it is not a competitor of Gaussian, Inc. and that
 it will not use this program in any manner prohibited above.
 ---------------------------------------------------------------
  

 Cite this work as:
 Gaussian 16, Revision A.03,
 M. J. Frisch, G. W. Trucks, H. B. Schlegel, G. E. Scuseria, 
 M. A. Robb, J. R. Cheeseman, G. Scalmani, V. Barone, 
 G. A. Petersson, H. Nakatsuji, X. Li, M. Caricato, A. V. Marenich, 
 J. Bloino, B. G. Janesko, R. Gomperts, B. Mennucci, H. P. Hratchian, 
 J. V. Ortiz, A. F. Izmaylov, J. L. Sonnenberg, D. Williams-Young, 
 F. Ding, F. Lipparini, F. Egidi, J. Goings, B. Peng, A. Petrone, 
 T. Henderson, D. Ranasinghe, V. G. Zakrzewski, J. Gao, N. Rega, 
 G. Zheng, W. Liang, M. Hada, M. Ehara, K. Toyota, R. Fukuda, 
 J. Hasegawa, M. Ishida, T. Nakajima, Y. Honda, O. Kitao, H. Nakai, 
 T. Vreven, K. Throssell, J. A. Montgomery, Jr., J. E. Peralta, 
 F. Ogliaro, M. J. Bearpark, J. J. Heyd, E. N. Brothers, K. N. Kudin, 
 V. N. Staroverov, T. A. Keith, R. Kobayashi, J. Normand, 
 K. Raghavachari, A. P. Rendell, J. C. Burant, S. S. Iyengar, 
 J. Tomasi, M. Cossi, J. M. Millam, M. Klene, C. Adamo, R. Cammi, 
 J. W. Ochterski, R. L. Martin, K. Morokuma, O. Farkas, 
 J. B. Foresman, and D. J. Fox, Gaussian, Inc., Wallingford CT, 2016.
 
 ******************************************
 Gaussian 16:  ES64L-G16RevA.03 25-Dec-2016
                 7-Sep-2022 
 ******************************************
 %chk=MD_extract_002_gaussian.chk
 %nproc=1
 Will use up to    1 processors via shared memory.
 %mem=1000Mb
 ----------
 #p opt pm3
 ----------
 1/18=20,19=15,26=1,38=1/1,3;
 2/9=110,12=2,17=6,18=5,40=1/2;
 3/5=2,25=1,41=800000,71=1/1,2,3;
 4/35=1/1;
 5/5=2,35=1,38=5/2;
 6/7=2,8=2,9=2,10=2,28=1/1;
 7//1,2,3,16;
 1/18=20,19=15,26=1/3(2);
 2/9=110/2;
 99//99;
 2/9=110/2;
 3/5=2,25=1,41=800000,71=1,135=20/1,2,3;
 4/5=5,16=3,35=1/1;
 5/5=2,35=1,38=5/2;
 7//1,2,3,16;
 1/18=20,19=15,26=1/3(-5);
 2/9=110/2;
 6/7=2,8=2,9=2,10=2,19=2,28=1/1;
 99/9=1/99;
 Leave Link    1 at Wed Sep  7 15:33:24 2022, MaxMem=   131072000 cpu:               0.0 elap:               0.0
 (Enter /opt/g16/l101.exe)
 ------------------------------------------------
 Conformer number 002. Energy MM = 0.000 kcal/mol
 ------------------------------------------------
 Symbolic Z-matrix:
 Charge =  0 Multiplicity = 1
 C                     5.451     9.809     13.862 
 H                     4.716     9.038     13.965 
 H                     6.425     9.604     14.348 
 H                     5.678     9.93      12.829 
 C                     4.837     11.073    14.425 
 H                     5.625     11.891    14.228 
 H                     4.763     10.983    15.565 
 C                     3.531     11.461    13.914 
 H                     2.68      10.902    14.424 
 O                     3.434     12.859    14.217 
 C                     3.446     11.224    12.422 
 H                     2.663     13.295    13.745 
 H                     3.253     10.156    12.164 
 H                     2.448     11.647    12.288 
 C                     4.498     11.956    11.596 
 H                     4.751     12.93     11.961 
 H                     4.1       11.985    10.57 
 H                     5.373     11.256    11.472 
 
 ITRead=  0  0  0  0  0  0  0  0  0  0  0  0  0  0  0  0  0  0
 MicOpt= -1 -1 -1 -1 -1 -1 -1 -1 -1 -1 -1 -1 -1 -1 -1 -1 -1 -1
 NAtoms=     18 NQM=       18 NQMF=       0 NMMI=      0 NMMIF=      0
                NMic=       0 NMicF=      0.
                    Isotopes and Nuclear Properties:
 (Nuclear quadrupole moments (NQMom) in fm**2, nuclear magnetic moments (NMagM)
  in nuclear magnetons)

  Atom         1           2           3           4           5           6           7           8           9          10
 IAtWgt=          12           1           1           1          12           1           1          12           1          16
 AtmWgt=  12.0000000   1.0078250   1.0078250   1.0078250  12.0000000   1.0078250   1.0078250  12.0000000   1.0078250  15.9949146
 NucSpn=           0           1           1           1           0           1           1           0           1           0
 AtZEff=  -0.0000000  -0.0000000  -0.0000000  -0.0000000  -0.0000000  -0.0000000  -0.0000000  -0.0000000  -0.0000000  -0.0000000
 NQMom=    0.0000000   0.0000000   0.0000000   0.0000000   0.0000000   0.0000000   0.0000000   0.0000000   0.0000000   0.0000000
 NMagM=    0.0000000   2.7928460   2.7928460   2.7928460   0.0000000   2.7928460   2.7928460   0.0000000   2.7928460   0.0000000
 AtZNuc=   6.0000000   1.0000000   1.0000000   1.0000000   6.0000000   1.0000000   1.0000000   6.0000000   1.0000000   8.0000000

  Atom        11          12          13          14          15          16          17          18
 IAtWgt=          12           1           1           1          12           1           1           1
 AtmWgt=  12.0000000   1.0078250   1.0078250   1.0078250  12.0000000   1.0078250   1.0078250   1.0078250
 NucSpn=           0           1           1           1           0           1           1           1
 AtZEff=  -0.0000000  -0.0000000  -0.0000000  -0.0000000  -0.0000000  -0.0000000  -0.0000000  -0.0000000
 NQMom=    0.0000000   0.0000000   0.0000000   0.0000000   0.0000000   0.0000000   0.0000000   0.0000000
 NMagM=    0.0000000   2.7928460   2.7928460   2.7928460   0.0000000   2.7928460   2.7928460   2.7928460
 AtZNuc=   6.0000000   1.0000000   1.0000000   1.0000000   6.0000000   1.0000000   1.0000000   1.0000000
 Leave Link  101 at Wed Sep  7 15:33:24 2022, MaxMem=   131072000 cpu:               0.1 elap:               0.1
 (Enter /opt/g16/l103.exe)

 GradGradGradGradGradGradGradGradGradGradGradGradGradGradGradGradGradGrad
 Berny optimization.
 Initialization pass.
                           ----------------------------
                           !    Initial Parameters    !
                           ! (Angstroms and Degrees)  !
 --------------------------                            --------------------------
 ! Name  Definition              Value          Derivative Info.                !
 --------------------------------------------------------------------------------
 ! R1    R(1,2)                  1.0702         estimate D2E/DX2                !
 ! R2    R(1,3)                  1.1077         estimate D2E/DX2                !
 ! R3    R(1,4)                  1.0645         estimate D2E/DX2                !
 ! R4    R(1,5)                  1.5138         estimate D2E/DX2                !
 ! R5    R(5,6)                  1.1528         estimate D2E/DX2                !
 ! R6    R(5,7)                  1.1459         estimate D2E/DX2                !
 ! R7    R(5,8)                  1.4551         estimate D2E/DX2                !
 ! R8    R(8,9)                  1.1388         estimate D2E/DX2                !
 ! R9    R(8,10)                 1.4337         estimate D2E/DX2                !
 ! R10   R(8,11)                 1.5131         estimate D2E/DX2                !
 ! R11   R(10,12)                1.0037         estimate D2E/DX2                !
 ! R12   R(11,13)                1.1155         estimate D2E/DX2                !
 ! R13   R(11,14)                1.0922         estimate D2E/DX2                !
 ! R14   R(11,15)                1.5247         estimate D2E/DX2                !
 ! R15   R(15,16)                1.0705         estimate D2E/DX2                !
 ! R16   R(15,17)                1.1009         estimate D2E/DX2                !
 ! R17   R(15,18)                1.1274         estimate D2E/DX2                !
 ! A1    A(2,1,3)              115.3639         estimate D2E/DX2                !
 ! A2    A(2,1,4)              108.7678         estimate D2E/DX2                !
 ! A3    A(2,1,5)              106.6898         estimate D2E/DX2                !
 ! A4    A(3,1,4)              105.0281         estimate D2E/DX2                !
 ! A5    A(3,1,5)              110.3656         estimate D2E/DX2                !
 ! A6    A(4,1,5)              110.6383         estimate D2E/DX2                !
 ! A7    A(1,5,6)              104.5771         estimate D2E/DX2                !
 ! A8    A(1,5,7)              109.3048         estimate D2E/DX2                !
 ! A9    A(1,5,8)              117.1341         estimate D2E/DX2                !
 ! A10   A(6,5,7)              105.6571         estimate D2E/DX2                !
 ! A11   A(6,5,8)              111.3647         estimate D2E/DX2                !
 ! A12   A(7,5,8)              108.2005         estimate D2E/DX2                !
 ! A13   A(5,8,9)              112.4923         estimate D2E/DX2                !
 ! A14   A(5,8,10)             104.271          estimate D2E/DX2                !
 ! A15   A(5,8,11)             110.7896         estimate D2E/DX2                !
 ! A16   A(9,8,10)             109.4777         estimate D2E/DX2                !
 ! A17   A(9,8,11)             108.8288         estimate D2E/DX2                !
 ! A18   A(10,8,11)            110.9354         estimate D2E/DX2                !
 ! A19   A(8,10,12)            112.0965         estimate D2E/DX2                !
 ! A20   A(8,11,13)            112.8133         estimate D2E/DX2                !
 ! A21   A(8,11,14)             96.4103         estimate D2E/DX2                !
 ! A22   A(8,11,15)            114.8489         estimate D2E/DX2                !
 ! A23   A(13,11,14)           100.6217         estimate D2E/DX2                !
 ! A24   A(13,11,15)           116.9815         estimate D2E/DX2                !
 ! A25   A(14,11,15)           112.2133         estimate D2E/DX2                !
 ! A26   A(11,15,16)           114.5301         estimate D2E/DX2                !
 ! A27   A(11,15,17)           105.551          estimate D2E/DX2                !
 ! A28   A(11,15,18)           107.2772         estimate D2E/DX2                !
 ! A29   A(16,15,17)           112.2877         estimate D2E/DX2                !
 ! A30   A(16,15,18)           114.7726         estimate D2E/DX2                !
 ! A31   A(17,15,18)           101.2122         estimate D2E/DX2                !
 ! D1    D(2,1,5,6)           -176.0786         estimate D2E/DX2                !
 ! D2    D(2,1,5,7)             71.1806         estimate D2E/DX2                !
 ! D3    D(2,1,5,8)            -52.2822         estimate D2E/DX2                !
 ! D4    D(3,1,5,6)             57.8835         estimate D2E/DX2                !
 ! D5    D(3,1,5,7)            -54.8573         estimate D2E/DX2                !
 ! D6    D(3,1,5,8)           -178.3201         estimate D2E/DX2                !
 ! D7    D(4,1,5,6)            -57.9248         estimate D2E/DX2                !
 ! D8    D(4,1,5,7)           -170.6656         estimate D2E/DX2                !
 ! D9    D(4,1,5,8)             65.8716         estimate D2E/DX2                !
 ! D10   D(1,5,8,9)             81.9822         estimate D2E/DX2                !
 ! D11   D(1,5,8,10)          -159.4824         estimate D2E/DX2                !
 ! D12   D(1,5,8,11)           -40.0801         estimate D2E/DX2                !
 ! D13   D(6,5,8,9)           -157.7429         estimate D2E/DX2                !
 ! D14   D(6,5,8,10)           -39.2075         estimate D2E/DX2                !
 ! D15   D(6,5,8,11)            80.1949         estimate D2E/DX2                !
 ! D16   D(7,5,8,9)            -42.0419         estimate D2E/DX2                !
 ! D17   D(7,5,8,10)            76.4936         estimate D2E/DX2                !
 ! D18   D(7,5,8,11)          -164.1041         estimate D2E/DX2                !
 ! D19   D(5,8,10,12)          167.8189         estimate D2E/DX2                !
 ! D20   D(9,8,10,12)          -71.6062         estimate D2E/DX2                !
 ! D21   D(11,8,10,12)          48.5154         estimate D2E/DX2                !
 ! D22   D(5,8,11,13)           79.5433         estimate D2E/DX2                !
 ! D23   D(5,8,11,14)         -176.069          estimate D2E/DX2                !
 ! D24   D(5,8,11,15)          -57.9518         estimate D2E/DX2                !
 ! D25   D(9,8,11,13)          -44.6369         estimate D2E/DX2                !
 ! D26   D(9,8,11,14)           59.7509         estimate D2E/DX2                !
 ! D27   D(9,8,11,15)          177.8681         estimate D2E/DX2                !
 ! D28   D(10,8,11,13)        -165.1439         estimate D2E/DX2                !
 ! D29   D(10,8,11,14)         -60.7562         estimate D2E/DX2                !
 ! D30   D(10,8,11,15)          57.361          estimate D2E/DX2                !
 ! D31   D(8,11,15,16)         -36.1629         estimate D2E/DX2                !
 ! D32   D(8,11,15,17)        -160.1996         estimate D2E/DX2                !
 ! D33   D(8,11,15,18)          92.4675         estimate D2E/DX2                !
 ! D34   D(13,11,15,16)       -171.8266         estimate D2E/DX2                !
 ! D35   D(13,11,15,17)         64.1368         estimate D2E/DX2                !
 ! D36   D(13,11,15,18)        -43.1962         estimate D2E/DX2                !
 ! D37   D(14,11,15,16)         72.6218         estimate D2E/DX2                !
 ! D38   D(14,11,15,17)        -51.4148         estimate D2E/DX2                !
 ! D39   D(14,11,15,18)       -158.7478         estimate D2E/DX2                !
 --------------------------------------------------------------------------------
 Trust Radius=3.00D-01 FncErr=1.00D-07 GrdErr=1.00D-07 EigMax=2.50D+02 EigMin=1.00D-04
 Number of steps in this run=     97 maximum allowed number of steps=    108.
 GradGradGradGradGradGradGradGradGradGradGradGradGradGradGradGradGradGrad

 Leave Link  103 at Wed Sep  7 15:33:24 2022, MaxMem=   131072000 cpu:               0.0 elap:               0.0
 (Enter /opt/g16/l202.exe)
                          Input orientation:                          
 ---------------------------------------------------------------------
 Center     Atomic      Atomic             Coordinates (Angstroms)
 Number     Number       Type             X           Y           Z
 ---------------------------------------------------------------------
      1          6           0        5.451000    9.809000   13.862000
      2          1           0        4.716000    9.038000   13.965000
      3          1           0        6.425000    9.604000   14.348000
      4          1           0        5.678000    9.930000   12.829000
      5          6           0        4.837000   11.073000   14.425000
      6          1           0        5.625000   11.891000   14.228000
      7          1           0        4.763000   10.983000   15.565000
      8          6           0        3.531000   11.461000   13.914000
      9          1           0        2.680000   10.902000   14.424000
     10          8           0        3.434000   12.859000   14.217000
     11          6           0        3.446000   11.224000   12.422000
     12          1           0        2.663000   13.295000   13.745000
     13          1           0        3.253000   10.156000   12.164000
     14          1           0        2.448000   11.647000   12.288000
     15          6           0        4.498000   11.956000   11.596000
     16          1           0        4.751000   12.930000   11.961000
     17          1           0        4.100000   11.985000   10.570000
     18          1           0        5.373000   11.256000   11.472000
 ---------------------------------------------------------------------
                    Distance matrix (angstroms):
                    1          2          3          4          5
     1  C    0.000000
     2  H    1.070175   0.000000
     3  H    1.107654   1.840578   0.000000
     4  H    1.064546   1.735397   1.723846   0.000000
     5  C    1.513823   2.089848   2.164633   2.135637   0.000000
     6  H    2.121074   3.005837   2.425854   2.409467   1.152769
     7  H    2.179869   2.518975   2.478906   3.071112   1.145939
     8  C    2.533418   2.697731   3.465839   2.851455   1.455095
     9  H    3.031325   2.798298   3.964291   3.532253   2.163768
    10  O    3.673801   4.038201   4.422473   3.942223   2.280673
    11  C    2.845321   2.961814   3.899784   2.611878   2.443295
    12  H    4.465292   4.731306   5.304690   4.610044   3.182131
    13  H    2.799074   2.575635   3.890520   2.524664   2.908963
    14  H    3.856647   3.842269   4.922802   3.697793   3.256312
    15  C    3.263828   3.764892   4.101065   2.649031   2.982927
    16  H    3.720812   4.377774   4.422931   3.257722   3.086607
    17  H    4.171024   4.537652   5.034687   3.437469   4.029384
    18  H    2.794994   3.400915   3.479538   1.921653   3.006825
                    6          7          8          9         10
     6  H    0.000000
     7  H    1.831687   0.000000
     8  C    2.160632   2.114736   0.000000
     9  H    3.112806   2.376411   1.138763   0.000000
    10  O    2.395334   2.665093   1.433744   2.107419   0.000000
    11  C    2.907674   3.416287   1.513096   2.167589   2.428043
    12  H    3.313299   3.614933   2.036060   2.487525   1.003654
    13  H    3.591198   3.811933   2.200638   2.447947   3.399085
    14  H    3.730478   4.066798   1.962488   2.274059   2.482374
    15  C    2.863875   4.095109   2.559929   3.523297   2.969368
    16  H    2.642477   4.096312   2.731404   3.803708   2.613248
    17  H    3.964269   5.137470   3.432299   4.247659   3.808942
    18  H    2.839413   4.147201   3.065673   4.011467   3.723487
                   11         12         13         14         15
    11  C    0.000000
    12  H    2.579236   0.000000
    13  H    1.115543   3.563844   0.000000
    14  H    1.092195   2.210199   1.698965   0.000000
    15  C    1.524731   3.127035   2.261117   2.185599   0.000000
    16  H    2.196812   2.770492   3.159160   2.656469   1.070472
    17  H    2.106357   3.723130   2.569725   2.407254   1.100873
    18  H    2.148686   4.082665   2.486617   3.061758   1.127387
                   16         17         18
    16  H    0.000000
    17  H    1.803249   0.000000
    18  H    1.851562   1.722084   0.000000
 Stoichiometry    C5H12O
 Framework group  C1[X(C5H12O)]
 Deg. of freedom    48
 Full point group                 C1      NOp   1
 Largest Abelian subgroup         C1      NOp   1
 Largest concise Abelian subgroup C1      NOp   1
                         Standard orientation:                         
 ---------------------------------------------------------------------
 Center     Atomic      Atomic             Coordinates (Angstroms)
 Number     Number       Type             X           Y           Z
 ---------------------------------------------------------------------
      1          6           0       -2.035827    0.374459    0.039403
      2          1           0       -2.205066    0.303708    1.093740
      3          1           0       -2.937866    0.266298   -0.594256
      4          1           0       -1.657371    1.344424   -0.182404
      5          6           0       -1.016283   -0.688746   -0.309575
      6          1           0       -0.805546   -0.531366   -1.431938
      7          1           0       -1.504057   -1.722513   -0.228473
      8          6           0        0.216098   -0.705750    0.463891
      9          1           0        0.097491   -1.243583    1.460610
     10          8           0        1.141208   -1.426345   -0.361056
     11          6           0        0.706463    0.701876    0.723870
     12          1           0        2.085464   -1.342745   -0.031338
     13          1           0        0.163490    1.201432    1.560567
     14          1           0        1.633219    0.417210    1.226839
     15          6           0        0.962162    1.532877   -0.528672
     16          1           0        1.360228    0.980639   -1.354799
     17          1           0        1.630189    2.348087   -0.210721
     18          1           0        0.014478    2.100878   -0.752884
 ---------------------------------------------------------------------
 Rotational constants (GHZ):           3.9289503           3.1695897           2.1725029
 Leave Link  202 at Wed Sep  7 15:33:24 2022, MaxMem=   131072000 cpu:               0.0 elap:               0.0
 (Enter /opt/g16/l301.exe)
 Standard basis: VSTO-6G (5D, 7F)
 Ernie: Thresh=  0.10000D-02 Tol=  0.10000D-05 Strict=F.
  NNHCO=     0 NNPyr=     0 NCTC=     0               EPep=         0.000000000
    EC=       131.772280885  ECS=         2.207723662   EG=         0.571166203
   EHC=         0.000000000  EAt=       -36.836480110  AtH=         2.452923921
 EPDDG=         0.000000000  ECC=       134.551170749 EAtT=        39.289404030
 There are    36 symmetry adapted cartesian basis functions of A   symmetry.
 There are    36 symmetry adapted basis functions of A   symmetry.
    36 basis functions,   216 primitive gaussians,    36 cartesian basis functions
    19 alpha electrons       19 beta electrons
       nuclear repulsion energy       173.8405747796 Hartrees.
 IExCor=    0 DFT=F Ex=HF Corr=None ExCW=0 ScaHFX=  1.000000
 ScaDFX=  1.000000  1.000000  1.000000  1.000000 ScalE2=  1.000000  1.000000
 IRadAn=      5 IRanWt=     -1 IRanGd=            0 ICorTp=0 IEmpDi=  4
 Integral buffers will be    131072 words long.
 Regular integral format.
 Two-electron integral symmetry is turned off.
 Leave Link  301 at Wed Sep  7 15:33:24 2022, MaxMem=   131072000 cpu:               0.0 elap:               0.0
 (Enter /opt/g16/l302.exe)
 Do NDO integrals.
 NPDir=0 NMtPBC=     1 NCelOv=     1 NCel=       1 NClECP=     1 NCelD=      1
         NCelK=      1 NCelE2=     1 NClLst=     1 CellRange=     0.0.
 One-electron integrals computed using PRISM.
 NBasis=    36 RedAO= F EigKep=  0.00D+00  NBF=    36
 NBsUse=    36 1.00D-04 EigRej=  0.00D+00 NBFU=    36
 Leave Link  302 at Wed Sep  7 15:33:24 2022, MaxMem=   131072000 cpu:               0.0 elap:               0.0
 (Enter /opt/g16/l303.exe)
 DipDrv:  MaxL=1.
 Leave Link  303 at Wed Sep  7 15:33:24 2022, MaxMem=   131072000 cpu:               0.0 elap:               0.0
 (Enter /opt/g16/l401.exe)
 Simple Huckel Guess.
 JPrj=0 DoOrth=F DoCkMO=F.
 Leave Link  401 at Wed Sep  7 15:33:24 2022, MaxMem=   131072000 cpu:               0.0 elap:               0.0
 (Enter /opt/g16/l502.exe)
 Keep J ints in memory in canonical form, NReq=862161.
 FoFCou: FMM=F IPFlag=           0 FMFlag=           0 FMFlg1=           0
         NFxFlg=           0 DoJE=F BraDBF=F KetDBF=F FulRan=T
         wScrn=  0.000000 ICntrl=       600 IOpCl=  2 I1Cent=           0 NGrid=           0
         NMat0=    1 NMatS0=     72 NMatT0=    0 NMatD0=    1 NMtDS0=    0 NMtDT0=    0
 Symmetry not used in FoFCou.
 Two-electron integral symmetry not used.
 Closed shell SCF:
 Using DIIS extrapolation, IDIIS=  1040.
 Overlap will be assumed to be unity.
 NGot=   131072000 LenX=   131006778 LenY=   131005041
 Requested convergence on RMS density matrix=1.00D-08 within 128 cycles.
 Requested convergence on MAX density matrix=1.00D-06.
 Requested convergence on             energy=1.00D-06.
 No special actions if energy rises.

 Cycle   1  Pass 1  IDiag  1:
 E= 0.195304393764957    
 DIIS: error= 7.02D-02 at cycle   1 NSaved=   1.
 NSaved= 1 IEnMin= 1 EnMin= 0.195304393764957     IErMin= 1 ErrMin= 7.02D-02
 ErrMax= 7.02D-02  0.00D+00 EMaxC= 1.00D-01 BMatC= 1.06D-01 BMatP= 1.06D-01
 IDIUse=3 WtCom= 2.98D-01 WtEn= 7.02D-01
 Coeff-Com:  0.100D+01
 Coeff-En:   0.100D+01
 Coeff:      0.100D+01
 GapD=    2.000 DampG=2.000 DampE=0.500 DampFc=1.0000 IDamp=-1.
 RMSDP=1.27D-02 MaxDP=1.50D-01              OVMax= 0.00D+00

 Cycle   2  Pass 1  IDiag  1:
 E=-0.620331297440373E-01 Delta-E=       -0.257337523509 Rises=F Damp=F
 DIIS: error= 1.43D-02 at cycle   2 NSaved=   2.
 NSaved= 2 IEnMin= 2 EnMin=-0.620331297440373E-01 IErMin= 2 ErrMin= 1.43D-02
 ErrMax= 1.43D-02  0.00D+00 EMaxC= 1.00D-01 BMatC= 7.09D-03 BMatP= 1.06D-01
 IDIUse=3 WtCom= 8.57D-01 WtEn= 1.43D-01
 Coeff-Com: -0.307D+00 0.131D+01
 Coeff-En:   0.000D+00 0.100D+01
 Coeff:     -0.263D+00 0.126D+01
 RMSDP=4.74D-03 MaxDP=4.60D-02 DE=-2.57D-01 OVMax= 0.00D+00

 Cycle   3  Pass 1  IDiag  3:
 E=-0.845452069085013E-01 Delta-E=       -0.022512077164 Rises=F Damp=F
 DIIS: error= 3.69D-03 at cycle   3 NSaved=   3.
 NSaved= 3 IEnMin= 3 EnMin=-0.845452069085013E-01 IErMin= 3 ErrMin= 3.69D-03
 ErrMax= 3.69D-03  0.00D+00 EMaxC= 1.00D-01 BMatC= 2.41D-04 BMatP= 7.09D-03
 IDIUse=3 WtCom= 9.63D-01 WtEn= 3.69D-02
 Coeff-Com:  0.150D+00-0.729D+00 0.158D+01
 Coeff-En:   0.000D+00 0.000D+00 0.100D+01
 Coeff:      0.144D+00-0.702D+00 0.156D+01
 Gap=     0.510 Goal=   None    Shift=    0.000
 RMSDP=1.46D-03 MaxDP=1.84D-02 DE=-2.25D-02 OVMax= 1.44D-02

 Cycle   4  Pass 1  IDiag  3:
 E=-0.858860325376440E-01 Delta-E=       -0.001340825629 Rises=F Damp=F
 DIIS: error= 7.44D-04 at cycle   4 NSaved=   4.
 NSaved= 4 IEnMin= 4 EnMin=-0.858860325376440E-01 IErMin= 4 ErrMin= 7.44D-04
 ErrMax= 7.44D-04  0.00D+00 EMaxC= 1.00D-01 BMatC= 9.99D-06 BMatP= 2.41D-04
 IDIUse=3 WtCom= 9.93D-01 WtEn= 7.44D-03
 Coeff-Com: -0.300D-01 0.163D+00-0.537D+00 0.140D+01
 Coeff-En:   0.000D+00 0.000D+00 0.000D+00 0.100D+01
 Coeff:     -0.298D-01 0.162D+00-0.533D+00 0.140D+01
 Gap=     0.513 Goal=   None    Shift=    0.000
 RMSDP=3.43D-04 MaxDP=3.86D-03 DE=-1.34D-03 OVMax= 3.20D-03

 Cycle   5  Pass 1  IDiag  3:
 E=-0.859463865661212E-01 Delta-E=       -0.000060354028 Rises=F Damp=F
 DIIS: error= 1.09D-04 at cycle   5 NSaved=   5.
 NSaved= 5 IEnMin= 5 EnMin=-0.859463865661212E-01 IErMin= 5 ErrMin= 1.09D-04
 ErrMax= 1.09D-04  0.00D+00 EMaxC= 1.00D-01 BMatC= 3.19D-07 BMatP= 9.99D-06
 IDIUse=3 WtCom= 9.99D-01 WtEn= 1.09D-03
 Coeff-Com:  0.179D-02-0.130D-01 0.749D-01-0.359D+00 0.130D+01
 Coeff-En:   0.000D+00 0.000D+00 0.000D+00 0.000D+00 0.100D+01
 Coeff:      0.179D-02-0.130D-01 0.748D-01-0.359D+00 0.130D+01
 Gap=     0.513 Goal=   None    Shift=    0.000
 RMSDP=5.43D-05 MaxDP=5.37D-04 DE=-6.04D-05 OVMax= 4.37D-04

 Cycle   6  Pass 1  IDiag  3:
 E=-0.859481880144415E-01 Delta-E=       -0.000001801448 Rises=F Damp=F
 DIIS: error= 3.20D-05 at cycle   6 NSaved=   6.
 NSaved= 6 IEnMin= 6 EnMin=-0.859481880144415E-01 IErMin= 6 ErrMin= 3.20D-05
 ErrMax= 3.20D-05  0.00D+00 EMaxC= 1.00D-01 BMatC= 2.58D-08 BMatP= 3.19D-07
 IDIUse=1 WtCom= 1.00D+00 WtEn= 0.00D+00
 Coeff-Com: -0.261D-03 0.307D-02-0.258D-01 0.151D+00-0.728D+00 0.160D+01
 Coeff:     -0.261D-03 0.307D-02-0.258D-01 0.151D+00-0.728D+00 0.160D+01
 Gap=     0.513 Goal=   None    Shift=    0.000
 RMSDP=1.75D-05 MaxDP=2.14D-04 DE=-1.80D-06 OVMax= 1.56D-04

 Cycle   7  Pass 1  IDiag  3:
 E=-0.859483522689857E-01 Delta-E=       -0.000000164255 Rises=F Damp=F
 DIIS: error= 5.59D-06 at cycle   7 NSaved=   7.
 NSaved= 7 IEnMin= 7 EnMin=-0.859483522689857E-01 IErMin= 7 ErrMin= 5.59D-06
 ErrMax= 5.59D-06  0.00D+00 EMaxC= 1.00D-01 BMatC= 1.65D-09 BMatP= 2.58D-08
 IDIUse=1 WtCom= 1.00D+00 WtEn= 0.00D+00
 Coeff-Com:  0.146D-03-0.162D-02 0.133D-01-0.773D-01 0.388D+00-0.102D+01
 Coeff-Com:  0.169D+01
 Coeff:      0.146D-03-0.162D-02 0.133D-01-0.773D-01 0.388D+00-0.102D+01
 Coeff:      0.169D+01
 Gap=     0.513 Goal=   None    Shift=    0.000
 RMSDP=4.96D-06 MaxDP=5.40D-05 DE=-1.64D-07 OVMax= 3.61D-05

 Cycle   8  Pass 1  IDiag  3:
 E=-0.859483631976445E-01 Delta-E=       -0.000000010929 Rises=F Damp=F
 DIIS: error= 9.98D-07 at cycle   8 NSaved=   8.
 NSaved= 8 IEnMin= 8 EnMin=-0.859483631976445E-01 IErMin= 8 ErrMin= 9.98D-07
 ErrMax= 9.98D-07  0.00D+00 EMaxC= 1.00D-01 BMatC= 5.36D-11 BMatP= 1.65D-09
 IDIUse=1 WtCom= 1.00D+00 WtEn= 0.00D+00
 Coeff-Com: -0.512D-04 0.608D-03-0.516D-02 0.303D-01-0.154D+00 0.418D+00
 Coeff-Com: -0.801D+00 0.151D+01
 Coeff:     -0.512D-04 0.608D-03-0.516D-02 0.303D-01-0.154D+00 0.418D+00
 Coeff:     -0.801D+00 0.151D+01
 Gap=     0.513 Goal=   None    Shift=    0.000
 RMSDP=8.33D-07 MaxDP=6.97D-06 DE=-1.09D-08 OVMax= 8.45D-06

 Cycle   9  Pass 1  IDiag  3:
 E=-0.859483635582308E-01 Delta-E=       -0.000000000361 Rises=F Damp=F
 DIIS: error= 3.34D-07 at cycle   9 NSaved=   9.
 NSaved= 9 IEnMin= 9 EnMin=-0.859483635582308E-01 IErMin= 9 ErrMin= 3.34D-07
 ErrMax= 3.34D-07  0.00D+00 EMaxC= 1.00D-01 BMatC= 4.15D-12 BMatP= 5.36D-11
 IDIUse=1 WtCom= 1.00D+00 WtEn= 0.00D+00
 Coeff-Com:  0.208D-04-0.274D-03 0.243D-02-0.145D-01 0.745D-01-0.204D+00
 Coeff-Com:  0.407D+00-0.952D+00 0.169D+01
 Coeff:      0.208D-04-0.274D-03 0.243D-02-0.145D-01 0.745D-01-0.204D+00
 Coeff:      0.407D+00-0.952D+00 0.169D+01
 Gap=     0.513 Goal=   None    Shift=    0.000
 RMSDP=2.61D-07 MaxDP=2.39D-06 DE=-3.61D-10 OVMax= 2.76D-06

 Cycle  10  Pass 1  IDiag  3:
 E=-0.859483635887557E-01 Delta-E=       -0.000000000031 Rises=F Damp=F
 DIIS: error= 9.23D-08 at cycle  10 NSaved=  10.
 NSaved=10 IEnMin=10 EnMin=-0.859483635887557E-01 IErMin=10 ErrMin= 9.23D-08
 ErrMax= 9.23D-08  0.00D+00 EMaxC= 1.00D-01 BMatC= 2.36D-13 BMatP= 4.15D-12
 IDIUse=1 WtCom= 1.00D+00 WtEn= 0.00D+00
 Coeff-Com: -0.790D-05 0.111D-03-0.102D-02 0.609D-02-0.316D-01 0.871D-01
 Coeff-Com: -0.175D+00 0.428D+00-0.924D+00 0.161D+01
 Coeff:     -0.790D-05 0.111D-03-0.102D-02 0.609D-02-0.316D-01 0.871D-01
 Coeff:     -0.175D+00 0.428D+00-0.924D+00 0.161D+01
 Gap=     0.513 Goal=   None    Shift=    0.000
 RMSDP=6.42D-08 MaxDP=6.37D-07 DE=-3.05D-11 OVMax= 7.41D-07

 Cycle  11  Pass 1  IDiag  3:
 E=-0.859483635906031E-01 Delta-E=       -0.000000000002 Rises=F Damp=F
 DIIS: error= 1.67D-08 at cycle  11 NSaved=  11.
 NSaved=11 IEnMin=11 EnMin=-0.859483635906031E-01 IErMin=11 ErrMin= 1.67D-08
 ErrMax= 1.67D-08  0.00D+00 EMaxC= 1.00D-01 BMatC= 1.16D-14 BMatP= 2.36D-13
 IDIUse=1 WtCom= 1.00D+00 WtEn= 0.00D+00
 Coeff-Com:  0.210D-05-0.294D-04 0.267D-03-0.160D-02 0.833D-02-0.230D-01
 Coeff-Com:  0.464D-01-0.115D+00 0.267D+00-0.627D+00 0.144D+01
 Coeff:      0.210D-05-0.294D-04 0.267D-03-0.160D-02 0.833D-02-0.230D-01
 Coeff:      0.464D-01-0.115D+00 0.267D+00-0.627D+00 0.144D+01
 Gap=     0.513 Goal=   None    Shift=    0.000
 RMSDP=1.29D-08 MaxDP=1.27D-07 DE=-1.85D-12 OVMax= 1.64D-07

 Cycle  12  Pass 1  IDiag  3:
 E=-0.859483635905178E-01 Delta-E=        0.000000000000 Rises=F Damp=F
 DIIS: error= 4.91D-09 at cycle  12 NSaved=  12.
 NSaved=12 IEnMin=11 EnMin=-0.859483635906031E-01 IErMin=12 ErrMin= 4.91D-09
 ErrMax= 4.91D-09  0.00D+00 EMaxC= 1.00D-01 BMatC= 8.81D-16 BMatP= 1.16D-14
 IDIUse=1 WtCom= 1.00D+00 WtEn= 0.00D+00
 Coeff-Com: -0.315D-06 0.447D-05-0.410D-04 0.246D-03-0.130D-02 0.361D-02
 Coeff-Com: -0.733D-02 0.181D-01-0.474D-01 0.154D+00-0.628D+00 0.151D+01
 Coeff:     -0.315D-06 0.447D-05-0.410D-04 0.246D-03-0.130D-02 0.361D-02
 Coeff:     -0.733D-02 0.181D-01-0.474D-01 0.154D+00-0.628D+00 0.151D+01
 Gap=     0.513 Goal=   None    Shift=    0.000
 RMSDP=3.73D-09 MaxDP=3.78D-08 DE= 8.53D-14 OVMax= 5.30D-08

 Cycle  13  Pass 2  IDiag  1:
 SCF Done:  E(RPM3) = -0.859483635905E-01 A.U. after   13 cycles
            NFock= 12  Conv=0.37D-08     -V/T= 0.9986
 KE=-5.969198382480D+01 PE=-2.621397150241D+02 EE= 1.479051757057D+02
 Leave Link  502 at Wed Sep  7 15:33:24 2022, MaxMem=   131072000 cpu:               0.0 elap:               0.0
 (Enter /opt/g16/l601.exe)
 Copying SCF densities to generalized density rwf, IOpCl= 0 IROHF=0.

 **********************************************************************

            Population analysis using the SCF density.

 **********************************************************************

 Orbital symmetries:
       Occupied  (A) (A) (A) (A) (A) (A) (A) (A) (A) (A) (A) (A)
                 (A) (A) (A) (A) (A) (A) (A)
       Virtual   (A) (A) (A) (A) (A) (A) (A) (A) (A) (A) (A) (A)
                 (A) (A) (A) (A) (A)
 The electronic state is 1-A.
 Alpha  occ. eigenvalues --   -1.49889  -1.25385  -1.15961  -0.96445  -0.85457
 Alpha  occ. eigenvalues --   -0.69602  -0.63814  -0.61650  -0.61144  -0.55264
 Alpha  occ. eigenvalues --   -0.51474  -0.50237  -0.49379  -0.48586  -0.47924
 Alpha  occ. eigenvalues --   -0.44341  -0.42798  -0.41752  -0.39964
 Alpha virt. eigenvalues --    0.11265   0.11926   0.12905   0.13422   0.13926
 Alpha virt. eigenvalues --    0.14740   0.15142   0.15323   0.15863   0.16208
 Alpha virt. eigenvalues --    0.16647   0.17368   0.17633   0.17981   0.18810
 Alpha virt. eigenvalues --    0.19258   0.21140
          Condensed to atoms (all electrons):
               1          2          3          4          5          6
     1  C    4.108905   0.000000   0.000000   0.000000   0.000000   0.000000
     2  H    0.000000   0.960492   0.000000   0.000000   0.000000   0.000000
     3  H    0.000000   0.000000   0.953750   0.000000   0.000000   0.000000
     4  H    0.000000   0.000000   0.000000   0.958241   0.000000   0.000000
     5  C    0.000000   0.000000   0.000000   0.000000   4.137343   0.000000
     6  H    0.000000   0.000000   0.000000   0.000000   0.000000   0.930119
     7  H    0.000000   0.000000   0.000000   0.000000   0.000000   0.000000
     8  C    0.000000   0.000000   0.000000   0.000000   0.000000   0.000000
     9  H    0.000000   0.000000   0.000000   0.000000   0.000000   0.000000
    10  O    0.000000   0.000000   0.000000   0.000000   0.000000   0.000000
    11  C    0.000000   0.000000   0.000000   0.000000   0.000000   0.000000
    12  H    0.000000   0.000000   0.000000   0.000000   0.000000   0.000000
    13  H    0.000000   0.000000   0.000000   0.000000   0.000000   0.000000
    14  H    0.000000   0.000000   0.000000   0.000000   0.000000   0.000000
    15  C    0.000000   0.000000   0.000000   0.000000   0.000000   0.000000
    16  H    0.000000   0.000000   0.000000   0.000000   0.000000   0.000000
    17  H    0.000000   0.000000   0.000000   0.000000   0.000000   0.000000
    18  H    0.000000   0.000000   0.000000   0.000000   0.000000   0.000000
               7          8          9         10         11         12
     1  C    0.000000   0.000000   0.000000   0.000000   0.000000   0.000000
     2  H    0.000000   0.000000   0.000000   0.000000   0.000000   0.000000
     3  H    0.000000   0.000000   0.000000   0.000000   0.000000   0.000000
     4  H    0.000000   0.000000   0.000000   0.000000   0.000000   0.000000
     5  C    0.000000   0.000000   0.000000   0.000000   0.000000   0.000000
     6  H    0.000000   0.000000   0.000000   0.000000   0.000000   0.000000
     7  H    0.943552   0.000000   0.000000   0.000000   0.000000   0.000000
     8  C    0.000000   3.904076   0.000000   0.000000   0.000000   0.000000
     9  H    0.000000   0.000000   0.953843   0.000000   0.000000   0.000000
    10  O    0.000000   0.000000   0.000000   6.327442   0.000000   0.000000
    11  C    0.000000   0.000000   0.000000   0.000000   4.148939   0.000000
    12  H    0.000000   0.000000   0.000000   0.000000   0.000000   0.812946
    13  H    0.000000   0.000000   0.000000   0.000000   0.000000   0.000000
    14  H    0.000000   0.000000   0.000000   0.000000   0.000000   0.000000
    15  C    0.000000   0.000000   0.000000   0.000000   0.000000   0.000000
    16  H    0.000000   0.000000   0.000000   0.000000   0.000000   0.000000
    17  H    0.000000   0.000000   0.000000   0.000000   0.000000   0.000000
    18  H    0.000000   0.000000   0.000000   0.000000   0.000000   0.000000
              13         14         15         16         17         18
     1  C    0.000000   0.000000   0.000000   0.000000   0.000000   0.000000
     2  H    0.000000   0.000000   0.000000   0.000000   0.000000   0.000000
     3  H    0.000000   0.000000   0.000000   0.000000   0.000000   0.000000
     4  H    0.000000   0.000000   0.000000   0.000000   0.000000   0.000000
     5  C    0.000000   0.000000   0.000000   0.000000   0.000000   0.000000
     6  H    0.000000   0.000000   0.000000   0.000000   0.000000   0.000000
     7  H    0.000000   0.000000   0.000000   0.000000   0.000000   0.000000
     8  C    0.000000   0.000000   0.000000   0.000000   0.000000   0.000000
     9  H    0.000000   0.000000   0.000000   0.000000   0.000000   0.000000
    10  O    0.000000   0.000000   0.000000   0.000000   0.000000   0.000000
    11  C    0.000000   0.000000   0.000000   0.000000   0.000000   0.000000
    12  H    0.000000   0.000000   0.000000   0.000000   0.000000   0.000000
    13  H    0.929029   0.000000   0.000000   0.000000   0.000000   0.000000
    14  H    0.000000   0.974115   0.000000   0.000000   0.000000   0.000000
    15  C    0.000000   0.000000   4.098619   0.000000   0.000000   0.000000
    16  H    0.000000   0.000000   0.000000   0.930013   0.000000   0.000000
    17  H    0.000000   0.000000   0.000000   0.000000   0.972068   0.000000
    18  H    0.000000   0.000000   0.000000   0.000000   0.000000   0.956509
 Mulliken charges:
               1
     1  C   -0.108905
     2  H    0.039508
     3  H    0.046250
     4  H    0.041759
     5  C   -0.137343
     6  H    0.069881
     7  H    0.056448
     8  C    0.095924
     9  H    0.046157
    10  O   -0.327442
    11  C   -0.148939
    12  H    0.187054
    13  H    0.070971
    14  H    0.025885
    15  C   -0.098619
    16  H    0.069987
    17  H    0.027932
    18  H    0.043491
 Sum of Mulliken charges =   0.00000
 Mulliken charges with hydrogens summed into heavy atoms:
               1
     1  C    0.018612
     5  C   -0.011014
     8  C    0.142081
    10  O   -0.140388
    11  C   -0.052082
    15  C    0.042792
 Charge=              0.0000 electrons
 Dipole moment (field-independent basis, Debye):
    X=              0.3640    Y=              0.9608    Z=              1.0634  Tot=              1.4787
 N-N= 1.738405747796D+02 E-N=-2.621397150771D+02  KE=-5.969198382480D+01
 Leave Link  601 at Wed Sep  7 15:33:24 2022, MaxMem=   131072000 cpu:               0.0 elap:               0.0
 (Enter /opt/g16/l701.exe)
 ... and contract with generalized density number  0.
 Compute integral first derivatives.
 Leave Link  701 at Wed Sep  7 15:33:24 2022, MaxMem=   131072000 cpu:               0.0 elap:               0.0
 (Enter /opt/g16/l702.exe)
 L702 exits ... SP integral derivatives will be done elsewhere.
 Leave Link  702 at Wed Sep  7 15:33:24 2022, MaxMem=   131072000 cpu:               0.0 elap:               0.0
 (Enter /opt/g16/l703.exe)
 Integral derivatives from FoFJK, PRISM(SPDF).
 Compute integral first derivatives, UseDBF=F ICtDFT=           0.
 Calling FoFJK, ICntrl=      2127 FMM=F ISym2X=0 I1Cent= 0 IOpClX= 0 NMat=1 NMatS=1 NMatT=0.
 FoFJK:  IHMeth= 9 ICntrl=    2127 DoSepK=F KAlg= 0 I1Cent=           0 FoldK=F
 IRaf=         0 NMat=       1 IRICut=       1 DoRegI=T DoRafI=F ISym2E= 0 IDoP0=3 IntGTp=3.
 FoFCou: FMM=F IPFlag=           0 FMFlag=      100000 FMFlg1=         800
         NFxFlg=           0 DoJE=F BraDBF=F KetDBF=F FulRan=T
         wScrn=  0.000000 ICntrl=      2127 IOpCl=  0 I1Cent=           0 NGrid=           0
         NMat0=    1 NMatS0=      1 NMatT0=    0 NMatD0=    1 NMtDS0=    0 NMtDT0=    0
 Symmetry not used in FoFCou.
 Leave Link  703 at Wed Sep  7 15:33:24 2022, MaxMem=   131072000 cpu:               0.0 elap:               0.0
 (Enter /opt/g16/l716.exe)
 Dipole        = 1.43220716D-01 3.78025692D-01 4.18389984D-01
 ***** Axes restored to original set *****
 -------------------------------------------------------------------
 Center     Atomic                   Forces (Hartrees/Bohr)
 Number     Number              X              Y              Z
 -------------------------------------------------------------------
      1        6           0.002724783    0.013993445    0.021939705
      2        1          -0.003637258   -0.020891886    0.003587098
      3        1          -0.009422770   -0.005269893    0.002077928
      4        1           0.004337960    0.002906907   -0.028967011
      5        6           0.071695800   -0.001227562    0.047766055
      6        1          -0.016187666   -0.010940939    0.007065147
      7        1           0.005146042    0.002180362   -0.018887214
      8        6          -0.036475109    0.014696881   -0.010514141
      9        1           0.007562417    0.005760166   -0.002578878
     10        8          -0.037781167    0.023094168   -0.013455472
     11        6          -0.019678829    0.012232891   -0.005887255
     12        1           0.036304947   -0.030211860    0.020358949
     13        1           0.014194357    0.001738155    0.000327393
     14        1          -0.013194562    0.007975147   -0.019153703
     15        6          -0.009143082   -0.051942783   -0.017878680
     16        1           0.005864337    0.010510866    0.004269591
     17        1           0.000981205    0.010320009   -0.000294343
     18        1          -0.003291407    0.015075928    0.010224832
 -------------------------------------------------------------------
 Cartesian Forces:  Max     0.071695800 RMS     0.020190687
 Leave Link  716 at Wed Sep  7 15:33:24 2022, MaxMem=   131072000 cpu:               0.0 elap:               0.0
 (Enter /opt/g16/l103.exe)

 GradGradGradGradGradGradGradGradGradGradGradGradGradGradGradGradGradGrad
 Berny optimization.
 FormGI is forming the generalized inverse of G from B-inverse, IUseBI=4.
 Internal  Forces:  Max     0.066333810 RMS     0.012191703
 Search for a local minimum.
 Step number   1 out of a maximum of   97
 All quantities printed in internal units (Hartrees-Bohrs-Radians)
 RMS Force = .12192D-01 SwitMx=.10000D-02 MixMth= 1
 Mixed Optimization -- RFO/linear search
 Second derivative matrix not updated -- first step.
 ITU=  0
     Eigenvalues ---    0.00439   0.00583   0.00593   0.01245   0.01360
     Eigenvalues ---    0.02868   0.03617   0.04780   0.04913   0.05112
     Eigenvalues ---    0.05174   0.05559   0.05853   0.06100   0.06475
     Eigenvalues ---    0.07523   0.08977   0.09359   0.12858   0.13005
     Eigenvalues ---    0.16000   0.16000   0.16000   0.16000   0.16000
     Eigenvalues ---    0.16000   0.16000   0.16194   0.19362   0.21707
     Eigenvalues ---    0.21957   0.28461   0.29073   0.29735   0.29915
     Eigenvalues ---    0.30826   0.30969   0.31041   0.32020   0.32850
     Eigenvalues ---    0.33586   0.34560   0.37171   0.37208   0.37585
     Eigenvalues ---    0.37928   0.40456   0.47052
 RFO step:  Lambda=-4.29883138D-02 EMin= 4.38806508D-03
 Linear search not attempted -- first point.
 Maximum step size (   0.300) exceeded in Quadratic search.
    -- Step size scaled by   0.853
 Iteration  1 RMS(Cart)=  0.06161194 RMS(Int)=  0.00181180
 Iteration  2 RMS(Cart)=  0.00194116 RMS(Int)=  0.00059306
 Iteration  3 RMS(Cart)=  0.00000400 RMS(Int)=  0.00059304
 Iteration  4 RMS(Cart)=  0.00000000 RMS(Int)=  0.00059304
 ITry= 1 IFail=0 DXMaxC= 2.38D-01 DCOld= 1.00D+10 DXMaxT= 3.00D-01 DXLimC= 3.00D+00 Rises=F
 Variable       Old X    -DE/DX   Delta X   Delta X   Delta X     New X
                                 (Linear)    (Quad)   (Total)
    R1        2.02234   0.01789   0.00000   0.03679   0.03679   2.05912
    R2        2.09316  -0.00640   0.00000  -0.01470  -0.01470   2.07847
    R3        2.01170   0.02936   0.00000   0.05933   0.05933   2.07104
    R4        2.86071   0.00581   0.00000   0.01405   0.01405   2.87476
    R5        2.17842  -0.02004   0.00000  -0.05219  -0.05219   2.12623
    R6        2.16551  -0.01929   0.00000  -0.04933  -0.04933   2.11618
    R7        2.74973   0.06633   0.00000   0.13513   0.13513   2.88487
    R8        2.15195  -0.00963   0.00000  -0.02415  -0.02415   2.12780
    R9        2.70938  -0.00538   0.00000  -0.01026  -0.01026   2.69912
   R10        2.85934   0.02843   0.00000   0.06865   0.06865   2.92799
   R11        1.89663  -0.05059   0.00000  -0.08406  -0.08406   1.81257
   R12        2.10807  -0.00420   0.00000  -0.00986  -0.00986   2.09821
   R13        2.06395   0.01750   0.00000   0.03842   0.03842   2.10236
   R14        2.88132  -0.00956   0.00000  -0.02385  -0.02385   2.85748
   R15        2.02290   0.01241   0.00000   0.02552   0.02552   2.04842
   R16        2.08035   0.00019   0.00000   0.00043   0.00043   2.08078
   R17        2.13045  -0.01304   0.00000  -0.03168  -0.03168   2.09878
    A1        2.01348  -0.01063   0.00000  -0.05687  -0.05669   1.95679
    A2        1.89836  -0.00345   0.00000  -0.00691  -0.00738   1.89098
    A3        1.86209   0.01257   0.00000   0.04993   0.04979   1.91188
    A4        1.83309   0.00210   0.00000   0.01453   0.01452   1.84761
    A5        1.92624   0.00009   0.00000  -0.00311  -0.00301   1.92323
    A6        1.93100  -0.00107   0.00000   0.00173   0.00149   1.93249
    A7        1.82522   0.00684   0.00000   0.03277   0.03281   1.85803
    A8        1.90773  -0.00052   0.00000  -0.00758  -0.00751   1.90022
    A9        2.04438  -0.00709   0.00000  -0.02111  -0.02107   2.02331
   A10        1.84406  -0.00296   0.00000  -0.01606  -0.01600   1.82807
   A11        1.94368  -0.00107   0.00000  -0.00676  -0.00661   1.93707
   A12        1.88845   0.00496   0.00000   0.01825   0.01817   1.90663
   A13        1.96336  -0.00528   0.00000  -0.02989  -0.02962   1.93374
   A14        1.81987  -0.00012   0.00000   0.01399   0.01289   1.83276
   A15        1.93364   0.01063   0.00000   0.05019   0.04978   1.98342
   A16        1.91075  -0.00146   0.00000  -0.02677  -0.02677   1.88398
   A17        1.89942  -0.00293   0.00000  -0.01604  -0.01560   1.88382
   A18        1.93619  -0.00081   0.00000   0.00920   0.00798   1.94417
   A19        1.95645  -0.01757   0.00000  -0.07385  -0.07385   1.88260
   A20        1.96896  -0.00163   0.00000  -0.02312  -0.02527   1.94369
   A21        1.68268   0.01474   0.00000   0.11402   0.11433   1.79700
   A22        2.00449   0.00056   0.00000   0.00078  -0.00102   2.00348
   A23        1.75618   0.00312   0.00000   0.02648   0.02620   1.78238
   A24        2.04171  -0.00546   0.00000  -0.05550  -0.05741   1.98430
   A25        1.95849  -0.00767   0.00000  -0.02651  -0.02824   1.93025
   A26        1.99893  -0.00304   0.00000  -0.02370  -0.02374   1.97519
   A27        1.84221   0.01016   0.00000   0.05192   0.05138   1.89359
   A28        1.87234   0.00435   0.00000   0.01742   0.01647   1.88881
   A29        1.95979  -0.00580   0.00000  -0.02653  -0.02622   1.93357
   A30        2.00316  -0.00654   0.00000  -0.04475  -0.04513   1.95803
   A31        1.76649   0.00305   0.00000   0.04116   0.03944   1.80593
    D1       -3.07315  -0.00228   0.00000  -0.02254  -0.02267  -3.09582
    D2        1.24234  -0.00201   0.00000  -0.01694  -0.01706   1.22528
    D3       -0.91250  -0.00292   0.00000  -0.01927  -0.01954  -0.93204
    D4        1.01026   0.00238   0.00000   0.01640   0.01649   1.02675
    D5       -0.95744   0.00265   0.00000   0.02199   0.02211  -0.93533
    D6       -3.11227   0.00174   0.00000   0.01967   0.01962  -3.09265
    D7       -1.01098   0.00040   0.00000  -0.00054  -0.00037  -1.01135
    D8       -2.97868   0.00066   0.00000   0.00506   0.00524  -2.97344
    D9        1.14968  -0.00024   0.00000   0.00273   0.00275   1.15243
   D10        1.43086  -0.00039   0.00000  -0.00539  -0.00557   1.42529
   D11       -2.78349  -0.00493   0.00000  -0.04433  -0.04464  -2.82813
   D12       -0.69953  -0.00059   0.00000   0.00004   0.00034  -0.69919
   D13       -2.75313   0.00264   0.00000   0.01750   0.01741  -2.73573
   D14       -0.68430  -0.00190   0.00000  -0.02145  -0.02166  -0.70596
   D15        1.39966   0.00245   0.00000   0.02292   0.02332   1.42298
   D16       -0.73377   0.00141   0.00000   0.00516   0.00508  -0.72869
   D17        1.33506  -0.00313   0.00000  -0.03378  -0.03399   1.30108
   D18       -2.86416   0.00121   0.00000   0.01059   0.01099  -2.85317
   D19        2.92899   0.00671   0.00000   0.04289   0.04281   2.97180
   D20       -1.24976  -0.00030   0.00000   0.00212   0.00209  -1.24767
   D21        0.84675  -0.00540   0.00000  -0.02935  -0.02924   0.81752
   D22        1.38829  -0.00883   0.00000  -0.08259  -0.08262   1.30568
   D23       -3.07298   0.00109   0.00000  -0.00563  -0.00648  -3.07947
   D24       -1.01145   0.00100   0.00000   0.03052   0.03089  -0.98056
   D25       -0.77906  -0.00726   0.00000  -0.06741  -0.06727  -0.84633
   D26        1.04285   0.00266   0.00000   0.00954   0.00886   1.05171
   D27        3.10438   0.00257   0.00000   0.04569   0.04623  -3.13258
   D28       -2.88231  -0.00306   0.00000  -0.02963  -0.02931  -2.91162
   D29       -1.06040   0.00686   0.00000   0.04732   0.04682  -1.01358
   D30        1.00114   0.00677   0.00000   0.08347   0.08419   1.08532
   D31       -0.63116  -0.00607   0.00000  -0.06722  -0.06657  -0.69773
   D32       -2.79601  -0.00422   0.00000  -0.05651  -0.05510  -2.85111
   D33        1.61386  -0.01351   0.00000  -0.13067  -0.13023   1.48363
   D34       -2.99894   0.00237   0.00000   0.03526   0.03475  -2.96419
   D35        1.11940   0.00422   0.00000   0.04597   0.04622   1.16562
   D36       -0.75392  -0.00508   0.00000  -0.02820  -0.02892  -0.78283
   D37        1.26749   0.00787   0.00000   0.05906   0.05837   1.32586
   D38       -0.89736   0.00972   0.00000   0.06977   0.06984  -0.82752
   D39       -2.77067   0.00042   0.00000  -0.00439  -0.00530  -2.77597
         Item               Value     Threshold  Converged?
 Maximum Force            0.066334     0.000450     NO 
 RMS     Force            0.012192     0.000300     NO 
 Maximum Displacement     0.238287     0.001800     NO 
 RMS     Displacement     0.061138     0.001200     NO 
 Predicted change in Energy=-2.447607D-02
 Lowest energy point so far.  Saving SCF results.
 GradGradGradGradGradGradGradGradGradGradGradGradGradGradGradGradGradGrad

 Leave Link  103 at Wed Sep  7 15:33:24 2022, MaxMem=   131072000 cpu:               0.0 elap:               0.0
 (Enter /opt/g16/l202.exe)
                          Input orientation:                          
 ---------------------------------------------------------------------
 Center     Atomic      Atomic             Coordinates (Angstroms)
 Number     Number       Type             X           Y           Z
 ---------------------------------------------------------------------
      1          6           0        5.473751    9.786653   13.901446
      2          1           0        4.743934    8.983114   13.996379
      3          1           0        6.422721    9.545462   14.402455
      4          1           0        5.717760    9.907365   12.839851
      5          6           0        4.891922   11.072291   14.469633
      6          1           0        5.664167   11.873168   14.301695
      7          1           0        4.818873   10.975874   15.582916
      8          6           0        3.535475   11.495026   13.911181
      9          1           0        2.701457   10.936498   14.421372
     10          8           0        3.410751   12.877154   14.249191
     11          6           0        3.395187   11.271711   12.384366
     12          1           0        2.645384   13.225086   13.787491
     13          1           0        3.255943   10.196717   12.143898
     14          1           0        2.389842   11.693018   12.161904
     15          6           0        4.453919   11.950027   11.544451
     16          1           0        4.707445   12.942867   11.898011
     17          1           0        4.103155   11.984461   10.501281
     18          1           0        5.340315   11.282508   11.497479
 ---------------------------------------------------------------------
                    Distance matrix (angstroms):
                    1          2          3          4          5
     1  C    0.000000
     2  H    1.089642   0.000000
     3  H    1.099876   1.816440   0.000000
     4  H    1.095945   1.772042   1.752049   0.000000
     5  C    1.521258   2.147215   2.163115   2.166853   0.000000
     6  H    2.133073   3.048353   2.450260   2.450356   1.125153
     7  H    2.161123   2.548295   2.451917   3.078005   1.119835
     8  C    2.583708   2.788788   3.518287   2.903581   1.526605
     9  H    3.045994   2.857979   3.972800   3.557865   2.195201
    10  O    3.732035   4.123692   4.493954   4.015990   2.345206
    11  C    2.971086   3.107311   4.027230   2.731895   2.574553
    12  H    4.453702   4.737286   5.309058   4.620042   3.185401
    13  H    2.859336   2.668077   3.943818   2.574611   2.975249
    14  H    4.021284   4.031207   5.088829   3.837083   3.459960
    15  C    3.357926   3.859875   4.222121   2.729071   3.085281
    16  H    3.816105   4.481531   4.555960   3.334977   3.185330
    17  H    4.274343   4.651278   5.152501   3.519970   4.147533
    18  H    2.834509   3.447808   3.553564   1.958429   3.013129
                    6          7          8          9         10
     6  H    0.000000
     7  H    1.777973   0.000000
     8  C    2.197003   2.170560   0.000000
     9  H    3.109554   2.415406   1.125982   0.000000
    10  O    2.467515   2.715970   1.428315   2.073376   0.000000
    11  C    3.030870   3.513563   1.549424   2.177848   2.460745
    12  H    3.347408   3.606461   1.949531   2.375413   0.959172
    13  H    3.642269   3.857031   2.210664   2.457970   3.411887
    14  H    3.915656   4.256502   2.100392   2.403044   2.607911
    15  C    3.012143   4.170296   2.579142   3.517817   3.043581
    16  H    2.799512   4.178517   2.742737   3.796953   2.685848
    17  H    4.110023   5.229963   3.491306   4.293029   3.914480
    18  H    2.883988   4.129978   3.021351   3.953788   3.719951
                   11         12         13         14         15
    11  C    0.000000
    12  H    2.519254   0.000000
    13  H    1.110327   3.499315   0.000000
    14  H    1.112523   2.248348   1.728980   0.000000
    15  C    1.512112   3.150841   2.206487   2.169727   0.000000
    16  H    2.179753   2.811027   3.115872   2.646326   1.083979
    17  H    2.134300   3.803080   2.571379   2.403757   1.101101
    18  H    2.137804   4.034900   2.437500   3.052093   1.110624
                   16         17         18
    16  H    0.000000
    17  H    1.798489   0.000000
    18  H    1.821467   1.736581   0.000000
 Stoichiometry    C5H12O
 Framework group  C1[X(C5H12O)]
 Deg. of freedom    48
 Full point group                 C1      NOp   1
 RotChk:  IX=0 Diff= 1.10D-01
 Largest Abelian subgroup         C1      NOp   1
 Largest concise Abelian subgroup C1      NOp   1
                         Standard orientation:                         
 ---------------------------------------------------------------------
 Center     Atomic      Atomic             Coordinates (Angstroms)
 Number     Number       Type             X           Y           Z
 ---------------------------------------------------------------------
      1          6           0       -2.054640    0.511116    0.068644
      2          1           0       -2.228299    0.492879    1.144204
      3          1           0       -2.992128    0.449800   -0.503268
      4          1           0       -1.607292    1.477001   -0.192203
      5          6           0       -1.128639   -0.632649   -0.316777
      6          1           0       -0.946120   -0.536123   -1.422824
      7          1           0       -1.680903   -1.600107   -0.202488
      8          6           0        0.189082   -0.711945    0.449935
      9          1           0        0.042355   -1.216258    1.445914
     10          8           0        1.030732   -1.547105   -0.346441
     11          6           0        0.842929    0.669190    0.706189
     12          1           0        1.917597   -1.502350    0.016158
     13          1           0        0.311355    1.226205    1.506183
     14          1           0        1.801458    0.402928    1.204221
     15          6           0        1.099789    1.489674   -0.537720
     16          1           0        1.457617    0.898027   -1.372540
     17          1           0        1.816823    2.287191   -0.288216
     18          1           0        0.170559    2.045330   -0.785240
 ---------------------------------------------------------------------
 Rotational constants (GHZ):           3.8168608           3.0326989           2.0651303
 Leave Link  202 at Wed Sep  7 15:33:24 2022, MaxMem=   131072000 cpu:               0.0 elap:               0.0
 (Enter /opt/g16/l301.exe)
 Standard basis: VSTO-6G (5D, 7F)
 Ernie: Thresh=  0.10000D-02 Tol=  0.10000D-05 Strict=F.
  NNHCO=     0 NNPyr=     0 NCTC=     0               EPep=         0.000000000
    EC=       130.257488894  ECS=         2.177773914   EG=         0.564559877
   EHC=         0.000000000  EAt=       -36.836480110  AtH=         2.452923921
 EPDDG=         0.000000000  ECC=       132.999822685 EAtT=        39.289404030
 There are    36 symmetry adapted cartesian basis functions of A   symmetry.
 There are    36 symmetry adapted basis functions of A   symmetry.
    36 basis functions,   216 primitive gaussians,    36 cartesian basis functions
    19 alpha electrons       19 beta electrons
       nuclear repulsion energy       172.2892267153 Hartrees.
 IExCor=    0 DFT=F Ex=HF Corr=None ExCW=0 ScaHFX=  1.000000
 ScaDFX=  1.000000  1.000000  1.000000  1.000000 ScalE2=  1.000000  1.000000
 IRadAn=      5 IRanWt=     -1 IRanGd=            0 ICorTp=0 IEmpDi=  4
 Integral buffers will be    131072 words long.
 Regular integral format.
 Two-electron integral symmetry is turned off.
 Leave Link  301 at Wed Sep  7 15:33:24 2022, MaxMem=   131072000 cpu:               0.0 elap:               0.0
 (Enter /opt/g16/l302.exe)
 Do NDO integrals.
 NPDir=0 NMtPBC=     1 NCelOv=     1 NCel=       1 NClECP=     1 NCelD=      1
         NCelK=      1 NCelE2=     1 NClLst=     1 CellRange=     0.0.
 One-electron integrals computed using PRISM.
 NBasis=    36 RedAO= F EigKep=  0.00D+00  NBF=    36
 NBsUse=    36 1.00D-04 EigRej=  0.00D+00 NBFU=    36
 Leave Link  302 at Wed Sep  7 15:33:24 2022, MaxMem=   131072000 cpu:               0.1 elap:               0.0
 (Enter /opt/g16/l303.exe)
 DipDrv:  MaxL=1.
 Leave Link  303 at Wed Sep  7 15:33:24 2022, MaxMem=   131072000 cpu:               0.0 elap:               0.0
 (Enter /opt/g16/l401.exe)
 Initial guess from the checkpoint file:  "MD_extract_002_gaussian.chk"
 B after Tr=    -0.000000   -0.000000   -0.000000
         Rot=    0.999239    0.006851   -0.008484    0.037453 Ang=   4.47 deg.
 Guess basis will be translated and rotated to current coordinates.
 JPrj=0 DoOrth=T DoCkMO=T.
 Leave Link  401 at Wed Sep  7 15:33:24 2022, MaxMem=   131072000 cpu:               0.0 elap:               0.0
 (Enter /opt/g16/l502.exe)
 Keep J ints in memory in canonical form, NReq=862161.
 FoFCou: FMM=F IPFlag=           0 FMFlag=           0 FMFlg1=           0
         NFxFlg=           0 DoJE=F BraDBF=F KetDBF=F FulRan=T
         wScrn=  0.000000 ICntrl=       600 IOpCl=  2 I1Cent=           0 NGrid=           0
         NMat0=    1 NMatS0=     72 NMatT0=    0 NMatD0=    1 NMtDS0=    0 NMtDT0=    0
 Symmetry not used in FoFCou.
 Two-electron integral symmetry not used.
 Closed shell SCF:
 Using DIIS extrapolation, IDIIS=  1040.
 Overlap will be assumed to be unity.
 NGot=   131072000 LenX=   131006778 LenY=   131005041
 Requested convergence on RMS density matrix=1.00D-08 within 128 cycles.
 Requested convergence on MAX density matrix=1.00D-06.
 Requested convergence on             energy=1.00D-06.
 No special actions if energy rises.

 Cycle   1  Pass 1  IDiag  1:
 E=-0.103183783391216    
 DIIS: error= 4.45D-03 at cycle   1 NSaved=   1.
 NSaved= 1 IEnMin= 1 EnMin=-0.103183783391216     IErMin= 1 ErrMin= 4.45D-03
 ErrMax= 4.45D-03  0.00D+00 EMaxC= 1.00D-01 BMatC= 1.48D-03 BMatP= 1.48D-03
 IDIUse=3 WtCom= 9.55D-01 WtEn= 4.45D-02
 Coeff-Com:  0.100D+01
 Coeff-En:   0.100D+01
 Coeff:      0.100D+01
 GapD=    2.000 DampG=2.000 DampE=1.000 DampFc=2.0000 IDamp=-1.
 RMSDP=1.79D-03 MaxDP=1.15D-02              OVMax= 0.00D+00

 Cycle   2  Pass 1  IDiag  3:
 E=-0.107716449730731     Delta-E=       -0.004532666340 Rises=F Damp=F
 DIIS: error= 2.00D-03 at cycle   2 NSaved=   2.
 NSaved= 2 IEnMin= 2 EnMin=-0.107716449730731     IErMin= 2 ErrMin= 2.00D-03
 ErrMax= 2.00D-03  0.00D+00 EMaxC= 1.00D-01 BMatC= 1.82D-04 BMatP= 1.48D-03
 IDIUse=3 WtCom= 9.80D-01 WtEn= 2.00D-02
 Coeff-Com: -0.440D+00 0.144D+01
 Coeff-En:   0.000D+00 0.100D+01
 Coeff:     -0.431D+00 0.143D+01
 Gap=     0.517 Goal=   None    Shift=    0.000
 RMSDP=1.04D-03 MaxDP=7.38D-03 DE=-4.53D-03 OVMax= 4.21D-03

 Cycle   3  Pass 1  IDiag  3:
 E=-0.108538944232436     Delta-E=       -0.000822494502 Rises=F Damp=F
 DIIS: error= 4.59D-04 at cycle   3 NSaved=   3.
 NSaved= 3 IEnMin= 3 EnMin=-0.108538944232436     IErMin= 3 ErrMin= 4.59D-04
 ErrMax= 4.59D-04  0.00D+00 EMaxC= 1.00D-01 BMatC= 8.58D-06 BMatP= 1.82D-04
 IDIUse=3 WtCom= 9.95D-01 WtEn= 4.59D-03
 Coeff-Com:  0.203D+00-0.785D+00 0.158D+01
 Coeff-En:   0.000D+00 0.000D+00 0.100D+01
 Coeff:      0.202D+00-0.782D+00 0.158D+01
 Gap=     0.516 Goal=   None    Shift=    0.000
 RMSDP=3.06D-04 MaxDP=2.21D-03 DE=-8.22D-04 OVMax= 2.29D-03

 Cycle   4  Pass 1  IDiag  3:
 E=-0.108589023119805     Delta-E=       -0.000050078887 Rises=F Damp=F
 DIIS: error= 9.19D-05 at cycle   4 NSaved=   4.
 NSaved= 4 IEnMin= 4 EnMin=-0.108589023119805     IErMin= 4 ErrMin= 9.19D-05
 ErrMax= 9.19D-05  0.00D+00 EMaxC= 1.00D-01 BMatC= 2.92D-07 BMatP= 8.58D-06
 IDIUse=1 WtCom= 1.00D+00 WtEn= 0.00D+00
 Coeff-Com: -0.879D-01 0.350D+00-0.804D+00 0.154D+01
 Coeff:     -0.879D-01 0.350D+00-0.804D+00 0.154D+01
 Gap=     0.517 Goal=   None    Shift=    0.000
 RMSDP=5.90D-05 MaxDP=6.26D-04 DE=-5.01D-05 OVMax= 7.15D-04

 Cycle   5  Pass 1  IDiag  3:
 E=-0.108590939119210     Delta-E=       -0.000001915999 Rises=F Damp=F
 DIIS: error= 2.59D-05 at cycle   5 NSaved=   5.
 NSaved= 5 IEnMin= 5 EnMin=-0.108590939119210     IErMin= 5 ErrMin= 2.59D-05
 ErrMax= 2.59D-05  0.00D+00 EMaxC= 1.00D-01 BMatC= 2.26D-08 BMatP= 2.92D-07
 IDIUse=1 WtCom= 1.00D+00 WtEn= 0.00D+00
 Coeff-Com:  0.476D-01-0.191D+00 0.450D+00-0.104D+01 0.173D+01
 Coeff:      0.476D-01-0.191D+00 0.450D+00-0.104D+01 0.173D+01
 Gap=     0.517 Goal=   None    Shift=    0.000
 RMSDP=1.97D-05 MaxDP=2.38D-04 DE=-1.92D-06 OVMax= 2.35D-04

 Cycle   6  Pass 1  IDiag  3:
 E=-0.108591108606703     Delta-E=       -0.000000169487 Rises=F Damp=F
 DIIS: error= 5.71D-06 at cycle   6 NSaved=   6.
 NSaved= 6 IEnMin= 6 EnMin=-0.108591108606703     IErMin= 6 ErrMin= 5.71D-06
 ErrMax= 5.71D-06  0.00D+00 EMaxC= 1.00D-01 BMatC= 1.04D-09 BMatP= 2.26D-08
 IDIUse=1 WtCom= 1.00D+00 WtEn= 0.00D+00
 Coeff-Com: -0.163D-01 0.655D-01-0.156D+00 0.379D+00-0.785D+00 0.151D+01
 Coeff:     -0.163D-01 0.655D-01-0.156D+00 0.379D+00-0.785D+00 0.151D+01
 Gap=     0.517 Goal=   None    Shift=    0.000
 RMSDP=4.07D-06 MaxDP=5.22D-05 DE=-1.69D-07 OVMax= 4.51D-05

 Cycle   7  Pass 1  IDiag  3:
 E=-0.108591115944023     Delta-E=       -0.000000007337 Rises=F Damp=F
 DIIS: error= 1.35D-06 at cycle   7 NSaved=   7.
 NSaved= 7 IEnMin= 7 EnMin=-0.108591115944023     IErMin= 7 ErrMin= 1.35D-06
 ErrMax= 1.35D-06  0.00D+00 EMaxC= 1.00D-01 BMatC= 5.29D-11 BMatP= 1.04D-09
 IDIUse=1 WtCom= 1.00D+00 WtEn= 0.00D+00
 Coeff-Com:  0.508D-02-0.204D-01 0.485D-01-0.120D+00 0.263D+00-0.649D+00
 Coeff-Com:  0.147D+01
 Coeff:      0.508D-02-0.204D-01 0.485D-01-0.120D+00 0.263D+00-0.649D+00
 Coeff:      0.147D+01
 Gap=     0.517 Goal=   None    Shift=    0.000
 RMSDP=8.19D-07 MaxDP=9.49D-06 DE=-7.34D-09 OVMax= 7.37D-06

 Cycle   8  Pass 1  IDiag  3:
 E=-0.108591116301540     Delta-E=       -0.000000000358 Rises=F Damp=F
 DIIS: error= 5.87D-07 at cycle   8 NSaved=   8.
 NSaved= 8 IEnMin= 8 EnMin=-0.108591116301540     IErMin= 8 ErrMin= 5.87D-07
 ErrMax= 5.87D-07  0.00D+00 EMaxC= 1.00D-01 BMatC= 4.74D-12 BMatP= 5.29D-11
 IDIUse=1 WtCom= 1.00D+00 WtEn= 0.00D+00
 Coeff-Com: -0.191D-02 0.766D-02-0.182D-01 0.452D-01-0.101D+00 0.268D+00
 Coeff-Com: -0.806D+00 0.161D+01
 Coeff:     -0.191D-02 0.766D-02-0.182D-01 0.452D-01-0.101D+00 0.268D+00
 Coeff:     -0.806D+00 0.161D+01
 Gap=     0.517 Goal=   None    Shift=    0.000
 RMSDP=2.70D-07 MaxDP=3.18D-06 DE=-3.58D-10 OVMax= 2.38D-06

 Cycle   9  Pass 1  IDiag  3:
 E=-0.108591116337664     Delta-E=       -0.000000000036 Rises=F Damp=F
 DIIS: error= 1.77D-07 at cycle   9 NSaved=   9.
 NSaved= 9 IEnMin= 9 EnMin=-0.108591116337664     IErMin= 9 ErrMin= 1.77D-07
 ErrMax= 1.77D-07  0.00D+00 EMaxC= 1.00D-01 BMatC= 4.27D-13 BMatP= 4.74D-12
 IDIUse=1 WtCom= 1.00D+00 WtEn= 0.00D+00
 Coeff-Com:  0.539D-03-0.215D-02 0.513D-02-0.128D-01 0.295D-01-0.832D-01
 Coeff-Com:  0.291D+00-0.853D+00 0.162D+01
 Coeff:      0.539D-03-0.215D-02 0.513D-02-0.128D-01 0.295D-01-0.832D-01
 Coeff:      0.291D+00-0.853D+00 0.162D+01
 Gap=     0.517 Goal=   None    Shift=    0.000
 RMSDP=9.20D-08 MaxDP=1.28D-06 DE=-3.61D-11 OVMax= 8.38D-07

 Cycle  10  Pass 1  IDiag  3:
 E=-0.108591116340989     Delta-E=       -0.000000000003 Rises=F Damp=F
 DIIS: error= 2.54D-08 at cycle  10 NSaved=  10.
 NSaved=10 IEnMin=10 EnMin=-0.108591116340989     IErMin=10 ErrMin= 2.54D-08
 ErrMax= 2.54D-08  0.00D+00 EMaxC= 1.00D-01 BMatC= 1.94D-14 BMatP= 4.27D-13
 IDIUse=1 WtCom= 1.00D+00 WtEn= 0.00D+00
 Coeff-Com: -0.744D-04 0.296D-03-0.707D-03 0.182D-02-0.452D-02 0.143D-01
 Coeff-Com: -0.579D-01 0.217D+00-0.618D+00 0.145D+01
 Coeff:     -0.744D-04 0.296D-03-0.707D-03 0.182D-02-0.452D-02 0.143D-01
 Coeff:     -0.579D-01 0.217D+00-0.618D+00 0.145D+01
 Gap=     0.517 Goal=   None    Shift=    0.000
 RMSDP=1.79D-08 MaxDP=2.32D-07 DE=-3.33D-12 OVMax= 1.65D-07

 Cycle  11  Pass 1  IDiag  3:
 E=-0.108591116341131     Delta-E=       -0.000000000000 Rises=F Damp=F
 DIIS: error= 2.98D-09 at cycle  11 NSaved=  11.
 NSaved=11 IEnMin=11 EnMin=-0.108591116341131     IErMin=11 ErrMin= 2.98D-09
 ErrMax= 2.98D-09  0.00D+00 EMaxC= 1.00D-01 BMatC= 7.00D-16 BMatP= 1.94D-14
 IDIUse=1 WtCom= 1.00D+00 WtEn= 0.00D+00
 Coeff-Com:  0.923D-05-0.365D-04 0.875D-04-0.240D-03 0.692D-03-0.260D-02
 Coeff-Com:  0.122D-01-0.539D-01 0.181D+00-0.574D+00 0.144D+01
 Coeff:      0.923D-05-0.365D-04 0.875D-04-0.240D-03 0.692D-03-0.260D-02
 Coeff:      0.122D-01-0.539D-01 0.181D+00-0.574D+00 0.144D+01
 Gap=     0.517 Goal=   None    Shift=    0.000
 RMSDP=2.89D-09 MaxDP=2.44D-08 DE=-1.42D-13 OVMax= 2.06D-08

 Cycle  12  Pass 2  IDiag  1:
 SCF Done:  E(RPM3) = -0.108591116341     A.U. after   12 cycles
            NFock= 11  Conv=0.29D-08     -V/T= 0.9982
 KE=-5.965415142898D+01 PE=-2.591173837874D+02 EE= 1.463737173848D+02
 Leave Link  502 at Wed Sep  7 15:33:24 2022, MaxMem=   131072000 cpu:               0.0 elap:               0.0
 (Enter /opt/g16/l701.exe)
 ... and contract with generalized density number  0.
 Compute integral first derivatives.
 Leave Link  701 at Wed Sep  7 15:33:24 2022, MaxMem=   131072000 cpu:               0.0 elap:               0.0
 (Enter /opt/g16/l702.exe)
 L702 exits ... SP integral derivatives will be done elsewhere.
 Leave Link  702 at Wed Sep  7 15:33:24 2022, MaxMem=   131072000 cpu:               0.0 elap:               0.0
 (Enter /opt/g16/l703.exe)
 Integral derivatives from FoFJK, PRISM(SPDF).
 Compute integral first derivatives, UseDBF=F ICtDFT=           0.
 Calling FoFJK, ICntrl=      2127 FMM=F ISym2X=0 I1Cent= 0 IOpClX= 0 NMat=1 NMatS=1 NMatT=0.
 FoFJK:  IHMeth= 9 ICntrl=    2127 DoSepK=F KAlg= 0 I1Cent=           0 FoldK=F
 IRaf=         0 NMat=       1 IRICut=       1 DoRegI=T DoRafI=F ISym2E= 0 IDoP0=3 IntGTp=3.
 FoFCou: FMM=F IPFlag=           0 FMFlag=      100000 FMFlg1=         800
         NFxFlg=           0 DoJE=F BraDBF=F KetDBF=F FulRan=T
         wScrn=  0.000000 ICntrl=      2127 IOpCl=  0 I1Cent=           0 NGrid=           0
         NMat0=    1 NMatS0=      1 NMatT0=    0 NMatD0=    1 NMtDS0=    0 NMtDT0=    0
 Symmetry not used in FoFCou.
 Leave Link  703 at Wed Sep  7 15:33:25 2022, MaxMem=   131072000 cpu:               0.0 elap:               0.0
 (Enter /opt/g16/l716.exe)
 Dipole        = 1.49480654D-01 3.76159118D-01 4.20809578D-01
 ***** Axes restored to original set *****
 -------------------------------------------------------------------
 Center     Atomic                   Forces (Hartrees/Bohr)
 Number     Number              X              Y              Z
 -------------------------------------------------------------------
      1        6          -0.005011163    0.012029785    0.002960271
      2        1           0.001999951   -0.006482165    0.000999078
      3        1          -0.004479453   -0.003758543    0.001381381
      4        1          -0.001096698    0.000481585   -0.005863454
      5        6           0.017387618    0.000540344    0.008469677
      6        1          -0.008112787   -0.003192829    0.001404427
      7        1          -0.000359583    0.001194901   -0.006714964
      8        6           0.001451406    0.001210170   -0.007617678
      9        1           0.004471602    0.001247279   -0.001142293
     10        8          -0.008602587   -0.001224013   -0.004209599
     11        6          -0.015933360    0.010701233    0.011240335
     12        1           0.008948751   -0.006299101    0.004991233
     13        1           0.008179209    0.000351350    0.001812560
     14        1          -0.000016690    0.001529493   -0.006826440
     15        6          -0.003759907   -0.027129700   -0.009038153
     16        1           0.003231665    0.004304671    0.001072627
     17        1           0.000424020    0.006543912    0.001084390
     18        1           0.001278006    0.007951628    0.005996602
 -------------------------------------------------------------------
 Cartesian Forces:  Max     0.027129700 RMS     0.007123010
 Leave Link  716 at Wed Sep  7 15:33:25 2022, MaxMem=   131072000 cpu:               0.0 elap:               0.0
 (Enter /opt/g16/l103.exe)

 GradGradGradGradGradGradGradGradGradGradGradGradGradGradGradGradGradGrad
 Berny optimization.
 Using GEDIIS/GDIIS optimizer.
 FormGI is forming the generalized inverse of G from B-inverse, IUseBI=4.
 Internal  Forces:  Max     0.011828114 RMS     0.003674478
 Search for a local minimum.
 Step number   2 out of a maximum of   97
 All quantities printed in internal units (Hartrees-Bohrs-Radians)
 RMS Force = .36745D-02 SwitMx=.10000D-02 MixMth= 1
 Mixed Optimization -- RFO/linear search
 Update second derivatives using D2CorX and points    1    2
 DE= -2.26D-02 DEPred=-2.45D-02 R= 9.25D-01
 TightC=F SS=  1.41D+00  RLast= 4.01D-01 DXNew= 5.0454D-01 1.2027D+00
 Trust test= 9.25D-01 RLast= 4.01D-01 DXMaxT set to 5.05D-01
 ITU=  1  0
 Use linear search instead of GDIIS.
     Eigenvalues ---    0.00439   0.00583   0.00592   0.01246   0.01361
     Eigenvalues ---    0.03119   0.03686   0.04596   0.04858   0.05166
     Eigenvalues ---    0.05261   0.05441   0.05752   0.05881   0.06025
     Eigenvalues ---    0.07835   0.08856   0.09258   0.12579   0.12760
     Eigenvalues ---    0.15371   0.16000   0.16000   0.16000   0.16000
     Eigenvalues ---    0.16000   0.16116   0.16986   0.19993   0.21331
     Eigenvalues ---    0.21805   0.27876   0.28897   0.29652   0.29899
     Eigenvalues ---    0.30716   0.30961   0.31978   0.32132   0.32835
     Eigenvalues ---    0.33583   0.34660   0.36918   0.37203   0.37787
     Eigenvalues ---    0.40024   0.44311   0.48209
 RFO step:  Lambda=-9.72956940D-03 EMin= 4.38819330D-03
 Quartic linear search produced a step of  0.37966.
 Iteration  1 RMS(Cart)=  0.10867803 RMS(Int)=  0.00584367
 Iteration  2 RMS(Cart)=  0.00704278 RMS(Int)=  0.00171642
 Iteration  3 RMS(Cart)=  0.00004432 RMS(Int)=  0.00171614
 Iteration  4 RMS(Cart)=  0.00000021 RMS(Int)=  0.00171614
 ITry= 1 IFail=0 DXMaxC= 4.89D-01 DCOld= 1.00D+10 DXMaxT= 5.05D-01 DXLimC= 3.00D+00 Rises=F
 Variable       Old X    -DE/DX   Delta X   Delta X   Delta X     New X
                                 (Linear)    (Quad)   (Total)
    R1        2.05912   0.00353   0.01397   0.00120   0.01517   2.07429
    R2        2.07847  -0.00241  -0.00558  -0.00507  -0.01065   2.06781
    R3        2.07104   0.00549   0.02253   0.00089   0.02342   2.09445
    R4        2.87476  -0.00501   0.00533  -0.02548  -0.02015   2.85461
    R5        2.12623  -0.00805  -0.01981  -0.02057  -0.04038   2.08585
    R6        2.11618  -0.00676  -0.01873  -0.01493  -0.03366   2.08252
    R7        2.88487   0.00103   0.05130  -0.03769   0.01361   2.89848
    R8        2.12780  -0.00445  -0.00917  -0.01201  -0.02118   2.10662
    R9        2.69912  -0.00713  -0.00390  -0.02005  -0.02395   2.67517
   R10        2.92799  -0.00528   0.02606  -0.04349  -0.01743   2.91056
   R11        1.81257  -0.01183  -0.03191  -0.00785  -0.03976   1.77281
   R12        2.09821  -0.00176  -0.00374  -0.00414  -0.00788   2.09034
   R13        2.10236   0.00196   0.01458  -0.00438   0.01021   2.11257
   R14        2.85748  -0.00242  -0.00905  -0.00316  -0.01221   2.84526
   R15        2.04842   0.00505   0.00969   0.01003   0.01972   2.06814
   R16        2.08078  -0.00096   0.00016  -0.00387  -0.00370   2.07708
   R17        2.09878  -0.00401  -0.01203  -0.00718  -0.01921   2.07957
    A1        1.95679  -0.00594  -0.02152  -0.04393  -0.06526   1.89153
    A2        1.89098  -0.00197  -0.00280  -0.01046  -0.01356   1.87742
    A3        1.91188   0.00603   0.01890   0.02421   0.04306   1.95495
    A4        1.84761   0.00154   0.00551   0.02158   0.02696   1.87457
    A5        1.92323   0.00153  -0.00114   0.01197   0.01086   1.93409
    A6        1.93249  -0.00152   0.00057  -0.00438  -0.00405   1.92845
    A7        1.85803   0.00617   0.01246   0.03837   0.04974   1.90776
    A8        1.90022   0.00360  -0.00285   0.02720   0.02366   1.92388
    A9        2.02331  -0.01058  -0.00800  -0.05957  -0.06746   1.95585
   A10        1.82807  -0.00151  -0.00607   0.01299   0.00597   1.83404
   A11        1.93707   0.00032  -0.00251  -0.01330  -0.01487   1.92220
   A12        1.90663   0.00290   0.00690   0.00243   0.00963   1.91625
   A13        1.93374  -0.00023  -0.01124  -0.00700  -0.01824   1.91550
   A14        1.83276   0.00138   0.00489   0.00845   0.01309   1.84585
   A15        1.98342  -0.00322   0.01890  -0.03714  -0.01860   1.96482
   A16        1.88398  -0.00112  -0.01016   0.00734  -0.00285   1.88113
   A17        1.88382   0.00105  -0.00592   0.01005   0.00392   1.88774
   A18        1.94417   0.00220   0.00303   0.02011   0.02273   1.96690
   A19        1.88260  -0.00394  -0.02804  -0.00672  -0.03476   1.84784
   A20        1.94369  -0.00112  -0.00960  -0.04830  -0.06606   1.87763
   A21        1.79700   0.00777   0.04340   0.08962   0.13381   1.93082
   A22        2.00348  -0.00323  -0.00039  -0.02989  -0.03641   1.96706
   A23        1.78238   0.00152   0.00995   0.04149   0.05410   1.83648
   A24        1.98430  -0.00142  -0.02180  -0.04876  -0.07828   1.90603
   A25        1.93025  -0.00205  -0.01072   0.02156   0.00969   1.93994
   A26        1.97519  -0.00104  -0.00901  -0.02049  -0.02933   1.94585
   A27        1.89359   0.00511   0.01951   0.03824   0.05600   1.94959
   A28        1.88881   0.00326   0.00625   0.02282   0.02659   1.91541
   A29        1.93357  -0.00375  -0.00995  -0.02945  -0.03866   1.89491
   A30        1.95803  -0.00487  -0.01713  -0.05216  -0.06977   1.88825
   A31        1.80593   0.00195   0.01497   0.05052   0.06121   1.86714
    D1       -3.09582   0.00066  -0.00861   0.00957   0.00159  -3.09424
    D2        1.22528  -0.00229  -0.00648  -0.03680  -0.04383   1.18145
    D3       -0.93204  -0.00132  -0.00742  -0.01840  -0.02627  -0.95831
    D4        1.02675   0.00301   0.00626   0.04042   0.04751   1.07426
    D5       -0.93533   0.00006   0.00839  -0.00595   0.00210  -0.93324
    D6       -3.09265   0.00104   0.00745   0.01245   0.01965  -3.07300
    D7       -1.01135   0.00110  -0.00014   0.00928   0.00994  -1.00142
    D8       -2.97344  -0.00184   0.00199  -0.03709  -0.03548  -3.00892
    D9        1.15243  -0.00087   0.00105  -0.01869  -0.01792   1.13451
   D10        1.42529  -0.00056  -0.00212  -0.00643  -0.00875   1.41654
   D11       -2.82813  -0.00122  -0.01695   0.00349  -0.01383  -2.84196
   D12       -0.69919   0.00055   0.00013   0.01232   0.01218  -0.68701
   D13       -2.73573   0.00004   0.00661  -0.01036  -0.00323  -2.73896
   D14       -0.70596  -0.00062  -0.00822  -0.00043  -0.00831  -0.71427
   D15        1.42298   0.00115   0.00885   0.00840   0.01770   1.44068
   D16       -0.72869   0.00009   0.00193  -0.00071   0.00115  -0.72754
   D17        1.30108  -0.00057  -0.01290   0.00921  -0.00394   1.29714
   D18       -2.85317   0.00119   0.00417   0.01805   0.02207  -2.83109
   D19        2.97180  -0.00043   0.01625  -0.00486   0.01149   2.98329
   D20       -1.24767  -0.00052   0.00079  -0.00511  -0.00429  -1.25196
   D21        0.81752   0.00134  -0.01110   0.02335   0.01213   0.82965
   D22        1.30568  -0.00432  -0.03137  -0.05343  -0.08310   1.22258
   D23       -3.07947   0.00080  -0.00246   0.01965   0.01603  -3.06344
   D24       -0.98056   0.00175   0.01173   0.09000   0.10104  -0.87953
   D25       -0.84633  -0.00263  -0.02554  -0.02678  -0.05052  -0.89685
   D26        1.05171   0.00249   0.00336   0.04630   0.04861   1.10032
   D27       -3.13258   0.00344   0.01755   0.11665   0.13362  -2.99896
   D28       -2.91162  -0.00318  -0.01113  -0.05361  -0.06300  -2.97462
   D29       -1.01358   0.00194   0.01777   0.01947   0.03613  -0.97745
   D30        1.08532   0.00289   0.03196   0.08982   0.12114   1.20646
   D31       -0.69773  -0.00366  -0.02527  -0.10528  -0.12879  -0.82652
   D32       -2.85111  -0.00188  -0.02092  -0.08150  -0.09901  -2.95012
   D33        1.48363  -0.00824  -0.04944  -0.16998  -0.21837   1.26526
   D34       -2.96419   0.00244   0.01319   0.04103   0.05194  -2.91225
   D35        1.16562   0.00421   0.01755   0.06480   0.08172   1.24734
[...]
 ! A12   A(7,5,8)              108.8983         -DE/DX =    0.0                 !
 ! A13   A(5,8,9)              108.8408         -DE/DX =    0.0                 !
 ! A14   A(5,8,10)             105.5606         -DE/DX =    0.0                 !
 ! A15   A(5,8,11)             114.305          -DE/DX =    0.0                 !
 ! A16   A(9,8,10)             107.9605         -DE/DX =    0.0                 !
 ! A17   A(9,8,11)             107.7781         -DE/DX =    0.0                 !
 ! A18   A(10,8,11)            112.2015         -DE/DX =    0.0                 !
 ! A19   A(8,10,12)            106.85           -DE/DX =    0.0                 !
 ! A20   A(8,11,13)            108.3715         -DE/DX =    0.0                 !
 ! A21   A(8,11,14)            109.4638         -DE/DX =    0.0                 !
 ! A22   A(8,11,15)            114.1563         -DE/DX =    0.0                 !
 ! A23   A(13,11,14)           105.3039         -DE/DX =    0.0                 !
 ! A24   A(13,11,15)           109.3205         -DE/DX =    0.0                 !
 ! A25   A(14,11,15)           109.8394         -DE/DX =    0.0                 !
 ! A26   A(11,15,16)           111.9336         -DE/DX =    0.0                 !
 ! A27   A(11,15,17)           111.3701         -DE/DX =    0.0                 !
 ! A28   A(11,15,18)           110.3724         -DE/DX =    0.0                 !
 ! A29   A(16,15,17)           107.73           -DE/DX =    0.0                 !
 ! A30   A(16,15,18)           107.6773         -DE/DX =    0.0                 !
 ! A31   A(17,15,18)           107.571          -DE/DX =    0.0                 !
 ! D1    D(2,1,5,6)           -173.4603         -DE/DX =    0.0                 !
 ! D2    D(2,1,5,7)             71.0824         -DE/DX =    0.0                 !
 ! D3    D(2,1,5,8)            -50.6049         -DE/DX =    0.0                 !
 ! D4    D(3,1,5,6)             66.0356         -DE/DX =    0.0                 !
 ! D5    D(3,1,5,7)            -49.4217         -DE/DX =    0.0                 !
 ! D6    D(3,1,5,8)           -171.109          -DE/DX =    0.0                 !
 ! D7    D(4,1,5,6)            -53.3048         -DE/DX =    0.0                 !
 ! D8    D(4,1,5,7)           -168.7622         -DE/DX =    0.0                 !
 ! D9    D(4,1,5,8)             69.5505         -DE/DX =    0.0                 !
 ! D10   D(1,5,8,9)             71.3174         -DE/DX =    0.0                 !
 ! D11   D(1,5,8,10)          -173.0096         -DE/DX =    0.0                 !
 ! D12   D(1,5,8,11)           -49.2197         -DE/DX =    0.0                 !
 ! D13   D(6,5,8,9)           -166.0797         -DE/DX =    0.0                 !
 ! D14   D(6,5,8,10)           -50.4067         -DE/DX =    0.0                 !
 ! D15   D(6,5,8,11)            73.3832         -DE/DX =    0.0                 !
 ! D16   D(7,5,8,9)            -51.0143         -DE/DX =    0.0                 !
 ! D17   D(7,5,8,10)            64.6587         -DE/DX =    0.0                 !
 ! D18   D(7,5,8,11)          -171.5514         -DE/DX =    0.0                 !
 ! D19   D(5,8,10,12)          175.314          -DE/DX =    0.0                 !
 ! D20   D(9,8,10,12)          -68.4119         -DE/DX =    0.0                 !
 ! D21   D(11,8,10,12)          50.2063         -DE/DX =    0.0                 !
 ! D22   D(5,8,11,13)           77.1001         -DE/DX =    0.0                 !
 ! D23   D(5,8,11,14)         -168.5481         -DE/DX =    0.0                 !
 ! D24   D(5,8,11,15)          -44.9747         -DE/DX =    0.0                 !
 ! D25   D(9,8,11,13)          -44.0263         -DE/DX =    0.0                 !
 ! D26   D(9,8,11,14)           70.3256         -DE/DX =    0.0                 !
 ! D27   D(9,8,11,15)         -166.101          -DE/DX =    0.0                 !
 ! D28   D(10,8,11,13)        -162.752          -DE/DX =    0.0                 !
 ! D29   D(10,8,11,14)         -48.4002         -DE/DX =    0.0                 !
 ! D30   D(10,8,11,15)          75.1732         -DE/DX =    0.0                 !
 ! D31   D(8,11,15,16)         -51.711          -DE/DX =    0.0                 !
 ! D32   D(8,11,15,17)        -172.3814         -DE/DX =    0.0                 !
 ! D33   D(8,11,15,18)          68.2049         -DE/DX =    0.0                 !
 ! D34   D(13,11,15,16)       -173.2636         -DE/DX =    0.0                 !
 ! D35   D(13,11,15,17)         66.066          -DE/DX =    0.0                 !
 ! D36   D(13,11,15,18)        -53.3477         -DE/DX =    0.0                 !
 ! D37   D(14,11,15,16)         71.6595         -DE/DX =    0.0                 !
 ! D38   D(14,11,15,17)        -49.0109         -DE/DX =    0.0                 !
 ! D39   D(14,11,15,18)       -168.4246         -DE/DX =    0.0                 !
 --------------------------------------------------------------------------------
 Lowest energy point so far.  Saving SCF results.
 Largest change from initial coordinates is atom   14       0.250 Angstoms.
 GradGradGradGradGradGradGradGradGradGradGradGradGradGradGradGradGradGrad

 Leave Link  103 at Wed Sep  7 15:33:30 2022, MaxMem=   131072000 cpu:               0.0 elap:               0.0
 (Enter /opt/g16/l202.exe)
                          Input orientation:                          
 ---------------------------------------------------------------------
 Center     Atomic      Atomic             Coordinates (Angstroms)
 Number     Number       Type             X           Y           Z
 ---------------------------------------------------------------------
      1          6           0        5.421316    9.790253   13.886290
      2          1           0        4.677969    8.997795   14.041156
      3          1           0        6.348577    9.476654   14.381469
      4          1           0        5.627383    9.850566   12.803351
      5          6           0        4.945115   11.125626   14.410497
      6          1           0        5.671281   11.916356   14.129413
      7          1           0        4.934297   11.116583   15.518686
      8          6           0        3.542051   11.493652   13.901912
      9          1           0        2.790839   10.831792   14.402748
     10          8           0        3.314966   12.822957   14.340560
     11          6           0        3.359969   11.343912   12.379580
     12          1           0        2.484250   13.094980   13.974302
     13          1           0        3.238911   10.266648   12.146373
     14          1           0        2.405390   11.818989   12.072927
     15          6           0        4.499061   11.907446   11.562176
     16          1           0        4.734265   12.941354   11.844983
     17          1           0        4.264375   11.899361   10.490610
     18          1           0        5.411985   11.304076   11.707968
 ---------------------------------------------------------------------
                    Distance matrix (angstroms):
                    1          2          3          4          5
     1  C    0.000000
     2  H    1.097514   0.000000
     3  H    1.096978   1.770889   0.000000
     4  H    1.104019   1.777854   1.774934   0.000000
     5  C    1.511549   2.176107   2.165561   2.161987   0.000000
     6  H    2.154508   3.084226   2.544485   2.455169   1.109766
     7  H    2.158948   2.595778   2.445980   3.075096   1.108278
     8  C    2.536424   2.745723   3.489246   2.873182   1.537104
     9  H    2.875924   2.656229   3.807144   3.401008   2.174236
    10  O    3.720264   4.071767   4.516881   4.067603   2.354403
    11  C    2.988843   3.162629   4.052899   2.747877   2.585530
    12  H    4.422140   4.647988   5.309528   4.666544   3.181899
    13  H    2.831457   2.696493   3.910213   2.511880   2.962302
    14  H    4.062002   4.122824   5.134649   3.845705   3.520681
    15  C    3.276364   3.826671   4.156666   2.654125   2.987163
    16  H    3.816858   4.514199   4.587364   3.356947   3.150109
    17  H    4.161428   4.603967   5.035096   3.376998   4.053096
    18  H    2.652703   3.361767   3.371095   1.832744   2.748359
                    6          7          8          9         10
     6  H    0.000000
     7  H    1.764331   0.000000
     8  C    2.182672   2.166677   0.000000
     9  H    3.089974   2.433277   1.119472   0.000000
    10  O    2.533522   2.630955   1.418109   2.059931   0.000000
    11  C    2.954957   3.519116   1.540477   2.163189   2.456633
    12  H    3.401527   3.507408   1.920530   2.323701   0.947750
    13  H    3.545477   3.869007   2.163180   2.368836   3.369712
    14  H    3.860656   4.331513   2.177850   2.559531   2.641485
    15  C    2.822213   4.058185   2.561534   3.484811   3.155894
    16  H    2.673432   4.106811   2.783553   3.843087   2.873384
    17  H    3.901353   5.132551   3.510460   4.314607   4.071428
    18  H    2.511079   3.845115   2.888941   3.788839   3.692564
                   11         12         13         14         15
    11  C    0.000000
    12  H    2.525125   0.000000
    13  H    1.108846   3.451130   0.000000
    14  H    1.109484   2.291200   1.763495   0.000000
    15  C    1.511043   3.359770   2.149764   2.156884   0.000000
    16  H    2.174006   3.101640   3.079119   2.595249   1.097391
    17  H    2.166721   4.090777   2.541433   2.442541   1.096994
    18  H    2.159495   4.112814   2.447592   3.072123   1.103965
                   16         17         18
    16  H    0.000000
    17  H    1.772251   0.000000
    18  H    1.777289   1.775762   0.000000
 Stoichiometry    C5H12O
 Framework group  C1[X(C5H12O)]
 Deg. of freedom    48
 Full point group                 C1      NOp   1
 RotChk:  IX=0 Diff= 2.61D-15
 Largest Abelian subgroup         C1      NOp   1
 Largest concise Abelian subgroup C1      NOp   1
                         Standard orientation:                         
 ---------------------------------------------------------------------
 Center     Atomic      Atomic             Coordinates (Angstroms)
 Number     Number       Type             X           Y           Z
 ---------------------------------------------------------------------
      1          6           0       -2.053726    0.340250    0.148811
      2          1           0       -2.212419    0.211918    1.227182
      3          1           0       -3.028166    0.237560   -0.344425
      4          1           0       -1.704280    1.374034   -0.018630
      5          6           0       -1.054748   -0.652484   -0.400101
      6          1           0       -0.836458   -0.412849   -1.461470
      7          1           0       -1.496969   -1.668633   -0.412855
      8          6           0        0.250192   -0.687581    0.411434
      9          1           0        0.048116   -1.172138    1.400164
     10          8           0        1.128559   -1.529668   -0.316849
     11          6           0        0.864959    0.698407    0.683771
     12          1           0        1.964496   -1.506050    0.129112
     13          1           0        0.288738    1.182407    1.498175
     14          1           0        1.891932    0.574933    1.085064
     15          6           0        0.891193    1.610689   -0.520514
     16          1           0        1.348719    1.125799   -1.392190
     17          1           0        1.455397    2.528619   -0.314420
     18          1           0       -0.134791    1.906067   -0.801314
 ---------------------------------------------------------------------
 Rotational constants (GHZ):           3.7521329           3.1168273           2.0766861
 Leave Link  202 at Wed Sep  7 15:33:30 2022, MaxMem=   131072000 cpu:               0.0 elap:               0.0
 (Enter /opt/g16/l601.exe)
 Copying SCF densities to generalized density rwf, IOpCl= 0 IROHF=0.

 **********************************************************************

            Population analysis using the SCF density.

 **********************************************************************

 Orbital symmetries:
       Occupied  (A) (A) (A) (A) (A) (A) (A) (A) (A) (A) (A) (A)
                 (A) (A) (A) (A) (A) (A) (A)
       Virtual   (A) (A) (A) (A) (A) (A) (A) (A) (A) (A) (A) (A)
                 (A) (A) (A) (A) (A)
 The electronic state is 1-A.
 Alpha  occ. eigenvalues --   -1.48961  -1.27354  -1.16424  -0.94927  -0.85227
 Alpha  occ. eigenvalues --   -0.71172  -0.63573  -0.61726  -0.60745  -0.55340
 Alpha  occ. eigenvalues --   -0.51617  -0.50775  -0.49425  -0.49312  -0.47737
 Alpha  occ. eigenvalues --   -0.44196  -0.43113  -0.42558  -0.40019
 Alpha virt. eigenvalues --    0.11707   0.12489   0.13206   0.13539   0.14091
 Alpha virt. eigenvalues --    0.14399   0.15033   0.15596   0.15731   0.16181
 Alpha virt. eigenvalues --    0.16833   0.17515   0.17604   0.17833   0.18548
 Alpha virt. eigenvalues --    0.18742   0.21235
          Condensed to atoms (all electrons):
               1          2          3          4          5          6
     1  C    4.117727   0.000000   0.000000   0.000000   0.000000   0.000000
     2  H    0.000000   0.961393   0.000000   0.000000   0.000000   0.000000
     3  H    0.000000   0.000000   0.959538   0.000000   0.000000   0.000000
     4  H    0.000000   0.000000   0.000000   0.953677   0.000000   0.000000
     5  C    0.000000   0.000000   0.000000   0.000000   4.109316   0.000000
     6  H    0.000000   0.000000   0.000000   0.000000   0.000000   0.935454
     7  H    0.000000   0.000000   0.000000   0.000000   0.000000   0.000000
     8  C    0.000000   0.000000   0.000000   0.000000   0.000000   0.000000
     9  H    0.000000   0.000000   0.000000   0.000000   0.000000   0.000000
    10  O    0.000000   0.000000   0.000000   0.000000   0.000000   0.000000
    11  C    0.000000   0.000000   0.000000   0.000000   0.000000   0.000000
    12  H    0.000000   0.000000   0.000000   0.000000   0.000000   0.000000
    13  H    0.000000   0.000000   0.000000   0.000000   0.000000   0.000000
    14  H    0.000000   0.000000   0.000000   0.000000   0.000000   0.000000
    15  C    0.000000   0.000000   0.000000   0.000000   0.000000   0.000000
    16  H    0.000000   0.000000   0.000000   0.000000   0.000000   0.000000
    17  H    0.000000   0.000000   0.000000   0.000000   0.000000   0.000000
    18  H    0.000000   0.000000   0.000000   0.000000   0.000000   0.000000
               7          8          9         10         11         12
     1  C    0.000000   0.000000   0.000000   0.000000   0.000000   0.000000
     2  H    0.000000   0.000000   0.000000   0.000000   0.000000   0.000000
     3  H    0.000000   0.000000   0.000000   0.000000   0.000000   0.000000
     4  H    0.000000   0.000000   0.000000   0.000000   0.000000   0.000000
     5  C    0.000000   0.000000   0.000000   0.000000   0.000000   0.000000
     6  H    0.000000   0.000000   0.000000   0.000000   0.000000   0.000000
     7  H    0.941915   0.000000   0.000000   0.000000   0.000000   0.000000
     8  C    0.000000   3.915253   0.000000   0.000000   0.000000   0.000000
     9  H    0.000000   0.000000   0.965113   0.000000   0.000000   0.000000
    10  O    0.000000   0.000000   0.000000   6.313324   0.000000   0.000000
    11  C    0.000000   0.000000   0.000000   0.000000   4.132575   0.000000
    12  H    0.000000   0.000000   0.000000   0.000000   0.000000   0.814326
    13  H    0.000000   0.000000   0.000000   0.000000   0.000000   0.000000
    14  H    0.000000   0.000000   0.000000   0.000000   0.000000   0.000000
    15  C    0.000000   0.000000   0.000000   0.000000   0.000000   0.000000
    16  H    0.000000   0.000000   0.000000   0.000000   0.000000   0.000000
    17  H    0.000000   0.000000   0.000000   0.000000   0.000000   0.000000
    18  H    0.000000   0.000000   0.000000   0.000000   0.000000   0.000000
              13         14         15         16         17         18
     1  C    0.000000   0.000000   0.000000   0.000000   0.000000   0.000000
     2  H    0.000000   0.000000   0.000000   0.000000   0.000000   0.000000
     3  H    0.000000   0.000000   0.000000   0.000000   0.000000   0.000000
     4  H    0.000000   0.000000   0.000000   0.000000   0.000000   0.000000
     5  C    0.000000   0.000000   0.000000   0.000000   0.000000   0.000000
     6  H    0.000000   0.000000   0.000000   0.000000   0.000000   0.000000
     7  H    0.000000   0.000000   0.000000   0.000000   0.000000   0.000000
     8  C    0.000000   0.000000   0.000000   0.000000   0.000000   0.000000
     9  H    0.000000   0.000000   0.000000   0.000000   0.000000   0.000000
    10  O    0.000000   0.000000   0.000000   0.000000   0.000000   0.000000
    11  C    0.000000   0.000000   0.000000   0.000000   0.000000   0.000000
    12  H    0.000000   0.000000   0.000000   0.000000   0.000000   0.000000
    13  H    0.944643   0.000000   0.000000   0.000000   0.000000   0.000000
    14  H    0.000000   0.953025   0.000000   0.000000   0.000000   0.000000
    15  C    0.000000   0.000000   4.119246   0.000000   0.000000   0.000000
    16  H    0.000000   0.000000   0.000000   0.950016   0.000000   0.000000
    17  H    0.000000   0.000000   0.000000   0.000000   0.962163   0.000000
    18  H    0.000000   0.000000   0.000000   0.000000   0.000000   0.951298
 Mulliken charges:
               1
     1  C   -0.117727
     2  H    0.038607
     3  H    0.040462
     4  H    0.046323
     5  C   -0.109316
     6  H    0.064546
     7  H    0.058085
     8  C    0.084747
     9  H    0.034887
    10  O   -0.313324
    11  C   -0.132575
    12  H    0.185674
    13  H    0.055357
    14  H    0.046975
    15  C   -0.119246
    16  H    0.049984
    17  H    0.037837
    18  H    0.048702
 Sum of Mulliken charges =  -0.00000
 Mulliken charges with hydrogens summed into heavy atoms:
               1
     1  C    0.007666
     5  C    0.013315
     8  C    0.119634
    10  O   -0.127650
    11  C   -0.030242
    15  C    0.017277
 Charge=             -0.0000 electrons
 Dipole moment (field-independent basis, Debye):
    X=              0.2386    Y=              0.9118    Z=              1.1301  Tot=              1.4716
 N-N= 1.726622461489D+02 E-N=-2.597891708545D+02  KE=-5.968052687747D+01
 Leave Link  601 at Wed Sep  7 15:33:30 2022, MaxMem=   131072000 cpu:               0.0 elap:               0.0
 (Enter /opt/g16/l9999.exe)
 1\1\GINC-TOTEM2\FOpt\RPM3\ZDO\C5H12O1\JRAMOS\07-Sep-2022\0\\#p opt pm3
 \\Conformer number 002. Energy MM = 0.000 kcal/mol\\0,1\C,5.421315784,
 9.7902530633,13.8862896316\H,4.6779691066,8.9977954827,14.0411555871\H
 ,6.3485767125,9.4766541142,14.3814691901\H,5.627382659,9.8505661687,12
 .8033507146\C,4.9451149486,11.1256258417,14.4104974359\H,5.6712814627,
 11.9163557893,14.1294127088\H,4.9342969964,11.1165833318,15.5186860596
 \C,3.5420514662,11.493651935,13.9019115388\H,2.7908390785,10.831791500
 2,14.4027483398\O,3.3149656942,12.8229572428,14.3405602983\C,3.3599688
 689,11.343912382,12.379579821\H,2.4842495789,13.0949796557,13.97430164
 58\H,3.2389109656,10.2666479027,12.1463734404\H,2.4053902138,11.818989
 1979,12.0729265032\C,4.4990613123,11.9074456305,11.5621756161\H,4.7342
 652911,12.9413538059,11.8449831997\H,4.2643748874,11.899360828,10.4906
 103183\H,5.4119849733,11.3040761277,11.7079679509\\Version=ES64L-G16Re
 vA.03\State=1-A\HF=-0.1146385\RMSD=2.581e-09\RMSF=2.348e-06\Dipole=-0.
 2862517,-0.3333165,-0.3770282\PG=C01 [X(C5H12O1)]\\@


 WERE I TO AWAIT PERFECTION, MY BOOK WOULD NEVER BE FINISHED.
                                    -- HISTORY OF CHINESE WRITING

                                       TAI T'UNG, 13TH CENTURY
 Job cpu time:       0 days  0 hours  0 minutes  5.8 seconds.
 Elapsed time:       0 days  0 hours  0 minutes  4.6 seconds.
 File lengths (MBytes):  RWF=      6 Int=      0 D2E=      0 Chk=      2 Scr=      1
 Normal termination of Gaussian 16 at Wed Sep  7 15:33:30 2022.
