 Entering Gaussian System, Link 0=/opt/g16/g16
 Input=MD_extract_015_gaussian.com
 Output=MD_extract_015_gaussian.log
 Initial command:
 /opt/g16/l1.exe "/tmp/Gau-317987.inp" -scrdir="/tmp/"
 Entering Link 1 = /opt/g16/l1.exe PID=    317989.
  
 Copyright (c) 1988,1990,1992,1993,1995,1998,2003,2009,2016,
            Gaussian, Inc.  All Rights Reserved.
  
 This is part of the Gaussian(R) 16 program.  It is based on
 the Gaussian(R) 09 system (copyright 2009, Gaussian, Inc.),
 the Gaussian(R) 03 system (copyright 2003, Gaussian, Inc.),
 the Gaussian(R) 98 system (copyright 1998, Gaussian, Inc.),
 the Gaussian(R) 94 system (copyright 1995, Gaussian, Inc.),
 the Gaussian 92(TM) system (copyright 1992, Gaussian, Inc.),
 the Gaussian 90(TM) system (copyright 1990, Gaussian, Inc.),
 the Gaussian 88(TM) system (copyright 1988, Gaussian, Inc.),
 the Gaussian 86(TM) system (copyright 1986, Carnegie Mellon
 University), and the Gaussian 82(TM) system (copyright 1983,
 Carnegie Mellon University). Gaussian is a federally registered
 trademark of Gaussian, Inc.
  
 This software contains proprietary and confidential information,
 including trade secrets, belonging to Gaussian, Inc.
  
 This software is provided under written license and may be
 used, copied, transmitted, or stored only in accord with that
 written license.
  
 The following legend is applicable only to US Government
 contracts under FAR:
  
                    RESTRICTED RIGHTS LEGEND
  
 Use, reproduction and disclosure by the US Government is
 subject to restrictions as set forth in subparagraphs (a)
 and (c) of the Commercial Computer Software - Restricted
 Rights clause in FAR 52.227-19.
  
 Gaussian, Inc.
 340 Quinnipiac St., Bldg. 40, Wallingford CT 06492
  
  
 ---------------------------------------------------------------
 Warning -- This program may not be used in any manner that
 competes with the business of Gaussian, Inc. or will provide
 assistance to any competitor of Gaussian, Inc.  The licensee
 of this program is prohibited from giving any competitor of
 Gaussian, Inc. access to this program.  By using this program,
 the user acknowledges that Gaussian, Inc. is engaged in the
 business of creating and licensing software in the field of
 computational chemistry and represents and warrants to the
 licensee that it is not a competitor of Gaussian, Inc. and that
 it will not use this program in any manner prohibited above.
 ---------------------------------------------------------------
  

 Cite this work as:
 Gaussian 16, Revision A.03,
 M. J. Frisch, G. W. Trucks, H. B. Schlegel, G. E. Scuseria, 
 M. A. Robb, J. R. Cheeseman, G. Scalmani, V. Barone, 
 G. A. Petersson, H. Nakatsuji, X. Li, M. Caricato, A. V. Marenich, 
 J. Bloino, B. G. Janesko, R. Gomperts, B. Mennucci, H. P. Hratchian, 
 J. V. Ortiz, A. F. Izmaylov, J. L. Sonnenberg, D. Williams-Young, 
 F. Ding, F. Lipparini, F. Egidi, J. Goings, B. Peng, A. Petrone, 
 T. Henderson, D. Ranasinghe, V. G. Zakrzewski, J. Gao, N. Rega, 
 G. Zheng, W. Liang, M. Hada, M. Ehara, K. Toyota, R. Fukuda, 
 J. Hasegawa, M. Ishida, T. Nakajima, Y. Honda, O. Kitao, H. Nakai, 
 T. Vreven, K. Throssell, J. A. Montgomery, Jr., J. E. Peralta, 
 F. Ogliaro, M. J. Bearpark, J. J. Heyd, E. N. Brothers, K. N. Kudin, 
 V. N. Staroverov, T. A. Keith, R. Kobayashi, J. Normand, 
 K. Raghavachari, A. P. Rendell, J. C. Burant, S. S. Iyengar, 
 J. Tomasi, M. Cossi, J. M. Millam, M. Klene, C. Adamo, R. Cammi, 
 J. W. Ochterski, R. L. Martin, K. Morokuma, O. Farkas, 
 J. B. Foresman, and D. J. Fox, Gaussian, Inc., Wallingford CT, 2016.
 
 ******************************************
 Gaussian 16:  ES64L-G16RevA.03 25-Dec-2016
                 7-Sep-2022 
 ******************************************
 %chk=MD_extract_015_gaussian.chk
 %nproc=1
 Will use up to    1 processors via shared memory.
 %mem=1000Mb
 ----------
 #p opt pm3
 ----------
 1/18=20,19=15,26=1,38=1/1,3;
 2/9=110,12=2,17=6,18=5,40=1/2;
 3/5=2,25=1,41=800000,71=1/1,2,3;
 4/35=1/1;
 5/5=2,35=1,38=5/2;
 6/7=2,8=2,9=2,10=2,28=1/1;
 7//1,2,3,16;
 1/18=20,19=15,26=1/3(2);
 2/9=110/2;
 99//99;
 2/9=110/2;
 3/5=2,25=1,41=800000,71=1,135=20/1,2,3;
 4/5=5,16=3,35=1/1;
 5/5=2,35=1,38=5/2;
 7//1,2,3,16;
 1/18=20,19=15,26=1/3(-5);
 2/9=110/2;
 6/7=2,8=2,9=2,10=2,19=2,28=1/1;
 99/9=1/99;
 Leave Link    1 at Wed Sep  7 15:35:16 2022, MaxMem=   131072000 cpu:               0.0 elap:              30.5
 (Enter /opt/g16/l101.exe)
 ------------------------------------------------
 Conformer number 015. Energy MM = 0.000 kcal/mol
 ------------------------------------------------
 Symbolic Z-matrix:
 Charge =  0 Multiplicity = 1
 C                     1.088     7.81      9.667 
 H                     1.315     7.547     8.579 
 H                     0.389     7.031     10.094 
 H                     2.021     7.663     10.182 
 C                     0.541     9.228     9.728 
 H                     0.167     9.443     10.753 
 H                    -0.314     9.378     9.132 
 C                     1.508     10.268    9.437 
 H                     2.391     10.209    10.087 
 O                     1.98      9.955     8.138 
 C                     0.93      11.573    9.45 
 H                     1.356     9.324     7.817 
 H                     0.047     11.6      8.815 
 H                     0.675     11.807    10.53 
 C                     1.84      12.664    8.959 
 H                     2.742     12.749    9.601 
 H                     1.263     13.618    9.018 
 H                     2.096     12.537    7.913 
 
 ITRead=  0  0  0  0  0  0  0  0  0  0  0  0  0  0  0  0  0  0
 MicOpt= -1 -1 -1 -1 -1 -1 -1 -1 -1 -1 -1 -1 -1 -1 -1 -1 -1 -1
 NAtoms=     18 NQM=       18 NQMF=       0 NMMI=      0 NMMIF=      0
                NMic=       0 NMicF=      0.
                    Isotopes and Nuclear Properties:
 (Nuclear quadrupole moments (NQMom) in fm**2, nuclear magnetic moments (NMagM)
  in nuclear magnetons)

  Atom         1           2           3           4           5           6           7           8           9          10
 IAtWgt=          12           1           1           1          12           1           1          12           1          16
 AtmWgt=  12.0000000   1.0078250   1.0078250   1.0078250  12.0000000   1.0078250   1.0078250  12.0000000   1.0078250  15.9949146
 NucSpn=           0           1           1           1           0           1           1           0           1           0
 AtZEff=  -0.0000000  -0.0000000  -0.0000000  -0.0000000  -0.0000000  -0.0000000  -0.0000000  -0.0000000  -0.0000000  -0.0000000
 NQMom=    0.0000000   0.0000000   0.0000000   0.0000000   0.0000000   0.0000000   0.0000000   0.0000000   0.0000000   0.0000000
 NMagM=    0.0000000   2.7928460   2.7928460   2.7928460   0.0000000   2.7928460   2.7928460   0.0000000   2.7928460   0.0000000
 AtZNuc=   6.0000000   1.0000000   1.0000000   1.0000000   6.0000000   1.0000000   1.0000000   6.0000000   1.0000000   8.0000000

  Atom        11          12          13          14          15          16          17          18
 IAtWgt=          12           1           1           1          12           1           1           1
 AtmWgt=  12.0000000   1.0078250   1.0078250   1.0078250  12.0000000   1.0078250   1.0078250   1.0078250
 NucSpn=           0           1           1           1           0           1           1           1
 AtZEff=  -0.0000000  -0.0000000  -0.0000000  -0.0000000  -0.0000000  -0.0000000  -0.0000000  -0.0000000
 NQMom=    0.0000000   0.0000000   0.0000000   0.0000000   0.0000000   0.0000000   0.0000000   0.0000000
 NMagM=    0.0000000   2.7928460   2.7928460   2.7928460   0.0000000   2.7928460   2.7928460   2.7928460
 AtZNuc=   6.0000000   1.0000000   1.0000000   1.0000000   6.0000000   1.0000000   1.0000000   1.0000000
 Leave Link  101 at Wed Sep  7 15:35:16 2022, MaxMem=   131072000 cpu:               0.1 elap:               0.1
 (Enter /opt/g16/l103.exe)

 GradGradGradGradGradGradGradGradGradGradGradGradGradGradGradGradGradGrad
 Berny optimization.
 Initialization pass.
                           ----------------------------
                           !    Initial Parameters    !
                           ! (Angstroms and Degrees)  !
 --------------------------                            --------------------------
 ! Name  Definition              Value          Derivative Info.                !
 --------------------------------------------------------------------------------
 ! R1    R(1,2)                  1.1421         estimate D2E/DX2                !
 ! R2    R(1,3)                  1.1304         estimate D2E/DX2                !
 ! R3    R(1,4)                  1.0758         estimate D2E/DX2                !
 ! R4    R(1,5)                  1.5211         estimate D2E/DX2                !
 ! R5    R(5,6)                  1.1121         estimate D2E/DX2                !
 ! R6    R(5,7)                  1.053          estimate D2E/DX2                !
 ! R7    R(5,8)                  1.4496         estimate D2E/DX2                !
 ! R8    R(8,9)                  1.098          estimate D2E/DX2                !
 ! R9    R(8,10)                 1.4171         estimate D2E/DX2                !
 ! R10   R(8,11)                 1.4273         estimate D2E/DX2                !
 ! R11   R(10,12)                0.9437         estimate D2E/DX2                !
 ! R12   R(11,13)                1.088          estimate D2E/DX2                !
 ! R13   R(11,14)                1.1341         estimate D2E/DX2                !
 ! R14   R(11,15)                1.5032         estimate D2E/DX2                !
 ! R15   R(15,16)                1.1104         estimate D2E/DX2                !
 ! R16   R(15,17)                1.1165         estimate D2E/DX2                !
 ! R17   R(15,18)                1.0843         estimate D2E/DX2                !
 ! A1    A(2,1,3)              108.9086         estimate D2E/DX2                !
 ! A2    A(2,1,4)              104.6075         estimate D2E/DX2                !
 ! A3    A(2,1,5)              108.926          estimate D2E/DX2                !
 ! A4    A(3,1,4)              105.1469         estimate D2E/DX2                !
 ! A5    A(3,1,5)              113.8863         estimate D2E/DX2                !
 ! A6    A(4,1,5)              114.839          estimate D2E/DX2                !
 ! A7    A(1,5,6)              109.7633         estimate D2E/DX2                !
 ! A8    A(1,5,7)              113.7099         estimate D2E/DX2                !
 ! A9    A(1,5,8)              114.8901         estimate D2E/DX2                !
 ! A10   A(6,5,7)              102.7724         estimate D2E/DX2                !
 ! A11   A(6,5,8)              105.7038         estimate D2E/DX2                !
 ! A12   A(7,5,8)              109.016          estimate D2E/DX2                !
 ! A13   A(5,8,9)              112.2753         estimate D2E/DX2                !
 ! A14   A(5,8,10)             104.3437         estimate D2E/DX2                !
 ! A15   A(5,8,11)             112.5806         estimate D2E/DX2                !
 ! A16   A(9,8,10)             105.2434         estimate D2E/DX2                !
 ! A17   A(9,8,11)             111.6777         estimate D2E/DX2                !
 ! A18   A(10,8,11)            110.1923         estimate D2E/DX2                !
 ! A19   A(8,10,12)            103.8423         estimate D2E/DX2                !
 ! A20   A(8,11,13)            110.2452         estimate D2E/DX2                !
 ! A21   A(8,11,14)            106.7606         estimate D2E/DX2                !
 ! A22   A(8,11,15)            114.549          estimate D2E/DX2                !
 ! A23   A(13,11,14)           111.6054         estimate D2E/DX2                !
 ! A24   A(13,11,15)           106.4204         estimate D2E/DX2                !
 ! A25   A(14,11,15)           107.3033         estimate D2E/DX2                !
 ! A26   A(11,15,16)           111.0066         estimate D2E/DX2                !
 ! A27   A(11,15,17)           106.861          estimate D2E/DX2                !
 ! A28   A(11,15,18)           111.9019         estimate D2E/DX2                !
 ! A29   A(16,15,17)           108.8957         estimate D2E/DX2                !
 ! A30   A(16,15,18)           112.019          estimate D2E/DX2                !
 ! A31   A(17,15,18)           105.8468         estimate D2E/DX2                !
 ! D1    D(2,1,5,6)            171.1854         estimate D2E/DX2                !
 ! D2    D(2,1,5,7)             56.7059         estimate D2E/DX2                !
 ! D3    D(2,1,5,8)            -69.8834         estimate D2E/DX2                !
 ! D4    D(3,1,5,6)             49.415          estimate D2E/DX2                !
 ! D5    D(3,1,5,7)            -65.0644         estimate D2E/DX2                !
 ! D6    D(3,1,5,8)            168.3462         estimate D2E/DX2                !
 ! D7    D(4,1,5,6)            -71.9101         estimate D2E/DX2                !
 ! D8    D(4,1,5,7)            173.6104         estimate D2E/DX2                !
 ! D9    D(4,1,5,8)             47.021          estimate D2E/DX2                !
 ! D10   D(1,5,8,9)            -55.531          estimate D2E/DX2                !
 ! D11   D(1,5,8,10)            57.9229         estimate D2E/DX2                !
 ! D12   D(1,5,8,11)           177.4081         estimate D2E/DX2                !
 ! D13   D(6,5,8,9)             65.6445         estimate D2E/DX2                !
 ! D14   D(6,5,8,10)           179.0984         estimate D2E/DX2                !
 ! D15   D(6,5,8,11)           -61.4164         estimate D2E/DX2                !
 ! D16   D(7,5,8,9)            175.5095         estimate D2E/DX2                !
 ! D17   D(7,5,8,10)           -71.0366         estimate D2E/DX2                !
 ! D18   D(7,5,8,11)            48.4486         estimate D2E/DX2                !
 ! D19   D(5,8,10,12)           14.2411         estimate D2E/DX2                !
 ! D20   D(9,8,10,12)          132.6137         estimate D2E/DX2                !
 ! D21   D(11,8,10,12)        -106.8458         estimate D2E/DX2                !
 ! D22   D(5,8,11,13)          -51.4976         estimate D2E/DX2                !
 ! D23   D(5,8,11,14)           69.8983         estimate D2E/DX2                !
 ! D24   D(5,8,11,15)         -171.478          estimate D2E/DX2                !
 ! D25   D(9,8,11,13)         -178.876          estimate D2E/DX2                !
 ! D26   D(9,8,11,14)          -57.4801         estimate D2E/DX2                !
 ! D27   D(9,8,11,15)           61.1437         estimate D2E/DX2                !
 ! D28   D(10,8,11,13)          64.5312         estimate D2E/DX2                !
 ! D29   D(10,8,11,14)        -174.073          estimate D2E/DX2                !
 ! D30   D(10,8,11,15)         -55.4492         estimate D2E/DX2                !
 ! D31   D(8,11,15,16)         -61.6955         estimate D2E/DX2                !
 ! D32   D(8,11,15,17)         179.693          estimate D2E/DX2                !
 ! D33   D(8,11,15,18)          64.265          estimate D2E/DX2                !
 ! D34   D(13,11,15,16)        176.2171         estimate D2E/DX2                !
 ! D35   D(13,11,15,17)         57.6057         estimate D2E/DX2                !
 ! D36   D(13,11,15,18)        -57.8224         estimate D2E/DX2                !
 ! D37   D(14,11,15,16)         56.6217         estimate D2E/DX2                !
 ! D38   D(14,11,15,17)        -61.9898         estimate D2E/DX2                !
 ! D39   D(14,11,15,18)       -177.4178         estimate D2E/DX2                !
 --------------------------------------------------------------------------------
 Trust Radius=3.00D-01 FncErr=1.00D-07 GrdErr=1.00D-07 EigMax=2.50D+02 EigMin=1.00D-04
 Number of steps in this run=     97 maximum allowed number of steps=    108.
 GradGradGradGradGradGradGradGradGradGradGradGradGradGradGradGradGradGrad

 Leave Link  103 at Wed Sep  7 15:35:16 2022, MaxMem=   131072000 cpu:               0.0 elap:               0.0
 (Enter /opt/g16/l202.exe)
                          Input orientation:                          
 ---------------------------------------------------------------------
 Center     Atomic      Atomic             Coordinates (Angstroms)
 Number     Number       Type             X           Y           Z
 ---------------------------------------------------------------------
      1          6           0        1.088000    7.810000    9.667000
      2          1           0        1.315000    7.547000    8.579000
      3          1           0        0.389000    7.031000   10.094000
      4          1           0        2.021000    7.663000   10.182000
      5          6           0        0.541000    9.228000    9.728000
      6          1           0        0.167000    9.443000   10.753000
      7          1           0       -0.314000    9.378000    9.132000
      8          6           0        1.508000   10.268000    9.437000
      9          1           0        2.391000   10.209000   10.087000
     10          8           0        1.980000    9.955000    8.138000
     11          6           0        0.930000   11.573000    9.450000
     12          1           0        1.356000    9.324000    7.817000
     13          1           0        0.047000   11.600000    8.815000
     14          1           0        0.675000   11.807000   10.530000
     15          6           0        1.840000   12.664000    8.959000
     16          1           0        2.742000   12.749000    9.601000
     17          1           0        1.263000   13.618000    9.018000
     18          1           0        2.096000   12.537000    7.913000
 ---------------------------------------------------------------------
                    Distance matrix (angstroms):
                    1          2          3          4          5
     1  C    0.000000
     2  H    1.142122   0.000000
     3  H    1.130385   1.849042   0.000000
     4  H    1.075789   1.755420   1.752310   0.000000
     5  C    1.521070   2.178311   2.232458   2.201304   0.000000
     6  H    2.166639   3.104673   2.510241   2.632823   1.112082
     7  H    2.170358   2.512372   2.632121   3.081550   1.052968
     8  C    2.504209   2.859590   3.487403   2.757575   1.449610
     9  H    2.762139   3.243160   3.756027   2.574498   2.124557
    10  O    2.781102   2.536764   3.860958   3.071300   2.264365
    11  C    3.772562   4.137093   4.619219   4.124828   2.393247
    12  H    2.405519   1.933922   3.373080   2.965530   2.079750
    13  H    4.021652   4.253273   4.756949   4.611435   2.589206
    14  H    4.109908   4.729017   4.804380   4.370990   2.704145
    15  C    4.962669   5.157879   5.926577   5.151552   3.752980
    16  H    5.209011   5.490138   6.202837   5.169603   4.154271
    17  H    5.846767   6.087074   6.731287   6.114858   4.505273
    18  H    5.141703   5.094469   6.163331   5.376789   4.081878
                    6          7          8          9         10
     6  H    0.000000
     7  H    1.692107   0.000000
     8  C    2.052014   2.050563   0.000000
     9  H    2.444686   2.986572   1.098030   0.000000
    10  O    3.222939   2.565814   1.417094   2.007994   0.000000
    11  C    2.610915   2.542968   1.427332   2.097805   2.332760
    12  H    3.169855   2.126274   1.881127   2.647140   0.943704
    13  H    2.902222   2.273344   2.072590   3.007857   2.626946
    14  H    2.428228   2.971963   2.063264   2.386317   3.294631
    15  C    4.048729   3.932867   2.465669   2.757356   2.834135
    16  H    4.345960   4.574138   2.775791   2.609789   3.244603
    17  H    4.652103   4.525210   3.384979   3.746522   3.834848
    18  H    4.621631   4.156121   2.795833   3.198888   2.594380
                   11         12         13         14         15
    11  C    0.000000
    12  H    2.811791   0.000000
    13  H    1.087954   2.808854   0.000000
    14  H    1.134099   3.740243   1.838058   0.000000
    15  C    1.503151   3.562867   2.089900   2.135349   0.000000
    16  H    2.165438   4.102960   3.033319   2.454159   1.110402
    17  H    2.116492   4.459763   2.364781   2.431380   1.116479
    18  H    2.156669   3.298513   2.426927   3.066077   1.084334
                   16         17         18
    16  H    0.000000
    17  H    1.811765   0.000000
    18  H    1.819781   1.755983   0.000000
 Stoichiometry    C5H12O
 Framework group  C1[X(C5H12O)]
 Deg. of freedom    48
 Full point group                 C1      NOp   1
 Largest Abelian subgroup         C1      NOp   1
 Largest concise Abelian subgroup C1      NOp   1
                         Standard orientation:                         
 ---------------------------------------------------------------------
 Center     Atomic      Atomic             Coordinates (Angstroms)
 Number     Number       Type             X           Y           Z
 ---------------------------------------------------------------------
      1          6           0        2.468785   -0.019155    0.194437
      2          1           0        2.559069    0.995943   -0.321184
      3          1           0        3.387725   -0.633342   -0.042407
      4          1           0        2.541834    0.202522    1.244602
      5          6           0        1.163626   -0.674282   -0.231034
      6          1           0        1.133938   -1.724659    0.133044
      7          1           0        1.066282   -0.786395   -1.273481
      8          6           0       -0.033469   -0.044405    0.290107
      9          1           0       -0.022810    0.027244    1.385745
     10          8           0        0.044224    1.293140   -0.171513
     11          6           0       -1.229167   -0.661348   -0.186301
     12          1           0        0.714202    1.264276   -0.835497
     13          1           0       -1.206553   -0.738334   -1.271292
     14          1           0       -1.287921   -1.682460    0.303656
     15          6           0       -2.492886    0.074663    0.161211
     16          1           0       -2.627328    0.137180    1.261670
     17          1           0       -3.338466   -0.510475   -0.273686
     18          1           0       -2.535095    1.050544   -0.309592
 ---------------------------------------------------------------------
 Rotational constants (GHZ):           8.1892492           2.0188063           1.7637868
 Leave Link  202 at Wed Sep  7 15:35:16 2022, MaxMem=   131072000 cpu:               0.0 elap:               0.0
 (Enter /opt/g16/l301.exe)
 Standard basis: VSTO-6G (5D, 7F)
 Ernie: Thresh=  0.10000D-02 Tol=  0.10000D-05 Strict=F.
  NNHCO=     0 NNPyr=     0 NCTC=     0               EPep=         0.000000000
    EC=       130.829379680  ECS=         2.339798876   EG=         0.575025571
   EHC=         0.000000000  EAt=       -36.836480110  AtH=         2.452923921
 EPDDG=         0.000000000  ECC=       133.744204127 EAtT=        39.289404030
 There are    36 symmetry adapted cartesian basis functions of A   symmetry.
 There are    36 symmetry adapted basis functions of A   symmetry.
    36 basis functions,   216 primitive gaussians,    36 cartesian basis functions
    19 alpha electrons       19 beta electrons
       nuclear repulsion energy       173.0336081573 Hartrees.
 IExCor=    0 DFT=F Ex=HF Corr=None ExCW=0 ScaHFX=  1.000000
 ScaDFX=  1.000000  1.000000  1.000000  1.000000 ScalE2=  1.000000  1.000000
 IRadAn=      5 IRanWt=     -1 IRanGd=            0 ICorTp=0 IEmpDi=  4
 Integral buffers will be    131072 words long.
 Regular integral format.
 Two-electron integral symmetry is turned off.
 Leave Link  301 at Wed Sep  7 15:35:16 2022, MaxMem=   131072000 cpu:               0.0 elap:               0.0
 (Enter /opt/g16/l302.exe)
 Do NDO integrals.
 NPDir=0 NMtPBC=     1 NCelOv=     1 NCel=       1 NClECP=     1 NCelD=      1
         NCelK=      1 NCelE2=     1 NClLst=     1 CellRange=     0.0.
 One-electron integrals computed using PRISM.
 NBasis=    36 RedAO= F EigKep=  0.00D+00  NBF=    36
 NBsUse=    36 1.00D-04 EigRej=  0.00D+00 NBFU=    36
 Leave Link  302 at Wed Sep  7 15:35:16 2022, MaxMem=   131072000 cpu:               0.0 elap:               0.0
 (Enter /opt/g16/l303.exe)
 DipDrv:  MaxL=1.
 Leave Link  303 at Wed Sep  7 15:35:16 2022, MaxMem=   131072000 cpu:               0.0 elap:               0.0
 (Enter /opt/g16/l401.exe)
 Simple Huckel Guess.
 JPrj=0 DoOrth=F DoCkMO=F.
 Leave Link  401 at Wed Sep  7 15:35:16 2022, MaxMem=   131072000 cpu:               0.0 elap:               0.0
 (Enter /opt/g16/l502.exe)
 Keep J ints in memory in canonical form, NReq=862161.
 FoFCou: FMM=F IPFlag=           0 FMFlag=           0 FMFlg1=           0
         NFxFlg=           0 DoJE=F BraDBF=F KetDBF=F FulRan=T
         wScrn=  0.000000 ICntrl=       600 IOpCl=  2 I1Cent=           0 NGrid=           0
         NMat0=    1 NMatS0=     72 NMatT0=    0 NMatD0=    1 NMtDS0=    0 NMtDT0=    0
 Symmetry not used in FoFCou.
 Two-electron integral symmetry not used.
 Closed shell SCF:
 Using DIIS extrapolation, IDIIS=  1040.
 Overlap will be assumed to be unity.
 NGot=   131072000 LenX=   131006778 LenY=   131005041
 Requested convergence on RMS density matrix=1.00D-08 within 128 cycles.
 Requested convergence on MAX density matrix=1.00D-06.
 Requested convergence on             energy=1.00D-06.
 No special actions if energy rises.

 Cycle   1  Pass 1  IDiag  1:
 E= 0.198462296178036    
 DIIS: error= 7.12D-02 at cycle   1 NSaved=   1.
 NSaved= 1 IEnMin= 1 EnMin= 0.198462296178036     IErMin= 1 ErrMin= 7.12D-02
 ErrMax= 7.12D-02  0.00D+00 EMaxC= 1.00D-01 BMatC= 1.08D-01 BMatP= 1.08D-01
 IDIUse=3 WtCom= 2.88D-01 WtEn= 7.12D-01
 Coeff-Com:  0.100D+01
 Coeff-En:   0.100D+01
 Coeff:      0.100D+01
 GapD=    2.000 DampG=2.000 DampE=0.500 DampFc=1.0000 IDamp=-1.
 RMSDP=1.27D-02 MaxDP=1.49D-01              OVMax= 0.00D+00

 Cycle   2  Pass 1  IDiag  1:
 E=-0.601093146533174E-01 Delta-E=       -0.258571610831 Rises=F Damp=F
 DIIS: error= 1.41D-02 at cycle   2 NSaved=   2.
 NSaved= 2 IEnMin= 2 EnMin=-0.601093146533174E-01 IErMin= 2 ErrMin= 1.41D-02
 ErrMax= 1.41D-02  0.00D+00 EMaxC= 1.00D-01 BMatC= 7.05D-03 BMatP= 1.08D-01
 IDIUse=3 WtCom= 8.59D-01 WtEn= 1.41D-01
 Coeff-Com: -0.304D+00 0.130D+01
 Coeff-En:   0.000D+00 0.100D+01
 Coeff:     -0.261D+00 0.126D+01
 RMSDP=4.63D-03 MaxDP=5.41D-02 DE=-2.59D-01 OVMax= 0.00D+00

 Cycle   3  Pass 1  IDiag  3:
 E=-0.819011809260530E-01 Delta-E=       -0.021791866273 Rises=F Damp=F
 DIIS: error= 3.37D-03 at cycle   3 NSaved=   3.
 NSaved= 3 IEnMin= 3 EnMin=-0.819011809260530E-01 IErMin= 3 ErrMin= 3.37D-03
 ErrMax= 3.37D-03  0.00D+00 EMaxC= 1.00D-01 BMatC= 2.21D-04 BMatP= 7.05D-03
 IDIUse=3 WtCom= 9.66D-01 WtEn= 3.37D-02
 Coeff-Com:  0.144D+00-0.699D+00 0.156D+01
 Coeff-En:   0.000D+00 0.000D+00 0.100D+01
 Coeff:      0.139D+00-0.676D+00 0.154D+01
 Gap=     0.515 Goal=   None    Shift=    0.000
 RMSDP=1.34D-03 MaxDP=1.55D-02 DE=-2.18D-02 OVMax= 8.72D-03

 Cycle   4  Pass 1  IDiag  3:
 E=-0.830822255202577E-01 Delta-E=       -0.001181044594 Rises=F Damp=F
 DIIS: error= 7.39D-04 at cycle   4 NSaved=   4.
 NSaved= 4 IEnMin= 4 EnMin=-0.830822255202577E-01 IErMin= 4 ErrMin= 7.39D-04
 ErrMax= 7.39D-04  0.00D+00 EMaxC= 1.00D-01 BMatC= 1.02D-05 BMatP= 2.21D-04
 IDIUse=3 WtCom= 9.93D-01 WtEn= 7.39D-03
 Coeff-Com: -0.331D-01 0.177D+00-0.587D+00 0.144D+01
 Coeff-En:   0.000D+00 0.000D+00 0.000D+00 0.100D+01
 Coeff:     -0.329D-01 0.176D+00-0.583D+00 0.144D+01
 Gap=     0.516 Goal=   None    Shift=    0.000
 RMSDP=3.43D-04 MaxDP=3.25D-03 DE=-1.18D-03 OVMax= 2.00D-03

 Cycle   5  Pass 1  IDiag  3:
 E=-0.831435658667772E-01 Delta-E=       -0.000061340347 Rises=F Damp=F
 DIIS: error= 1.27D-04 at cycle   5 NSaved=   5.
 NSaved= 5 IEnMin= 5 EnMin=-0.831435658667772E-01 IErMin= 5 ErrMin= 1.27D-04
 ErrMax= 1.27D-04  0.00D+00 EMaxC= 1.00D-01 BMatC= 3.14D-07 BMatP= 1.02D-05
 IDIUse=3 WtCom= 9.99D-01 WtEn= 1.27D-03
 Coeff-Com:  0.204D-02-0.139D-01 0.803D-01-0.364D+00 0.130D+01
 Coeff-En:   0.000D+00 0.000D+00 0.000D+00 0.000D+00 0.100D+01
 Coeff:      0.204D-02-0.139D-01 0.802D-01-0.364D+00 0.130D+01
 Gap=     0.516 Goal=   None    Shift=    0.000
 RMSDP=5.41D-05 MaxDP=5.83D-04 DE=-6.13D-05 OVMax= 3.37D-04

 Cycle   6  Pass 1  IDiag  3:
 E=-0.831453337087567E-01 Delta-E=       -0.000001767842 Rises=F Damp=F
 DIIS: error= 3.94D-05 at cycle   6 NSaved=   6.
 NSaved= 6 IEnMin= 6 EnMin=-0.831453337087567E-01 IErMin= 6 ErrMin= 3.94D-05
 ErrMax= 3.94D-05  0.00D+00 EMaxC= 1.00D-01 BMatC= 2.40D-08 BMatP= 3.14D-07
 IDIUse=1 WtCom= 1.00D+00 WtEn= 0.00D+00
 Coeff-Com: -0.393D-03 0.355D-02-0.283D-01 0.153D+00-0.719D+00 0.159D+01
 Coeff:     -0.393D-03 0.355D-02-0.283D-01 0.153D+00-0.719D+00 0.159D+01
 Gap=     0.516 Goal=   None    Shift=    0.000
 RMSDP=1.66D-05 MaxDP=2.25D-04 DE=-1.77D-06 OVMax= 1.31D-04

 Cycle   7  Pass 1  IDiag  3:
 E=-0.831454862373278E-01 Delta-E=       -0.000000152529 Rises=F Damp=F
 DIIS: error= 6.97D-06 at cycle   7 NSaved=   7.
 NSaved= 7 IEnMin= 7 EnMin=-0.831454862373278E-01 IErMin= 7 ErrMin= 6.97D-06
 ErrMax= 6.97D-06  0.00D+00 EMaxC= 1.00D-01 BMatC= 1.71D-09 BMatP= 2.40D-08
 IDIUse=1 WtCom= 1.00D+00 WtEn= 0.00D+00
 Coeff-Com:  0.149D-03-0.150D-02 0.131D-01-0.730D-01 0.368D+00-0.101D+01
 Coeff-Com:  0.170D+01
 Coeff:      0.149D-03-0.150D-02 0.131D-01-0.730D-01 0.368D+00-0.101D+01
 Coeff:      0.170D+01
 Gap=     0.516 Goal=   None    Shift=    0.000
 RMSDP=5.02D-06 MaxDP=5.60D-05 DE=-1.53D-07 OVMax= 3.31D-05

 Cycle   8  Pass 1  IDiag  3:
 E=-0.831454975238159E-01 Delta-E=       -0.000000011286 Rises=F Damp=F
 DIIS: error= 1.11D-06 at cycle   8 NSaved=   8.
 NSaved= 8 IEnMin= 8 EnMin=-0.831454975238159E-01 IErMin= 8 ErrMin= 1.11D-06
 ErrMax= 1.11D-06  0.00D+00 EMaxC= 1.00D-01 BMatC= 6.26D-11 BMatP= 1.71D-09
 IDIUse=1 WtCom= 1.00D+00 WtEn= 0.00D+00
 Coeff-Com: -0.553D-04 0.625D-03-0.586D-02 0.331D-01-0.170D+00 0.485D+00
 Coeff-Com: -0.930D+00 0.159D+01
 Coeff:     -0.553D-04 0.625D-03-0.586D-02 0.331D-01-0.170D+00 0.485D+00
 Coeff:     -0.930D+00 0.159D+01
 Gap=     0.516 Goal=   None    Shift=    0.000
 RMSDP=8.82D-07 MaxDP=6.70D-06 DE=-1.13D-08 OVMax= 6.33D-06

 Cycle   9  Pass 1  IDiag  3:
 E=-0.831454979321791E-01 Delta-E=       -0.000000000408 Rises=F Damp=F
 DIIS: error= 3.26D-07 at cycle   9 NSaved=   9.
 NSaved= 9 IEnMin= 9 EnMin=-0.831454979321791E-01 IErMin= 9 ErrMin= 3.26D-07
 ErrMax= 3.26D-07  0.00D+00 EMaxC= 1.00D-01 BMatC= 4.17D-12 BMatP= 6.26D-11
 IDIUse=1 WtCom= 1.00D+00 WtEn= 0.00D+00
 Coeff-Com:  0.187D-04-0.257D-03 0.264D-02-0.153D-01 0.798D-01-0.231D+00
 Coeff-Com:  0.456D+00-0.953D+00 0.166D+01
 Coeff:      0.187D-04-0.257D-03 0.264D-02-0.153D-01 0.798D-01-0.231D+00
 Coeff:      0.456D+00-0.953D+00 0.166D+01
 Gap=     0.516 Goal=   None    Shift=    0.000
 RMSDP=2.51D-07 MaxDP=1.68D-06 DE=-4.08D-10 OVMax= 1.60D-06

 Cycle  10  Pass 1  IDiag  3:
 E=-0.831454979610271E-01 Delta-E=       -0.000000000029 Rises=F Damp=F
 DIIS: error= 5.73D-08 at cycle  10 NSaved=  10.
 NSaved=10 IEnMin=10 EnMin=-0.831454979610271E-01 IErMin=10 ErrMin= 5.73D-08
 ErrMax= 5.73D-08  0.00D+00 EMaxC= 1.00D-01 BMatC= 1.80D-13 BMatP= 4.17D-12
 IDIUse=1 WtCom= 1.00D+00 WtEn= 0.00D+00
 Coeff-Com: -0.660D-05 0.942D-04-0.990D-03 0.575D-02-0.302D-01 0.880D-01
 Coeff-Com: -0.175D+00 0.377D+00-0.793D+00 0.153D+01
 Coeff:     -0.660D-05 0.942D-04-0.990D-03 0.575D-02-0.302D-01 0.880D-01
 Coeff:     -0.175D+00 0.377D+00-0.793D+00 0.153D+01
 Gap=     0.516 Goal=   None    Shift=    0.000
 RMSDP=4.99D-08 MaxDP=3.67D-07 DE=-2.88D-11 OVMax= 3.21D-07

 Cycle  11  Pass 1  IDiag  3:
 E=-0.831454979621640E-01 Delta-E=       -0.000000000001 Rises=F Damp=F
 DIIS: error= 1.42D-08 at cycle  11 NSaved=  11.
 NSaved=11 IEnMin=11 EnMin=-0.831454979621640E-01 IErMin=11 ErrMin= 1.42D-08
 ErrMax= 1.42D-08  0.00D+00 EMaxC= 1.00D-01 BMatC= 1.03D-14 BMatP= 1.80D-13
 IDIUse=1 WtCom= 1.00D+00 WtEn= 0.00D+00
 Coeff-Com:  0.186D-05-0.266D-04 0.281D-03-0.163D-02 0.863D-02-0.252D-01
 Coeff-Com:  0.502D-01-0.109D+00 0.247D+00-0.655D+00 0.149D+01
 Coeff:      0.186D-05-0.266D-04 0.281D-03-0.163D-02 0.863D-02-0.252D-01
 Coeff:      0.502D-01-0.109D+00 0.247D+00-0.655D+00 0.149D+01
 Gap=     0.516 Goal=   None    Shift=    0.000
 RMSDP=1.13D-08 MaxDP=9.02D-08 DE=-1.14D-12 OVMax= 7.64D-08

 Cycle  12  Pass 1  IDiag  3:
 E=-0.831454979623345E-01 Delta-E=       -0.000000000000 Rises=F Damp=F
 DIIS: error= 3.52D-09 at cycle  12 NSaved=  12.
 NSaved=12 IEnMin=12 EnMin=-0.831454979623345E-01 IErMin=12 ErrMin= 3.52D-09
 ErrMax= 3.52D-09  0.00D+00 EMaxC= 1.00D-01 BMatC= 6.41D-16 BMatP= 1.03D-14
 IDIUse=1 WtCom= 1.00D+00 WtEn= 0.00D+00
 Coeff-Com: -0.242D-06 0.356D-05-0.384D-04 0.224D-03-0.120D-02 0.355D-02
 Coeff-Com: -0.705D-02 0.150D-01-0.384D-01 0.143D+00-0.574D+00 0.146D+01
 Coeff:     -0.242D-06 0.356D-05-0.384D-04 0.224D-03-0.120D-02 0.355D-02
 Coeff:     -0.705D-02 0.150D-01-0.384D-01 0.143D+00-0.574D+00 0.146D+01
 Gap=     0.516 Goal=   None    Shift=    0.000
 RMSDP=2.96D-09 MaxDP=2.21D-08 DE=-1.71D-13 OVMax= 2.15D-08

 Cycle  13  Pass 2  IDiag  1:
 SCF Done:  E(RPM3) = -0.831454979623E-01 A.U. after   13 cycles
            NFock= 12  Conv=0.30D-08     -V/T= 0.9986
 KE=-5.982971720449D+01 PE=-2.600791249329D+02 EE= 1.467920884821D+02
 Leave Link  502 at Wed Sep  7 15:35:16 2022, MaxMem=   131072000 cpu:               0.0 elap:               0.0
 (Enter /opt/g16/l601.exe)
 Copying SCF densities to generalized density rwf, IOpCl= 0 IROHF=0.

 **********************************************************************

            Population analysis using the SCF density.

 **********************************************************************

 Orbital symmetries:
       Occupied  (A) (A) (A) (A) (A) (A) (A) (A) (A) (A) (A) (A)
                 (A) (A) (A) (A) (A) (A) (A)
       Virtual   (A) (A) (A) (A) (A) (A) (A) (A) (A) (A) (A) (A)
                 (A) (A) (A) (A) (A)
 The electronic state is 1-A.
 Alpha  occ. eigenvalues --   -1.54351  -1.24249  -1.20379  -0.97167  -0.79904
 Alpha  occ. eigenvalues --   -0.76824  -0.64899  -0.63309  -0.59004  -0.56357
 Alpha  occ. eigenvalues --   -0.52972  -0.50908  -0.49419  -0.48466  -0.45933
 Alpha  occ. eigenvalues --   -0.44568  -0.43698  -0.43281  -0.40545
 Alpha virt. eigenvalues --    0.10990   0.12343   0.13218   0.13561   0.13951
 Alpha virt. eigenvalues --    0.14406   0.14647   0.15108   0.15578   0.15990
 Alpha virt. eigenvalues --    0.16943   0.17040   0.17608   0.17732   0.19090
 Alpha virt. eigenvalues --    0.19440   0.21208
          Condensed to atoms (all electrons):
               1          2          3          4          5          6
     1  C    4.103013   0.000000   0.000000   0.000000   0.000000   0.000000
     2  H    0.000000   0.962953   0.000000   0.000000   0.000000   0.000000
     3  H    0.000000   0.000000   0.954430   0.000000   0.000000   0.000000
     4  H    0.000000   0.000000   0.000000   0.954470   0.000000   0.000000
     5  C    0.000000   0.000000   0.000000   0.000000   4.151287   0.000000
     6  H    0.000000   0.000000   0.000000   0.000000   0.000000   0.947355
     7  H    0.000000   0.000000   0.000000   0.000000   0.000000   0.000000
     8  C    0.000000   0.000000   0.000000   0.000000   0.000000   0.000000
     9  H    0.000000   0.000000   0.000000   0.000000   0.000000   0.000000
    10  O    0.000000   0.000000   0.000000   0.000000   0.000000   0.000000
    11  C    0.000000   0.000000   0.000000   0.000000   0.000000   0.000000
    12  H    0.000000   0.000000   0.000000   0.000000   0.000000   0.000000
    13  H    0.000000   0.000000   0.000000   0.000000   0.000000   0.000000
    14  H    0.000000   0.000000   0.000000   0.000000   0.000000   0.000000
    15  C    0.000000   0.000000   0.000000   0.000000   0.000000   0.000000
    16  H    0.000000   0.000000   0.000000   0.000000   0.000000   0.000000
    17  H    0.000000   0.000000   0.000000   0.000000   0.000000   0.000000
    18  H    0.000000   0.000000   0.000000   0.000000   0.000000   0.000000
               7          8          9         10         11         12
     1  C    0.000000   0.000000   0.000000   0.000000   0.000000   0.000000
     2  H    0.000000   0.000000   0.000000   0.000000   0.000000   0.000000
     3  H    0.000000   0.000000   0.000000   0.000000   0.000000   0.000000
     4  H    0.000000   0.000000   0.000000   0.000000   0.000000   0.000000
     5  C    0.000000   0.000000   0.000000   0.000000   0.000000   0.000000
     6  H    0.000000   0.000000   0.000000   0.000000   0.000000   0.000000
     7  H    0.938706   0.000000   0.000000   0.000000   0.000000   0.000000
     8  C    0.000000   3.925129   0.000000   0.000000   0.000000   0.000000
     9  H    0.000000   0.000000   0.928871   0.000000   0.000000   0.000000
    10  O    0.000000   0.000000   0.000000   6.334853   0.000000   0.000000
    11  C    0.000000   0.000000   0.000000   0.000000   4.133986   0.000000
    12  H    0.000000   0.000000   0.000000   0.000000   0.000000   0.804818
    13  H    0.000000   0.000000   0.000000   0.000000   0.000000   0.000000
    14  H    0.000000   0.000000   0.000000   0.000000   0.000000   0.000000
    15  C    0.000000   0.000000   0.000000   0.000000   0.000000   0.000000
    16  H    0.000000   0.000000   0.000000   0.000000   0.000000   0.000000
    17  H    0.000000   0.000000   0.000000   0.000000   0.000000   0.000000
    18  H    0.000000   0.000000   0.000000   0.000000   0.000000   0.000000
              13         14         15         16         17         18
     1  C    0.000000   0.000000   0.000000   0.000000   0.000000   0.000000
     2  H    0.000000   0.000000   0.000000   0.000000   0.000000   0.000000
     3  H    0.000000   0.000000   0.000000   0.000000   0.000000   0.000000
     4  H    0.000000   0.000000   0.000000   0.000000   0.000000   0.000000
     5  C    0.000000   0.000000   0.000000   0.000000   0.000000   0.000000
     6  H    0.000000   0.000000   0.000000   0.000000   0.000000   0.000000
     7  H    0.000000   0.000000   0.000000   0.000000   0.000000   0.000000
     8  C    0.000000   0.000000   0.000000   0.000000   0.000000   0.000000
     9  H    0.000000   0.000000   0.000000   0.000000   0.000000   0.000000
    10  O    0.000000   0.000000   0.000000   0.000000   0.000000   0.000000
    11  C    0.000000   0.000000   0.000000   0.000000   0.000000   0.000000
    12  H    0.000000   0.000000   0.000000   0.000000   0.000000   0.000000
    13  H    0.941133   0.000000   0.000000   0.000000   0.000000   0.000000
    14  H    0.000000   0.943850   0.000000   0.000000   0.000000   0.000000
    15  C    0.000000   0.000000   4.103235   0.000000   0.000000   0.000000
    16  H    0.000000   0.000000   0.000000   0.956312   0.000000   0.000000
    17  H    0.000000   0.000000   0.000000   0.000000   0.971292   0.000000
    18  H    0.000000   0.000000   0.000000   0.000000   0.000000   0.944308
 Mulliken charges:
               1
     1  C   -0.103013
     2  H    0.037047
     3  H    0.045570
     4  H    0.045530
     5  C   -0.151287
     6  H    0.052645
     7  H    0.061294
     8  C    0.074871
     9  H    0.071129
    10  O   -0.334853
    11  C   -0.133986
    12  H    0.195182
    13  H    0.058867
    14  H    0.056150
    15  C   -0.103235
    16  H    0.043688
    17  H    0.028708
    18  H    0.055692
 Sum of Mulliken charges =  -0.00000
 Mulliken charges with hydrogens summed into heavy atoms:
               1
     1  C    0.025134
     5  C   -0.037348
     8  C    0.146000
    10  O   -0.139670
    11  C   -0.018969
    15  C    0.024854
 Charge=             -0.0000 electrons
 Dipole moment (field-independent basis, Debye):
    X=              0.9434    Y=             -1.3802    Z=             -0.4997  Tot=              1.7449
 N-N= 1.730336081573D+02 E-N=-2.600791250136D+02  KE=-5.982971720449D+01
 Leave Link  601 at Wed Sep  7 15:35:16 2022, MaxMem=   131072000 cpu:               0.0 elap:               0.0
 (Enter /opt/g16/l701.exe)
 ... and contract with generalized density number  0.
 Compute integral first derivatives.
 Leave Link  701 at Wed Sep  7 15:35:16 2022, MaxMem=   131072000 cpu:               0.0 elap:               0.0
 (Enter /opt/g16/l702.exe)
 L702 exits ... SP integral derivatives will be done elsewhere.
 Leave Link  702 at Wed Sep  7 15:35:16 2022, MaxMem=   131072000 cpu:               0.0 elap:               0.0
 (Enter /opt/g16/l703.exe)
 Integral derivatives from FoFJK, PRISM(SPDF).
 Compute integral first derivatives, UseDBF=F ICtDFT=           0.
 Calling FoFJK, ICntrl=      2127 FMM=F ISym2X=0 I1Cent= 0 IOpClX= 0 NMat=1 NMatS=1 NMatT=0.
 FoFJK:  IHMeth= 9 ICntrl=    2127 DoSepK=F KAlg= 0 I1Cent=           0 FoldK=F
 IRaf=         0 NMat=       1 IRICut=       1 DoRegI=T DoRafI=F ISym2E= 0 IDoP0=3 IntGTp=3.
 FoFCou: FMM=F IPFlag=           0 FMFlag=      100000 FMFlg1=         800
         NFxFlg=           0 DoJE=F BraDBF=F KetDBF=F FulRan=T
         wScrn=  0.000000 ICntrl=      2127 IOpCl=  0 I1Cent=           0 NGrid=           0
         NMat0=    1 NMatS0=      1 NMatT0=    0 NMatD0=    1 NMtDS0=    0 NMtDT0=    0
 Symmetry not used in FoFCou.
 Leave Link  703 at Wed Sep  7 15:35:16 2022, MaxMem=   131072000 cpu:               0.0 elap:               0.0
 (Enter /opt/g16/l716.exe)
 Dipole        = 3.71156851D-01-5.42997651D-01-1.96601591D-01
 ***** Axes restored to original set *****
 -------------------------------------------------------------------
 Center     Atomic                   Forces (Hartrees/Bohr)
 Number     Number              X              Y              Z
 -------------------------------------------------------------------
      1        6          -0.016760140   -0.017297871   -0.023538467
      2        1          -0.007926005    0.001356768    0.021232672
      3        1           0.008518572    0.016388133   -0.010574533
      4        1           0.012124190    0.003202440    0.009592463
      5        6          -0.025822401   -0.052643421    0.073201031
      6        1          -0.001500612   -0.006044484    0.005030369
      7        1          -0.035100948   -0.003777966   -0.026968022
      8        6           0.065000963   -0.041394513   -0.028643759
      9        1           0.011857895   -0.000410120    0.005680758
     10        8           0.027335502    0.010949255   -0.017887322
     11        6          -0.023339540    0.079536264    0.025354883
     12        1          -0.000556958   -0.005935863   -0.014187201
     13        1          -0.016217342    0.002287044   -0.001157932
     14        1          -0.005643602   -0.000594432   -0.014469231
     15        6          -0.004888371    0.020194941    0.012306679
     16        1          -0.005438849    0.000849617   -0.009786367
     17        1           0.010432680   -0.005115617    0.000506962
     18        1           0.007924968   -0.001550174   -0.005692983
 -------------------------------------------------------------------
 Cartesian Forces:  Max     0.079536264 RMS     0.023769365
 Leave Link  716 at Wed Sep  7 15:35:16 2022, MaxMem=   131072000 cpu:               0.0 elap:               0.0
 (Enter /opt/g16/l103.exe)

 GradGradGradGradGradGradGradGradGradGradGradGradGradGradGradGradGradGrad
 Berny optimization.
 FormGI is forming the generalized inverse of G from B-inverse, IUseBI=4.
 Internal  Forces:  Max     0.102529771 RMS     0.018107412
 Search for a local minimum.
 Step number   1 out of a maximum of   97
 All quantities printed in internal units (Hartrees-Bohrs-Radians)
 RMS Force = .18107D-01 SwitMx=.10000D-02 MixMth= 1
 Mixed Optimization -- RFO/linear search
 Second derivative matrix not updated -- first step.
 ITU=  0
     Eigenvalues ---    0.00487   0.00724   0.01433   0.01466   0.01727
     Eigenvalues ---    0.03613   0.04234   0.04873   0.05040   0.05059
     Eigenvalues ---    0.05556   0.05558   0.05584   0.05948   0.06301
     Eigenvalues ---    0.08270   0.08874   0.09202   0.12496   0.12741
     Eigenvalues ---    0.16000   0.16000   0.16000   0.16000   0.16000
     Eigenvalues ---    0.16000   0.16000   0.16681   0.19355   0.21812
     Eigenvalues ---    0.22165   0.29423   0.30176   0.30264   0.30534
     Eigenvalues ---    0.31924   0.32049   0.32381   0.32557   0.33901
     Eigenvalues ---    0.35050   0.35476   0.36508   0.38296   0.39468
     Eigenvalues ---    0.41375   0.42901   0.59131
 RFO step:  Lambda=-7.15718862D-02 EMin= 4.87231580D-03
 Linear search not attempted -- first point.
 Maximum step size (   0.300) exceeded in Quadratic search.
    -- Step size scaled by   0.740
 Iteration  1 RMS(Cart)=  0.08876407 RMS(Int)=  0.00238527
 Iteration  2 RMS(Cart)=  0.00268420 RMS(Int)=  0.00026492
 Iteration  3 RMS(Cart)=  0.00000731 RMS(Int)=  0.00026485
 Iteration  4 RMS(Cart)=  0.00000000 RMS(Int)=  0.00026485
 ITry= 1 IFail=0 DXMaxC= 3.48D-01 DCOld= 1.00D+10 DXMaxT= 3.00D-01 DXLimC= 3.00D+00 Rises=F
 Variable       Old X    -DE/DX   Delta X   Delta X   Delta X     New X
                                 (Linear)    (Quad)   (Total)
    R1        2.15830  -0.02211   0.00000  -0.04474  -0.04474   2.11356
    R2        2.13612  -0.02056   0.00000  -0.04036  -0.04036   2.09576
    R3        2.03295   0.01467   0.00000   0.02486   0.02486   2.05781
    R4        2.87441  -0.00472   0.00000  -0.00934  -0.00934   2.86506
    R5        2.10153   0.00397   0.00000   0.00744   0.00744   2.10897
    R6        1.98982   0.04323   0.00000   0.06861   0.06861   2.05843
    R7        2.73937   0.09617   0.00000   0.15657   0.15657   2.89594
    R8        2.07498   0.01292   0.00000   0.02329   0.02329   2.09826
    R9        2.67792   0.03721   0.00000   0.05502   0.05502   2.73293
   R10        2.69727   0.10253   0.00000   0.15634   0.15634   2.85361
   R11        1.78334   0.00916   0.00000   0.01023   0.01023   1.79357
   R12        2.05593   0.01389   0.00000   0.02436   0.02436   2.08030
   R13        2.14314  -0.01263   0.00000  -0.02504  -0.02504   2.11810
   R14        2.84054   0.01617   0.00000   0.03052   0.03052   2.87106
   R15        2.09836  -0.01001   0.00000  -0.01866  -0.01866   2.07970
   R16        2.10984  -0.00974   0.00000  -0.01844  -0.01844   2.09140
   R17        2.04909   0.00754   0.00000   0.01310   0.01310   2.06219
    A1        1.90081  -0.00207   0.00000  -0.01034  -0.01026   1.89055
    A2        1.82574   0.00287   0.00000   0.01481   0.01490   1.84065
    A3        1.90112   0.00543   0.00000   0.01831   0.01841   1.91952
    A4        1.83516   0.00629   0.00000   0.01861   0.01838   1.85354
    A5        1.98769  -0.00544   0.00000  -0.02024  -0.02033   1.96736
    A6        2.00432  -0.00648   0.00000  -0.01884  -0.01892   1.98540
    A7        1.91573  -0.00454   0.00000  -0.02070  -0.02079   1.89494
    A8        1.98461  -0.00635   0.00000  -0.02783  -0.02789   1.95672
    A9        2.00521   0.00044   0.00000   0.00100   0.00111   2.00632
   A10        1.79372   0.00195   0.00000   0.00876   0.00804   1.80176
   A11        1.84488   0.00416   0.00000   0.02045   0.02039   1.86527
   A12        1.90269   0.00515   0.00000   0.02212   0.02204   1.92473
   A13        1.95957  -0.00549   0.00000  -0.02448  -0.02438   1.93519
   A14        1.82114   0.02875   0.00000   0.10422   0.10454   1.92569
   A15        1.96490  -0.00758   0.00000  -0.01063  -0.01143   1.95347
   A16        1.83684  -0.00814   0.00000  -0.03402  -0.03400   1.80284
   A17        1.94914   0.00365   0.00000  -0.01064  -0.01157   1.93757
   A18        1.92322  -0.00995   0.00000  -0.01877  -0.02001   1.90321
   A19        1.81239   0.02193   0.00000   0.07007   0.07007   1.88246
   A20        1.92414   0.00160   0.00000   0.00753   0.00750   1.93164
   A21        1.86332   0.00291   0.00000   0.01090   0.01091   1.87423
   A22        1.99926  -0.00250   0.00000  -0.00234  -0.00236   1.99689
   A23        1.94788  -0.00528   0.00000  -0.02781  -0.02778   1.92010
   A24        1.85739   0.00265   0.00000   0.01003   0.01000   1.86739
   A25        1.87280   0.00021   0.00000  -0.00032  -0.00032   1.87247
   A26        1.93743   0.00328   0.00000   0.00743   0.00736   1.94479
   A27        1.86508   0.00815   0.00000   0.02960   0.02937   1.89445
   A28        1.95306   0.00176   0.00000   0.00489   0.00477   1.95783
   A29        1.90059  -0.00524   0.00000  -0.01578  -0.01595   1.88464
   A30        1.95510  -0.00605   0.00000  -0.02531  -0.02529   1.92982
   A31        1.84738  -0.00168   0.00000   0.00084   0.00057   1.84794
    D1        2.98775  -0.00404   0.00000  -0.02058  -0.02046   2.96729
    D2        0.98971   0.00025   0.00000  -0.00155  -0.00165   0.98806
    D3       -1.21970  -0.00170   0.00000  -0.00864  -0.00865  -1.22835
    D4        0.86246  -0.00168   0.00000  -0.00699  -0.00680   0.85565
    D5       -1.13559   0.00261   0.00000   0.01204   0.01201  -1.12358
    D6        2.93820   0.00066   0.00000   0.00494   0.00500   2.94320
    D7       -1.25507  -0.00065   0.00000  -0.00084  -0.00081  -1.25588
    D8        3.03007   0.00364   0.00000   0.01819   0.01800   3.04808
    D9        0.82067   0.00169   0.00000   0.01109   0.01099   0.83167
   D10       -0.96920  -0.00313   0.00000  -0.01406  -0.01386  -0.98306
   D11        1.01095   0.00084   0.00000  -0.00705  -0.00750   1.00344
   D12        3.09636   0.00273   0.00000   0.02957   0.02979   3.12615
   D13        1.14571  -0.00562   0.00000  -0.02495  -0.02485   1.12086
   D14        3.12586  -0.00165   0.00000  -0.01794  -0.01850   3.10736
   D15       -1.07192   0.00024   0.00000   0.01868   0.01880  -1.05312
   D16        3.06322   0.00072   0.00000   0.00397   0.00430   3.06752
   D17       -1.23982   0.00470   0.00000   0.01098   0.01066  -1.22916
   D18        0.84559   0.00659   0.00000   0.04760   0.04796   0.89354
   D19        0.24855   0.00058   0.00000   0.01784   0.01829   0.26684
   D20        2.31455   0.00371   0.00000   0.02207   0.02158   2.33613
   D21       -1.86481  -0.00204   0.00000  -0.02061  -0.02057  -1.88538
   D22       -0.89880  -0.01021   0.00000  -0.04587  -0.04560  -0.94440
   D23        1.21995  -0.01389   0.00000  -0.06853  -0.06827   1.15169
   D24       -2.99285  -0.01311   0.00000  -0.06285  -0.06258  -3.05544
   D25       -3.12197   0.00042   0.00000   0.00484   0.00492  -3.11705
   D26       -1.00322  -0.00326   0.00000  -0.01781  -0.01775  -1.02097
   D27        1.06716  -0.00248   0.00000  -0.01213  -0.01207   1.05509
   D28        1.12628   0.01452   0.00000   0.06522   0.06490   1.19118
   D29       -3.03815   0.01084   0.00000   0.04257   0.04223  -2.99592
   D30       -0.96777   0.01162   0.00000   0.04825   0.04791  -0.91986
   D31       -1.07679   0.00161   0.00000   0.01077   0.01083  -1.06596
   D32        3.13624   0.00120   0.00000   0.00784   0.00788  -3.13907
   D33        1.12164  -0.00251   0.00000  -0.01319  -0.01326   1.10837
   D34        3.07557  -0.00075   0.00000  -0.00457  -0.00452   3.07105
   D35        1.00541  -0.00116   0.00000  -0.00749  -0.00747   0.99794
   D36       -1.00919  -0.00487   0.00000  -0.02852  -0.02861  -1.03780
   D37        0.98823   0.00390   0.00000   0.02280   0.02285   1.01108
   D38       -1.08193   0.00349   0.00000   0.01987   0.01990  -1.06203
   D39       -3.09653  -0.00022   0.00000  -0.00116  -0.00124  -3.09777
         Item               Value     Threshold  Converged?
 Maximum Force            0.102530     0.000450     NO 
 RMS     Force            0.018107     0.000300     NO 
 Maximum Displacement     0.347619     0.001800     NO 
 RMS     Displacement     0.088800     0.001200     NO 
 Predicted change in Energy=-3.759911D-02
 Lowest energy point so far.  Saving SCF results.
 GradGradGradGradGradGradGradGradGradGradGradGradGradGradGradGradGradGrad

 Leave Link  103 at Wed Sep  7 15:35:16 2022, MaxMem=   131072000 cpu:               0.0 elap:               0.0
 (Enter /opt/g16/l202.exe)
                          Input orientation:                          
 ---------------------------------------------------------------------
 Center     Atomic      Atomic             Coordinates (Angstroms)
 Number     Number       Type             X           Y           Z
 ---------------------------------------------------------------------
      1          6           0        1.053199    7.738419    9.710884
      2          1           0        1.235170    7.434168    8.650110
      3          1           0        0.362940    7.002442   10.171124
      4          1           0        2.009787    7.615186   10.216410
      5          6           0        0.515302    9.155119    9.758501
      6          1           0        0.171888    9.370175   10.798362
      7          1           0       -0.392579    9.269072    9.167495
      8          6           0        1.528744   10.244175    9.390612
      9          1           0        2.427418   10.184079   10.039965
     10          8           0        2.059410   10.009980    8.065826
     11          6           0        0.916621   11.623747    9.439475
     12          1           0        1.494863    9.381636    7.633048
     13          1           0        0.012172   11.670040    8.813623
     14          1           0        0.654749   11.836280   10.508378
     15          6           0        1.838447   12.736728    8.970663
     16          1           0        2.740368   12.802736    9.597840
     17          1           0        1.296826   13.698695    9.048773
     18          1           0        2.109673   12.631324    7.918910
 ---------------------------------------------------------------------
                    Distance matrix (angstroms):
                    1          2          3          4          5
     1  C    0.000000
     2  H    1.118447   0.000000
     3  H    1.109027   1.805728   0.000000
     4  H    1.088946   1.756728   1.757729   0.000000
     5  C    1.516126   2.169887   2.197155   2.194210   0.000000
     6  H    2.149871   3.081181   2.456846   2.607015   1.116017
     7  H    2.174498   2.506816   2.591465   3.099504   1.089276
     8  C    2.570512   2.920731   3.532299   2.797308   1.532466
     9  H    2.824539   3.303810   3.795008   2.608593   2.189559
    10  O    2.979709   2.766870   4.044203   3.219086   2.445446
    11  C    3.897190   4.275178   4.711511   4.226961   2.521301
    12  H    2.685634   2.212349   3.658366   3.171632   2.351255
    13  H    4.164907   4.411924   4.873635   4.732876   2.733270
    14  H    4.193713   4.813381   4.854368   4.442861   2.787542
    15  C    5.113475   5.346386   6.041545   5.273655   3.898631
    16  H    5.339159   5.655558   6.294778   5.275135   4.275727
    17  H    6.001886   6.277502   6.853585   6.235445   4.664609
    18  H    5.316750   5.320700   6.309347   5.518164   4.243833
                    6          7          8          9         10
     6  H    0.000000
     7  H    1.728748   0.000000
     8  C    2.141657   2.166123   0.000000
     9  H    2.514959   3.090441   1.110354   0.000000
    10  O    3.382136   2.788345   1.446207   2.015680   0.000000
    11  C    2.734920   2.707854   1.510066   2.171576   2.407721
    12  H    3.430686   2.435084   1.958099   2.703113   0.949118
    13  H    3.042051   2.460426   2.160092   3.089564   2.739741
    14  H    2.529609   3.079841   2.132619   2.468104   3.357753
    15  C    4.177509   4.128057   2.546584   2.829542   2.881442
    16  H    4.452057   4.742081   2.838522   2.674094   3.257339
    17  H    4.802357   4.742335   3.479130   3.822725   3.892857
    18  H    4.762494   4.373211   2.863890   3.254051   2.625939
                   11         12         13         14         15
    11  C    0.000000
    12  H    2.936767   0.000000
    13  H    1.100846   2.971350   0.000000
    14  H    1.120848   3.872801   1.820092   0.000000
    15  C    1.519301   3.628209   2.120794   2.139279   0.000000
    16  H    2.177417   4.137101   3.056312   2.472432   1.100530
    17  H    2.145370   4.547581   2.412690   2.451795   1.106723
    18  H    2.179611   3.319666   2.474690   3.074775   1.091264
                   16         17         18
    16  H    0.000000
    17  H    1.785505   0.000000
    18  H    1.801655   1.754021   0.000000
 Stoichiometry    C5H12O
 Framework group  C1[X(C5H12O)]
 Deg. of freedom    48
 Full point group                 C1      NOp   1
 RotChk:  IX=0 Diff= 2.38D-02
 Largest Abelian subgroup         C1      NOp   1
 Largest concise Abelian subgroup C1      NOp   1
                         Standard orientation:                         
 ---------------------------------------------------------------------
 Center     Atomic      Atomic             Coordinates (Angstroms)
 Number     Number       Type             X           Y           Z
 ---------------------------------------------------------------------
      1          6           0        2.555578   -0.028652    0.193385
      2          1           0        2.680197    0.943906   -0.344689
      3          1           0        3.444426   -0.658465   -0.014519
      4          1           0        2.599282    0.218189    1.253085
      5          6           0        1.257758   -0.690448   -0.226527
      6          1           0        1.242239   -1.730660    0.177468
      7          1           0        1.203981   -0.840615   -1.304061
      8          6           0       -0.013384    0.001424    0.277420
      9          1           0       -0.002915    0.091056    1.384101
     10          8           0       -0.046787    1.377127   -0.167371
     11          6           0       -1.263353   -0.700419   -0.197229
     12          1           0        0.595147    1.474859   -0.859609
     13          1           0       -1.256209   -0.808518   -1.292731
     14          1           0       -1.284884   -1.710664    0.287789
     15          6           0       -2.557739    0.004767    0.170947
     16          1           0       -2.674225    0.087458    1.262167
     17          1           0       -3.405760   -0.589841   -0.219101
     18          1           0       -2.640137    0.986243   -0.298917
 ---------------------------------------------------------------------
 Rotational constants (GHZ):           7.5400648           1.8963942           1.6422078
 Leave Link  202 at Wed Sep  7 15:35:16 2022, MaxMem=   131072000 cpu:               0.0 elap:               0.0
 (Enter /opt/g16/l301.exe)
 Standard basis: VSTO-6G (5D, 7F)
 Ernie: Thresh=  0.10000D-02 Tol=  0.10000D-05 Strict=F.
  NNHCO=     0 NNPyr=     0 NCTC=     0               EPep=         0.000000000
    EC=       127.833918021  ECS=         2.191625967   EG=         0.562020193
   EHC=         0.000000000  EAt=       -36.836480110  AtH=         2.452923921
 EPDDG=         0.000000000  ECC=       130.587564181 EAtT=        39.289404030
 There are    36 symmetry adapted cartesian basis functions of A   symmetry.
 There are    36 symmetry adapted basis functions of A   symmetry.
    36 basis functions,   216 primitive gaussians,    36 cartesian basis functions
    19 alpha electrons       19 beta electrons
       nuclear repulsion energy       169.8769682111 Hartrees.
 IExCor=    0 DFT=F Ex=HF Corr=None ExCW=0 ScaHFX=  1.000000
 ScaDFX=  1.000000  1.000000  1.000000  1.000000 ScalE2=  1.000000  1.000000
 IRadAn=      5 IRanWt=     -1 IRanGd=            0 ICorTp=0 IEmpDi=  4
 Integral buffers will be    131072 words long.
 Regular integral format.
 Two-electron integral symmetry is turned off.
 Leave Link  301 at Wed Sep  7 15:35:16 2022, MaxMem=   131072000 cpu:               0.0 elap:               0.0
 (Enter /opt/g16/l302.exe)
 Do NDO integrals.
 NPDir=0 NMtPBC=     1 NCelOv=     1 NCel=       1 NClECP=     1 NCelD=      1
         NCelK=      1 NCelE2=     1 NClLst=     1 CellRange=     0.0.
 One-electron integrals computed using PRISM.
 NBasis=    36 RedAO= F EigKep=  0.00D+00  NBF=    36
 NBsUse=    36 1.00D-04 EigRej=  0.00D+00 NBFU=    36
 Leave Link  302 at Wed Sep  7 15:35:16 2022, MaxMem=   131072000 cpu:               0.0 elap:               0.0
 (Enter /opt/g16/l303.exe)
 DipDrv:  MaxL=1.
 Leave Link  303 at Wed Sep  7 15:35:16 2022, MaxMem=   131072000 cpu:               0.0 elap:               0.0
 (Enter /opt/g16/l401.exe)
 Initial guess from the checkpoint file:  "MD_extract_015_gaussian.chk"
 B after Tr=     0.000000   -0.000000    0.000000
         Rot=    0.999958    0.000587   -0.000961   -0.009097 Ang=   1.05 deg.
 Guess basis will be translated and rotated to current coordinates.
 JPrj=0 DoOrth=T DoCkMO=T.
 Leave Link  401 at Wed Sep  7 15:35:16 2022, MaxMem=   131072000 cpu:               0.0 elap:               0.0
 (Enter /opt/g16/l502.exe)
 Keep J ints in memory in canonical form, NReq=862161.
 FoFCou: FMM=F IPFlag=           0 FMFlag=           0 FMFlg1=           0
         NFxFlg=           0 DoJE=F BraDBF=F KetDBF=F FulRan=T
         wScrn=  0.000000 ICntrl=       600 IOpCl=  2 I1Cent=           0 NGrid=           0
         NMat0=    1 NMatS0=     72 NMatT0=    0 NMatD0=    1 NMtDS0=    0 NMtDT0=    0
 Symmetry not used in FoFCou.
 Two-electron integral symmetry not used.
 Closed shell SCF:
 Using DIIS extrapolation, IDIIS=  1040.
 Overlap will be assumed to be unity.
 NGot=   131072000 LenX=   131006778 LenY=   131005041
 Requested convergence on RMS density matrix=1.00D-08 within 128 cycles.
 Requested convergence on MAX density matrix=1.00D-06.
 Requested convergence on             energy=1.00D-06.
 No special actions if energy rises.

 Cycle   1  Pass 1  IDiag  1:
 E=-0.101831463669384    
 DIIS: error= 7.91D-03 at cycle   1 NSaved=   1.
 NSaved= 1 IEnMin= 1 EnMin=-0.101831463669384     IErMin= 1 ErrMin= 7.91D-03
 ErrMax= 7.91D-03  0.00D+00 EMaxC= 1.00D-01 BMatC= 2.78D-03 BMatP= 2.78D-03
 IDIUse=3 WtCom= 9.21D-01 WtEn= 7.91D-02
 Coeff-Com:  0.100D+01
 Coeff-En:   0.100D+01
 Coeff:      0.100D+01
 GapD=    2.000 DampG=2.000 DampE=1.000 DampFc=2.0000 IDamp=-1.
 RMSDP=2.44D-03 MaxDP=2.17D-02              OVMax= 0.00D+00

 Cycle   2  Pass 1  IDiag  3:
 E=-0.110394405923216     Delta-E=       -0.008562942254 Rises=F Damp=F
 DIIS: error= 3.63D-03 at cycle   2 NSaved=   2.
 NSaved= 2 IEnMin= 2 EnMin=-0.110394405923216     IErMin= 2 ErrMin= 3.63D-03
 ErrMax= 3.63D-03  0.00D+00 EMaxC= 1.00D-01 BMatC= 3.58D-04 BMatP= 2.78D-03
 IDIUse=3 WtCom= 9.64D-01 WtEn= 3.63D-02
 Coeff-Com: -0.440D+00 0.144D+01
 Coeff-En:   0.000D+00 0.100D+01
 Coeff:     -0.424D+00 0.142D+01
 Gap=     0.514 Goal=   None    Shift=    0.000
 RMSDP=1.42D-03 MaxDP=1.44D-02 DE=-8.56D-03 OVMax= 1.17D-02

 Cycle   3  Pass 1  IDiag  3:
 E=-0.112005559767397     Delta-E=       -0.001611153844 Rises=F Damp=F
 DIIS: error= 9.13D-04 at cycle   3 NSaved=   3.
 NSaved= 3 IEnMin= 3 EnMin=-0.112005559767397     IErMin= 3 ErrMin= 9.13D-04
 ErrMax= 9.13D-04  0.00D+00 EMaxC= 1.00D-01 BMatC= 1.77D-05 BMatP= 3.58D-04
 IDIUse=3 WtCom= 9.91D-01 WtEn= 9.13D-03
 Coeff-Com:  0.167D+00-0.700D+00 0.153D+01
 Coeff-En:   0.000D+00 0.000D+00 0.100D+01
 Coeff:      0.165D+00-0.694D+00 0.153D+01
 Gap=     0.514 Goal=   None    Shift=    0.000
 RMSDP=4.16D-04 MaxDP=4.41D-03 DE=-1.61D-03 OVMax= 3.27D-03

 Cycle   4  Pass 1  IDiag  3:
 E=-0.112100740638425     Delta-E=       -0.000095180871 Rises=F Damp=F
 DIIS: error= 1.06D-04 at cycle   4 NSaved=   4.
 NSaved= 4 IEnMin= 4 EnMin=-0.112100740638425     IErMin= 4 ErrMin= 1.06D-04
 ErrMax= 1.06D-04  0.00D+00 EMaxC= 1.00D-01 BMatC= 3.41D-07 BMatP= 1.77D-05
 IDIUse=3 WtCom= 9.99D-01 WtEn= 1.06D-03
 Coeff-Com: -0.634D-01 0.275D+00-0.677D+00 0.147D+01
 Coeff-En:   0.000D+00 0.000D+00 0.000D+00 0.100D+01
 Coeff:     -0.633D-01 0.274D+00-0.676D+00 0.147D+01
 Gap=     0.514 Goal=   None    Shift=    0.000
 RMSDP=5.73D-05 MaxDP=5.33D-04 DE=-9.52D-05 OVMax= 4.77D-04

 Cycle   5  Pass 1  IDiag  3:
 E=-0.112102630384925     Delta-E=       -0.000001889746 Rises=F Damp=F
 DIIS: error= 2.26D-05 at cycle   5 NSaved=   5.
 NSaved= 5 IEnMin= 5 EnMin=-0.112102630384925     IErMin= 5 ErrMin= 2.26D-05
 ErrMax= 2.26D-05  0.00D+00 EMaxC= 1.00D-01 BMatC= 1.61D-08 BMatP= 3.41D-07
 IDIUse=1 WtCom= 1.00D+00 WtEn= 0.00D+00
 Coeff-Com:  0.300D-01-0.131D+00 0.327D+00-0.805D+00 0.158D+01
 Coeff:      0.300D-01-0.131D+00 0.327D+00-0.805D+00 0.158D+01
 Gap=     0.514 Goal=   None    Shift=    0.000
 RMSDP=1.40D-05 MaxDP=1.41D-04 DE=-1.89D-06 OVMax= 1.68D-04

 Cycle   6  Pass 1  IDiag  3:
 E=-0.112102739144973     Delta-E=       -0.000000108760 Rises=F Damp=F
 DIIS: error= 8.05D-06 at cycle   6 NSaved=   6.
 NSaved= 6 IEnMin= 6 EnMin=-0.112102739144973     IErMin= 6 ErrMin= 8.05D-06
 ErrMax= 8.05D-06  0.00D+00 EMaxC= 1.00D-01 BMatC= 1.30D-09 BMatP= 1.61D-08
 IDIUse=1 WtCom= 1.00D+00 WtEn= 0.00D+00
 Coeff-Com: -0.123D-01 0.533D-01-0.134D+00 0.342D+00-0.875D+00 0.163D+01
 Coeff:     -0.123D-01 0.533D-01-0.134D+00 0.342D+00-0.875D+00 0.163D+01
 Gap=     0.514 Goal=   None    Shift=    0.000
 RMSDP=4.69D-06 MaxDP=4.76D-05 DE=-1.09D-07 OVMax= 6.21D-05

 Cycle   7  Pass 1  IDiag  3:
 E=-0.112102748950065     Delta-E=       -0.000000009805 Rises=F Damp=F
 DIIS: error= 1.68D-06 at cycle   7 NSaved=   7.
 NSaved= 7 IEnMin= 7 EnMin=-0.112102748950065     IErMin= 7 ErrMin= 1.68D-06
 ErrMax= 1.68D-06  0.00D+00 EMaxC= 1.00D-01 BMatC= 7.00D-11 BMatP= 1.30D-09
 IDIUse=1 WtCom= 1.00D+00 WtEn= 0.00D+00
 Coeff-Com:  0.308D-02-0.134D-01 0.337D-01-0.874D-01 0.250D+00-0.644D+00
 Coeff-Com:  0.146D+01
 Coeff:      0.308D-02-0.134D-01 0.337D-01-0.874D-01 0.250D+00-0.644D+00
 Coeff:      0.146D+01
 Gap=     0.514 Goal=   None    Shift=    0.000
 RMSDP=1.03D-06 MaxDP=1.07D-05 DE=-9.81D-09 OVMax= 1.49D-05

 Cycle   8  Pass 1  IDiag  3:
 E=-0.112102749455801     Delta-E=       -0.000000000506 Rises=F Damp=F
 DIIS: error= 3.32D-07 at cycle   8 NSaved=   8.
 NSaved= 8 IEnMin= 8 EnMin=-0.112102749455801     IErMin= 8 ErrMin= 3.32D-07
 ErrMax= 3.32D-07  0.00D+00 EMaxC= 1.00D-01 BMatC= 5.12D-12 BMatP= 7.00D-11
 IDIUse=1 WtCom= 1.00D+00 WtEn= 0.00D+00
 Coeff-Com: -0.592D-03 0.256D-02-0.645D-02 0.172D-01-0.552D-01 0.178D+00
 Coeff-Com: -0.637D+00 0.150D+01
 Coeff:     -0.592D-03 0.256D-02-0.645D-02 0.172D-01-0.552D-01 0.178D+00
 Coeff:     -0.637D+00 0.150D+01
 Gap=     0.514 Goal=   None    Shift=    0.000
 RMSDP=2.79D-07 MaxDP=2.47D-06 DE=-5.06D-10 OVMax= 3.93D-06

 Cycle   9  Pass 1  IDiag  3:
 E=-0.112102749493431     Delta-E=       -0.000000000038 Rises=F Damp=F
 DIIS: error= 1.40D-07 at cycle   9 NSaved=   9.
 NSaved= 9 IEnMin= 9 EnMin=-0.112102749493431     IErMin= 9 ErrMin= 1.40D-07
 ErrMax= 1.40D-07  0.00D+00 EMaxC= 1.00D-01 BMatC= 3.93D-13 BMatP= 5.12D-12
 IDIUse=1 WtCom= 1.00D+00 WtEn= 0.00D+00
 Coeff-Com:  0.121D-03-0.519D-03 0.131D-02-0.365D-02 0.134D-01-0.513D-01
 Coeff-Com:  0.231D+00-0.759D+00 0.157D+01
 Coeff:      0.121D-03-0.519D-03 0.131D-02-0.365D-02 0.134D-01-0.513D-01
 Coeff:      0.231D+00-0.759D+00 0.157D+01
 Gap=     0.514 Goal=   None    Shift=    0.000
 RMSDP=7.83D-08 MaxDP=8.56D-07 DE=-3.76D-11 OVMax= 9.54D-07

 Cycle  10  Pass 1  IDiag  3:
 E=-0.112102749495932     Delta-E=       -0.000000000003 Rises=F Damp=F
 DIIS: error= 4.29D-08 at cycle  10 NSaved=  10.
 NSaved=10 IEnMin=10 EnMin=-0.112102749495932     IErMin=10 ErrMin= 4.29D-08
 ErrMax= 4.29D-08  0.00D+00 EMaxC= 1.00D-01 BMatC= 3.20D-14 BMatP= 3.93D-13
 IDIUse=1 WtCom= 1.00D+00 WtEn= 0.00D+00
 Coeff-Com: -0.202D-04 0.846D-04-0.217D-03 0.683D-03-0.324D-02 0.154D-01
 Coeff-Com: -0.821D-01 0.311D+00-0.875D+00 0.163D+01
 Coeff:     -0.202D-04 0.846D-04-0.217D-03 0.683D-03-0.324D-02 0.154D-01
 Coeff:     -0.821D-01 0.311D+00-0.875D+00 0.163D+01
 Gap=     0.514 Goal=   None    Shift=    0.000
 RMSDP=2.34D-08 MaxDP=3.06D-07 DE=-2.50D-12 OVMax= 2.59D-07

 Cycle  11  Pass 1  IDiag  3:
 E=-0.112102749496245     Delta-E=       -0.000000000000 Rises=F Damp=F
 DIIS: error= 8.35D-09 at cycle  11 NSaved=  11.
 NSaved=11 IEnMin=11 EnMin=-0.112102749496245     IErMin=11 ErrMin= 8.35D-09
 ErrMax= 8.35D-09  0.00D+00 EMaxC= 1.00D-01 BMatC= 1.69D-15 BMatP= 3.20D-14
 IDIUse=1 WtCom= 1.00D+00 WtEn= 0.00D+00
 Coeff-Com:  0.289D-05-0.115D-04 0.309D-04-0.127D-03 0.833D-03-0.472D-02
 Coeff-Com:  0.276D-01-0.109D+00 0.332D+00-0.795D+00 0.155D+01
 Coeff:      0.289D-05-0.115D-04 0.309D-04-0.127D-03 0.833D-03-0.472D-02
 Coeff:      0.276D-01-0.109D+00 0.332D+00-0.795D+00 0.155D+01
 Gap=     0.514 Goal=   None    Shift=    0.000
 RMSDP=5.20D-09 MaxDP=6.57D-08 DE=-3.13D-13 OVMax= 6.49D-08

 Cycle  12  Pass 2  IDiag  1:
 SCF Done:  E(RPM3) = -0.112102749496     A.U. after   12 cycles
            NFock= 11  Conv=0.52D-08     -V/T= 0.9981
 KE=-5.968881410869D+01 PE=-2.542140165834D+02 EE= 1.439137597315D+02
 Leave Link  502 at Wed Sep  7 15:35:16 2022, MaxMem=   131072000 cpu:               0.0 elap:               0.0
 (Enter /opt/g16/l701.exe)
 ... and contract with generalized density number  0.
 Compute integral first derivatives.
 Leave Link  701 at Wed Sep  7 15:35:16 2022, MaxMem=   131072000 cpu:               0.0 elap:               0.0
 (Enter /opt/g16/l702.exe)
 L702 exits ... SP integral derivatives will be done elsewhere.
 Leave Link  702 at Wed Sep  7 15:35:17 2022, MaxMem=   131072000 cpu:               0.0 elap:               0.0
 (Enter /opt/g16/l703.exe)
 Integral derivatives from FoFJK, PRISM(SPDF).
 Compute integral first derivatives, UseDBF=F ICtDFT=           0.
 Calling FoFJK, ICntrl=      2127 FMM=F ISym2X=0 I1Cent= 0 IOpClX= 0 NMat=1 NMatS=1 NMatT=0.
 FoFJK:  IHMeth= 9 ICntrl=    2127 DoSepK=F KAlg= 0 I1Cent=           0 FoldK=F
 IRaf=         0 NMat=       1 IRICut=       1 DoRegI=T DoRafI=F ISym2E= 0 IDoP0=3 IntGTp=3.
 FoFCou: FMM=F IPFlag=           0 FMFlag=      100000 FMFlg1=         800
         NFxFlg=           0 DoJE=F BraDBF=F KetDBF=F FulRan=T
         wScrn=  0.000000 ICntrl=      2127 IOpCl=  0 I1Cent=           0 NGrid=           0
         NMat0=    1 NMatS0=      1 NMatT0=    0 NMatD0=    1 NMtDS0=    0 NMtDT0=    0
 Symmetry not used in FoFCou.
 Leave Link  703 at Wed Sep  7 15:35:17 2022, MaxMem=   131072000 cpu:               0.0 elap:               0.0
 (Enter /opt/g16/l716.exe)
 Dipole        = 3.89554520D-01-4.94585534D-01-2.12563404D-01
 ***** Axes restored to original set *****
 -------------------------------------------------------------------
 Center     Atomic                   Forces (Hartrees/Bohr)
 Number     Number              X              Y              Z
 -------------------------------------------------------------------
      1        6          -0.003797227   -0.003137202   -0.016001108
      2        1          -0.003739993   -0.000102115    0.011086503
      3        1           0.002487927    0.006633109   -0.005075459
      4        1           0.004862778    0.002896647    0.004518659
      5        6           0.002149710    0.000949696    0.027123296
      6        1           0.001597778   -0.001105193   -0.001415937
      7        1          -0.009153891   -0.002013518   -0.010501824
      8        6           0.013100652   -0.021126230   -0.030233004
      9        1           0.002293968    0.000259760    0.000903877
     10        8          -0.000676331    0.002908314    0.014054705
     11        6           0.001142759    0.016583974    0.009906564
     12        1          -0.000195150    0.002450728    0.000310716
     13        1          -0.005944305   -0.001522087    0.002438494
     14        1          -0.004423329   -0.002054776   -0.008690268
     15        6          -0.008237060    0.003081171    0.007337492
     16        1          -0.000978638   -0.000238358   -0.004716760
     17        1           0.004668704   -0.002404261    0.000862062
     18        1           0.004841649   -0.002059659   -0.001908009
 -------------------------------------------------------------------
 Cartesian Forces:  Max     0.030233004 RMS     0.008577433
 Leave Link  716 at Wed Sep  7 15:35:17 2022, MaxMem=   131072000 cpu:               0.0 elap:               0.0
 (Enter /opt/g16/l103.exe)

 GradGradGradGradGradGradGradGradGradGradGradGradGradGradGradGradGradGrad
 Berny optimization.
 Using GEDIIS/GDIIS optimizer.
 FormGI is forming the generalized inverse of G from B-inverse, IUseBI=4.
 Internal  Forces:  Max     0.014346946 RMS     0.004115566
 Search for a local minimum.
 Step number   2 out of a maximum of   97
 All quantities printed in internal units (Hartrees-Bohrs-Radians)
 RMS Force = .41156D-02 SwitMx=.10000D-02 MixMth= 1
 Mixed Optimization -- RFO/linear search
 Update second derivatives using D2CorX and points    1    2
 DE= -2.90D-02 DEPred=-3.76D-02 R= 7.70D-01
 TightC=F SS=  1.41D+00  RLast= 3.45D-01 DXNew= 5.0454D-01 1.0336D+00
 Trust test= 7.70D-01 RLast= 3.45D-01 DXMaxT set to 5.05D-01
 ITU=  1  0
 Use linear search instead of GDIIS.
     Eigenvalues ---    0.00487   0.00724   0.01433   0.01465   0.01727
     Eigenvalues ---    0.03631   0.04190   0.05093   0.05139   0.05221
     Eigenvalues ---    0.05504   0.05526   0.05558   0.05801   0.06077
     Eigenvalues ---    0.08159   0.08904   0.09255   0.12515   0.12736
     Eigenvalues ---    0.15796   0.16000   0.16000   0.16000   0.16000
     Eigenvalues ---    0.16000   0.16247   0.17592   0.19608   0.21818
     Eigenvalues ---    0.22000   0.28919   0.29984   0.30240   0.30476
     Eigenvalues ---    0.31879   0.32150   0.32387   0.32544   0.33910
     Eigenvalues ---    0.35028   0.35443   0.36390   0.38843   0.39843
     Eigenvalues ---    0.41271   0.57388   0.60704
 RFO step:  Lambda=-7.29318745D-03 EMin= 4.87230257D-03
 Quartic linear search produced a step of  0.21331.
 Iteration  1 RMS(Cart)=  0.04503775 RMS(Int)=  0.00113539
 Iteration  2 RMS(Cart)=  0.00158323 RMS(Int)=  0.00037298
 Iteration  3 RMS(Cart)=  0.00000124 RMS(Int)=  0.00037298
 Iteration  4 RMS(Cart)=  0.00000000 RMS(Int)=  0.00037298
 ITry= 1 IFail=0 DXMaxC= 1.35D-01 DCOld= 1.00D+10 DXMaxT= 5.05D-01 DXLimC= 3.00D+00 Rises=F
 Variable       Old X    -DE/DX   Delta X   Delta X   Delta X     New X
                                 (Linear)    (Quad)   (Total)
    R1        2.11356  -0.01110  -0.00954  -0.03506  -0.04460   2.06895
    R2        2.09576  -0.00806  -0.00861  -0.02267  -0.03128   2.06448
    R3        2.05781   0.00604   0.00530   0.01441   0.01971   2.07752
    R4        2.86506  -0.00577  -0.00199  -0.02054  -0.02253   2.84253
    R5        2.10897  -0.00202   0.00159  -0.00894  -0.00735   2.10161
    R6        2.05843   0.01312   0.01464   0.02511   0.03975   2.09818
    R7        2.89594   0.00311   0.03340  -0.02305   0.01035   2.90629
    R8        2.09826   0.00237   0.00497   0.00340   0.00837   2.10663
    R9        2.73293  -0.01435   0.01174  -0.05117  -0.03944   2.69350
   R10        2.85361   0.01419   0.03335   0.00815   0.04150   2.89511
   R11        1.79357  -0.00165   0.00218  -0.00544  -0.00326   1.79031
   R12        2.08030   0.00343   0.00520   0.00650   0.01170   2.09199
   R13        2.11810  -0.00764  -0.00534  -0.02462  -0.02997   2.08813
   R14        2.87106  -0.00149   0.00651  -0.01190  -0.00539   2.86567
   R15        2.07970  -0.00350  -0.00398  -0.00881  -0.01279   2.06691
   R16        2.09140  -0.00431  -0.00393  -0.01210  -0.01603   2.07537
   R17        2.06219   0.00324   0.00279   0.00808   0.01087   2.07306
    A1        1.89055  -0.00181  -0.00219  -0.01888  -0.02070   1.86985
    A2        1.84065   0.00159   0.00318   0.02447   0.02786   1.86851
    A3        1.91952   0.00484   0.00393   0.03537   0.03961   1.95913
    A4        1.85354   0.00395   0.00392   0.01720   0.02024   1.87378
    A5        1.96736  -0.00333  -0.00434  -0.02815  -0.03276   1.93460
    A6        1.98540  -0.00495  -0.00404  -0.02767  -0.03205   1.95335
    A7        1.89494   0.00121  -0.00443   0.01489   0.01089   1.90583
    A8        1.95672  -0.00071  -0.00595  -0.01927  -0.02573   1.93099
    A9        2.00632  -0.00516   0.00024  -0.03554  -0.03574   1.97058
   A10        1.80176   0.00071   0.00172   0.03023   0.03169   1.83344
   A11        1.86527   0.00207   0.00435   0.01798   0.02235   1.88762
   A12        1.92473   0.00265   0.00470   0.00153   0.00489   1.92962
   A13        1.93519   0.00009  -0.00520  -0.01006  -0.01604   1.91915
   A14        1.92569   0.00776   0.02230   0.04445   0.06715   1.99283
   A15        1.95347  -0.00700  -0.00244  -0.03327  -0.03688   1.91659
   A16        1.80284  -0.00278  -0.00725  -0.00820  -0.01517   1.78767
   A17        1.93757   0.00196  -0.00247  -0.00845  -0.01197   1.92560
   A18        1.90321   0.00056  -0.00427   0.01938   0.01516   1.91838
   A19        1.88246  -0.00047   0.01495  -0.01839  -0.00345   1.87902
   A20        1.93164   0.00033   0.00160  -0.00618  -0.00440   1.92724
   A21        1.87423   0.00222   0.00233   0.01037   0.01284   1.88707
   A22        1.99689  -0.00628  -0.00050  -0.02376  -0.02407   1.97282
   A23        1.92010  -0.00394  -0.00593  -0.04631  -0.05253   1.86756
   A24        1.86739   0.00482   0.00213   0.03953   0.04161   1.90900
   A25        1.87247   0.00274  -0.00007   0.02441   0.02435   1.89682
   A26        1.94479   0.00142   0.00157  -0.00140  -0.00012   1.94466
   A27        1.89445   0.00383   0.00627   0.03444   0.04027   1.93472
   A28        1.95783  -0.00003   0.00102  -0.00469  -0.00415   1.95368
   A29        1.88464  -0.00214  -0.00340  -0.00617  -0.00981   1.87483
   A30        1.92982  -0.00333  -0.00539  -0.04087  -0.04658   1.88323
   A31        1.84794   0.00025   0.00012   0.02155   0.02108   1.86902
    D1        2.96729  -0.00067  -0.00436  -0.00187  -0.00631   2.96098
    D2        0.98806  -0.00186  -0.00035  -0.03670  -0.03673   0.95133
    D3       -1.22835  -0.00050  -0.00185   0.00882   0.00661  -1.22174
    D4        0.85565   0.00047  -0.00145   0.01626   0.01510   0.87076
    D5       -1.12358  -0.00072   0.00256  -0.01856  -0.01531  -1.13889
    D6        2.94320   0.00064   0.00107   0.02696   0.02803   2.97122
    D7       -1.25588   0.00149  -0.00017   0.03579   0.03529  -1.22058
    D8        3.04808   0.00031   0.00384   0.00096   0.00487   3.05295
    D9        0.83167   0.00166   0.00235   0.04648   0.04821   0.87988
   D10       -0.98306  -0.00177  -0.00296  -0.01940  -0.02202  -1.00508
   D11        1.00344  -0.00059  -0.00160  -0.00932  -0.01087   0.99258
   D12        3.12615   0.00078   0.00636   0.02385   0.02997  -3.12706
   D13        1.12086  -0.00198  -0.00530  -0.00986  -0.01509   1.10577
   D14        3.10736  -0.00080  -0.00395   0.00022  -0.00393   3.10343
   D15       -1.05312   0.00057   0.00401   0.03338   0.03691  -1.01621
   D16        3.06752   0.00117   0.00092   0.03541   0.03676   3.10428
   D17       -1.22916   0.00235   0.00227   0.04548   0.04792  -1.18124
   D18        0.89354   0.00372   0.01023   0.07865   0.08876   0.98230
   D19        0.26684  -0.00080   0.00390   0.05418   0.05888   0.32572
   D20        2.33613   0.00143   0.00460   0.05886   0.06343   2.39956
   D21       -1.88538   0.00250  -0.00439   0.05367   0.04851  -1.83687
   D22       -0.94440  -0.00178  -0.00973  -0.02563  -0.03503  -0.97943
   D23        1.15169  -0.00501  -0.01456  -0.07914  -0.09335   1.05834
   D24       -3.05544  -0.00386  -0.01335  -0.05577  -0.06884  -3.12428
   D25       -3.11705   0.00183   0.00105   0.01860   0.01950  -3.09755
   D26       -1.02097  -0.00141  -0.00379  -0.03491  -0.03882  -1.05978
   D27        1.05509  -0.00026  -0.00257  -0.01154  -0.01430   1.04079
   D28        1.19118   0.00379   0.01384   0.02203   0.03571   1.22689
   D29       -2.99592   0.00055   0.00901  -0.03148  -0.02261  -3.01853
   D30       -0.91986   0.00171   0.01022  -0.00811   0.00191  -0.91795
   D31       -1.06596   0.00104   0.00231   0.02564   0.02790  -1.03806
   D32       -3.13907   0.00040   0.00168   0.01229   0.01404  -3.12503
   D33        1.10837  -0.00228  -0.00283  -0.03290  -0.03583   1.07254
   D34        3.07105   0.00120  -0.00096   0.01999   0.01913   3.09018
   D35        0.99794   0.00056  -0.00159   0.00664   0.00527   1.00321
[...]
 ! A14   A(5,8,10)             112.1318         -DE/DX =    0.0                 !
 ! A15   A(5,8,11)             109.8879         -DE/DX =    0.0                 !
 ! A16   A(9,8,10)             101.5253         -DE/DX =    0.0                 !
 ! A17   A(9,8,11)             110.4588         -DE/DX =    0.0                 !
 ! A18   A(10,8,11)            112.1336         -DE/DX =    0.0                 !
 ! A19   A(8,10,12)            107.3434         -DE/DX =    0.0                 !
 ! A20   A(8,11,13)            110.0232         -DE/DX =    0.0                 !
 ! A21   A(8,11,14)            108.9816         -DE/DX =    0.0                 !
 ! A22   A(8,11,15)            112.2744         -DE/DX =    0.0                 !
 ! A23   A(13,11,14)           105.6129         -DE/DX =    0.0                 !
 ! A24   A(13,11,15)           110.0972         -DE/DX =    0.0                 !
 ! A25   A(14,11,15)           109.6281         -DE/DX =    0.0                 !
 ! A26   A(11,15,16)           111.5712         -DE/DX =    0.0                 !
 ! A27   A(11,15,17)           111.1825         -DE/DX =    0.0                 !
 ! A28   A(11,15,18)           111.7086         -DE/DX =    0.0                 !
 ! A29   A(16,15,17)           107.4543         -DE/DX =    0.0                 !
 ! A30   A(16,15,18)           107.2299         -DE/DX =    0.0                 !
 ! A31   A(17,15,18)           107.4618         -DE/DX =    0.0                 !
 ! D1    D(2,1,5,6)            178.4604         -DE/DX =    0.0                 !
 ! D2    D(2,1,5,7)             62.6863         -DE/DX =    0.0                 !
 ! D3    D(2,1,5,8)            -60.2608         -DE/DX =    0.0                 !
 ! D4    D(3,1,5,6)             58.4181         -DE/DX =    0.0                 !
 ! D5    D(3,1,5,7)            -57.356          -DE/DX =    0.0                 !
 ! D6    D(3,1,5,8)            179.6969         -DE/DX =    0.0                 !
 ! D7    D(4,1,5,6)            -61.5237         -DE/DX =    0.0                 !
 ! D8    D(4,1,5,7)           -177.2978         -DE/DX =    0.0                 !
 ! D9    D(4,1,5,8)             59.7551         -DE/DX =    0.0                 !
 ! D10   D(1,5,8,9)            -49.0144         -DE/DX =    0.0                 !
 ! D11   D(1,5,8,10)            63.4396         -DE/DX =    0.0                 !
 ! D12   D(1,5,8,11)          -171.1337         -DE/DX =    0.0                 !
 ! D13   D(6,5,8,9)             72.6362         -DE/DX =    0.0                 !
 ! D14   D(6,5,8,10)          -174.9098         -DE/DX =    0.0                 !
 ! D15   D(6,5,8,11)           -49.4831         -DE/DX =    0.0                 !
 ! D16   D(7,5,8,9)           -172.0052         -DE/DX =    0.0                 !
 ! D17   D(7,5,8,10)           -59.5513         -DE/DX =    0.0                 !
 ! D18   D(7,5,8,11)            65.8754         -DE/DX =    0.0                 !
 ! D19   D(5,8,10,12)           62.1063         -DE/DX =    0.0                 !
 ! D20   D(9,8,10,12)         -179.987          -DE/DX =    0.0                 !
 ! D21   D(11,8,10,12)         -62.0795         -DE/DX =    0.0                 !
 ! D22   D(5,8,11,13)          -65.9972         -DE/DX =    0.0                 !
 ! D23   D(5,8,11,14)           49.3609         -DE/DX =    0.0                 !
 ! D24   D(5,8,11,15)          171.0134         -DE/DX =    0.0                 !
 ! D25   D(9,8,11,13)          171.8835         -DE/DX =    0.0                 !
 ! D26   D(9,8,11,14)          -72.7584         -DE/DX =    0.0                 !
 ! D27   D(9,8,11,15)           48.8941         -DE/DX =    0.0                 !
 ! D28   D(10,8,11,13)          59.4284         -DE/DX =    0.0                 !
 ! D29   D(10,8,11,14)         174.7865         -DE/DX =    0.0                 !
 ! D30   D(10,8,11,15)         -63.561          -DE/DX =    0.0                 !
 ! D31   D(8,11,15,16)         -59.8981         -DE/DX =    0.0                 !
 ! D32   D(8,11,15,17)        -179.8393         -DE/DX =    0.0                 !
 ! D33   D(8,11,15,18)          60.1169         -DE/DX =    0.0                 !
 ! D34   D(13,11,15,16)        177.1542         -DE/DX =    0.0                 !
 ! D35   D(13,11,15,17)         57.213          -DE/DX =    0.0                 !
 ! D36   D(13,11,15,18)        -62.8308         -DE/DX =    0.0                 !
 ! D37   D(14,11,15,16)         61.3844         -DE/DX =    0.0                 !
 ! D38   D(14,11,15,17)        -58.5568         -DE/DX =    0.0                 !
 ! D39   D(14,11,15,18)       -178.6006         -DE/DX =    0.0                 !
 --------------------------------------------------------------------------------
 Lowest energy point so far.  Saving SCF results.
 Largest change from initial coordinates is atom   12       0.428 Angstoms.
 GradGradGradGradGradGradGradGradGradGradGradGradGradGradGradGradGradGrad

 Leave Link  103 at Wed Sep  7 15:35:20 2022, MaxMem=   131072000 cpu:               0.0 elap:               0.0
 (Enter /opt/g16/l202.exe)
                          Input orientation:                          
 ---------------------------------------------------------------------
 Center     Atomic      Atomic             Coordinates (Angstroms)
 Number     Number       Type             X           Y           Z
 ---------------------------------------------------------------------
      1          6           0        1.135368    7.759262    9.852668
      2          1           0        1.475670    7.403032    8.871253
      3          1           0        0.419401    7.023139   10.240089
      4          1           0        2.007010    7.754228   10.520726
      5          6           0        0.511742    9.132916    9.763283
      6          1           0        0.156486    9.446250   10.764926
      7          1           0       -0.392683    9.099800    9.122672
      8          6           0        1.497168   10.187397    9.229376
      9          1           0        2.466040   10.128087    9.777455
     10          8           0        1.903836    9.913225    7.908080
     11          6           0        0.885896   11.592803    9.368058
     12          1           0        1.128289    9.943529    7.361192
     13          1           0        0.002402   11.689667    8.705065
     14          1           0        0.500101   11.717869   10.399169
     15          6           0        1.885437   12.684754    9.064096
     16          1           0        2.748710   12.641943    9.741608
     17          1           0        1.431970   13.678483    9.171068
     18          1           0        2.272157   12.607617    8.039216
 ---------------------------------------------------------------------
                    Distance matrix (angstroms):
                    1          2          3          4          5
     1  C    0.000000
     2  H    1.098125   0.000000
     3  H    1.097534   1.770235   0.000000
     4  H    1.098220   1.768169   1.770240   0.000000
     5  C    1.511233   2.171951   2.164955   2.170329   0.000000
     6  H    2.153219   3.082366   2.493200   2.519327   1.108004
     7  H    2.159832   2.536331   2.494117   3.086041   1.108812
     8  C    2.532831   2.807383   3.492227   2.801398   1.538847
     9  H    2.718029   3.037756   3.747461   2.529500   2.193137
    10  O    3.001920   2.722517   3.999302   3.390846   2.447159
    11  C    3.872095   4.260144   4.675455   4.161754   2.519372
    12  H    3.313386   2.975749   4.161640   3.943076   2.609074
    13  H    4.248375   4.535788   4.930179   4.775223   2.813579
    14  H    4.046332   4.680179   4.698118   4.242170   2.662042
    15  C    5.044296   5.301102   5.965409   5.142629   3.871880
    16  H    5.143519   5.461167   6.102879   5.004689   4.161462
    17  H    5.965713   6.282761   6.816283   6.103200   4.675437
    18  H    5.299759   5.330514   6.281953   5.457433   4.259696
                    6          7          8          9         10
     6  H    0.000000
     7  H    1.765960   0.000000
     8  C    2.169018   2.183070   0.000000
     9  H    2.602699   3.107800   1.114729   0.000000
    10  O    3.381253   2.722297   1.409388   1.963875   0.000000
    11  C    2.662888   2.812480   1.538848   2.193138   2.447186
    12  H    3.574506   2.475489   1.919807   2.768026   0.949462
    13  H    3.049540   2.652904   2.183127   3.107743   2.721467
    14  H    2.326393   3.046440   2.169079   2.603623   3.381234
    15  C    4.045986   4.247960   2.532758   2.717080   3.003012
    16  H    4.240197   4.774748   2.802417   2.529953   3.394340
    17  H    4.698834   4.929102   3.492182   3.747308   3.999370
    18  H    4.679722   4.536522   2.806163   3.034326   2.722609
                   11         12         13         14         15
    11  C    0.000000
    12  H    2.608902   0.000000
    13  H    1.108830   2.474391   0.000000
    14  H    1.108003   3.573823   1.765925   0.000000
    15  C    1.511236   3.314735   2.159844   2.153241   0.000000
    16  H    2.170326   3.946338   3.086011   2.518441   1.098224
    17  H    2.164963   4.161460   2.493234   2.494117   1.097531
    18  H    2.171955   2.977501   2.537277   3.082404   1.098125
                   16         17         18
    16  H    0.000000
    17  H    1.770236   0.000000
    18  H    1.768168   1.770242   0.000000
 Stoichiometry    C5H12O
 Framework group  C1[X(C5H12O)]
 Deg. of freedom    48
 Full point group                 C1      NOp   1
 RotChk:  IX=0 Diff= 3.18D-15
 Largest Abelian subgroup         C1      NOp   1
 Largest concise Abelian subgroup C1      NOp   1
                         Standard orientation:                         
 ---------------------------------------------------------------------
 Center     Atomic      Atomic             Coordinates (Angstroms)
 Number     Number       Type             X           Y           Z
 ---------------------------------------------------------------------
      1          6           0        2.522093   -0.108523    0.321684
      2          1           0        2.665890    0.953547    0.082500
      3          1           0        3.407880   -0.649356   -0.035334
      4          1           0        2.501915   -0.195637    1.416258
      5          6           0        1.259503   -0.656142   -0.302659
      6          1           0        1.162978   -1.733646   -0.063197
      7          1           0        1.326098   -0.600828   -1.408087
      8          6           0       -0.000101    0.080033    0.186723
      9          1           0       -0.000495    0.154446    1.298966
     10          8           0        0.000559    1.439124   -0.186431
     11          6           0       -1.259869   -0.655228   -0.303614
     12          1           0        0.000727    1.472102   -1.135321
     13          1           0       -1.326804   -0.598020   -1.408942
     14          1           0       -1.163413   -1.733167   -0.066096
     15          6           0       -2.522203   -0.108519    0.322051
     16          1           0       -2.502772   -0.199816    1.416301
     17          1           0       -3.408402   -0.646967   -0.037531
     18          1           0       -2.664621    0.954621    0.086827
 ---------------------------------------------------------------------
 Rotational constants (GHZ):           6.9999138           1.9135040           1.6687756
 Leave Link  202 at Wed Sep  7 15:35:20 2022, MaxMem=   131072000 cpu:               0.0 elap:               0.0
 (Enter /opt/g16/l601.exe)
 Copying SCF densities to generalized density rwf, IOpCl= 0 IROHF=0.

 **********************************************************************

            Population analysis using the SCF density.

 **********************************************************************

 Orbital symmetries:
       Occupied  (A) (A) (A) (A) (A) (A) (A) (A) (A) (A) (A) (A)
                 (A) (A) (A) (A) (A) (A) (A)
       Virtual   (A) (A) (A) (A) (A) (A) (A) (A) (A) (A) (A) (A)
                 (A) (A) (A) (A) (A)
 The electronic state is 1-A.
 Alpha  occ. eigenvalues --   -1.48604  -1.24175  -1.21241  -0.94878  -0.78945
 Alpha  occ. eigenvalues --   -0.78586  -0.62886  -0.61512  -0.59183  -0.55241
 Alpha  occ. eigenvalues --   -0.53175  -0.51804  -0.48669  -0.48490  -0.46941
 Alpha  occ. eigenvalues --   -0.44129  -0.43606  -0.43403  -0.40750
 Alpha virt. eigenvalues --    0.11336   0.12739   0.13404   0.13923   0.14084
 Alpha virt. eigenvalues --    0.14276   0.14686   0.15318   0.15748   0.16149
 Alpha virt. eigenvalues --    0.17205   0.17295   0.17464   0.17618   0.18356
 Alpha virt. eigenvalues --    0.18527   0.21322
          Condensed to atoms (all electrons):
               1          2          3          4          5          6
     1  C    4.106994   0.000000   0.000000   0.000000   0.000000   0.000000
     2  H    0.000000   0.952085   0.000000   0.000000   0.000000   0.000000
     3  H    0.000000   0.000000   0.963931   0.000000   0.000000   0.000000
     4  H    0.000000   0.000000   0.000000   0.959884   0.000000   0.000000
     5  C    0.000000   0.000000   0.000000   0.000000   4.132987   0.000000
     6  H    0.000000   0.000000   0.000000   0.000000   0.000000   0.944316
     7  H    0.000000   0.000000   0.000000   0.000000   0.000000   0.000000
     8  C    0.000000   0.000000   0.000000   0.000000   0.000000   0.000000
     9  H    0.000000   0.000000   0.000000   0.000000   0.000000   0.000000
    10  O    0.000000   0.000000   0.000000   0.000000   0.000000   0.000000
    11  C    0.000000   0.000000   0.000000   0.000000   0.000000   0.000000
    12  H    0.000000   0.000000   0.000000   0.000000   0.000000   0.000000
    13  H    0.000000   0.000000   0.000000   0.000000   0.000000   0.000000
    14  H    0.000000   0.000000   0.000000   0.000000   0.000000   0.000000
    15  C    0.000000   0.000000   0.000000   0.000000   0.000000   0.000000
    16  H    0.000000   0.000000   0.000000   0.000000   0.000000   0.000000
    17  H    0.000000   0.000000   0.000000   0.000000   0.000000   0.000000
    18  H    0.000000   0.000000   0.000000   0.000000   0.000000   0.000000
               7          8          9         10         11         12
     1  C    0.000000   0.000000   0.000000   0.000000   0.000000   0.000000
     2  H    0.000000   0.000000   0.000000   0.000000   0.000000   0.000000
     3  H    0.000000   0.000000   0.000000   0.000000   0.000000   0.000000
     4  H    0.000000   0.000000   0.000000   0.000000   0.000000   0.000000
     5  C    0.000000   0.000000   0.000000   0.000000   0.000000   0.000000
     6  H    0.000000   0.000000   0.000000   0.000000   0.000000   0.000000
     7  H    0.951039   0.000000   0.000000   0.000000   0.000000   0.000000
     8  C    0.000000   3.929686   0.000000   0.000000   0.000000   0.000000
     9  H    0.000000   0.000000   0.924521   0.000000   0.000000   0.000000
    10  O    0.000000   0.000000   0.000000   6.304916   0.000000   0.000000
    11  C    0.000000   0.000000   0.000000   0.000000   4.132982   0.000000
    12  H    0.000000   0.000000   0.000000   0.000000   0.000000   0.818407
    13  H    0.000000   0.000000   0.000000   0.000000   0.000000   0.000000
    14  H    0.000000   0.000000   0.000000   0.000000   0.000000   0.000000
    15  C    0.000000   0.000000   0.000000   0.000000   0.000000   0.000000
    16  H    0.000000   0.000000   0.000000   0.000000   0.000000   0.000000
    17  H    0.000000   0.000000   0.000000   0.000000   0.000000   0.000000
    18  H    0.000000   0.000000   0.000000   0.000000   0.000000   0.000000
              13         14         15         16         17         18
     1  C    0.000000   0.000000   0.000000   0.000000   0.000000   0.000000
     2  H    0.000000   0.000000   0.000000   0.000000   0.000000   0.000000
     3  H    0.000000   0.000000   0.000000   0.000000   0.000000   0.000000
     4  H    0.000000   0.000000   0.000000   0.000000   0.000000   0.000000
     5  C    0.000000   0.000000   0.000000   0.000000   0.000000   0.000000
     6  H    0.000000   0.000000   0.000000   0.000000   0.000000   0.000000
     7  H    0.000000   0.000000   0.000000   0.000000   0.000000   0.000000
     8  C    0.000000   0.000000   0.000000   0.000000   0.000000   0.000000
     9  H    0.000000   0.000000   0.000000   0.000000   0.000000   0.000000
    10  O    0.000000   0.000000   0.000000   0.000000   0.000000   0.000000
    11  C    0.000000   0.000000   0.000000   0.000000   0.000000   0.000000
    12  H    0.000000   0.000000   0.000000   0.000000   0.000000   0.000000
    13  H    0.951032   0.000000   0.000000   0.000000   0.000000   0.000000
    14  H    0.000000   0.944312   0.000000   0.000000   0.000000   0.000000
    15  C    0.000000   0.000000   4.107028   0.000000   0.000000   0.000000
    16  H    0.000000   0.000000   0.000000   0.959918   0.000000   0.000000
    17  H    0.000000   0.000000   0.000000   0.000000   0.963923   0.000000
    18  H    0.000000   0.000000   0.000000   0.000000   0.000000   0.952039
 Mulliken charges:
               1
     1  C   -0.106994
     2  H    0.047915
     3  H    0.036069
     4  H    0.040116
     5  C   -0.132987
     6  H    0.055684
     7  H    0.048961
     8  C    0.070314
     9  H    0.075479
    10  O   -0.304916
    11  C   -0.132982
    12  H    0.181593
    13  H    0.048968
    14  H    0.055688
    15  C   -0.107028
    16  H    0.040082
    17  H    0.036077
    18  H    0.047961
 Sum of Mulliken charges =  -0.00000
 Mulliken charges with hydrogens summed into heavy atoms:
               1
     1  C    0.017106
     5  C   -0.028341
     8  C    0.145793
    10  O   -0.123323
    11  C   -0.028326
    15  C    0.017091
 Charge=             -0.0000 electrons
 Dipole moment (field-independent basis, Debye):
    X=             -0.0005    Y=             -1.1961    Z=             -0.8672  Tot=              1.4774
 N-N= 1.698634452929D+02 E-N=-2.541587964051D+02  KE=-5.968309064395D+01
 Leave Link  601 at Wed Sep  7 15:35:20 2022, MaxMem=   131072000 cpu:               0.0 elap:               0.0
 (Enter /opt/g16/l9999.exe)
 1\1\GINC-TOTEM2\FOpt\RPM3\ZDO\C5H12O1\JRAMOS\07-Sep-2022\0\\#p opt pm3
 \\Conformer number 015. Energy MM = 0.000 kcal/mol\\0,1\C,1.1353678319
 ,7.7592618166,9.8526677635\H,1.4756696912,7.4030322543,8.8712530961\H,
 0.4194011486,7.0231387163,10.2400886241\H,2.0070098301,7.7542279531,10
 .5207263152\C,0.5117421174,9.1329162391,9.7632831749\H,0.1564862773,9.
 4462495628,10.7649263287\H,-0.3926833177,9.099799584,9.122671885\C,1.4
 971683288,10.1873967413,9.229376447\H,2.4660403832,10.1280872335,9.777
 4551963\O,1.9038364139,9.9132252256,7.9080795942\C,0.8858958289,11.592
 8027037,9.3680578453\H,1.1282886189,9.9435293385,7.3611917604\H,0.0024
 017799,11.6896666622,8.7050648979\H,0.500100719,11.7178690961,10.39916
 93163\C,1.8854374083,12.6847536688,9.0640956557\H,2.7487104167,12.6419
 434926,9.7416078127\H,1.4319697453,13.6784829682,9.171067938\H,2.27215
 67784,12.6076167435,8.0392163486\\Version=ES64L-G16RevA.03\State=1-A\H
 F=-0.1196939\RMSD=2.944e-09\RMSF=3.593e-06\Dipole=-0.5338874,0.1134538
 ,0.1998233\PG=C01 [X(C5H12O1)]\\@


      THE ONE-EYED VIEW OF OUR UNIVERSE SAYS YOU MUST NOT LOOK
      FAR AFIELD FOR PROBLEMS.  SUCH PROBLEMS MAY NEVER ARRIVE. 
      INSTEAD, TEND TO THE WOLF WITHIN YOUR FENCES.
      THE PACKS RANGING OUTSIDE MAY NOT EVEN EXIST.

                              -- THE AZHAR BOOK SHAMRA I:4
                                 CHILDREN OF DUNE, BY FRANK HERBERT
 Job cpu time:       0 days  0 hours  0 minutes  4.3 seconds.
 Elapsed time:       0 days  0 hours  0 minutes 33.9 seconds.
 File lengths (MBytes):  RWF=      6 Int=      0 D2E=      0 Chk=      2 Scr=      1
 Normal termination of Gaussian 16 at Wed Sep  7 15:35:20 2022.
