 Entering Gaussian System, Link 0=/opt/g16/g16
 Input=MD_extract_005_gaussian.com
 Output=MD_extract_005_gaussian.log
 Initial command:
 /opt/g16/l1.exe "/tmp/Gau-316184.inp" -scrdir="/tmp/"
 Entering Link 1 = /opt/g16/l1.exe PID=    316186.
  
 Copyright (c) 1988,1990,1992,1993,1995,1998,2003,2009,2016,
            Gaussian, Inc.  All Rights Reserved.
  
 This is part of the Gaussian(R) 16 program.  It is based on
 the Gaussian(R) 09 system (copyright 2009, Gaussian, Inc.),
 the Gaussian(R) 03 system (copyright 2003, Gaussian, Inc.),
 the Gaussian(R) 98 system (copyright 1998, Gaussian, Inc.),
 the Gaussian(R) 94 system (copyright 1995, Gaussian, Inc.),
 the Gaussian 92(TM) system (copyright 1992, Gaussian, Inc.),
 the Gaussian 90(TM) system (copyright 1990, Gaussian, Inc.),
 the Gaussian 88(TM) system (copyright 1988, Gaussian, Inc.),
 the Gaussian 86(TM) system (copyright 1986, Carnegie Mellon
 University), and the Gaussian 82(TM) system (copyright 1983,
 Carnegie Mellon University). Gaussian is a federally registered
 trademark of Gaussian, Inc.
  
 This software contains proprietary and confidential information,
 including trade secrets, belonging to Gaussian, Inc.
  
 This software is provided under written license and may be
 used, copied, transmitted, or stored only in accord with that
 written license.
  
 The following legend is applicable only to US Government
 contracts under FAR:
  
                    RESTRICTED RIGHTS LEGEND
  
 Use, reproduction and disclosure by the US Government is
 subject to restrictions as set forth in subparagraphs (a)
 and (c) of the Commercial Computer Software - Restricted
 Rights clause in FAR 52.227-19.
  
 Gaussian, Inc.
 340 Quinnipiac St., Bldg. 40, Wallingford CT 06492
  
  
 ---------------------------------------------------------------
 Warning -- This program may not be used in any manner that
 competes with the business of Gaussian, Inc. or will provide
 assistance to any competitor of Gaussian, Inc.  The licensee
 of this program is prohibited from giving any competitor of
 Gaussian, Inc. access to this program.  By using this program,
 the user acknowledges that Gaussian, Inc. is engaged in the
 business of creating and licensing software in the field of
 computational chemistry and represents and warrants to the
 licensee that it is not a competitor of Gaussian, Inc. and that
 it will not use this program in any manner prohibited above.
 ---------------------------------------------------------------
  

 Cite this work as:
 Gaussian 16, Revision A.03,
 M. J. Frisch, G. W. Trucks, H. B. Schlegel, G. E. Scuseria, 
 M. A. Robb, J. R. Cheeseman, G. Scalmani, V. Barone, 
 G. A. Petersson, H. Nakatsuji, X. Li, M. Caricato, A. V. Marenich, 
 J. Bloino, B. G. Janesko, R. Gomperts, B. Mennucci, H. P. Hratchian, 
 J. V. Ortiz, A. F. Izmaylov, J. L. Sonnenberg, D. Williams-Young, 
 F. Ding, F. Lipparini, F. Egidi, J. Goings, B. Peng, A. Petrone, 
 T. Henderson, D. Ranasinghe, V. G. Zakrzewski, J. Gao, N. Rega, 
 G. Zheng, W. Liang, M. Hada, M. Ehara, K. Toyota, R. Fukuda, 
 J. Hasegawa, M. Ishida, T. Nakajima, Y. Honda, O. Kitao, H. Nakai, 
 T. Vreven, K. Throssell, J. A. Montgomery, Jr., J. E. Peralta, 
 F. Ogliaro, M. J. Bearpark, J. J. Heyd, E. N. Brothers, K. N. Kudin, 
 V. N. Staroverov, T. A. Keith, R. Kobayashi, J. Normand, 
 K. Raghavachari, A. P. Rendell, J. C. Burant, S. S. Iyengar, 
 J. Tomasi, M. Cossi, J. M. Millam, M. Klene, C. Adamo, R. Cammi, 
 J. W. Ochterski, R. L. Martin, K. Morokuma, O. Farkas, 
 J. B. Foresman, and D. J. Fox, Gaussian, Inc., Wallingford CT, 2016.
 
 ******************************************
 Gaussian 16:  ES64L-G16RevA.03 25-Dec-2016
                 7-Sep-2022 
 ******************************************
 %chk=MD_extract_005_gaussian.chk
 %nproc=1
 Will use up to    1 processors via shared memory.
 %mem=1000Mb
 ----------
 #p opt pm3
 ----------
 1/18=20,19=15,26=1,38=1/1,3;
 2/9=110,12=2,17=6,18=5,40=1/2;
 3/5=2,25=1,41=800000,71=1/1,2,3;
 4/35=1/1;
 5/5=2,35=1,38=5/2;
 6/7=2,8=2,9=2,10=2,28=1/1;
 7//1,2,3,16;
 1/18=20,19=15,26=1/3(2);
 2/9=110/2;
 99//99;
 2/9=110/2;
 3/5=2,25=1,41=800000,71=1,135=20/1,2,3;
 4/5=5,16=3,35=1/1;
 5/5=2,35=1,38=5/2;
 7//1,2,3,16;
 1/18=20,19=15,26=1/3(-5);
 2/9=110/2;
 6/7=2,8=2,9=2,10=2,19=2,28=1/1;
 99/9=1/99;
 Leave Link    1 at Wed Sep  7 15:33:34 2022, MaxMem=   131072000 cpu:               0.0 elap:               0.0
 (Enter /opt/g16/l101.exe)
 ------------------------------------------------
 Conformer number 005. Energy MM = 0.000 kcal/mol
 ------------------------------------------------
 Symbolic Z-matrix:
 Charge =  0 Multiplicity = 1
 C                     3.64      5.416     9.783 
 H                     3.848     4.356     9.674 
 H                     3.043     5.642     8.916 
 H                     3.109     5.538     10.76 
 C                     4.933     6.249     9.772 
 H                     5.435     6.259     8.758 
 H                     5.657     5.72      10.357 
 C                     4.699     7.662     10.188 
 H                     4.022     7.989     9.399 
 O                     4.245     7.747     11.48 
 C                     5.878     8.455     9.975 
 H                     4.487     6.925     11.831 
 H                     6.153     8.186     8.886 
 H                     5.681     9.536     10.062 
 C                     7.112     8.021     10.83 
 H                     6.846     8.177     11.865 
 H                     8.036     8.548     10.511 
 H                     7.294     7.002     10.628 
 
 ITRead=  0  0  0  0  0  0  0  0  0  0  0  0  0  0  0  0  0  0
 MicOpt= -1 -1 -1 -1 -1 -1 -1 -1 -1 -1 -1 -1 -1 -1 -1 -1 -1 -1
 NAtoms=     18 NQM=       18 NQMF=       0 NMMI=      0 NMMIF=      0
                NMic=       0 NMicF=      0.
                    Isotopes and Nuclear Properties:
 (Nuclear quadrupole moments (NQMom) in fm**2, nuclear magnetic moments (NMagM)
  in nuclear magnetons)

  Atom         1           2           3           4           5           6           7           8           9          10
 IAtWgt=          12           1           1           1          12           1           1          12           1          16
 AtmWgt=  12.0000000   1.0078250   1.0078250   1.0078250  12.0000000   1.0078250   1.0078250  12.0000000   1.0078250  15.9949146
 NucSpn=           0           1           1           1           0           1           1           0           1           0
 AtZEff=  -0.0000000  -0.0000000  -0.0000000  -0.0000000  -0.0000000  -0.0000000  -0.0000000  -0.0000000  -0.0000000  -0.0000000
 NQMom=    0.0000000   0.0000000   0.0000000   0.0000000   0.0000000   0.0000000   0.0000000   0.0000000   0.0000000   0.0000000
 NMagM=    0.0000000   2.7928460   2.7928460   2.7928460   0.0000000   2.7928460   2.7928460   0.0000000   2.7928460   0.0000000
 AtZNuc=   6.0000000   1.0000000   1.0000000   1.0000000   6.0000000   1.0000000   1.0000000   6.0000000   1.0000000   8.0000000

  Atom        11          12          13          14          15          16          17          18
 IAtWgt=          12           1           1           1          12           1           1           1
 AtmWgt=  12.0000000   1.0078250   1.0078250   1.0078250  12.0000000   1.0078250   1.0078250   1.0078250
 NucSpn=           0           1           1           1           0           1           1           1
 AtZEff=  -0.0000000  -0.0000000  -0.0000000  -0.0000000  -0.0000000  -0.0000000  -0.0000000  -0.0000000
 NQMom=    0.0000000   0.0000000   0.0000000   0.0000000   0.0000000   0.0000000   0.0000000   0.0000000
 NMagM=    0.0000000   2.7928460   2.7928460   2.7928460   0.0000000   2.7928460   2.7928460   2.7928460
 AtZNuc=   6.0000000   1.0000000   1.0000000   1.0000000   6.0000000   1.0000000   1.0000000   1.0000000
 Leave Link  101 at Wed Sep  7 15:33:35 2022, MaxMem=   131072000 cpu:               0.1 elap:               0.1
 (Enter /opt/g16/l103.exe)

 GradGradGradGradGradGradGradGradGradGradGradGradGradGradGradGradGradGrad
 Berny optimization.
 Initialization pass.
                           ----------------------------
                           !    Initial Parameters    !
                           ! (Angstroms and Degrees)  !
 --------------------------                            --------------------------
 ! Name  Definition              Value          Derivative Info.                !
 --------------------------------------------------------------------------------
 ! R1    R(1,2)                  1.0857         estimate D2E/DX2                !
 ! R2    R(1,3)                  1.0766         estimate D2E/DX2                !
 ! R3    R(1,4)                  1.1186         estimate D2E/DX2                !
 ! R4    R(1,5)                  1.5381         estimate D2E/DX2                !
 ! R5    R(5,6)                  1.1315         estimate D2E/DX2                !
 ! R6    R(5,7)                  1.0706         estimate D2E/DX2                !
 ! R7    R(5,8)                  1.4914         estimate D2E/DX2                !
 ! R8    R(8,9)                  1.0899         estimate D2E/DX2                !
 ! R9    R(8,10)                 1.3721         estimate D2E/DX2                !
 ! R10   R(8,11)                 1.4368         estimate D2E/DX2                !
 ! R11   R(10,12)                0.926          estimate D2E/DX2                !
 ! R12   R(11,13)                1.1549         estimate D2E/DX2                !
 ! R13   R(11,14)                1.1022         estimate D2E/DX2                !
 ! R14   R(11,15)                1.5627         estimate D2E/DX2                !
 ! R15   R(15,16)                1.08           estimate D2E/DX2                !
 ! R16   R(15,17)                1.1105         estimate D2E/DX2                !
 ! R17   R(15,18)                1.0547         estimate D2E/DX2                !
 ! A1    A(2,1,3)              103.3163         estimate D2E/DX2                !
 ! A2    A(2,1,4)              106.5649         estimate D2E/DX2                !
 ! A3    A(2,1,5)              111.5294         estimate D2E/DX2                !
 ! A4    A(3,1,4)              114.6583         estimate D2E/DX2                !
 ! A5    A(3,1,5)              110.2849         estimate D2E/DX2                !
 ! A6    A(4,1,5)              110.2558         estimate D2E/DX2                !
 ! A7    A(1,5,6)              112.5907         estimate D2E/DX2                !
 ! A8    A(1,5,7)              107.2757         estimate D2E/DX2                !
 ! A9    A(1,5,8)              112.284          estimate D2E/DX2                !
 ! A10   A(6,5,7)              101.1871         estimate D2E/DX2                !
 ! A11   A(6,5,8)              108.1313         estimate D2E/DX2                !
 ! A12   A(7,5,8)              114.9489         estimate D2E/DX2                !
 ! A13   A(5,8,9)              100.3577         estimate D2E/DX2                !
 ! A14   A(5,8,10)             111.9164         estimate D2E/DX2                !
 ! A15   A(5,8,11)             110.6594         estimate D2E/DX2                !
 ! A16   A(9,8,10)             117.2304         estimate D2E/DX2                !
 ! A17   A(9,8,11)             103.6986         estimate D2E/DX2                !
 ! A18   A(10,8,11)            112.1436         estimate D2E/DX2                !
 ! A19   A(8,10,12)            102.4428         estimate D2E/DX2                !
 ! A20   A(8,11,13)            101.9245         estimate D2E/DX2                !
 ! A21   A(8,11,14)            112.5158         estimate D2E/DX2                !
 ! A22   A(8,11,15)            114.4303         estimate D2E/DX2                !
 ! A23   A(13,11,14)           110.2063         estimate D2E/DX2                !
 ! A24   A(13,11,15)           105.2585         estimate D2E/DX2                !
 ! A25   A(14,11,15)           111.7349         estimate D2E/DX2                !
 ! A26   A(11,15,16)           106.8419         estimate D2E/DX2                !
 ! A27   A(11,15,17)           111.5961         estimate D2E/DX2                !
 ! A28   A(11,15,18)           107.446          estimate D2E/DX2                !
 ! A29   A(16,15,17)           114.3104         estimate D2E/DX2                !
 ! A30   A(16,15,18)           111.4463         estimate D2E/DX2                !
 ! A31   A(17,15,18)           105.0645         estimate D2E/DX2                !
 ! D1    D(2,1,5,6)             69.0339         estimate D2E/DX2                !
 ! D2    D(2,1,5,7)            -41.4206         estimate D2E/DX2                !
 ! D3    D(2,1,5,8)           -168.6379         estimate D2E/DX2                !
 ! D4    D(3,1,5,6)            -45.1575         estimate D2E/DX2                !
 ! D5    D(3,1,5,7)           -155.6119         estimate D2E/DX2                !
 ! D6    D(3,1,5,8)             77.1707         estimate D2E/DX2                !
 ! D7    D(4,1,5,6)           -172.784          estimate D2E/DX2                !
 ! D8    D(4,1,5,7)             76.7615         estimate D2E/DX2                !
 ! D9    D(4,1,5,8)            -50.4558         estimate D2E/DX2                !
 ! D10   D(1,5,8,9)            -62.33           estimate D2E/DX2                !
 ! D11   D(1,5,8,10)            62.764          estimate D2E/DX2                !
 ! D12   D(1,5,8,11)          -171.3682         estimate D2E/DX2                !
 ! D13   D(6,5,8,9)             62.4924         estimate D2E/DX2                !
 ! D14   D(6,5,8,10)          -172.4136         estimate D2E/DX2                !
 ! D15   D(6,5,8,11)           -46.5458         estimate D2E/DX2                !
 ! D16   D(7,5,8,9)            174.6714         estimate D2E/DX2                !
 ! D17   D(7,5,8,10)           -60.2346         estimate D2E/DX2                !
 ! D18   D(7,5,8,11)            65.6332         estimate D2E/DX2                !
 ! D19   D(5,8,10,12)           18.9739         estimate D2E/DX2                !
 ! D20   D(9,8,10,12)          134.1242         estimate D2E/DX2                !
 ! D21   D(11,8,10,12)        -106.0771         estimate D2E/DX2                !
 ! D22   D(5,8,11,13)           49.5538         estimate D2E/DX2                !
 ! D23   D(5,8,11,14)          167.568          estimate D2E/DX2                !
 ! D24   D(5,8,11,15)          -63.4854         estimate D2E/DX2                !
 ! D25   D(9,8,11,13)          -57.2852         estimate D2E/DX2                !
 ! D26   D(9,8,11,14)           60.729          estimate D2E/DX2                !
 ! D27   D(9,8,11,15)         -170.3244         estimate D2E/DX2                !
 ! D28   D(10,8,11,13)         175.2941         estimate D2E/DX2                !
 ! D29   D(10,8,11,14)         -66.6917         estimate D2E/DX2                !
 ! D30   D(10,8,11,15)          62.2549         estimate D2E/DX2                !
 ! D31   D(8,11,15,16)         -63.8319         estimate D2E/DX2                !
 ! D32   D(8,11,15,17)         170.5463         estimate D2E/DX2                !
 ! D33   D(8,11,15,18)          55.8752         estimate D2E/DX2                !
 ! D34   D(13,11,15,16)       -174.8801         estimate D2E/DX2                !
 ! D35   D(13,11,15,17)         59.4982         estimate D2E/DX2                !
 ! D36   D(13,11,15,18)        -55.1729         estimate D2E/DX2                !
 ! D37   D(14,11,15,16)         65.5048         estimate D2E/DX2                !
 ! D38   D(14,11,15,17)        -60.117          estimate D2E/DX2                !
 ! D39   D(14,11,15,18)       -174.788          estimate D2E/DX2                !
 --------------------------------------------------------------------------------
 Trust Radius=3.00D-01 FncErr=1.00D-07 GrdErr=1.00D-07 EigMax=2.50D+02 EigMin=1.00D-04
 Number of steps in this run=     97 maximum allowed number of steps=    108.
 GradGradGradGradGradGradGradGradGradGradGradGradGradGradGradGradGradGrad

 Leave Link  103 at Wed Sep  7 15:33:35 2022, MaxMem=   131072000 cpu:               0.0 elap:               0.0
 (Enter /opt/g16/l202.exe)
                          Input orientation:                          
 ---------------------------------------------------------------------
 Center     Atomic      Atomic             Coordinates (Angstroms)
 Number     Number       Type             X           Y           Z
 ---------------------------------------------------------------------
      1          6           0        3.640000    5.416000    9.783000
      2          1           0        3.848000    4.356000    9.674000
      3          1           0        3.043000    5.642000    8.916000
      4          1           0        3.109000    5.538000   10.760000
      5          6           0        4.933000    6.249000    9.772000
      6          1           0        5.435000    6.259000    8.758000
      7          1           0        5.657000    5.720000   10.357000
      8          6           0        4.699000    7.662000   10.188000
      9          1           0        4.022000    7.989000    9.399000
     10          8           0        4.245000    7.747000   11.480000
     11          6           0        5.878000    8.455000    9.975000
     12          1           0        4.487000    6.925000   11.831000
     13          1           0        6.153000    8.186000    8.886000
     14          1           0        5.681000    9.536000   10.062000
     15          6           0        7.112000    8.021000   10.830000
     16          1           0        6.846000    8.177000   11.865000
     17          1           0        8.036000    8.548000   10.511000
     18          1           0        7.294000    7.002000   10.628000
 ---------------------------------------------------------------------
                    Distance matrix (angstroms):
                    1          2          3          4          5
     1  C    0.000000
     2  H    1.085700   0.000000
     3  H    1.076649   1.695991   0.000000
     4  H    1.118648   1.767100   1.848109   0.000000
     5  C    1.538135   2.184097   2.161778   2.192861   0.000000
     6  H    2.232330   2.641786   2.475342   3.152479   1.131503
     7  H    2.119005   2.366319   2.985894   2.586085   1.070627
     8  C    2.515953   3.452250   2.905292   2.714159   1.491436
     9  H    2.629393   3.647546   2.588463   2.948439   1.999162
    10  O    2.946081   3.862399   3.528445   2.586228   2.373734
    11  C    3.779025   4.584027   4.131788   4.097862   2.408458
    12  H    2.681193   3.414781   3.496920   2.229281   2.212549
    13  H    3.846125   4.539038   4.018076   4.448563   2.454662
    14  H    4.606292   5.508433   4.841033   4.804830   3.383485
    15  C    4.465089   5.042049   5.087219   4.711072   3.001231
    16  H    4.715536   5.328088   5.439268   4.706433   3.428907
    17  H    5.446487   5.984378   5.993239   5.779051   3.931937
    18  H    4.071994   4.448185   4.780329   4.435645   2.621844
                    6          7          8          9         10
     6  H    0.000000
     7  H    1.701942   0.000000
     8  C    2.134246   2.172024   0.000000
     9  H    2.323865   2.956239   1.089853   0.000000
    10  O    3.322579   2.713596   1.372081   2.106859   0.000000
    11  C    2.549462   2.770377   1.436753   1.998416   2.330875
    12  H    3.284142   2.234637   1.813164   2.694985   0.925985
    13  H    2.060397   2.913934   2.020865   2.200713   3.249926
    14  H    3.535486   3.827461   2.119452   2.363273   2.696913
    15  C    3.195334   2.763215   2.522620   3.405420   2.952501
    16  H    3.914472   3.118435   2.772573   3.753861   2.664268
    17  H    3.883005   3.698776   3.467693   4.202526   3.994026
    18  H    2.739494   2.096839   2.713526   3.631886   3.252281
                   11         12         13         14         15
    11  C    0.000000
    12  H    2.778582   0.000000
    13  H    1.154949   3.610914   0.000000
    14  H    1.102243   3.372287   1.851556   0.000000
    15  C    1.562734   3.015600   2.173946   2.220993   0.000000
    16  H    2.141590   2.670869   3.058557   2.540652   1.079962
    17  H    2.225513   4.119700   2.513435   2.593023   1.110525
    18  H    2.131355   3.054896   2.395475   3.056678   1.054651
                   16         17         18
    16  H    0.000000
    17  H    1.840396   0.000000
    18  H    1.763944   1.718828   0.000000
 Stoichiometry    C5H12O
 Framework group  C1[X(C5H12O)]
 Deg. of freedom    48
 Full point group                 C1      NOp   1
 Largest Abelian subgroup         C1      NOp   1
 Largest concise Abelian subgroup C1      NOp   1
                         Standard orientation:                         
 ---------------------------------------------------------------------
 Center     Atomic      Atomic             Coordinates (Angstroms)
 Number     Number       Type             X           Y           Z
 ---------------------------------------------------------------------
      1          6           0        2.356711   -0.331727   -0.108972
      2          1           0        2.935177   -1.036172   -0.698785
      3          1           0        2.792005   -0.413712    0.872339
      4          1           0        2.482651    0.668742   -0.593301
      5          6           0        0.868800   -0.719241   -0.066394
      6          1           0        0.682147   -1.662267    0.530399
      7          1           0        0.595201   -1.038886   -1.050880
      8          6           0        0.017846    0.365762    0.501961
      9          1           0        0.429289    0.430231    1.509104
     10          8           0        0.056389    1.502199   -0.265913
     11          6           0       -1.324781   -0.100547    0.712122
     12          1           0        0.368507    1.184062   -1.077590
     13          1           0       -1.147605   -1.088264    1.283901
     14          1           0       -1.921275    0.593363    1.326633
     15          6           0       -2.078340   -0.510900   -0.593977
     16          1           0       -2.176732    0.382734   -1.192353
     17          1           0       -3.040064   -1.018447   -0.368699
     18          1           0       -1.491830   -1.239058   -1.081912
 ---------------------------------------------------------------------
 Rotational constants (GHZ):           5.8042073           2.2841035           1.9921788
 Leave Link  202 at Wed Sep  7 15:33:35 2022, MaxMem=   131072000 cpu:               0.0 elap:               0.0
 (Enter /opt/g16/l301.exe)
 Standard basis: VSTO-6G (5D, 7F)
 Ernie: Thresh=  0.10000D-02 Tol=  0.10000D-05 Strict=F.
  NNHCO=     0 NNPyr=     0 NCTC=     0               EPep=         0.000000000
    EC=       131.465206100  ECS=         2.346431808   EG=         0.572773859
   EHC=         0.000000000  EAt=       -36.836480110  AtH=         2.452923921
 EPDDG=         0.000000000  ECC=       134.384411767 EAtT=        39.289404030
 There are    36 symmetry adapted cartesian basis functions of A   symmetry.
 There are    36 symmetry adapted basis functions of A   symmetry.
    36 basis functions,   216 primitive gaussians,    36 cartesian basis functions
    19 alpha electrons       19 beta electrons
       nuclear repulsion energy       173.6738157976 Hartrees.
 IExCor=    0 DFT=F Ex=HF Corr=None ExCW=0 ScaHFX=  1.000000
 ScaDFX=  1.000000  1.000000  1.000000  1.000000 ScalE2=  1.000000  1.000000
 IRadAn=      5 IRanWt=     -1 IRanGd=            0 ICorTp=0 IEmpDi=  4
 Integral buffers will be    131072 words long.
 Regular integral format.
 Two-electron integral symmetry is turned off.
 Leave Link  301 at Wed Sep  7 15:33:35 2022, MaxMem=   131072000 cpu:               0.0 elap:               0.0
 (Enter /opt/g16/l302.exe)
 Do NDO integrals.
 NPDir=0 NMtPBC=     1 NCelOv=     1 NCel=       1 NClECP=     1 NCelD=      1
         NCelK=      1 NCelE2=     1 NClLst=     1 CellRange=     0.0.
 One-electron integrals computed using PRISM.
 NBasis=    36 RedAO= F EigKep=  0.00D+00  NBF=    36
 NBsUse=    36 1.00D-04 EigRej=  0.00D+00 NBFU=    36
 Leave Link  302 at Wed Sep  7 15:33:35 2022, MaxMem=   131072000 cpu:               0.0 elap:               0.0
 (Enter /opt/g16/l303.exe)
 DipDrv:  MaxL=1.
 Leave Link  303 at Wed Sep  7 15:33:35 2022, MaxMem=   131072000 cpu:               0.0 elap:               0.0
 (Enter /opt/g16/l401.exe)
 Simple Huckel Guess.
 JPrj=0 DoOrth=F DoCkMO=F.
 Leave Link  401 at Wed Sep  7 15:33:35 2022, MaxMem=   131072000 cpu:               0.0 elap:               0.0
 (Enter /opt/g16/l502.exe)
 Keep J ints in memory in canonical form, NReq=862161.
 FoFCou: FMM=F IPFlag=           0 FMFlag=           0 FMFlg1=           0
         NFxFlg=           0 DoJE=F BraDBF=F KetDBF=F FulRan=T
         wScrn=  0.000000 ICntrl=       600 IOpCl=  2 I1Cent=           0 NGrid=           0
         NMat0=    1 NMatS0=     72 NMatT0=    0 NMatD0=    1 NMtDS0=    0 NMtDT0=    0
 Symmetry not used in FoFCou.
 Two-electron integral symmetry not used.
 Closed shell SCF:
 Using DIIS extrapolation, IDIIS=  1040.
 Overlap will be assumed to be unity.
 NGot=   131072000 LenX=   131006778 LenY=   131005041
 Requested convergence on RMS density matrix=1.00D-08 within 128 cycles.
 Requested convergence on MAX density matrix=1.00D-06.
 Requested convergence on             energy=1.00D-06.
 No special actions if energy rises.

 Cycle   1  Pass 1  IDiag  1:
 E= 0.205234568409736    
 DIIS: error= 7.16D-02 at cycle   1 NSaved=   1.
 NSaved= 1 IEnMin= 1 EnMin= 0.205234568409736     IErMin= 1 ErrMin= 7.16D-02
 ErrMax= 7.16D-02  0.00D+00 EMaxC= 1.00D-01 BMatC= 1.11D-01 BMatP= 1.11D-01
 IDIUse=3 WtCom= 2.84D-01 WtEn= 7.16D-01
 Coeff-Com:  0.100D+01
 Coeff-En:   0.100D+01
 Coeff:      0.100D+01
 GapD=    2.000 DampG=2.000 DampE=0.500 DampFc=1.0000 IDamp=-1.
 RMSDP=1.28D-02 MaxDP=1.52D-01              OVMax= 0.00D+00

 Cycle   2  Pass 1  IDiag  1:
 E=-0.582479924775328E-01 Delta-E=       -0.263482560887 Rises=F Damp=F
 DIIS: error= 1.70D-02 at cycle   2 NSaved=   2.
 NSaved= 2 IEnMin= 2 EnMin=-0.582479924775328E-01 IErMin= 2 ErrMin= 1.70D-02
 ErrMax= 1.70D-02  0.00D+00 EMaxC= 1.00D-01 BMatC= 7.18D-03 BMatP= 1.11D-01
 IDIUse=3 WtCom= 8.30D-01 WtEn= 1.70D-01
 Coeff-Com: -0.303D+00 0.130D+01
 Coeff-En:   0.000D+00 0.100D+01
 Coeff:     -0.251D+00 0.125D+01
 RMSDP=4.60D-03 MaxDP=6.28D-02 DE=-2.63D-01 OVMax= 0.00D+00

 Cycle   3  Pass 1  IDiag  3:
 E=-0.802097216366064E-01 Delta-E=       -0.021961729159 Rises=F Damp=F
 DIIS: error= 3.94D-03 at cycle   3 NSaved=   3.
 NSaved= 3 IEnMin= 3 EnMin=-0.802097216366064E-01 IErMin= 3 ErrMin= 3.94D-03
 ErrMax= 3.94D-03  0.00D+00 EMaxC= 1.00D-01 BMatC= 2.30D-04 BMatP= 7.18D-03
 IDIUse=3 WtCom= 9.61D-01 WtEn= 3.94D-02
 Coeff-Com:  0.143D+00-0.708D+00 0.157D+01
 Coeff-En:   0.000D+00 0.000D+00 0.100D+01
 Coeff:      0.137D+00-0.681D+00 0.154D+01
 Gap=     0.517 Goal=   None    Shift=    0.000
 RMSDP=1.34D-03 MaxDP=2.25D-02 DE=-2.20D-02 OVMax= 9.14D-03

 Cycle   4  Pass 1  IDiag  3:
 E=-0.813990489486969E-01 Delta-E=       -0.001189327312 Rises=F Damp=F
 DIIS: error= 8.15D-04 at cycle   4 NSaved=   4.
 NSaved= 4 IEnMin= 4 EnMin=-0.813990489486969E-01 IErMin= 4 ErrMin= 8.15D-04
 ErrMax= 8.15D-04  0.00D+00 EMaxC= 1.00D-01 BMatC= 9.39D-06 BMatP= 2.30D-04
 IDIUse=3 WtCom= 9.92D-01 WtEn= 8.15D-03
 Coeff-Com: -0.319D-01 0.174D+00-0.566D+00 0.142D+01
 Coeff-En:   0.000D+00 0.000D+00 0.000D+00 0.100D+01
 Coeff:     -0.316D-01 0.173D+00-0.562D+00 0.142D+01
 Gap=     0.518 Goal=   None    Shift=    0.000
 RMSDP=3.18D-04 MaxDP=4.78D-03 DE=-1.19D-03 OVMax= 2.07D-03

 Cycle   5  Pass 1  IDiag  3:
 E=-0.814540456307213E-01 Delta-E=       -0.000054996682 Rises=F Damp=F
 DIIS: error= 1.17D-04 at cycle   5 NSaved=   5.
 NSaved= 5 IEnMin= 5 EnMin=-0.814540456307213E-01 IErMin= 5 ErrMin= 1.17D-04
 ErrMax= 1.17D-04  0.00D+00 EMaxC= 1.00D-01 BMatC= 3.20D-07 BMatP= 9.39D-06
 IDIUse=3 WtCom= 9.99D-01 WtEn= 1.17D-03
 Coeff-Com:  0.204D-02-0.143D-01 0.792D-01-0.377D+00 0.131D+01
 Coeff-En:   0.000D+00 0.000D+00 0.000D+00 0.000D+00 0.100D+01
 Coeff:      0.204D-02-0.143D-01 0.791D-01-0.377D+00 0.131D+01
 Gap=     0.518 Goal=   None    Shift=    0.000
 RMSDP=5.56D-05 MaxDP=6.90D-04 DE=-5.50D-05 OVMax= 4.13D-04

 Cycle   6  Pass 1  IDiag  3:
 E=-0.814558846994942E-01 Delta-E=       -0.000001839069 Rises=F Damp=F
 DIIS: error= 3.72D-05 at cycle   6 NSaved=   6.
 NSaved= 6 IEnMin= 6 EnMin=-0.814558846994942E-01 IErMin= 6 ErrMin= 3.72D-05
 ErrMax= 3.72D-05  0.00D+00 EMaxC= 1.00D-01 BMatC= 2.32D-08 BMatP= 3.20D-07
 IDIUse=1 WtCom= 1.00D+00 WtEn= 0.00D+00
 Coeff-Com: -0.330D-03 0.336D-02-0.270D-01 0.157D+00-0.725D+00 0.159D+01
 Coeff:     -0.330D-03 0.336D-02-0.270D-01 0.157D+00-0.725D+00 0.159D+01
 Gap=     0.518 Goal=   None    Shift=    0.000
 RMSDP=1.67D-05 MaxDP=2.64D-04 DE=-1.84D-06 OVMax= 1.50D-04

 Cycle   7  Pass 1  IDiag  3:
 E=-0.814560330672691E-01 Delta-E=       -0.000000148368 Rises=F Damp=F
 DIIS: error= 6.29D-06 at cycle   7 NSaved=   7.
 NSaved= 7 IEnMin= 7 EnMin=-0.814560330672691E-01 IErMin= 7 ErrMin= 6.29D-06
 ErrMax= 6.29D-06  0.00D+00 EMaxC= 1.00D-01 BMatC= 1.38D-09 BMatP= 2.32D-08
 IDIUse=1 WtCom= 1.00D+00 WtEn= 0.00D+00
 Coeff-Com:  0.155D-03-0.154D-02 0.123D-01-0.717D-01 0.348D+00-0.928D+00
 Coeff-Com:  0.164D+01
 Coeff:      0.155D-03-0.154D-02 0.123D-01-0.717D-01 0.348D+00-0.928D+00
 Coeff:      0.164D+01
 Gap=     0.518 Goal=   None    Shift=    0.000
 RMSDP=4.40D-06 MaxDP=5.75D-05 DE=-1.48D-07 OVMax= 3.81D-05

 Cycle   8  Pass 1  IDiag  3:
 E=-0.814560420401449E-01 Delta-E=       -0.000000008973 Rises=F Damp=F
 DIIS: error= 1.51D-06 at cycle   8 NSaved=   8.
 NSaved= 8 IEnMin= 8 EnMin=-0.814560420401449E-01 IErMin= 8 ErrMin= 1.51D-06
 ErrMax= 1.51D-06  0.00D+00 EMaxC= 1.00D-01 BMatC= 5.40D-11 BMatP= 1.38D-09
 IDIUse=1 WtCom= 1.00D+00 WtEn= 0.00D+00
 Coeff-Com: -0.504D-04 0.572D-03-0.495D-02 0.295D-01-0.147D+00 0.410D+00
 Coeff-Com: -0.838D+00 0.155D+01
 Coeff:     -0.504D-04 0.572D-03-0.495D-02 0.295D-01-0.147D+00 0.410D+00
 Coeff:     -0.838D+00 0.155D+01
 Gap=     0.518 Goal=   None    Shift=    0.000
 RMSDP=8.22D-07 MaxDP=8.32D-06 DE=-8.97D-09 OVMax= 7.67D-06

 Cycle   9  Pass 1  IDiag  3:
 E=-0.814560424031754E-01 Delta-E=       -0.000000000363 Rises=F Damp=F
 DIIS: error= 4.52D-07 at cycle   9 NSaved=   9.
 NSaved= 9 IEnMin= 9 EnMin=-0.814560424031754E-01 IErMin= 9 ErrMin= 4.52D-07
 ErrMax= 4.52D-07  0.00D+00 EMaxC= 1.00D-01 BMatC= 4.20D-12 BMatP= 5.40D-11
 IDIUse=1 WtCom= 1.00D+00 WtEn= 0.00D+00
 Coeff-Com:  0.141D-04-0.205D-03 0.199D-02-0.122D-01 0.621D-01-0.177D+00
 Coeff-Com:  0.378D+00-0.906D+00 0.165D+01
 Coeff:      0.141D-04-0.205D-03 0.199D-02-0.122D-01 0.621D-01-0.177D+00
 Coeff:      0.378D+00-0.906D+00 0.165D+01
 Gap=     0.518 Goal=   None    Shift=    0.000
 RMSDP=2.64D-07 MaxDP=2.66D-06 DE=-3.63D-10 OVMax= 2.60D-06

 Cycle  10  Pass 1  IDiag  3:
 E=-0.814560424338708E-01 Delta-E=       -0.000000000031 Rises=F Damp=F
 DIIS: error= 7.74D-08 at cycle  10 NSaved=  10.
 NSaved=10 IEnMin=10 EnMin=-0.814560424338708E-01 IErMin=10 ErrMin= 7.74D-08
 ErrMax= 7.74D-08  0.00D+00 EMaxC= 1.00D-01 BMatC= 1.88D-13 BMatP= 4.20D-12
 IDIUse=1 WtCom= 1.00D+00 WtEn= 0.00D+00
 Coeff-Com: -0.483D-05 0.718D-04-0.705D-03 0.435D-02-0.222D-01 0.636D-01
 Coeff-Com: -0.137D+00 0.346D+00-0.773D+00 0.152D+01
 Coeff:     -0.483D-05 0.718D-04-0.705D-03 0.435D-02-0.222D-01 0.636D-01
 Coeff:     -0.137D+00 0.346D+00-0.773D+00 0.152D+01
 Gap=     0.518 Goal=   None    Shift=    0.000
 RMSDP=5.23D-08 MaxDP=5.32D-07 DE=-3.07D-11 OVMax= 5.89D-07

 Cycle  11  Pass 1  IDiag  3:
 E=-0.814560424349509E-01 Delta-E=       -0.000000000001 Rises=F Damp=F
 DIIS: error= 1.87D-08 at cycle  11 NSaved=  11.
 NSaved=11 IEnMin=11 EnMin=-0.814560424349509E-01 IErMin=11 ErrMin= 1.87D-08
 ErrMax= 1.87D-08  0.00D+00 EMaxC= 1.00D-01 BMatC= 1.19D-14 BMatP= 1.88D-13
 IDIUse=1 WtCom= 1.00D+00 WtEn= 0.00D+00
 Coeff-Com:  0.182D-05-0.258D-04 0.248D-03-0.152D-02 0.778D-02-0.224D-01
 Coeff-Com:  0.484D-01-0.123D+00 0.292D+00-0.754D+00 0.155D+01
 Coeff:      0.182D-05-0.258D-04 0.248D-03-0.152D-02 0.778D-02-0.224D-01
 Coeff:      0.484D-01-0.123D+00 0.292D+00-0.754D+00 0.155D+01
 Gap=     0.518 Goal=   None    Shift=    0.000
 RMSDP=1.25D-08 MaxDP=1.35D-07 DE=-1.08D-12 OVMax= 1.23D-07

 Cycle  12  Pass 1  IDiag  3:
 E=-0.814560424353772E-01 Delta-E=       -0.000000000000 Rises=F Damp=F
 DIIS: error= 4.30D-09 at cycle  12 NSaved=  12.
 NSaved=12 IEnMin=12 EnMin=-0.814560424353772E-01 IErMin=12 ErrMin= 4.30D-09
 ErrMax= 4.30D-09  0.00D+00 EMaxC= 1.00D-01 BMatC= 6.57D-16 BMatP= 1.19D-14
 IDIUse=1 WtCom= 1.00D+00 WtEn= 0.00D+00
 Coeff-Com: -0.425D-06 0.607D-05-0.586D-04 0.359D-03-0.184D-02 0.533D-02
 Coeff-Com: -0.116D-01 0.293D-01-0.730D-01 0.219D+00-0.652D+00 0.148D+01
 Coeff:     -0.425D-06 0.607D-05-0.586D-04 0.359D-03-0.184D-02 0.533D-02
 Coeff:     -0.116D-01 0.293D-01-0.730D-01 0.219D+00-0.652D+00 0.148D+01
 Gap=     0.518 Goal=   None    Shift=    0.000
 RMSDP=3.02D-09 MaxDP=3.18D-08 DE=-4.26D-13 OVMax= 2.23D-08

 Cycle  13  Pass 2  IDiag  1:
 SCF Done:  E(RPM3) = -0.814560424354E-01 A.U. after   13 cycles
            NFock= 12  Conv=0.30D-08     -V/T= 0.9986
 KE=-5.978875001215D+01 PE=-2.613328482212D+02 EE= 1.473663263933D+02
 Leave Link  502 at Wed Sep  7 15:33:35 2022, MaxMem=   131072000 cpu:               0.0 elap:               0.0
 (Enter /opt/g16/l601.exe)
 Copying SCF densities to generalized density rwf, IOpCl= 0 IROHF=0.

 **********************************************************************

            Population analysis using the SCF density.

 **********************************************************************

 Orbital symmetries:
       Occupied  (A) (A) (A) (A) (A) (A) (A) (A) (A) (A) (A) (A)
                 (A) (A) (A) (A) (A) (A) (A)
       Virtual   (A) (A) (A) (A) (A) (A) (A) (A) (A) (A) (A) (A)
                 (A) (A) (A) (A) (A)
 The electronic state is 1-A.
 Alpha  occ. eigenvalues --   -1.54395  -1.25896  -1.19188  -0.97312  -0.83998
 Alpha  occ. eigenvalues --   -0.73341  -0.64420  -0.63806  -0.59491  -0.55894
 Alpha  occ. eigenvalues --   -0.54336  -0.50923  -0.49172  -0.48396  -0.47504
 Alpha  occ. eigenvalues --   -0.44690  -0.43904  -0.42641  -0.40140
 Alpha virt. eigenvalues --    0.11621   0.12326   0.12876   0.13431   0.13734
 Alpha virt. eigenvalues --    0.14230   0.14750   0.15333   0.15638   0.15984
 Alpha virt. eigenvalues --    0.16371   0.17054   0.17315   0.18130   0.18551
 Alpha virt. eigenvalues --    0.19278   0.21636
          Condensed to atoms (all electrons):
               1          2          3          4          5          6
     1  C    4.107168   0.000000   0.000000   0.000000   0.000000   0.000000
     2  H    0.000000   0.968235   0.000000   0.000000   0.000000   0.000000
     3  H    0.000000   0.000000   0.956354   0.000000   0.000000   0.000000
     4  H    0.000000   0.000000   0.000000   0.947296   0.000000   0.000000
     5  C    0.000000   0.000000   0.000000   0.000000   4.171955   0.000000
     6  H    0.000000   0.000000   0.000000   0.000000   0.000000   0.936834
     7  H    0.000000   0.000000   0.000000   0.000000   0.000000   0.000000
     8  C    0.000000   0.000000   0.000000   0.000000   0.000000   0.000000
     9  H    0.000000   0.000000   0.000000   0.000000   0.000000   0.000000
    10  O    0.000000   0.000000   0.000000   0.000000   0.000000   0.000000
    11  C    0.000000   0.000000   0.000000   0.000000   0.000000   0.000000
    12  H    0.000000   0.000000   0.000000   0.000000   0.000000   0.000000
    13  H    0.000000   0.000000   0.000000   0.000000   0.000000   0.000000
    14  H    0.000000   0.000000   0.000000   0.000000   0.000000   0.000000
    15  C    0.000000   0.000000   0.000000   0.000000   0.000000   0.000000
    16  H    0.000000   0.000000   0.000000   0.000000   0.000000   0.000000
    17  H    0.000000   0.000000   0.000000   0.000000   0.000000   0.000000
    18  H    0.000000   0.000000   0.000000   0.000000   0.000000   0.000000
               7          8          9         10         11         12
     1  C    0.000000   0.000000   0.000000   0.000000   0.000000   0.000000
     2  H    0.000000   0.000000   0.000000   0.000000   0.000000   0.000000
     3  H    0.000000   0.000000   0.000000   0.000000   0.000000   0.000000
     4  H    0.000000   0.000000   0.000000   0.000000   0.000000   0.000000
     5  C    0.000000   0.000000   0.000000   0.000000   0.000000   0.000000
     6  H    0.000000   0.000000   0.000000   0.000000   0.000000   0.000000
     7  H    0.945628   0.000000   0.000000   0.000000   0.000000   0.000000
     8  C    0.000000   3.915750   0.000000   0.000000   0.000000   0.000000
     9  H    0.000000   0.000000   0.939908   0.000000   0.000000   0.000000
    10  O    0.000000   0.000000   0.000000   6.293076   0.000000   0.000000
    11  C    0.000000   0.000000   0.000000   0.000000   4.150768   0.000000
    12  H    0.000000   0.000000   0.000000   0.000000   0.000000   0.805751
    13  H    0.000000   0.000000   0.000000   0.000000   0.000000   0.000000
    14  H    0.000000   0.000000   0.000000   0.000000   0.000000   0.000000
    15  C    0.000000   0.000000   0.000000   0.000000   0.000000   0.000000
    16  H    0.000000   0.000000   0.000000   0.000000   0.000000   0.000000
    17  H    0.000000   0.000000   0.000000   0.000000   0.000000   0.000000
    18  H    0.000000   0.000000   0.000000   0.000000   0.000000   0.000000
              13         14         15         16         17         18
     1  C    0.000000   0.000000   0.000000   0.000000   0.000000   0.000000
     2  H    0.000000   0.000000   0.000000   0.000000   0.000000   0.000000
     3  H    0.000000   0.000000   0.000000   0.000000   0.000000   0.000000
     4  H    0.000000   0.000000   0.000000   0.000000   0.000000   0.000000
     5  C    0.000000   0.000000   0.000000   0.000000   0.000000   0.000000
     6  H    0.000000   0.000000   0.000000   0.000000   0.000000   0.000000
     7  H    0.000000   0.000000   0.000000   0.000000   0.000000   0.000000
     8  C    0.000000   0.000000   0.000000   0.000000   0.000000   0.000000
     9  H    0.000000   0.000000   0.000000   0.000000   0.000000   0.000000
    10  O    0.000000   0.000000   0.000000   0.000000   0.000000   0.000000
    11  C    0.000000   0.000000   0.000000   0.000000   0.000000   0.000000
    12  H    0.000000   0.000000   0.000000   0.000000   0.000000   0.000000
    13  H    0.952609   0.000000   0.000000   0.000000   0.000000   0.000000
    14  H    0.000000   0.925141   0.000000   0.000000   0.000000   0.000000
    15  C    0.000000   0.000000   4.112043   0.000000   0.000000   0.000000
    16  H    0.000000   0.000000   0.000000   0.947411   0.000000   0.000000
    17  H    0.000000   0.000000   0.000000   0.000000   0.955438   0.000000
    18  H    0.000000   0.000000   0.000000   0.000000   0.000000   0.968637
 Mulliken charges:
               1
     1  C   -0.107168
     2  H    0.031765
     3  H    0.043646
     4  H    0.052704
     5  C   -0.171955
     6  H    0.063166
     7  H    0.054372
     8  C    0.084250
     9  H    0.060092
    10  O   -0.293076
    11  C   -0.150768
    12  H    0.194249
    13  H    0.047391
    14  H    0.074859
    15  C   -0.112043
    16  H    0.052589
    17  H    0.044562
    18  H    0.031363
 Sum of Mulliken charges =  -0.00000
 Mulliken charges with hydrogens summed into heavy atoms:
               1
     1  C    0.020948
     5  C   -0.054417
     8  C    0.144343
    10  O   -0.098827
    11  C   -0.028518
    15  C    0.016471
 Charge=             -0.0000 electrons
 Dipole moment (field-independent basis, Debye):
    X=              0.5011    Y=             -1.5675    Z=             -0.4522  Tot=              1.7066
 N-N= 1.736738157976D+02 E-N=-2.613328482823D+02  KE=-5.978875001215D+01
 Leave Link  601 at Wed Sep  7 15:33:35 2022, MaxMem=   131072000 cpu:               0.0 elap:               0.0
 (Enter /opt/g16/l701.exe)
 ... and contract with generalized density number  0.
 Compute integral first derivatives.
 Leave Link  701 at Wed Sep  7 15:33:35 2022, MaxMem=   131072000 cpu:               0.0 elap:               0.0
 (Enter /opt/g16/l702.exe)
 L702 exits ... SP integral derivatives will be done elsewhere.
 Leave Link  702 at Wed Sep  7 15:33:35 2022, MaxMem=   131072000 cpu:               0.0 elap:               0.0
 (Enter /opt/g16/l703.exe)
 Integral derivatives from FoFJK, PRISM(SPDF).
 Compute integral first derivatives, UseDBF=F ICtDFT=           0.
 Calling FoFJK, ICntrl=      2127 FMM=F ISym2X=0 I1Cent= 0 IOpClX= 0 NMat=1 NMatS=1 NMatT=0.
 FoFJK:  IHMeth= 9 ICntrl=    2127 DoSepK=F KAlg= 0 I1Cent=           0 FoldK=F
 IRaf=         0 NMat=       1 IRICut=       1 DoRegI=T DoRafI=F ISym2E= 0 IDoP0=3 IntGTp=3.
 FoFCou: FMM=F IPFlag=           0 FMFlag=      100000 FMFlg1=         800
         NFxFlg=           0 DoJE=F BraDBF=F KetDBF=F FulRan=T
         wScrn=  0.000000 ICntrl=      2127 IOpCl=  0 I1Cent=           0 NGrid=           0
         NMat0=    1 NMatS0=      1 NMatT0=    0 NMatD0=    1 NMtDS0=    0 NMtDT0=    0
 Symmetry not used in FoFCou.
 Leave Link  703 at Wed Sep  7 15:33:35 2022, MaxMem=   131072000 cpu:               0.0 elap:               0.0
 (Enter /opt/g16/l716.exe)
 Dipole        = 1.97143147D-01-6.16698731D-01-1.77898535D-01
 ***** Axes restored to original set *****
 -------------------------------------------------------------------
 Center     Atomic                   Forces (Hartrees/Bohr)
 Number     Number              X              Y              Z
 -------------------------------------------------------------------
      1        6           0.017288920    0.006292083    0.011991673
      2        1           0.005330347   -0.010148136    0.002694882
      3        1          -0.014568279    0.009592476   -0.004815369
      4        1           0.000256783   -0.000151283   -0.015797257
      5        6          -0.013721022   -0.044059202   -0.037102319
      6        1          -0.009678649   -0.002093684    0.004220798
      7        1           0.019334720   -0.009871832    0.020692299
      8        6          -0.028203623   -0.023087424   -0.017299342
      9        1          -0.028043866    0.014326871    0.001308457
     10        8          -0.030352018    0.029421701    0.024762117
     11        6           0.094415127    0.023774463   -0.028445285
     12        1           0.003105181   -0.021164288    0.026007005
     13        1          -0.000713539    0.018067661    0.016641126
     14        1           0.002981035    0.000713731   -0.000151100
     15        6          -0.021929683    0.036903185   -0.024322255
     16        1           0.007520947    0.001949497    0.010903259
     17        1          -0.009479314    0.002167028    0.008058369
     18        1           0.006456934   -0.032632847    0.000652940
 -------------------------------------------------------------------
 Cartesian Forces:  Max     0.094415127 RMS     0.022218000
 Leave Link  716 at Wed Sep  7 15:33:35 2022, MaxMem=   131072000 cpu:               0.0 elap:               0.0
 (Enter /opt/g16/l103.exe)

 GradGradGradGradGradGradGradGradGradGradGradGradGradGradGradGradGradGrad
 Berny optimization.
 FormGI is forming the generalized inverse of G from B-inverse, IUseBI=4.
 Internal  Forces:  Max     0.095621387 RMS     0.016155866
 Search for a local minimum.
 Step number   1 out of a maximum of   97
 All quantities printed in internal units (Hartrees-Bohrs-Radians)
 RMS Force = .16156D-01 SwitMx=.10000D-02 MixMth= 1
 Mixed Optimization -- RFO/linear search
 Second derivative matrix not updated -- first step.
 ITU=  0
     Eigenvalues ---    0.00230   0.00261   0.00879   0.01603   0.02061
     Eigenvalues ---    0.03499   0.03682   0.04823   0.04841   0.05300
     Eigenvalues ---    0.05448   0.05583   0.05682   0.06117   0.06162
     Eigenvalues ---    0.06984   0.08588   0.08830   0.12353   0.12624
     Eigenvalues ---    0.16000   0.16000   0.16000   0.16000   0.16000
     Eigenvalues ---    0.16000   0.16000   0.17109   0.20813   0.21654
     Eigenvalues ---    0.22117   0.26596   0.28269   0.28685   0.30425
     Eigenvalues ---    0.31701   0.32544   0.33293   0.33435   0.34830
     Eigenvalues ---    0.35314   0.35999   0.36402   0.37151   0.39239
     Eigenvalues ---    0.40034   0.50579   0.63483
 RFO step:  Lambda=-6.02835190D-02 EMin= 2.30000000D-03
 Linear search not attempted -- first point.
 Maximum step size (   0.300) exceeded in Quadratic search.
    -- Step size scaled by   0.768
 Iteration  1 RMS(Cart)=  0.07766480 RMS(Int)=  0.00201747
 Iteration  2 RMS(Cart)=  0.00234823 RMS(Int)=  0.00031243
 Iteration  3 RMS(Cart)=  0.00000683 RMS(Int)=  0.00031240
 Iteration  4 RMS(Cart)=  0.00000000 RMS(Int)=  0.00031240
 ITry= 1 IFail=0 DXMaxC= 2.80D-01 DCOld= 1.00D+10 DXMaxT= 3.00D-01 DXLimC= 3.00D+00 Rises=F
 Variable       Old X    -DE/DX   Delta X   Delta X   Delta X     New X
                                 (Linear)    (Quad)   (Total)
    R1        2.05168   0.01066   0.00000   0.01981   0.01981   2.07149
    R2        2.03457   0.01397   0.00000   0.02530   0.02530   2.05987
    R3        2.11394  -0.01394   0.00000  -0.02838  -0.02838   2.08556
    R4        2.90665  -0.01005   0.00000  -0.02225  -0.02225   2.88440
    R5        2.13823  -0.00809   0.00000  -0.01706  -0.01706   2.12117
    R6        2.02319   0.02926   0.00000   0.05207   0.05207   2.07526
    R7        2.81841   0.05351   0.00000   0.10457   0.10457   2.92297
    R8        2.05952   0.02077   0.00000   0.03907   0.03907   2.09859
    R9        2.59286   0.05733   0.00000   0.07783   0.07783   2.67069
   R10        2.71507   0.09562   0.00000   0.15952   0.15952   2.87459
   R11        1.74986   0.02946   0.00000   0.03257   0.03257   1.78242
   R12        2.18254  -0.02007   0.00000  -0.04497  -0.04497   2.13757
   R13        2.08294   0.00016   0.00000   0.00030   0.00030   2.08324
   R14        2.95314  -0.01867   0.00000  -0.04397  -0.04397   2.90916
   R15        2.04083   0.00888   0.00000   0.01623   0.01623   2.05707
   R16        2.09859  -0.00917   0.00000  -0.01828  -0.01828   2.08031
   R17        1.99300   0.03252   0.00000   0.05520   0.05520   2.04821
    A1        1.80321   0.00483   0.00000   0.02699   0.02696   1.83017
    A2        1.85991  -0.00025   0.00000   0.00069   0.00071   1.86062
    A3        1.94656  -0.00417   0.00000  -0.00893  -0.00893   1.93762
    A4        2.00117  -0.00843   0.00000  -0.03944  -0.03941   1.96175
    A5        1.92483   0.00223   0.00000   0.00695   0.00696   1.93179
    A6        1.92433   0.00533   0.00000   0.01362   0.01365   1.93798
    A7        1.96508  -0.00755   0.00000  -0.03213  -0.03206   1.93302
    A8        1.87231   0.00238   0.00000   0.01457   0.01470   1.88702
    A9        1.95973   0.00553   0.00000   0.01334   0.01335   1.97308
   A10        1.76605   0.00328   0.00000   0.01687   0.01705   1.78310
   A11        1.88725   0.00154   0.00000   0.00634   0.00639   1.89364
   A12        2.00624  -0.00603   0.00000  -0.02111  -0.02119   1.98505
   A13        1.75157   0.00286   0.00000   0.02311   0.02314   1.77471
   A14        1.95331   0.00882   0.00000   0.03447   0.03471   1.98802
   A15        1.93137   0.00131   0.00000   0.01740   0.01705   1.94842
   A16        2.04606  -0.01213   0.00000  -0.07642  -0.07646   1.96959
   A17        1.80988   0.00487   0.00000   0.02018   0.01905   1.82893
   A18        1.95728  -0.00504   0.00000  -0.01448  -0.01536   1.94191
   A19        1.78796   0.02832   0.00000   0.09879   0.09879   1.88676
   A20        1.77892   0.00728   0.00000   0.04846   0.04805   1.82697
   A21        1.96377  -0.00119   0.00000  -0.00886  -0.00881   1.95496
   A22        1.99719   0.00292   0.00000   0.01148   0.01109   2.00828
   A23        1.92346  -0.00390   0.00000  -0.02702  -0.02698   1.89648
   A24        1.83711  -0.00006   0.00000   0.00838   0.00744   1.84455
   A25        1.95014  -0.00426   0.00000  -0.02643  -0.02650   1.92365
   A26        1.86474   0.01097   0.00000   0.03421   0.03390   1.89864
   A27        1.94772  -0.00433   0.00000  -0.01694  -0.01683   1.93089
   A28        1.87529   0.00753   0.00000   0.03187   0.03150   1.90679
   A29        1.99509  -0.00822   0.00000  -0.03906  -0.03890   1.95619
   A30        1.94511  -0.00697   0.00000  -0.02054  -0.02135   1.92376
   A31        1.83372   0.00145   0.00000   0.01311   0.01317   1.84689
    D1        1.20487   0.00146   0.00000   0.01154   0.01152   1.21639
    D2       -0.72293  -0.00010   0.00000  -0.00102  -0.00091  -0.72383
    D3       -2.94329   0.00200   0.00000   0.00588   0.00583  -2.93746
    D4       -0.78815  -0.00335   0.00000  -0.02042  -0.02046  -0.80861
    D5       -2.71594  -0.00491   0.00000  -0.03297  -0.03289  -2.74883
    D6        1.34688  -0.00282   0.00000  -0.02608  -0.02615   1.32073
    D7       -3.01565   0.00197   0.00000   0.01555   0.01552  -3.00013
    D8        1.33974   0.00041   0.00000   0.00300   0.00309   1.34284
    D9       -0.88062   0.00251   0.00000   0.00989   0.00983  -0.87079
   D10       -1.08786   0.00812   0.00000   0.05101   0.05093  -1.03694
   D11        1.09544  -0.00009   0.00000  -0.00821  -0.00841   1.08703
   D12       -2.99094   0.00094   0.00000   0.01217   0.01230  -2.97864
   D13        1.09070   0.00337   0.00000   0.02366   0.02363   1.11433
   D14       -3.00918  -0.00484   0.00000  -0.03557  -0.03570  -3.04488
   D15       -0.81238  -0.00381   0.00000  -0.01518  -0.01499  -0.82737
   D16        3.04859   0.00511   0.00000   0.03697   0.03697   3.08556
   D17       -1.05129  -0.00310   0.00000  -0.02225  -0.02236  -1.07365
   D18        1.14552  -0.00206   0.00000  -0.00187  -0.00165   1.14386
   D19        0.33116   0.00204   0.00000   0.02276   0.02320   0.35436
   D20        2.34091   0.00416   0.00000   0.02688   0.02557   2.36648
   D21       -1.85139  -0.00265   0.00000  -0.01600  -0.01513  -1.86653
   D22        0.86488   0.00118   0.00000   0.01509   0.01562   0.88050
   D23        2.92461   0.00028   0.00000   0.00744   0.00764   2.93226
   D24       -1.10803  -0.00423   0.00000  -0.02790  -0.02790  -1.13593
   D25       -0.99982  -0.00481   0.00000  -0.02689  -0.02684  -1.02665
   D26        1.05992  -0.00570   0.00000  -0.03454  -0.03481   1.02511
   D27       -2.97272  -0.01022   0.00000  -0.06988  -0.07035  -3.04308
   D28        3.05946   0.01000   0.00000   0.06303   0.06331   3.12276
   D29       -1.16399   0.00910   0.00000   0.05538   0.05533  -1.10866
   D30        1.08655   0.00458   0.00000   0.02004   0.01979   1.10634
   D31       -1.11408   0.00192   0.00000   0.01535   0.01509  -1.09898
   D32        2.97659   0.00740   0.00000   0.05160   0.05163   3.02823
   D33        0.97521   0.00358   0.00000   0.02636   0.02660   1.00181
   D34       -3.05223  -0.00810   0.00000  -0.05281  -0.05306  -3.10529
   D35        1.03844  -0.00262   0.00000  -0.01657  -0.01651   1.02192
   D36       -0.96295  -0.00644   0.00000  -0.04181  -0.04155  -1.00449
   D37        1.14327  -0.00106   0.00000  -0.01112  -0.01142   1.13186
   D38       -1.04924   0.00441   0.00000   0.02512   0.02512  -1.02412
   D39       -3.05063   0.00059   0.00000  -0.00012   0.00009  -3.05054
         Item               Value     Threshold  Converged?
 Maximum Force            0.095621     0.000450     NO 
 RMS     Force            0.016156     0.000300     NO 
 Maximum Displacement     0.279649     0.001800     NO 
 RMS     Displacement     0.078029     0.001200     NO 
 Predicted change in Energy=-3.229736D-02
 Lowest energy point so far.  Saving SCF results.
 GradGradGradGradGradGradGradGradGradGradGradGradGradGradGradGradGradGrad

 Leave Link  103 at Wed Sep  7 15:33:35 2022, MaxMem=   131072000 cpu:               0.0 elap:               0.0
 (Enter /opt/g16/l202.exe)
                          Input orientation:                          
 ---------------------------------------------------------------------
 Center     Atomic      Atomic             Coordinates (Angstroms)
 Number     Number       Type             X           Y           Z
 ---------------------------------------------------------------------
      1          6           0        3.606239    5.363257    9.749054
      2          1           0        3.813986    4.292729    9.637562
      3          1           0        2.991737    5.620143    8.886164
      4          1           0        3.062981    5.481505   10.702408
      5          6           0        4.899149    6.174527    9.750868
      6          1           0        5.372785    6.170323    8.733225
      7          1           0        5.640886    5.633613   10.353563
      8          6           0        4.691908    7.643212   10.189632
      9          1           0        3.968562    8.005296    9.428754
     10          8           0        4.213731    7.783791   11.512094
     11          6           0        5.943393    8.477942    9.963871
     12          1           0        4.404428    6.986728   11.978984
     13          1           0        6.237810    8.268907    8.891895
     14          1           0        5.745189    9.557056   10.071200
     15          6           0        7.159878    8.073139   10.816072
     16          1           0        6.916248    8.220005   11.866796
     17          1           0        8.051858    8.643461   10.514435
     18          1           0        7.397233    7.032365   10.628423
 ---------------------------------------------------------------------
                    Distance matrix (angstroms):
                    1          2          3          4          5
     1  C    0.000000
     2  H    1.096184   0.000000
     3  H    1.090038   1.732836   0.000000
     4  H    1.103629   1.763829   1.822920   0.000000
     5  C    1.526361   2.175219   2.166396   2.181106   0.000000
     6  H    2.191791   2.602506   2.448566   3.112451   1.122473
     7  H    2.139699   2.376592   3.028437   2.605845   1.098182
     8  C    2.563392   3.507316   2.946594   2.754873   1.546770
     9  H    2.685934   3.721646   2.633922   2.968467   2.078813
    10  O    3.055543   3.982610   3.615266   2.698210   2.482226
    11  C    3.899961   4.707107   4.247439   4.221475   2.538018
    12  H    2.871472   3.617804   3.664531   2.386383   2.422585
    13  H    4.012816   4.716030   4.189627   4.596424   2.629882
    14  H    4.718775   5.624120   4.948241   4.919633   3.501414
    15  C    4.594599   5.184147   5.207219   4.849129   3.138516
    16  H    4.858189   5.478778   5.571825   4.868558   3.567888
    17  H    5.577551   6.136557   6.115271   5.909500   4.076548
    18  H    4.234482   4.618123   4.943504   4.603953   2.783238
                    6          7          8          9         10
     6  H    0.000000
     7  H    1.727840   0.000000
     8  C    2.180394   2.228435   0.000000
     9  H    2.413033   3.045787   1.110526   0.000000
    10  O    3.415963   2.828822   1.413267   2.109379   0.000000
    11  C    2.676787   2.886794   1.521170   2.099929   2.422927
    12  H    3.484133   2.449846   1.927537   2.780491   0.943218
    13  H    2.275412   3.072062   2.113156   2.346742   3.346294
    14  H    3.660440   3.934973   2.187745   2.444811   2.750638
    15  C    3.339561   2.910762   2.582274   3.480482   3.041045
    16  H    4.050030   3.256662   2.844866   3.831319   2.760380
    17  H    4.057900   3.859773   3.520690   4.273086   4.057779
    18  H    2.904012   2.262036   2.807927   3.760530   3.388244
                   11         12         13         14         15
    11  C    0.000000
    12  H    2.941567   0.000000
    13  H    1.131154   3.812531   0.000000
    14  H    1.102403   3.470428   1.814597   0.000000
    15  C    1.539464   3.182005   2.142660   2.181327   0.000000
    16  H    2.152697   2.800500   3.051673   2.526510   1.088552
    17  H    2.185438   4.265373   2.462457   2.520284   1.100854
    18  H    2.155220   3.283744   2.426691   3.068194   1.083864
                   16         17         18
    16  H    0.000000
    17  H    1.815985   0.000000
    18  H    1.781966   1.742745   0.000000
 Stoichiometry    C5H12O
 Framework group  C1[X(C5H12O)]
 Deg. of freedom    48
 Full point group                 C1      NOp   1
 RotChk:  IX=0 Diff= 1.86D-02
 Largest Abelian subgroup         C1      NOp   1
 Largest concise Abelian subgroup C1      NOp   1
                         Standard orientation:                         
 ---------------------------------------------------------------------
 Center     Atomic      Atomic             Coordinates (Angstroms)
 Number     Number       Type             X           Y           Z
 ---------------------------------------------------------------------
      1          6           0        2.422313   -0.341574   -0.100153
      2          1           0        3.014012   -1.042435   -0.700409
      3          1           0        2.846053   -0.404995    0.902146
      4          1           0        2.560033    0.655555   -0.552662
      5          6           0        0.948722   -0.739287   -0.088640
      6          1           0        0.795792   -1.682095    0.500996
      7          1           0        0.671928   -1.053761   -1.103773
      8          6           0        0.029528    0.359209    0.495214
      9          1           0        0.442085    0.476645    1.519555
     10          8           0        0.038837    1.565082   -0.241744
     11          6           0       -1.389017   -0.148906    0.703800
     12          1           0        0.354175    1.375382   -1.110212
     13          1           0       -1.265734   -1.114850    1.279355
     14          1           0       -1.992586    0.547554    1.308729
     15          6           0       -2.142985   -0.525402   -0.584505
     16          1           0       -2.257006    0.366953   -1.197407
     17          1           0       -3.112030   -0.989700   -0.345215
     18          1           0       -1.578782   -1.279147   -1.121444
 ---------------------------------------------------------------------
 Rotational constants (GHZ):           5.5408493           2.1516245           1.8575364
 Leave Link  202 at Wed Sep  7 15:33:35 2022, MaxMem=   131072000 cpu:               0.0 elap:               0.0
 (Enter /opt/g16/l301.exe)
 Standard basis: VSTO-6G (5D, 7F)
 Ernie: Thresh=  0.10000D-02 Tol=  0.10000D-05 Strict=F.
  NNHCO=     0 NNPyr=     0 NCTC=     0               EPep=         0.000000000
    EC=       128.787908240  ECS=         2.202009806   EG=         0.563991125
   EHC=         0.000000000  EAt=       -36.836480110  AtH=         2.452923921
 EPDDG=         0.000000000  ECC=       131.553909172 EAtT=        39.289404030
 There are    36 symmetry adapted cartesian basis functions of A   symmetry.
 There are    36 symmetry adapted basis functions of A   symmetry.
    36 basis functions,   216 primitive gaussians,    36 cartesian basis functions
    19 alpha electrons       19 beta electrons
       nuclear repulsion energy       170.8433132020 Hartrees.
 IExCor=    0 DFT=F Ex=HF Corr=None ExCW=0 ScaHFX=  1.000000
 ScaDFX=  1.000000  1.000000  1.000000  1.000000 ScalE2=  1.000000  1.000000
 IRadAn=      5 IRanWt=     -1 IRanGd=            0 ICorTp=0 IEmpDi=  4
 Integral buffers will be    131072 words long.
 Regular integral format.
 Two-electron integral symmetry is turned off.
 Leave Link  301 at Wed Sep  7 15:33:35 2022, MaxMem=   131072000 cpu:               0.0 elap:               0.0
 (Enter /opt/g16/l302.exe)
 Do NDO integrals.
 NPDir=0 NMtPBC=     1 NCelOv=     1 NCel=       1 NClECP=     1 NCelD=      1
         NCelK=      1 NCelE2=     1 NClLst=     1 CellRange=     0.0.
 One-electron integrals computed using PRISM.
 NBasis=    36 RedAO= F EigKep=  0.00D+00  NBF=    36
 NBsUse=    36 1.00D-04 EigRej=  0.00D+00 NBFU=    36
 Leave Link  302 at Wed Sep  7 15:33:35 2022, MaxMem=   131072000 cpu:               0.0 elap:               0.0
 (Enter /opt/g16/l303.exe)
 DipDrv:  MaxL=1.
 Leave Link  303 at Wed Sep  7 15:33:35 2022, MaxMem=   131072000 cpu:               0.0 elap:               0.0
 (Enter /opt/g16/l401.exe)
 Initial guess from the checkpoint file:  "MD_extract_005_gaussian.chk"
 B after Tr=     0.000000    0.000000   -0.000000
         Rot=    0.999964   -0.007778    0.000842   -0.003231 Ang=  -0.97 deg.
 Guess basis will be translated and rotated to current coordinates.
 JPrj=0 DoOrth=T DoCkMO=T.
 Leave Link  401 at Wed Sep  7 15:33:35 2022, MaxMem=   131072000 cpu:               0.1 elap:               0.0
 (Enter /opt/g16/l502.exe)
 Keep J ints in memory in canonical form, NReq=862161.
 FoFCou: FMM=F IPFlag=           0 FMFlag=           0 FMFlg1=           0
         NFxFlg=           0 DoJE=F BraDBF=F KetDBF=F FulRan=T
         wScrn=  0.000000 ICntrl=       600 IOpCl=  2 I1Cent=           0 NGrid=           0
         NMat0=    1 NMatS0=     72 NMatT0=    0 NMatD0=    1 NMtDS0=    0 NMtDT0=    0
 Symmetry not used in FoFCou.
 Two-electron integral symmetry not used.
 Closed shell SCF:
 Using DIIS extrapolation, IDIIS=  1040.
 Overlap will be assumed to be unity.
 NGot=   131072000 LenX=   131006778 LenY=   131005041
 Requested convergence on RMS density matrix=1.00D-08 within 128 cycles.
 Requested convergence on MAX density matrix=1.00D-06.
 Requested convergence on             energy=1.00D-06.
 No special actions if energy rises.

 Cycle   1  Pass 1  IDiag  1:
 E=-0.101313741579190    
 DIIS: error= 7.73D-03 at cycle   1 NSaved=   1.
 NSaved= 1 IEnMin= 1 EnMin=-0.101313741579190     IErMin= 1 ErrMin= 7.73D-03
 ErrMax= 7.73D-03  0.00D+00 EMaxC= 1.00D-01 BMatC= 1.99D-03 BMatP= 1.99D-03
 IDIUse=3 WtCom= 9.23D-01 WtEn= 7.73D-02
 Coeff-Com:  0.100D+01
 Coeff-En:   0.100D+01
 Coeff:      0.100D+01
 GapD=    2.000 DampG=2.000 DampE=1.000 DampFc=2.0000 IDamp=-1.
 RMSDP=1.98D-03 MaxDP=1.78D-02              OVMax= 0.00D+00

 Cycle   2  Pass 1  IDiag  3:
 E=-0.107119380099562     Delta-E=       -0.005805638520 Rises=F Damp=F
 DIIS: error= 3.53D-03 at cycle   2 NSaved=   2.
 NSaved= 2 IEnMin= 2 EnMin=-0.107119380099562     IErMin= 2 ErrMin= 3.53D-03
 ErrMax= 3.53D-03  0.00D+00 EMaxC= 1.00D-01 BMatC= 2.38D-04 BMatP= 1.99D-03
 IDIUse=3 WtCom= 9.65D-01 WtEn= 3.53D-02
 Coeff-Com: -0.415D+00 0.142D+01
 Coeff-En:   0.000D+00 0.100D+01
 Coeff:     -0.401D+00 0.140D+01
 Gap=     0.515 Goal=   None    Shift=    0.000
 RMSDP=1.11D-03 MaxDP=1.21D-02 DE=-5.81D-03 OVMax= 9.85D-03

 Cycle   3  Pass 1  IDiag  3:
 E=-0.108140701767098     Delta-E=       -0.001021321668 Rises=F Damp=F
 DIIS: error= 9.12D-04 at cycle   3 NSaved=   3.
 NSaved= 3 IEnMin= 3 EnMin=-0.108140701767098     IErMin= 3 ErrMin= 9.12D-04
 ErrMax= 9.12D-04  0.00D+00 EMaxC= 1.00D-01 BMatC= 1.22D-05 BMatP= 2.38D-04
 IDIUse=3 WtCom= 9.91D-01 WtEn= 9.12D-03
 Coeff-Com:  0.163D+00-0.711D+00 0.155D+01
 Coeff-En:   0.000D+00 0.000D+00 0.100D+01
 Coeff:      0.162D+00-0.705D+00 0.154D+01
 Gap=     0.515 Goal=   None    Shift=    0.000
 RMSDP=3.35D-04 MaxDP=4.08D-03 DE=-1.02D-03 OVMax= 2.69D-03

 Cycle   4  Pass 1  IDiag  3:
 E=-0.108203772593185     Delta-E=       -0.000063070826 Rises=F Damp=F
 DIIS: error= 8.47D-05 at cycle   4 NSaved=   4.
 NSaved= 4 IEnMin= 4 EnMin=-0.108203772593185     IErMin= 4 ErrMin= 8.47D-05
 ErrMax= 8.47D-05  0.00D+00 EMaxC= 1.00D-01 BMatC= 1.95D-07 BMatP= 1.22D-05
 IDIUse=1 WtCom= 1.00D+00 WtEn= 0.00D+00
 Coeff-Com: -0.561D-01 0.252D+00-0.621D+00 0.143D+01
 Coeff:     -0.561D-01 0.252D+00-0.621D+00 0.143D+01
 Gap=     0.515 Goal=   None    Shift=    0.000
 RMSDP=4.16D-05 MaxDP=3.91D-04 DE=-6.31D-05 OVMax= 2.73D-04

 Cycle   5  Pass 1  IDiag  3:
 E=-0.108204784220078     Delta-E=       -0.000001011627 Rises=F Damp=F
 DIIS: error= 1.16D-05 at cycle   5 NSaved=   5.
 NSaved= 5 IEnMin= 5 EnMin=-0.108204784220078     IErMin= 5 ErrMin= 1.16D-05
 ErrMax= 1.16D-05  0.00D+00 EMaxC= 1.00D-01 BMatC= 5.81D-09 BMatP= 1.95D-07
 IDIUse=1 WtCom= 1.00D+00 WtEn= 0.00D+00
 Coeff-Com:  0.208D-01-0.939D-01 0.236D+00-0.621D+00 0.146D+01
 Coeff:      0.208D-01-0.939D-01 0.236D+00-0.621D+00 0.146D+01
 Gap=     0.515 Goal=   None    Shift=    0.000
 RMSDP=7.44D-06 MaxDP=6.40D-05 DE=-1.01D-06 OVMax= 5.11D-05

 Cycle   6  Pass 1  IDiag  3:
 E=-0.108204816759013     Delta-E=       -0.000000032539 Rises=F Damp=F
 DIIS: error= 1.97D-06 at cycle   6 NSaved=   6.
 NSaved= 6 IEnMin= 6 EnMin=-0.108204816759013     IErMin= 6 ErrMin= 1.97D-06
 ErrMax= 1.97D-06  0.00D+00 EMaxC= 1.00D-01 BMatC= 2.76D-10 BMatP= 5.81D-09
 IDIUse=1 WtCom= 1.00D+00 WtEn= 0.00D+00
 Coeff-Com: -0.784D-02 0.355D-01-0.893D-01 0.242D+00-0.687D+00 0.151D+01
 Coeff:     -0.784D-02 0.355D-01-0.893D-01 0.242D+00-0.687D+00 0.151D+01
 Gap=     0.515 Goal=   None    Shift=    0.000
 RMSDP=1.76D-06 MaxDP=1.63D-05 DE=-3.25D-08 OVMax= 1.65D-05

 Cycle   7  Pass 1  IDiag  3:
 E=-0.108204818485092     Delta-E=       -0.000000001726 Rises=F Damp=F
 DIIS: error= 7.28D-07 at cycle   7 NSaved=   7.
 NSaved= 7 IEnMin= 7 EnMin=-0.108204818485092     IErMin= 7 ErrMin= 7.28D-07
 ErrMax= 7.28D-07  0.00D+00 EMaxC= 1.00D-01 BMatC= 1.80D-11 BMatP= 2.76D-10
 IDIUse=1 WtCom= 1.00D+00 WtEn= 0.00D+00
 Coeff-Com:  0.256D-02-0.116D-01 0.293D-01-0.797D-01 0.239D+00-0.686D+00
 Coeff-Com:  0.151D+01
 Coeff:      0.256D-02-0.116D-01 0.293D-01-0.797D-01 0.239D+00-0.686D+00
 Coeff:      0.151D+01
 Gap=     0.515 Goal=   None    Shift=    0.000
 RMSDP=4.77D-07 MaxDP=3.84D-06 DE=-1.73D-09 OVMax= 5.64D-06

 Cycle   8  Pass 1  IDiag  3:
 E=-0.108204818609096     Delta-E=       -0.000000000124 Rises=F Damp=F
 DIIS: error= 2.43D-07 at cycle   8 NSaved=   8.
 NSaved= 8 IEnMin= 8 EnMin=-0.108204818609096     IErMin= 8 ErrMin= 2.43D-07
 ErrMax= 2.43D-07  0.00D+00 EMaxC= 1.00D-01 BMatC= 1.65D-12 BMatP= 1.80D-11
 IDIUse=1 WtCom= 1.00D+00 WtEn= 0.00D+00
 Coeff-Com: -0.609D-03 0.277D-02-0.699D-02 0.192D-01-0.600D-01 0.211D+00
 Coeff-Com: -0.747D+00 0.158D+01
 Coeff:     -0.609D-03 0.277D-02-0.699D-02 0.192D-01-0.600D-01 0.211D+00
 Coeff:     -0.747D+00 0.158D+01
 Gap=     0.515 Goal=   None    Shift=    0.000
 RMSDP=1.64D-07 MaxDP=1.57D-06 DE=-1.24D-10 OVMax= 2.04D-06

 Cycle   9  Pass 1  IDiag  3:
 E=-0.108204818621346     Delta-E=       -0.000000000012 Rises=F Damp=F
 DIIS: error= 5.49D-08 at cycle   9 NSaved=   9.
 NSaved= 9 IEnMin= 9 EnMin=-0.108204818621346     IErMin= 9 ErrMin= 5.49D-08
 ErrMax= 5.49D-08  0.00D+00 EMaxC= 1.00D-01 BMatC= 9.71D-14 BMatP= 1.65D-12
 IDIUse=1 WtCom= 1.00D+00 WtEn= 0.00D+00
 Coeff-Com:  0.906D-04-0.414D-03 0.106D-02-0.294D-02 0.983D-02-0.454D-01
 Coeff-Com:  0.225D+00-0.696D+00 0.151D+01
 Coeff:      0.906D-04-0.414D-03 0.106D-02-0.294D-02 0.983D-02-0.454D-01
 Coeff:      0.225D+00-0.696D+00 0.151D+01
 Gap=     0.515 Goal=   None    Shift=    0.000
 RMSDP=3.88D-08 MaxDP=3.87D-07 DE=-1.22D-11 OVMax= 4.71D-07

 Cycle  10  Pass 1  IDiag  3:
 E=-0.108204818621999     Delta-E=       -0.000000000001 Rises=F Damp=F
 DIIS: error= 1.78D-08 at cycle  10 NSaved=  10.
 NSaved=10 IEnMin=10 EnMin=-0.108204818621999     IErMin=10 ErrMin= 1.78D-08
 ErrMax= 1.78D-08  0.00D+00 EMaxC= 1.00D-01 BMatC= 5.16D-15 BMatP= 9.71D-14
 IDIUse=1 WtCom= 1.00D+00 WtEn= 0.00D+00
 Coeff-Com: -0.116D-04 0.540D-04-0.140D-03 0.405D-03-0.153D-02 0.102D-01
 Coeff-Com: -0.648D-01 0.235D+00-0.689D+00 0.151D+01
 Coeff:     -0.116D-04 0.540D-04-0.140D-03 0.405D-03-0.153D-02 0.102D-01
 Coeff:     -0.648D-01 0.235D+00-0.689D+00 0.151D+01
 Gap=     0.515 Goal=   None    Shift=    0.000
 RMSDP=8.47D-09 MaxDP=9.81D-08 DE=-6.54D-13 OVMax= 9.61D-08

 Cycle  11  Pass 2  IDiag  1:
 SCF Done:  E(RPM3) = -0.108204818622     A.U. after   11 cycles
            NFock= 10  Conv=0.85D-08     -V/T= 0.9982
 KE=-5.967333125297D+01 PE=-2.560901835249D+02 EE= 1.448119967572D+02
 Leave Link  502 at Wed Sep  7 15:33:35 2022, MaxMem=   131072000 cpu:               0.0 elap:               0.0
 (Enter /opt/g16/l701.exe)
 ... and contract with generalized density number  0.
 Compute integral first derivatives.
 Leave Link  701 at Wed Sep  7 15:33:35 2022, MaxMem=   131072000 cpu:               0.0 elap:               0.0
 (Enter /opt/g16/l702.exe)
 L702 exits ... SP integral derivatives will be done elsewhere.
 Leave Link  702 at Wed Sep  7 15:33:35 2022, MaxMem=   131072000 cpu:               0.0 elap:               0.0
 (Enter /opt/g16/l703.exe)
 Integral derivatives from FoFJK, PRISM(SPDF).
 Compute integral first derivatives, UseDBF=F ICtDFT=           0.
 Calling FoFJK, ICntrl=      2127 FMM=F ISym2X=0 I1Cent= 0 IOpClX= 0 NMat=1 NMatS=1 NMatT=0.
 FoFJK:  IHMeth= 9 ICntrl=    2127 DoSepK=F KAlg= 0 I1Cent=           0 FoldK=F
 IRaf=         0 NMat=       1 IRICut=       1 DoRegI=T DoRafI=F ISym2E= 0 IDoP0=3 IntGTp=3.
 FoFCou: FMM=F IPFlag=           0 FMFlag=      100000 FMFlg1=         800
         NFxFlg=           0 DoJE=F BraDBF=F KetDBF=F FulRan=T
         wScrn=  0.000000 ICntrl=      2127 IOpCl=  0 I1Cent=           0 NGrid=           0
         NMat0=    1 NMatS0=      1 NMatT0=    0 NMatD0=    1 NMtDS0=    0 NMtDT0=    0
 Symmetry not used in FoFCou.
 Leave Link  703 at Wed Sep  7 15:33:35 2022, MaxMem=   131072000 cpu:               0.0 elap:               0.0
 (Enter /opt/g16/l716.exe)
 Dipole        = 1.99632652D-01-5.80428266D-01-2.07938911D-01
 ***** Axes restored to original set *****
 -------------------------------------------------------------------
 Center     Atomic                   Forces (Hartrees/Bohr)
 Number     Number              X              Y              Z
 -------------------------------------------------------------------
      1        6           0.012297679    0.003068426    0.002648923
      2        1           0.002046089   -0.002453727    0.001245592
      3        1          -0.007163772    0.004956128    0.001154841
      4        1          -0.001739350    0.001184026   -0.006900949
      5        6          -0.001886837   -0.005512072   -0.007337641
      6        1          -0.006038226    0.000434003    0.004255133
      7        1           0.004680408    0.000731242    0.009023772
      8        6           0.004074279   -0.017496383   -0.003950058
      9        1          -0.013259960    0.008190046    0.008859988
     10        8          -0.006960138    0.009303569   -0.007919779
     11        6           0.028835780   -0.012083598   -0.009530380
     12        1           0.003188830   -0.004134667    0.001160647
     13        1          -0.003168617    0.010479760    0.008956361
     14        1          -0.001289198   -0.000175228    0.000124304
     15        6          -0.018316775    0.011563853   -0.014958000
     16        1           0.005419829    0.000373743    0.004747947
     17        1          -0.003239120    0.001904111    0.005403513
     18        1           0.002519098   -0.010333232    0.003015785
 -------------------------------------------------------------------
 Cartesian Forces:  Max     0.028835780 RMS     0.008189711
 Leave Link  716 at Wed Sep  7 15:33:35 2022, MaxMem=   131072000 cpu:               0.0 elap:               0.0
 (Enter /opt/g16/l103.exe)

 GradGradGradGradGradGradGradGradGradGradGradGradGradGradGradGradGradGrad
 Berny optimization.
 Using GEDIIS/GDIIS optimizer.
 FormGI is forming the generalized inverse of G from B-inverse, IUseBI=4.
 Internal  Forces:  Max     0.012674000 RMS     0.004206269
 Search for a local minimum.
 Step number   2 out of a maximum of   97
 All quantities printed in internal units (Hartrees-Bohrs-Radians)
 RMS Force = .42063D-02 SwitMx=.10000D-02 MixMth= 1
 Mixed Optimization -- RFO/linear search
 Update second derivatives using D2CorX and points    1    2
 DE= -2.67D-02 DEPred=-3.23D-02 R= 8.28D-01
 TightC=F SS=  1.41D+00  RLast= 3.54D-01 DXNew= 5.0454D-01 1.0607D+00
 Trust test= 8.28D-01 RLast= 3.54D-01 DXMaxT set to 5.05D-01
 ITU=  1  0
 Use linear search instead of GDIIS.
     Eigenvalues ---    0.00230   0.00262   0.00879   0.01603   0.02061
     Eigenvalues ---    0.03481   0.03682   0.04685   0.04835   0.05264
     Eigenvalues ---    0.05363   0.05567   0.05631   0.05778   0.05838
     Eigenvalues ---    0.07288   0.08677   0.08998   0.12350   0.12645
     Eigenvalues ---    0.15615   0.16000   0.16000   0.16000   0.16000
     Eigenvalues ---    0.16000   0.16858   0.17715   0.20923   0.21793
     Eigenvalues ---    0.22060   0.25902   0.27868   0.28598   0.30320
     Eigenvalues ---    0.31640   0.32517   0.33435   0.34352   0.35082
     Eigenvalues ---    0.35386   0.35979   0.36393   0.37142   0.39038
     Eigenvalues ---    0.44320   0.59615   0.64655
 RFO step:  Lambda=-1.31855048D-02 EMin= 2.30002661D-03
 Quartic linear search produced a step of  0.29426.
 Iteration  1 RMS(Cart)=  0.05524319 RMS(Int)=  0.00306438
 Iteration  2 RMS(Cart)=  0.00341000 RMS(Int)=  0.00083045
 Iteration  3 RMS(Cart)=  0.00000467 RMS(Int)=  0.00083043
 Iteration  4 RMS(Cart)=  0.00000001 RMS(Int)=  0.00083043
 ITry= 1 IFail=0 DXMaxC= 1.91D-01 DCOld= 1.00D+10 DXMaxT= 5.05D-01 DXLimC= 3.00D+00 Rises=F
 Variable       Old X    -DE/DX   Delta X   Delta X   Delta X     New X
                                 (Linear)    (Quad)   (Total)
    R1        2.07149   0.00266   0.00583   0.00491   0.01074   2.08223
    R2        2.05987   0.00429   0.00744   0.00896   0.01640   2.07628
    R3        2.08556  -0.00498  -0.00835  -0.01296  -0.02131   2.06425
    R4        2.88440  -0.00820  -0.00655  -0.02981  -0.03636   2.84804
    R5        2.12117  -0.00641  -0.00502  -0.02190  -0.02692   2.09425
    R6        2.07526   0.00775   0.01532   0.01430   0.02962   2.10489
    R7        2.92297  -0.00315   0.03077  -0.03428  -0.00351   2.91946
    R8        2.09859   0.00524   0.01150   0.00991   0.02140   2.11999
    R9        2.67069  -0.00453   0.02290  -0.02782  -0.00492   2.66577
   R10        2.87459   0.01013   0.04694  -0.00338   0.04356   2.91815
   R11        1.78242   0.00471   0.00958   0.00226   0.01184   1.79427
   R12        2.13757  -0.01125  -0.01323  -0.03843  -0.05166   2.08591
   R13        2.08324   0.00007   0.00009   0.00020   0.00029   2.08353
   R14        2.90916  -0.01267  -0.01294  -0.04799  -0.06093   2.84823
   R15        2.05707   0.00342   0.00478   0.00811   0.01289   2.06996
   R16        2.08031  -0.00312  -0.00538  -0.00771  -0.01309   2.06722
   R17        2.04821   0.00995   0.01624   0.01920   0.03544   2.08365
    A1        1.83017   0.00235   0.00793   0.03357   0.04113   1.87130
    A2        1.86062   0.00022   0.00021   0.00888   0.00905   1.86967
    A3        1.93762  -0.00180  -0.00263   0.00363   0.00078   1.93840
    A4        1.96175  -0.00577  -0.01160  -0.05998  -0.07166   1.89009
    A5        1.93179   0.00209   0.00205   0.00972   0.01152   1.94331
    A6        1.93798   0.00273   0.00402   0.00571   0.00965   1.94763
    A7        1.93302  -0.00169  -0.00943  -0.01080  -0.02040   1.91261
    A8        1.88702   0.00393   0.00433   0.03134   0.03521   1.92223
    A9        1.97308  -0.00188   0.00393  -0.02253  -0.01887   1.95421
   A10        1.78310   0.00185   0.00502   0.03977   0.04502   1.82812
   A11        1.89364   0.00169   0.00188   0.00490   0.00657   1.90020
   A12        1.98505  -0.00362  -0.00623  -0.03710  -0.04303   1.94201
   A13        1.77471   0.00542   0.00681   0.08232   0.08718   1.86189
   A14        1.98802   0.00153   0.01021  -0.00713   0.00369   1.99170
   A15        1.94842  -0.00141   0.00502   0.00226   0.00579   1.95421
   A16        1.96959  -0.00756  -0.02250  -0.10130  -0.12272   1.84688
   A17        1.82893   0.00360   0.00561   0.05449   0.05615   1.88508
   A18        1.94191  -0.00111  -0.00452  -0.02022  -0.02482   1.91709
   A19        1.88676  -0.00350   0.02907  -0.04783  -0.01876   1.86800
   A20        1.82697   0.00455   0.01414   0.06370   0.07708   1.90405
   A21        1.95496  -0.00120  -0.00259  -0.04167  -0.04534   1.90962
   A22        2.00828  -0.00405   0.00326  -0.02102  -0.02003   1.98824
   A23        1.89648  -0.00305  -0.00794  -0.03124  -0.03750   1.85898
   A24        1.84455   0.00292   0.00219   0.05272   0.05346   1.89800
   A25        1.92365   0.00120  -0.00780  -0.01343  -0.02311   1.90054
   A26        1.89864   0.00670   0.00997   0.03164   0.04104   1.93968
   A27        1.93089  -0.00057  -0.00495  -0.00220  -0.00724   1.92365
   A28        1.90679   0.00439   0.00927   0.03631   0.04458   1.95136
   A29        1.95619  -0.00584  -0.01145  -0.05516  -0.06628   1.88991
   A30        1.92376  -0.00515  -0.00628  -0.02959  -0.03725   1.88651
   A31        1.84689   0.00042   0.00387   0.01996   0.02332   1.87022
    D1        1.21639   0.00172   0.00339   0.01395   0.01734   1.23373
    D2       -0.72383  -0.00172  -0.00027  -0.04429  -0.04464  -0.76847
    D3       -2.93746   0.00133   0.00171  -0.00372  -0.00165  -2.93911
    D4       -0.80861  -0.00136  -0.00602  -0.03555  -0.04173  -0.85034
    D5       -2.74883  -0.00480  -0.00968  -0.09379  -0.10372  -2.85254
    D6        1.32073  -0.00174  -0.00770  -0.05322  -0.06073   1.26000
    D7       -3.00013   0.00259   0.00457   0.03109   0.03556  -2.96457
    D8        1.34284  -0.00085   0.00091  -0.02715  -0.02643   1.31641
    D9       -0.87079   0.00220   0.00289   0.01342   0.01656  -0.85423
   D10       -1.03694   0.00497   0.01499   0.07726   0.09306  -0.94388
   D11        1.08703   0.00013  -0.00247   0.00442   0.00206   1.08909
   D12       -2.97864  -0.00134   0.00362  -0.02735  -0.02400  -3.00265
   D13        1.11433   0.00276   0.00695   0.05169   0.05930   1.17364
   D14       -3.04488  -0.00208  -0.01050  -0.02115  -0.03170  -3.07658
   D15       -0.82737  -0.00355  -0.00441  -0.05292  -0.05776  -0.88513
   D16        3.08556   0.00409   0.01088   0.08297   0.09417  -3.10345
   D17       -1.07365  -0.00076  -0.00658   0.01013   0.00316  -1.07049
   D18        1.14386  -0.00222  -0.00049  -0.02164  -0.02290   1.12096
   D19        0.35436  -0.00057   0.00683   0.01352   0.02071   0.37507
   D20        2.36648   0.00222   0.00752   0.04471   0.05024   2.41672
   D21       -1.86653   0.00105  -0.00445   0.03354   0.03072  -1.83581
   D22        0.88050   0.00457   0.00460   0.09148   0.09728   0.97777
   D23        2.93226   0.00303   0.00225   0.07091   0.07290   3.00515
   D24       -1.13593   0.00017  -0.00821  -0.00291  -0.01050  -1.14643
   D25       -1.02665  -0.00293  -0.00790  -0.03242  -0.04046  -1.06712
   D26        1.02511  -0.00448  -0.01024  -0.05299  -0.06485   0.96026
   D27       -3.04308  -0.00734  -0.02070  -0.12680  -0.14824   3.09187
   D28        3.12276   0.00458   0.01863   0.06721   0.08684  -3.07358
   D29       -1.10866   0.00303   0.01628   0.04664   0.06246  -1.04620
   D30        1.10634   0.00017   0.00582  -0.02717  -0.02094   1.08541
   D31       -1.09898   0.00195   0.00444   0.04821   0.05218  -1.04680
   D32        3.02823   0.00512   0.01519   0.09744   0.11284   3.14107
   D33        1.00181   0.00235   0.00783   0.05306   0.06109   1.06290
   D34       -3.10529  -0.00338  -0.01561  -0.05272  -0.06906   3.10884
   D35        1.02192  -0.00020  -0.00486  -0.00349  -0.00840   1.01352
   D36       -1.00449  -0.00297  -0.01223  -0.04787  -0.06015  -1.06465
   D37        1.13186  -0.00202  -0.00336  -0.03855  -0.04206   1.08980
   D38       -1.02412   0.00116   0.00739   0.01068   0.01860  -1.00552
   D39       -3.05054  -0.00161   0.00003  -0.03370  -0.03315  -3.08369
         Item               Value     Threshold  Converged?
 Maximum Force            0.012674     0.000450     NO 
 RMS     Force            0.004206     0.000300     NO 
 Maximum Displacement     0.190706     0.001800     NO 
 RMS     Displacement     0.055006     0.001200     NO 
 Predicted change in Energy=-7.606372D-03
 Lowest energy point so far.  Saving SCF results.
 GradGradGradGradGradGradGradGradGradGradGradGradGradGradGradGradGradGrad

[...]
 ! A10   A(6,5,7)              105.6006         -DE/DX =    0.0                 !
 ! A11   A(6,5,8)              108.9184         -DE/DX =    0.0                 !
 ! A12   A(7,5,8)              110.3428         -DE/DX =    0.0                 !
 ! A13   A(5,8,9)              109.7906         -DE/DX =    0.0                 !
 ! A14   A(5,8,10)             112.3602         -DE/DX =    0.0                 !
 ! A15   A(5,8,11)             111.6412         -DE/DX =    0.0                 !
 ! A16   A(9,8,10)             101.1897         -DE/DX =    0.0                 !
 ! A17   A(9,8,11)             109.1196         -DE/DX =    0.0                 !
 ! A18   A(10,8,11)            112.2033         -DE/DX =    0.0                 !
 ! A19   A(8,10,12)            107.2512         -DE/DX =    0.0                 !
 ! A20   A(8,11,13)            108.5286         -DE/DX =    0.0                 !
 ! A21   A(8,11,14)            108.9252         -DE/DX =    0.0                 !
 ! A22   A(8,11,15)            114.2945         -DE/DX =    0.0                 !
 ! A23   A(13,11,14)           105.6934         -DE/DX =    0.0                 !
 ! A24   A(13,11,15)           109.6751         -DE/DX =    0.0                 !
 ! A25   A(14,11,15)           109.3671         -DE/DX =    0.0                 !
 ! A26   A(11,15,16)           112.1345         -DE/DX =    0.0                 !
 ! A27   A(11,15,17)           110.9328         -DE/DX =    0.0                 !
 ! A28   A(11,15,18)           111.9161         -DE/DX =    0.0                 !
 ! A29   A(16,15,17)           107.0556         -DE/DX =    0.0                 !
 ! A30   A(16,15,18)           107.2908         -DE/DX =    0.0                 !
 ! A31   A(17,15,18)           107.2351         -DE/DX =    0.0                 !
 ! D1    D(2,1,5,6)             59.2989         -DE/DX =    0.0                 !
 ! D2    D(2,1,5,7)            -56.4391         -DE/DX =    0.0                 !
 ! D3    D(2,1,5,8)           -179.4731         -DE/DX =    0.0                 !
 ! D4    D(3,1,5,6)            -60.6287         -DE/DX =    0.0                 !
 ! D5    D(3,1,5,7)           -176.3668         -DE/DX =    0.0                 !
 ! D6    D(3,1,5,8)             60.5992         -DE/DX =    0.0                 !
 ! D7    D(4,1,5,6)            179.3186         -DE/DX =    0.0                 !
 ! D8    D(4,1,5,7)             63.5805         -DE/DX =    0.0                 !
 ! D9    D(4,1,5,8)            -59.4535         -DE/DX =    0.0                 !
 ! D10   D(1,5,8,9)            -42.8751         -DE/DX =    0.0                 !
 ! D11   D(1,5,8,10)            68.9039         -DE/DX =    0.0                 !
 ! D12   D(1,5,8,11)          -164.0243         -DE/DX =    0.0                 !
 ! D13   D(6,5,8,9)             78.891          -DE/DX =    0.0                 !
 ! D14   D(6,5,8,10)          -169.3299         -DE/DX =    0.0                 !
 ! D15   D(6,5,8,11)           -42.2582         -DE/DX =    0.0                 !
 ! D16   D(7,5,8,9)           -165.6243         -DE/DX =    0.0                 !
 ! D17   D(7,5,8,10)           -53.8453         -DE/DX =    0.0                 !
 ! D18   D(7,5,8,11)            73.2265         -DE/DX =    0.0                 !
 ! D19   D(5,8,10,12)           64.3459         -DE/DX =    0.0                 !
 ! D20   D(9,8,10,12)         -178.6162         -DE/DX =    0.0                 !
 ! D21   D(11,8,10,12)         -62.4249         -DE/DX =    0.0                 !
 ! D22   D(5,8,11,13)           61.7783         -DE/DX =    0.0                 !
 ! D23   D(5,8,11,14)          176.3916         -DE/DX =    0.0                 !
 ! D24   D(5,8,11,15)          -60.9653         -DE/DX =    0.0                 !
 ! D25   D(9,8,11,13)          -59.76           -DE/DX =    0.0                 !
 ! D26   D(9,8,11,14)           54.8533         -DE/DX =    0.0                 !
 ! D27   D(9,8,11,15)          177.4964         -DE/DX =    0.0                 !
 ! D28   D(10,8,11,13)        -171.0649         -DE/DX =    0.0                 !
 ! D29   D(10,8,11,14)         -56.4516         -DE/DX =    0.0                 !
 ! D30   D(10,8,11,15)          66.1915         -DE/DX =    0.0                 !
 ! D31   D(8,11,15,16)         -59.0028         -DE/DX =    0.0                 !
 ! D32   D(8,11,15,17)        -178.6464         -DE/DX =    0.0                 !
 ! D33   D(8,11,15,18)          61.6286         -DE/DX =    0.0                 !
 ! D34   D(13,11,15,16)        178.8785         -DE/DX =    0.0                 !
 ! D35   D(13,11,15,17)         59.2349         -DE/DX =    0.0                 !
 ! D36   D(13,11,15,18)        -60.4901         -DE/DX =    0.0                 !
 ! D37   D(14,11,15,16)         63.3997         -DE/DX =    0.0                 !
 ! D38   D(14,11,15,17)        -56.2439         -DE/DX =    0.0                 !
 ! D39   D(14,11,15,18)       -175.9689         -DE/DX =    0.0                 !
 --------------------------------------------------------------------------------
 Lowest energy point so far.  Saving SCF results.
 Largest change from initial coordinates is atom   12       0.246 Angstoms.
 GradGradGradGradGradGradGradGradGradGradGradGradGradGradGradGradGradGrad

 Leave Link  103 at Wed Sep  7 15:33:41 2022, MaxMem=   131072000 cpu:               0.0 elap:               0.0
 (Enter /opt/g16/l202.exe)
                          Input orientation:                          
 ---------------------------------------------------------------------
 Center     Atomic      Atomic             Coordinates (Angstroms)
 Number     Number       Type             X           Y           Z
 ---------------------------------------------------------------------
      1          6           0        3.617935    5.338625    9.667565
      2          1           0        3.807556    4.283056    9.434247
      3          1           0        2.996018    5.746944    8.859617
      4          1           0        3.019089    5.370757   10.587384
      5          6           0        4.911706    6.105602    9.817783
      6          1           0        5.497005    6.043741    8.879115
      7          1           0        5.543558    5.629404   10.595256
      8          6           0        4.669929    7.586137   10.158126
      9          1           0        3.838193    7.986727    9.531827
     10          8           0        4.144399    7.759354   11.453836
     11          6           0        5.931740    8.435813    9.923862
     12          1           0        4.804589    7.459872   12.068037
     13          1           0        6.198430    8.381405    8.849969
     14          1           0        5.690083    9.499749   10.119233
     15          6           0        7.120595    8.029049   10.764876
     16          1           0        6.905930    8.087600   11.841060
     17          1           0        7.980073    8.684155   10.571885
     18          1           0        7.441170    7.000010   10.551321
 ---------------------------------------------------------------------
                    Distance matrix (angstroms):
                    1          2          3          4          5
     1  C    0.000000
     2  H    1.097551   0.000000
     3  H    1.098309   1.769677   0.000000
     4  H    1.098051   1.770451   1.768396   0.000000
     5  C    1.511510   2.165161   2.171768   2.171239   0.000000
     6  H    2.156327   2.502483   2.518611   3.084016   1.107925
     7  H    2.157125   2.484814   3.084837   2.537697   1.109264
     8  C    2.529555   3.489703   2.805482   2.795968   1.538269
     9  H    2.660711   3.705083   2.485508   2.937419   2.184682
    10  O    3.054155   4.034458   3.478297   2.778931   2.449557
    11  C    3.874527   4.690125   4.120813   4.279996   2.545900
    12  H    3.416153   4.245360   4.061897   3.121657   2.628529
    13  H    4.072583   4.780599   4.146797   4.710713   2.787760
    14  H    4.670412   5.588112   4.788336   4.939832   3.495279
    15  C    4.550945   5.174869   5.084304   4.890846   3.078283
    16  H    4.805399   5.465092   5.445648   4.905147   3.463942
    17  H    5.571232   6.170397   6.033231   5.965753   4.078294
    18  H    4.261262   4.672564   4.918477   4.712809   2.781408
                    6          7          8          9         10
     6  H    0.000000
     7  H    1.766064   0.000000
     8  C    2.167696   2.187034   0.000000
     9  H    2.636832   3.097762   1.115575   0.000000
    10  O    3.376693   2.689144   1.408919   1.959485   0.000000
    11  C    2.646224   2.911596   1.539155   2.176766   2.448062
    12  H    3.557258   2.462879   1.918811   2.764753   0.950149
    13  H    2.440803   3.323913   2.163341   2.488257   3.374332
    14  H    3.676841   3.902261   2.168903   2.462474   2.683147
    15  C    3.183329   2.876476   2.563218   3.506618   3.066781
    16  H    3.864654   3.074218   2.843139   3.841061   2.807800
    17  H    4.000361   3.907513   3.511965   4.327043   4.042956
    18  H    2.736878   2.341244   2.859707   3.872264   3.501405
                   11         12         13         14         15
    11  C    0.000000
    12  H    2.611593   0.000000
    13  H    1.107849   3.626014   0.000000
    14  H    1.108389   2.956862   1.766391   0.000000
    15  C    1.511999   2.717734   2.154393   2.150855   0.000000
    16  H    2.178520   2.204812   3.087637   2.537152   1.098946
    17  H    2.162702   3.717666   2.496178   2.472679   1.097776
    18  H    2.175688   3.076273   2.519376   3.082482   1.098769
                   16         17         18
    16  H    0.000000
    17  H    1.766484   0.000000
    18  H    1.769960   1.768385   0.000000
 Stoichiometry    C5H12O
 Framework group  C1[X(C5H12O)]
 Deg. of freedom    48
 Full point group                 C1      NOp   1
 RotChk:  IX=0 Diff= 3.57D-16
 Largest Abelian subgroup         C1      NOp   1
 Largest concise Abelian subgroup C1      NOp   1
                         Standard orientation:                         
 ---------------------------------------------------------------------
 Center     Atomic      Atomic             Coordinates (Angstroms)
 Number     Number       Type             X           Y           Z
 ---------------------------------------------------------------------
      1          6           0        2.415636   -0.377265   -0.051847
      2          1           0        3.036133   -1.166269   -0.495778
      3          1           0        2.738842   -0.252697    0.990412
      4          1           0        2.645604    0.558609   -0.578127
      5          6           0        0.946688   -0.721531   -0.143147
      6          1           0        0.750024   -1.674886    0.385943
      7          1           0        0.667953   -0.904500   -1.201115
      8          6           0        0.056619    0.377507    0.461968
      9          1           0        0.500073    0.737761    1.420129
     10          8           0        0.067345    1.558975   -0.305540
     11          6           0       -1.371750   -0.130829    0.727209
     12          1           0       -0.319480    1.351146   -1.148129
     13          1           0       -1.320180   -0.958217    1.462123
     14          1           0       -1.953490    0.673028    1.221090
     15          6           0       -2.106983   -0.594067   -0.510120
     16          1           0       -2.198917    0.203821   -1.260190
     17          1           0       -3.124970   -0.921492   -0.261909
     18          1           0       -1.601610   -1.440986   -0.994497
 ---------------------------------------------------------------------
 Rotational constants (GHZ):           5.5151041           2.1824560           1.8722952
 Leave Link  202 at Wed Sep  7 15:33:41 2022, MaxMem=   131072000 cpu:               0.0 elap:               0.0
 (Enter /opt/g16/l601.exe)
 Copying SCF densities to generalized density rwf, IOpCl= 0 IROHF=0.

 **********************************************************************

            Population analysis using the SCF density.

 **********************************************************************

 Orbital symmetries:
       Occupied  (A) (A) (A) (A) (A) (A) (A) (A) (A) (A) (A) (A)
                 (A) (A) (A) (A) (A) (A) (A)
       Virtual   (A) (A) (A) (A) (A) (A) (A) (A) (A) (A) (A) (A)
                 (A) (A) (A) (A) (A)
 The electronic state is 1-A.
 Alpha  occ. eigenvalues --   -1.49052  -1.24571  -1.20144  -0.95180  -0.83291
 Alpha  occ. eigenvalues --   -0.74754  -0.63346  -0.61219  -0.58374  -0.56643
 Alpha  occ. eigenvalues --   -0.53646  -0.51353  -0.49803  -0.47819  -0.47206
 Alpha  occ. eigenvalues --   -0.44621  -0.43630  -0.42950  -0.40699
 Alpha virt. eigenvalues --    0.11507   0.12825   0.13072   0.13547   0.13963
 Alpha virt. eigenvalues --    0.14134   0.14685   0.14928   0.15516   0.15969
 Alpha virt. eigenvalues --    0.16912   0.17142   0.17303   0.17617   0.18326
 Alpha virt. eigenvalues --    0.18418   0.21348
          Condensed to atoms (all electrons):
               1          2          3          4          5          6
     1  C    4.106920   0.000000   0.000000   0.000000   0.000000   0.000000
     2  H    0.000000   0.964111   0.000000   0.000000   0.000000   0.000000
     3  H    0.000000   0.000000   0.961105   0.000000   0.000000   0.000000
     4  H    0.000000   0.000000   0.000000   0.951733   0.000000   0.000000
     5  C    0.000000   0.000000   0.000000   0.000000   4.133196   0.000000
     6  H    0.000000   0.000000   0.000000   0.000000   0.000000   0.943992
     7  H    0.000000   0.000000   0.000000   0.000000   0.000000   0.000000
     8  C    0.000000   0.000000   0.000000   0.000000   0.000000   0.000000
     9  H    0.000000   0.000000   0.000000   0.000000   0.000000   0.000000
    10  O    0.000000   0.000000   0.000000   0.000000   0.000000   0.000000
    11  C    0.000000   0.000000   0.000000   0.000000   0.000000   0.000000
    12  H    0.000000   0.000000   0.000000   0.000000   0.000000   0.000000
    13  H    0.000000   0.000000   0.000000   0.000000   0.000000   0.000000
    14  H    0.000000   0.000000   0.000000   0.000000   0.000000   0.000000
    15  C    0.000000   0.000000   0.000000   0.000000   0.000000   0.000000
    16  H    0.000000   0.000000   0.000000   0.000000   0.000000   0.000000
    17  H    0.000000   0.000000   0.000000   0.000000   0.000000   0.000000
    18  H    0.000000   0.000000   0.000000   0.000000   0.000000   0.000000
               7          8          9         10         11         12
     1  C    0.000000   0.000000   0.000000   0.000000   0.000000   0.000000
     2  H    0.000000   0.000000   0.000000   0.000000   0.000000   0.000000
     3  H    0.000000   0.000000   0.000000   0.000000   0.000000   0.000000
     4  H    0.000000   0.000000   0.000000   0.000000   0.000000   0.000000
     5  C    0.000000   0.000000   0.000000   0.000000   0.000000   0.000000
     6  H    0.000000   0.000000   0.000000   0.000000   0.000000   0.000000
     7  H    0.947786   0.000000   0.000000   0.000000   0.000000   0.000000
     8  C    0.000000   3.926249   0.000000   0.000000   0.000000   0.000000
     9  H    0.000000   0.000000   0.929485   0.000000   0.000000   0.000000
    10  O    0.000000   0.000000   0.000000   6.307930   0.000000   0.000000
    11  C    0.000000   0.000000   0.000000   0.000000   4.135228   0.000000
    12  H    0.000000   0.000000   0.000000   0.000000   0.000000   0.815943
    13  H    0.000000   0.000000   0.000000   0.000000   0.000000   0.000000
    14  H    0.000000   0.000000   0.000000   0.000000   0.000000   0.000000
    15  C    0.000000   0.000000   0.000000   0.000000   0.000000   0.000000
    16  H    0.000000   0.000000   0.000000   0.000000   0.000000   0.000000
    17  H    0.000000   0.000000   0.000000   0.000000   0.000000   0.000000
    18  H    0.000000   0.000000   0.000000   0.000000   0.000000   0.000000
              13         14         15         16         17         18
     1  C    0.000000   0.000000   0.000000   0.000000   0.000000   0.000000
     2  H    0.000000   0.000000   0.000000   0.000000   0.000000   0.000000
     3  H    0.000000   0.000000   0.000000   0.000000   0.000000   0.000000
     4  H    0.000000   0.000000   0.000000   0.000000   0.000000   0.000000
     5  C    0.000000   0.000000   0.000000   0.000000   0.000000   0.000000
     6  H    0.000000   0.000000   0.000000   0.000000   0.000000   0.000000
     7  H    0.000000   0.000000   0.000000   0.000000   0.000000   0.000000
     8  C    0.000000   0.000000   0.000000   0.000000   0.000000   0.000000
     9  H    0.000000   0.000000   0.000000   0.000000   0.000000   0.000000
    10  O    0.000000   0.000000   0.000000   0.000000   0.000000   0.000000
    11  C    0.000000   0.000000   0.000000   0.000000   0.000000   0.000000
    12  H    0.000000   0.000000   0.000000   0.000000   0.000000   0.000000
    13  H    0.943765   0.000000   0.000000   0.000000   0.000000   0.000000
    14  H    0.000000   0.938997   0.000000   0.000000   0.000000   0.000000
    15  C    0.000000   0.000000   4.112180   0.000000   0.000000   0.000000
    16  H    0.000000   0.000000   0.000000   0.963806   0.000000   0.000000
    17  H    0.000000   0.000000   0.000000   0.000000   0.957891   0.000000
    18  H    0.000000   0.000000   0.000000   0.000000   0.000000   0.959683
 Mulliken charges:
               1
     1  C   -0.106920
     2  H    0.035889
     3  H    0.038895
     4  H    0.048267
     5  C   -0.133196
     6  H    0.056008
     7  H    0.052214
     8  C    0.073751
     9  H    0.070515
    10  O   -0.307930
    11  C   -0.135228
    12  H    0.184057
    13  H    0.056235
    14  H    0.061003
    15  C   -0.112180
    16  H    0.036194
    17  H    0.042109
    18  H    0.040317
 Sum of Mulliken charges =  -0.00000
 Mulliken charges with hydrogens summed into heavy atoms:
               1
     1  C    0.016132
     5  C   -0.024975
     8  C    0.144266
    10  O   -0.123873
    11  C   -0.017990
    15  C    0.006440
 Charge=              0.0000 electrons
 Dipole moment (field-independent basis, Debye):
    X=             -0.5511    Y=             -1.4056    Z=             -0.3711  Tot=              1.5547
 N-N= 1.711165553572D+02 E-N=-2.566114950145D+02  KE=-5.969409628967D+01
 Leave Link  601 at Wed Sep  7 15:33:41 2022, MaxMem=   131072000 cpu:               0.0 elap:               0.0
 (Enter /opt/g16/l9999.exe)
 1\1\GINC-TOTEM2\FOpt\RPM3\ZDO\C5H12O1\JRAMOS\07-Sep-2022\0\\#p opt pm3
 \\Conformer number 005. Energy MM = 0.000 kcal/mol\\0,1\C,3.6179348216
 ,5.3386251968,9.6675647762\H,3.8075555601,4.2830561177,9.4342469923\H,
 2.9960184423,5.7469435736,8.8596174554\H,3.0190893772,5.3707571765,10.
 5873840921\C,4.9117062274,6.1056017253,9.8177832222\H,5.4970046377,6.0
 437412499,8.8791152305\H,5.543558373,5.6294035533,10.595256288\C,4.669
 9287412,7.586136534,10.1581256802\H,3.8381929374,7.98672684,9.53182650
 37\O,4.1443991013,7.7593543314,11.4538362983\C,5.9317396948,8.43581340
 41,9.923861643\H,4.8045890725,7.4598721097,12.0680367908\H,6.198430314
 1,8.3814053666,8.8499694632\H,5.6900832403,9.4997485046,10.119233\C,7.
 1205954407,8.0290488862,10.7648756078\H,6.9059304974,8.0875997087,11.8
 410603271\H,7.9800733353,8.6841554871,10.5718851644\H,7.4411701855,7.0
 000102343,10.5513214647\\Version=ES64L-G16RevA.03\State=1-A\HF=-0.1192
 312\RMSD=2.521e-09\RMSF=7.248e-06\Dipole=0.5485751,-0.2114512,-0.16879
 2\PG=C01 [X(C5H12O1)]\\@


 Cherishing children is the mark of a civilized society.
 -- Joan Ganz Cooney
 Job cpu time:       0 days  0 hours  0 minutes  6.1 seconds.
 Elapsed time:       0 days  0 hours  0 minutes  5.2 seconds.
 File lengths (MBytes):  RWF=      6 Int=      0 D2E=      0 Chk=      2 Scr=      1
 Normal termination of Gaussian 16 at Wed Sep  7 15:33:41 2022.
