 Entering Gaussian System, Link 0=/opt/g16/g16
 Input=MD_extract_023_gaussian.com
 Output=MD_extract_023_gaussian.log
 Initial command:
 /opt/g16/l1.exe "/tmp/Gau-318290.inp" -scrdir="/tmp/"
 Entering Link 1 = /opt/g16/l1.exe PID=    318292.
  
 Copyright (c) 1988,1990,1992,1993,1995,1998,2003,2009,2016,
            Gaussian, Inc.  All Rights Reserved.
  
 This is part of the Gaussian(R) 16 program.  It is based on
 the Gaussian(R) 09 system (copyright 2009, Gaussian, Inc.),
 the Gaussian(R) 03 system (copyright 2003, Gaussian, Inc.),
 the Gaussian(R) 98 system (copyright 1998, Gaussian, Inc.),
 the Gaussian(R) 94 system (copyright 1995, Gaussian, Inc.),
 the Gaussian 92(TM) system (copyright 1992, Gaussian, Inc.),
 the Gaussian 90(TM) system (copyright 1990, Gaussian, Inc.),
 the Gaussian 88(TM) system (copyright 1988, Gaussian, Inc.),
 the Gaussian 86(TM) system (copyright 1986, Carnegie Mellon
 University), and the Gaussian 82(TM) system (copyright 1983,
 Carnegie Mellon University). Gaussian is a federally registered
 trademark of Gaussian, Inc.
  
 This software contains proprietary and confidential information,
 including trade secrets, belonging to Gaussian, Inc.
  
 This software is provided under written license and may be
 used, copied, transmitted, or stored only in accord with that
 written license.
  
 The following legend is applicable only to US Government
 contracts under FAR:
  
                    RESTRICTED RIGHTS LEGEND
  
 Use, reproduction and disclosure by the US Government is
 subject to restrictions as set forth in subparagraphs (a)
 and (c) of the Commercial Computer Software - Restricted
 Rights clause in FAR 52.227-19.
  
 Gaussian, Inc.
 340 Quinnipiac St., Bldg. 40, Wallingford CT 06492
  
  
 ---------------------------------------------------------------
 Warning -- This program may not be used in any manner that
 competes with the business of Gaussian, Inc. or will provide
 assistance to any competitor of Gaussian, Inc.  The licensee
 of this program is prohibited from giving any competitor of
 Gaussian, Inc. access to this program.  By using this program,
 the user acknowledges that Gaussian, Inc. is engaged in the
 business of creating and licensing software in the field of
 computational chemistry and represents and warrants to the
 licensee that it is not a competitor of Gaussian, Inc. and that
 it will not use this program in any manner prohibited above.
 ---------------------------------------------------------------
  

 Cite this work as:
 Gaussian 16, Revision A.03,
 M. J. Frisch, G. W. Trucks, H. B. Schlegel, G. E. Scuseria, 
 M. A. Robb, J. R. Cheeseman, G. Scalmani, V. Barone, 
 G. A. Petersson, H. Nakatsuji, X. Li, M. Caricato, A. V. Marenich, 
 J. Bloino, B. G. Janesko, R. Gomperts, B. Mennucci, H. P. Hratchian, 
 J. V. Ortiz, A. F. Izmaylov, J. L. Sonnenberg, D. Williams-Young, 
 F. Ding, F. Lipparini, F. Egidi, J. Goings, B. Peng, A. Petrone, 
 T. Henderson, D. Ranasinghe, V. G. Zakrzewski, J. Gao, N. Rega, 
 G. Zheng, W. Liang, M. Hada, M. Ehara, K. Toyota, R. Fukuda, 
 J. Hasegawa, M. Ishida, T. Nakajima, Y. Honda, O. Kitao, H. Nakai, 
 T. Vreven, K. Throssell, J. A. Montgomery, Jr., J. E. Peralta, 
 F. Ogliaro, M. J. Bearpark, J. J. Heyd, E. N. Brothers, K. N. Kudin, 
 V. N. Staroverov, T. A. Keith, R. Kobayashi, J. Normand, 
 K. Raghavachari, A. P. Rendell, J. C. Burant, S. S. Iyengar, 
 J. Tomasi, M. Cossi, J. M. Millam, M. Klene, C. Adamo, R. Cammi, 
 J. W. Ochterski, R. L. Martin, K. Morokuma, O. Farkas, 
 J. B. Foresman, and D. J. Fox, Gaussian, Inc., Wallingford CT, 2016.
 
 ******************************************
 Gaussian 16:  ES64L-G16RevA.03 25-Dec-2016
                 7-Sep-2022 
 ******************************************
 %chk=MD_extract_023_gaussian.chk
 %nproc=1
 Will use up to    1 processors via shared memory.
 %mem=1000Mb
 ----------
 #p opt pm3
 ----------
 1/18=20,19=15,26=1,38=1/1,3;
 2/9=110,12=2,17=6,18=5,40=1/2;
 3/5=2,25=1,41=800000,71=1/1,2,3;
 4/35=1/1;
 5/5=2,35=1,38=5/2;
 6/7=2,8=2,9=2,10=2,28=1/1;
 7//1,2,3,16;
 1/18=20,19=15,26=1/3(2);
 2/9=110/2;
 99//99;
 2/9=110/2;
 3/5=2,25=1,41=800000,71=1,135=20/1,2,3;
 4/5=5,16=3,35=1/1;
 5/5=2,35=1,38=5/2;
 7//1,2,3,16;
 1/18=20,19=15,26=1/3(-5);
 2/9=110/2;
 6/7=2,8=2,9=2,10=2,19=2,28=1/1;
 99/9=1/99;
 Leave Link    1 at Wed Sep  7 15:36:31 2022, MaxMem=   131072000 cpu:               0.0 elap:               0.0
 (Enter /opt/g16/l101.exe)
 ------------------------------------------------
 Conformer number 023. Energy MM = 0.000 kcal/mol
 ------------------------------------------------
 Symbolic Z-matrix:
 Charge =  0 Multiplicity = 1
 C                     4.069     4.815     6.305 
 H                     4.47      5.725     6.798 
 H                     4.834     4.236     5.801 
 H                     3.579     4.19      7.113 
 C                     3.011     5.261     5.367 
 H                     3.328     5.718     4.384 
 H                     2.464     6.108     5.893 
 C                     1.953     4.326     4.939 
 H                     2.452     3.451     4.421 
 O                     1.178     3.822     5.991 
 C                     1.017     4.878     3.936 
 H                     1.683     2.969     6.067 
 H                     0.201     5.366     4.433 
 H                     1.464     5.629     3.335 
 C                     0.291     3.809     3.12 
 H                    -0.283     4.226     2.33 
 H                    -0.468     3.345     3.749 
 H                     0.911     3.054     2.653 
 
 ITRead=  0  0  0  0  0  0  0  0  0  0  0  0  0  0  0  0  0  0
 MicOpt= -1 -1 -1 -1 -1 -1 -1 -1 -1 -1 -1 -1 -1 -1 -1 -1 -1 -1
 NAtoms=     18 NQM=       18 NQMF=       0 NMMI=      0 NMMIF=      0
                NMic=       0 NMicF=      0.
                    Isotopes and Nuclear Properties:
 (Nuclear quadrupole moments (NQMom) in fm**2, nuclear magnetic moments (NMagM)
  in nuclear magnetons)

  Atom         1           2           3           4           5           6           7           8           9          10
 IAtWgt=          12           1           1           1          12           1           1          12           1          16
 AtmWgt=  12.0000000   1.0078250   1.0078250   1.0078250  12.0000000   1.0078250   1.0078250  12.0000000   1.0078250  15.9949146
 NucSpn=           0           1           1           1           0           1           1           0           1           0
 AtZEff=  -0.0000000  -0.0000000  -0.0000000  -0.0000000  -0.0000000  -0.0000000  -0.0000000  -0.0000000  -0.0000000  -0.0000000
 NQMom=    0.0000000   0.0000000   0.0000000   0.0000000   0.0000000   0.0000000   0.0000000   0.0000000   0.0000000   0.0000000
 NMagM=    0.0000000   2.7928460   2.7928460   2.7928460   0.0000000   2.7928460   2.7928460   0.0000000   2.7928460   0.0000000
 AtZNuc=   6.0000000   1.0000000   1.0000000   1.0000000   6.0000000   1.0000000   1.0000000   6.0000000   1.0000000   8.0000000

  Atom        11          12          13          14          15          16          17          18
 IAtWgt=          12           1           1           1          12           1           1           1
 AtmWgt=  12.0000000   1.0078250   1.0078250   1.0078250  12.0000000   1.0078250   1.0078250   1.0078250
 NucSpn=           0           1           1           1           0           1           1           1
 AtZEff=  -0.0000000  -0.0000000  -0.0000000  -0.0000000  -0.0000000  -0.0000000  -0.0000000  -0.0000000
 NQMom=    0.0000000   0.0000000   0.0000000   0.0000000   0.0000000   0.0000000   0.0000000   0.0000000
 NMagM=    0.0000000   2.7928460   2.7928460   2.7928460   0.0000000   2.7928460   2.7928460   2.7928460
 AtZNuc=   6.0000000   1.0000000   1.0000000   1.0000000   6.0000000   1.0000000   1.0000000   1.0000000
 Leave Link  101 at Wed Sep  7 15:36:31 2022, MaxMem=   131072000 cpu:               0.1 elap:               0.1
 (Enter /opt/g16/l103.exe)

 GradGradGradGradGradGradGradGradGradGradGradGradGradGradGradGradGradGrad
 Berny optimization.
 Initialization pass.
                           ----------------------------
                           !    Initial Parameters    !
                           ! (Angstroms and Degrees)  !
 --------------------------                            --------------------------
 ! Name  Definition              Value          Derivative Info.                !
 --------------------------------------------------------------------------------
 ! R1    R(1,2)                  1.1099         estimate D2E/DX2                !
 ! R2    R(1,3)                  1.0837         estimate D2E/DX2                !
 ! R3    R(1,4)                  1.133          estimate D2E/DX2                !
 ! R4    R(1,5)                  1.4826         estimate D2E/DX2                !
 ! R5    R(5,6)                  1.1294         estimate D2E/DX2                !
 ! R6    R(5,7)                  1.1372         estimate D2E/DX2                !
 ! R7    R(5,8)                  1.4754         estimate D2E/DX2                !
 ! R8    R(8,9)                  1.1327         estimate D2E/DX2                !
 ! R9    R(8,10)                 1.4005         estimate D2E/DX2                !
 ! R10   R(8,11)                 1.4788         estimate D2E/DX2                !
 ! R11   R(10,12)                0.9942         estimate D2E/DX2                !
 ! R12   R(11,13)                1.0729         estimate D2E/DX2                !
 ! R13   R(11,14)                1.0607         estimate D2E/DX2                !
 ! R14   R(11,15)                1.5283         estimate D2E/DX2                !
 ! R15   R(15,16)                1.0618         estimate D2E/DX2                !
 ! R16   R(15,17)                1.0895         estimate D2E/DX2                !
 ! R17   R(15,18)                1.0828         estimate D2E/DX2                !
 ! A1    A(2,1,3)              112.9274         estimate D2E/DX2                !
 ! A2    A(2,1,4)              106.9637         estimate D2E/DX2                !
 ! A3    A(2,1,5)              106.9893         estimate D2E/DX2                !
 ! A4    A(3,1,4)              110.0132         estimate D2E/DX2                !
 ! A5    A(3,1,5)              111.7292         estimate D2E/DX2                !
 ! A6    A(4,1,5)              107.9702         estimate D2E/DX2                !
 ! A7    A(1,5,6)              118.1689         estimate D2E/DX2                !
 ! A8    A(1,5,7)              105.9419         estimate D2E/DX2                !
 ! A9    A(1,5,8)              120.3062         estimate D2E/DX2                !
 ! A10   A(6,5,7)              103.6622         estimate D2E/DX2                !
 ! A11   A(6,5,8)              101.8419         estimate D2E/DX2                !
 ! A12   A(7,5,8)              105.1445         estimate D2E/DX2                !
 ! A13   A(5,8,9)              107.8371         estimate D2E/DX2                !
 ! A14   A(5,8,10)             114.0156         estimate D2E/DX2                !
 ! A15   A(5,8,11)             114.4619         estimate D2E/DX2                !
 ! A16   A(9,8,10)             108.0179         estimate D2E/DX2                !
 ! A17   A(9,8,11)             104.8935         estimate D2E/DX2                !
 ! A18   A(10,8,11)            107.0712         estimate D2E/DX2                !
 ! A19   A(8,10,12)             94.8818         estimate D2E/DX2                !
 ! A20   A(8,11,13)            109.6944         estimate D2E/DX2                !
 ! A21   A(8,11,14)            112.4496         estimate D2E/DX2                !
 ! A22   A(8,11,15)            113.6857         estimate D2E/DX2                !
 ! A23   A(13,11,14)           105.1273         estimate D2E/DX2                !
 ! A24   A(13,11,15)           101.7825         estimate D2E/DX2                !
 ! A25   A(14,11,15)           113.1362         estimate D2E/DX2                !
 ! A26   A(11,15,16)           112.293          estimate D2E/DX2                !
 ! A27   A(11,15,17)           108.6977         estimate D2E/DX2                !
 ! A28   A(11,15,18)           116.4862         estimate D2E/DX2                !
 ! A29   A(16,15,17)           102.7204         estimate D2E/DX2                !
 ! A30   A(16,15,18)           105.2169         estimate D2E/DX2                !
 ! A31   A(17,15,18)           110.544          estimate D2E/DX2                !
 ! D1    D(2,1,5,6)             77.3594         estimate D2E/DX2                !
 ! D2    D(2,1,5,7)            -38.2104         estimate D2E/DX2                !
 ! D3    D(2,1,5,8)           -157.0051         estimate D2E/DX2                !
 ! D4    D(3,1,5,6)            -46.7146         estimate D2E/DX2                !
 ! D5    D(3,1,5,7)           -162.2845         estimate D2E/DX2                !
 ! D6    D(3,1,5,8)             78.9208         estimate D2E/DX2                !
 ! D7    D(4,1,5,6)           -167.8173         estimate D2E/DX2                !
 ! D8    D(4,1,5,7)             76.6129         estimate D2E/DX2                !
 ! D9    D(4,1,5,8)            -42.1818         estimate D2E/DX2                !
 ! D10   D(1,5,8,9)            -59.9129         estimate D2E/DX2                !
 ! D11   D(1,5,8,10)            60.0274         estimate D2E/DX2                !
 ! D12   D(1,5,8,11)          -176.2092         estimate D2E/DX2                !
 ! D13   D(6,5,8,9)             73.0278         estimate D2E/DX2                !
 ! D14   D(6,5,8,10)          -167.0319         estimate D2E/DX2                !
 ! D15   D(6,5,8,11)           -43.2685         estimate D2E/DX2                !
 ! D16   D(7,5,8,9)           -179.1078         estimate D2E/DX2                !
 ! D17   D(7,5,8,10)           -59.1676         estimate D2E/DX2                !
 ! D18   D(7,5,8,11)            64.5959         estimate D2E/DX2                !
 ! D19   D(5,8,10,12)          -97.7462         estimate D2E/DX2                !
 ! D20   D(9,8,10,12)           22.0923         estimate D2E/DX2                !
 ! D21   D(11,8,10,12)         134.5884         estimate D2E/DX2                !
 ! D22   D(5,8,11,13)          -88.8783         estimate D2E/DX2                !
 ! D23   D(5,8,11,14)           27.7245         estimate D2E/DX2                !
 ! D24   D(5,8,11,15)          157.9273         estimate D2E/DX2                !
 ! D25   D(9,8,11,13)          153.1389         estimate D2E/DX2                !
 ! D26   D(9,8,11,14)          -90.2583         estimate D2E/DX2                !
 ! D27   D(9,8,11,15)           39.9445         estimate D2E/DX2                !
 ! D28   D(10,8,11,13)          38.5256         estimate D2E/DX2                !
 ! D29   D(10,8,11,14)         155.1284         estimate D2E/DX2                !
 ! D30   D(10,8,11,15)         -74.6688         estimate D2E/DX2                !
 ! D31   D(8,11,15,16)        -172.9971         estimate D2E/DX2                !
 ! D32   D(8,11,15,17)          74.0487         estimate D2E/DX2                !
 ! D33   D(8,11,15,18)         -51.5821         estimate D2E/DX2                !
 ! D34   D(13,11,15,16)         69.1356         estimate D2E/DX2                !
 ! D35   D(13,11,15,17)        -43.8187         estimate D2E/DX2                !
 ! D36   D(13,11,15,18)       -169.4495         estimate D2E/DX2                !
 ! D37   D(14,11,15,16)        -43.1377         estimate D2E/DX2                !
 ! D38   D(14,11,15,17)       -156.0919         estimate D2E/DX2                !
 ! D39   D(14,11,15,18)         78.2772         estimate D2E/DX2                !
 --------------------------------------------------------------------------------
 Trust Radius=3.00D-01 FncErr=1.00D-07 GrdErr=1.00D-07 EigMax=2.50D+02 EigMin=1.00D-04
 Number of steps in this run=     97 maximum allowed number of steps=    108.
 GradGradGradGradGradGradGradGradGradGradGradGradGradGradGradGradGradGrad

 Leave Link  103 at Wed Sep  7 15:36:31 2022, MaxMem=   131072000 cpu:               0.0 elap:               0.0
 (Enter /opt/g16/l202.exe)
                          Input orientation:                          
 ---------------------------------------------------------------------
 Center     Atomic      Atomic             Coordinates (Angstroms)
 Number     Number       Type             X           Y           Z
 ---------------------------------------------------------------------
      1          6           0        4.069000    4.815000    6.305000
      2          1           0        4.470000    5.725000    6.798000
      3          1           0        4.834000    4.236000    5.801000
      4          1           0        3.579000    4.190000    7.113000
      5          6           0        3.011000    5.261000    5.367000
      6          1           0        3.328000    5.718000    4.384000
      7          1           0        2.464000    6.108000    5.893000
      8          6           0        1.953000    4.326000    4.939000
      9          1           0        2.452000    3.451000    4.421000
     10          8           0        1.178000    3.822000    5.991000
     11          6           0        1.017000    4.878000    3.936000
     12          1           0        1.683000    2.969000    6.067000
     13          1           0        0.201000    5.366000    4.433000
     14          1           0        1.464000    5.629000    3.335000
     15          6           0        0.291000    3.809000    3.120000
     16          1           0       -0.283000    4.226000    2.330000
     17          1           0       -0.468000    3.345000    3.749000
     18          1           0        0.911000    3.054000    2.653000
 ---------------------------------------------------------------------
                    Distance matrix (angstroms):
                    1          2          3          4          5
     1  C    0.000000
     2  H    1.109932   0.000000
     3  H    1.083735   1.828558   0.000000
     4  H    1.132956   1.802590   1.816173   0.000000
     5  C    1.482607   2.095647   2.135956   2.125601   0.000000
     6  H    2.248273   2.670507   2.544062   3.137710   1.129437
     7  H    2.101813   2.233775   3.021547   2.531867   1.137231
     8  C    2.565645   3.427590   3.008539   2.718207   1.475389
     9  H    2.832780   3.859214   2.862612   3.010501   2.117427
    10  O    3.072869   3.887148   3.684268   2.675651   2.412465
    11  C    3.864044   4.564172   4.296496   4.138903   2.484046
    12  H    3.026112   3.987138   3.406589   2.485915   2.739863
    13  H    4.332368   4.893513   4.961150   4.469481   2.963019
    14  H    4.033549   4.586679   4.402102   4.562590   2.580244
    15  C    5.042772   5.887511   5.292347   5.186536   3.815195
    16  H    5.923466   6.693357   6.183173   6.147636   4.598373
    17  H    5.410952   6.272531   5.754632   5.329984   4.288639
    18  H    5.139182   6.081262   5.166910   5.319805   4.080030
                    6          7          8          9         10
     6  H    0.000000
     7  H    1.782043   0.000000
     8  C    2.033793   2.084889   0.000000
     9  H    2.430645   3.037528   1.132674   0.000000
    10  O    3.286300   2.624728   1.400480   2.055631   0.000000
    11  C    2.499405   2.727005   1.478786   2.081052   2.316049
    12  H    3.618773   3.239376   1.785142   1.879628   0.994188
    13  H    3.147131   2.793445   2.099319   2.955397   2.401214
    14  H    2.140752   2.787975   2.123616   2.626637   3.225117
    15  C    3.803334   4.206763   2.517597   2.547682   3.004926
    16  H    4.414103   4.876772   3.437525   3.528899   3.962406
    17  H    4.521501   4.563719   2.870488   2.998203   2.821951
    18  H    3.991885   4.715541   2.815945   2.378679   3.435601
                   11         12         13         14         15
    11  C    0.000000
    12  H    2.937516   0.000000
    13  H    1.072851   3.257589   0.000000
    14  H    1.060665   3.819344   1.694090   0.000000
    15  C    1.528297   3.365720   2.038705   2.175903   0.000000
    16  H    2.166643   4.405721   2.440587   2.455696   1.061822
    17  H    2.142495   3.184541   2.236036   3.020046   1.089504
    18  H    2.232555   3.501229   3.002973   2.720580   1.082827
                   16         17         18
    16  H    0.000000
    17  H    1.680460   0.000000
    18  H    1.703980   1.785368   0.000000
 Stoichiometry    C5H12O
 Framework group  C1[X(C5H12O)]
 Deg. of freedom    48
 Full point group                 C1      NOp   1
 Largest Abelian subgroup         C1      NOp   1
 Largest concise Abelian subgroup C1      NOp   1
                         Standard orientation:                         
 ---------------------------------------------------------------------
 Center     Atomic      Atomic             Coordinates (Angstroms)
 Number     Number       Type             X           Y           Z
 ---------------------------------------------------------------------
      1          6           0        2.547335   -0.138756    0.305848
      2          1           0        3.333775   -0.546923   -0.362631
      3          1           0        2.702475   -0.396805    1.346917
      4          1           0        2.557917    0.987106    0.179707
      5          6           0        1.246918   -0.643147   -0.196774
      6          1           0        0.963799   -1.711624    0.035235
      7          1           0        1.322522   -0.625608   -1.331353
      8          6           0       -0.002342    0.076147    0.117451
      9          1           0       -0.114782    0.100261    1.244272
     10          8           0       -0.032819    1.396216   -0.349277
     11          6           0       -1.230217   -0.586147   -0.372957
     12          1           0        0.233176    1.799358    0.519707
     13          1           0       -1.445947   -0.254944   -1.370341
     14          1           0       -1.120318   -1.638401   -0.448411
     15          6           0       -2.494877   -0.166610    0.375586
     16          1           0       -3.341585   -0.739448    0.088520
     17          1           0       -2.768735    0.840132    0.061755
     18          1           0       -2.460648   -0.231761    1.455909
 ---------------------------------------------------------------------
 Rotational constants (GHZ):           7.2316831           1.9250937           1.6907359
 Leave Link  202 at Wed Sep  7 15:36:31 2022, MaxMem=   131072000 cpu:               0.0 elap:               0.0
 (Enter /opt/g16/l301.exe)
 Standard basis: VSTO-6G (5D, 7F)
 Ernie: Thresh=  0.10000D-02 Tol=  0.10000D-05 Strict=F.
  NNHCO=     0 NNPyr=     0 NCTC=     0               EPep=         0.000000000
    EC=       128.801482619  ECS=         2.291611310   EG=         0.576508865
   EHC=         0.000000000  EAt=       -36.836480110  AtH=         2.452923921
 EPDDG=         0.000000000  ECC=       131.669602793 EAtT=        39.289404030
 There are    36 symmetry adapted cartesian basis functions of A   symmetry.
 There are    36 symmetry adapted basis functions of A   symmetry.
    36 basis functions,   216 primitive gaussians,    36 cartesian basis functions
    19 alpha electrons       19 beta electrons
       nuclear repulsion energy       170.9590068239 Hartrees.
 IExCor=    0 DFT=F Ex=HF Corr=None ExCW=0 ScaHFX=  1.000000
 ScaDFX=  1.000000  1.000000  1.000000  1.000000 ScalE2=  1.000000  1.000000
 IRadAn=      5 IRanWt=     -1 IRanGd=            0 ICorTp=0 IEmpDi=  4
 Integral buffers will be    131072 words long.
 Regular integral format.
 Two-electron integral symmetry is turned off.
 Leave Link  301 at Wed Sep  7 15:36:31 2022, MaxMem=   131072000 cpu:               0.0 elap:               0.0
 (Enter /opt/g16/l302.exe)
 Do NDO integrals.
 NPDir=0 NMtPBC=     1 NCelOv=     1 NCel=       1 NClECP=     1 NCelD=      1
         NCelK=      1 NCelE2=     1 NClLst=     1 CellRange=     0.0.
 One-electron integrals computed using PRISM.
 NBasis=    36 RedAO= F EigKep=  0.00D+00  NBF=    36
 NBsUse=    36 1.00D-04 EigRej=  0.00D+00 NBFU=    36
 Leave Link  302 at Wed Sep  7 15:36:31 2022, MaxMem=   131072000 cpu:               0.0 elap:               0.0
 (Enter /opt/g16/l303.exe)
 DipDrv:  MaxL=1.
 Leave Link  303 at Wed Sep  7 15:36:31 2022, MaxMem=   131072000 cpu:               0.0 elap:               0.0
 (Enter /opt/g16/l401.exe)
 Simple Huckel Guess.
 JPrj=0 DoOrth=F DoCkMO=F.
 Leave Link  401 at Wed Sep  7 15:36:31 2022, MaxMem=   131072000 cpu:               0.0 elap:               0.0
 (Enter /opt/g16/l502.exe)
 Keep J ints in memory in canonical form, NReq=862161.
 FoFCou: FMM=F IPFlag=           0 FMFlag=           0 FMFlg1=           0
         NFxFlg=           0 DoJE=F BraDBF=F KetDBF=F FulRan=T
         wScrn=  0.000000 ICntrl=       600 IOpCl=  2 I1Cent=           0 NGrid=           0
         NMat0=    1 NMatS0=     72 NMatT0=    0 NMatD0=    1 NMtDS0=    0 NMtDT0=    0
 Symmetry not used in FoFCou.
 Two-electron integral symmetry not used.
 Closed shell SCF:
 Using DIIS extrapolation, IDIIS=  1040.
 Overlap will be assumed to be unity.
 NGot=   131072000 LenX=   131006778 LenY=   131005041
 Requested convergence on RMS density matrix=1.00D-08 within 128 cycles.
 Requested convergence on MAX density matrix=1.00D-06.
 Requested convergence on             energy=1.00D-06.
 No special actions if energy rises.

 Cycle   1  Pass 1  IDiag  1:
 E= 0.203622882524769    
 DIIS: error= 6.86D-02 at cycle   1 NSaved=   1.
 NSaved= 1 IEnMin= 1 EnMin= 0.203622882524769     IErMin= 1 ErrMin= 6.86D-02
 ErrMax= 6.86D-02  0.00D+00 EMaxC= 1.00D-01 BMatC= 1.11D-01 BMatP= 1.11D-01
 IDIUse=3 WtCom= 3.14D-01 WtEn= 6.86D-01
 Coeff-Com:  0.100D+01
 Coeff-En:   0.100D+01
 Coeff:      0.100D+01
 GapD=    2.000 DampG=2.000 DampE=0.500 DampFc=1.0000 IDamp=-1.
 RMSDP=1.29D-02 MaxDP=1.51D-01              OVMax= 0.00D+00

 Cycle   2  Pass 1  IDiag  1:
 E=-0.640306698114159E-01 Delta-E=       -0.267653552336 Rises=F Damp=F
 DIIS: error= 1.58D-02 at cycle   2 NSaved=   2.
 NSaved= 2 IEnMin= 2 EnMin=-0.640306698114159E-01 IErMin= 2 ErrMin= 1.58D-02
 ErrMax= 1.58D-02  0.00D+00 EMaxC= 1.00D-01 BMatC= 7.19D-03 BMatP= 1.11D-01
 IDIUse=3 WtCom= 8.42D-01 WtEn= 1.58D-01
 Coeff-Com: -0.309D+00 0.131D+01
 Coeff-En:   0.000D+00 0.100D+01
 Coeff:     -0.260D+00 0.126D+01
 RMSDP=4.60D-03 MaxDP=5.19D-02 DE=-2.68D-01 OVMax= 0.00D+00

 Cycle   3  Pass 1  IDiag  3:
 E=-0.856159240708507E-01 Delta-E=       -0.021585254259 Rises=F Damp=F
 DIIS: error= 3.36D-03 at cycle   3 NSaved=   3.
 NSaved= 3 IEnMin= 3 EnMin=-0.856159240708507E-01 IErMin= 3 ErrMin= 3.36D-03
 ErrMax= 3.36D-03  0.00D+00 EMaxC= 1.00D-01 BMatC= 1.76D-04 BMatP= 7.19D-03
 IDIUse=3 WtCom= 9.66D-01 WtEn= 3.36D-02
 Coeff-Com:  0.127D+00-0.623D+00 0.150D+01
 Coeff-En:   0.000D+00 0.000D+00 0.100D+01
 Coeff:      0.123D+00-0.602D+00 0.148D+01
 Gap=     0.517 Goal=   None    Shift=    0.000
 RMSDP=1.13D-03 MaxDP=1.80D-02 DE=-2.16D-02 OVMax= 6.67D-03

 Cycle   4  Pass 1  IDiag  3:
 E=-0.865003485235718E-01 Delta-E=       -0.000884424453 Rises=F Damp=F
 DIIS: error= 7.35D-04 at cycle   4 NSaved=   4.
 NSaved= 4 IEnMin= 4 EnMin=-0.865003485235718E-01 IErMin= 4 ErrMin= 7.35D-04
 ErrMax= 7.35D-04  0.00D+00 EMaxC= 1.00D-01 BMatC= 8.36D-06 BMatP= 1.76D-04
 IDIUse=3 WtCom= 9.93D-01 WtEn= 7.35D-03
 Coeff-Com: -0.279D-01 0.152D+00-0.556D+00 0.143D+01
 Coeff-En:   0.000D+00 0.000D+00 0.000D+00 0.100D+01
 Coeff:     -0.277D-01 0.150D+00-0.552D+00 0.143D+01
 Gap=     0.518 Goal=   None    Shift=    0.000
 RMSDP=3.00D-04 MaxDP=4.51D-03 DE=-8.84D-04 OVMax= 2.07D-03

 Cycle   5  Pass 1  IDiag  3:
 E=-0.865502528938862E-01 Delta-E=       -0.000049904370 Rises=F Damp=F
 DIIS: error= 1.47D-04 at cycle   5 NSaved=   5.
 NSaved= 5 IEnMin= 5 EnMin=-0.865502528938862E-01 IErMin= 5 ErrMin= 1.47D-04
 ErrMax= 1.47D-04  0.00D+00 EMaxC= 1.00D-01 BMatC= 3.58D-07 BMatP= 8.36D-06
 IDIUse=3 WtCom= 9.99D-01 WtEn= 1.47D-03
 Coeff-Com:  0.158D-02-0.121D-01 0.857D-01-0.426D+00 0.135D+01
 Coeff-En:   0.000D+00 0.000D+00 0.000D+00 0.000D+00 0.100D+01
 Coeff:      0.158D-02-0.121D-01 0.856D-01-0.426D+00 0.135D+01
 Gap=     0.518 Goal=   None    Shift=    0.000
 RMSDP=6.15D-05 MaxDP=7.98D-04 DE=-4.99D-05 OVMax= 5.33D-04

 Cycle   6  Pass 1  IDiag  3:
 E=-0.865523709202876E-01 Delta-E=       -0.000002118026 Rises=F Damp=F
 DIIS: error= 3.53D-05 at cycle   6 NSaved=   6.
 NSaved= 6 IEnMin= 6 EnMin=-0.865523709202876E-01 IErMin= 6 ErrMin= 3.53D-05
 ErrMax= 3.53D-05  0.00D+00 EMaxC= 1.00D-01 BMatC= 2.40D-08 BMatP= 3.58D-07
 IDIUse=1 WtCom= 1.00D+00 WtEn= 0.00D+00
 Coeff-Com: -0.294D-03 0.323D-02-0.316D-01 0.183D+00-0.745D+00 0.159D+01
 Coeff:     -0.294D-03 0.323D-02-0.316D-01 0.183D+00-0.745D+00 0.159D+01
 Gap=     0.518 Goal=   None    Shift=    0.000
 RMSDP=1.68D-05 MaxDP=2.32D-04 DE=-2.12D-06 OVMax= 1.50D-04

 Cycle   7  Pass 1  IDiag  3:
 E=-0.865525221593089E-01 Delta-E=       -0.000000151239 Rises=F Damp=F
 DIIS: error= 5.33D-06 at cycle   7 NSaved=   7.
 NSaved= 7 IEnMin= 7 EnMin=-0.865525221593089E-01 IErMin= 7 ErrMin= 5.33D-06
 ErrMax= 5.33D-06  0.00D+00 EMaxC= 1.00D-01 BMatC= 1.63D-09 BMatP= 2.40D-08
 IDIUse=1 WtCom= 1.00D+00 WtEn= 0.00D+00
 Coeff-Com:  0.170D-03-0.173D-02 0.164D-01-0.948D-01 0.403D+00-0.104D+01
 Coeff-Com:  0.171D+01
 Coeff:      0.170D-03-0.173D-02 0.164D-01-0.948D-01 0.403D+00-0.104D+01
 Coeff:      0.171D+01
 Gap=     0.518 Goal=   None    Shift=    0.000
 RMSDP=4.82D-06 MaxDP=4.50D-05 DE=-1.51D-07 OVMax= 3.34D-05

 Cycle   8  Pass 1  IDiag  3:
 E=-0.865525326915417E-01 Delta-E=       -0.000000010532 Rises=F Damp=F
 DIIS: error= 1.05D-06 at cycle   8 NSaved=   8.
 NSaved= 8 IEnMin= 8 EnMin=-0.865525326915417E-01 IErMin= 8 ErrMin= 1.05D-06
 ErrMax= 1.05D-06  0.00D+00 EMaxC= 1.00D-01 BMatC= 5.45D-11 BMatP= 1.63D-09
 IDIUse=1 WtCom= 1.00D+00 WtEn= 0.00D+00
 Coeff-Com: -0.506D-04 0.605D-03-0.630D-02 0.374D-01-0.162D+00 0.437D+00
 Coeff-Com: -0.835D+00 0.153D+01
 Coeff:     -0.506D-04 0.605D-03-0.630D-02 0.374D-01-0.162D+00 0.437D+00
 Coeff:     -0.835D+00 0.153D+01
 Gap=     0.518 Goal=   None    Shift=    0.000
 RMSDP=7.98D-07 MaxDP=7.43D-06 DE=-1.05D-08 OVMax= 4.12D-06

 Cycle   9  Pass 1  IDiag  3:
 E=-0.865525330358423E-01 Delta-E=       -0.000000000344 Rises=F Damp=F
 DIIS: error= 2.43D-07 at cycle   9 NSaved=   9.
 NSaved= 9 IEnMin= 9 EnMin=-0.865525330358423E-01 IErMin= 9 ErrMin= 2.43D-07
 ErrMax= 2.43D-07  0.00D+00 EMaxC= 1.00D-01 BMatC= 3.83D-12 BMatP= 5.45D-11
 IDIUse=1 WtCom= 1.00D+00 WtEn= 0.00D+00
 Coeff-Com:  0.167D-04-0.246D-03 0.279D-02-0.169D-01 0.745D-01-0.204D+00
 Coeff-Com:  0.406D+00-0.927D+00 0.167D+01
 Coeff:      0.167D-04-0.246D-03 0.279D-02-0.169D-01 0.745D-01-0.204D+00
 Coeff:      0.406D+00-0.927D+00 0.167D+01
 Gap=     0.518 Goal=   None    Shift=    0.000
 RMSDP=2.31D-07 MaxDP=1.76D-06 DE=-3.44D-10 OVMax= 1.21D-06

 Cycle  10  Pass 1  IDiag  3:
 E=-0.865525330615071E-01 Delta-E=       -0.000000000026 Rises=F Damp=F
 DIIS: error= 6.53D-08 at cycle  10 NSaved=  10.
 NSaved=10 IEnMin=10 EnMin=-0.865525330615071E-01 IErMin=10 ErrMin= 6.53D-08
 ErrMax= 6.53D-08  0.00D+00 EMaxC= 1.00D-01 BMatC= 1.75D-13 BMatP= 3.83D-12
 IDIUse=1 WtCom= 1.00D+00 WtEn= 0.00D+00
 Coeff-Com: -0.554D-05 0.894D-04-0.105D-02 0.643D-02-0.285D-01 0.785D-01
 Coeff-Com: -0.158D+00 0.378D+00-0.830D+00 0.155D+01
 Coeff:     -0.554D-05 0.894D-04-0.105D-02 0.643D-02-0.285D-01 0.785D-01
 Coeff:     -0.158D+00 0.378D+00-0.830D+00 0.155D+01
 Gap=     0.518 Goal=   None    Shift=    0.000
 RMSDP=4.86D-08 MaxDP=4.63D-07 DE=-2.57D-11 OVMax= 2.64D-07

 Cycle  11  Pass 1  IDiag  3:
 E=-0.865525330624735E-01 Delta-E=       -0.000000000001 Rises=F Damp=F
 DIIS: error= 1.21D-08 at cycle  11 NSaved=  11.
 NSaved=11 IEnMin=11 EnMin=-0.865525330624735E-01 IErMin=11 ErrMin= 1.21D-08
 ErrMax= 1.21D-08  0.00D+00 EMaxC= 1.00D-01 BMatC= 7.27D-15 BMatP= 1.75D-13
 IDIUse=1 WtCom= 1.00D+00 WtEn= 0.00D+00
 Coeff-Com:  0.164D-05-0.259D-04 0.303D-03-0.185D-02 0.821D-02-0.227D-01
 Coeff-Com:  0.457D-01-0.110D+00 0.258D+00-0.625D+00 0.145D+01
 Coeff:      0.164D-05-0.259D-04 0.303D-03-0.185D-02 0.821D-02-0.227D-01
 Coeff:      0.457D-01-0.110D+00 0.258D+00-0.625D+00 0.145D+01
 Gap=     0.518 Goal=   None    Shift=    0.000
 RMSDP=8.93D-09 MaxDP=7.52D-08 DE=-9.66D-13 OVMax= 5.05D-08

 Cycle  12  Pass 2  IDiag  1:
 SCF Done:  E(RPM3) = -0.865525330625E-01 A.U. after   12 cycles
            NFock= 11  Conv=0.89D-08     -V/T= 0.9985
 KE=-5.968496321471D+01 PE=-2.561652756085D+02 EE= 1.448046794662D+02
 Leave Link  502 at Wed Sep  7 15:36:31 2022, MaxMem=   131072000 cpu:               0.0 elap:               0.0
 (Enter /opt/g16/l601.exe)
 Copying SCF densities to generalized density rwf, IOpCl= 0 IROHF=0.

 **********************************************************************

            Population analysis using the SCF density.

 **********************************************************************

 Orbital symmetries:
       Occupied  (A) (A) (A) (A) (A) (A) (A) (A) (A) (A) (A) (A)
                 (A) (A) (A) (A) (A) (A) (A)
       Virtual   (A) (A) (A) (A) (A) (A) (A) (A) (A) (A) (A) (A)
                 (A) (A) (A) (A) (A)
 The electronic state is 1-A.
 Alpha  occ. eigenvalues --   -1.51022  -1.24380  -1.22113  -0.96732  -0.79886
 Alpha  occ. eigenvalues --   -0.75021  -0.67446  -0.60159  -0.58332  -0.55901
 Alpha  occ. eigenvalues --   -0.54216  -0.52484  -0.48924  -0.48412  -0.46549
 Alpha  occ. eigenvalues --   -0.44543  -0.43376  -0.42026  -0.40521
 Alpha virt. eigenvalues --    0.11225   0.12431   0.13251   0.13789   0.14163
 Alpha virt. eigenvalues --    0.14653   0.14969   0.15263   0.15622   0.16144
 Alpha virt. eigenvalues --    0.17120   0.17261   0.17358   0.18133   0.18913
 Alpha virt. eigenvalues --    0.19082   0.20391
          Condensed to atoms (all electrons):
               1          2          3          4          5          6
     1  C    4.091929   0.000000   0.000000   0.000000   0.000000   0.000000
     2  H    0.000000   0.954322   0.000000   0.000000   0.000000   0.000000
     3  H    0.000000   0.000000   0.958024   0.000000   0.000000   0.000000
     4  H    0.000000   0.000000   0.000000   0.957073   0.000000   0.000000
     5  C    0.000000   0.000000   0.000000   0.000000   4.151476   0.000000
     6  H    0.000000   0.000000   0.000000   0.000000   0.000000   0.936912
     7  H    0.000000   0.000000   0.000000   0.000000   0.000000   0.000000
     8  C    0.000000   0.000000   0.000000   0.000000   0.000000   0.000000
     9  H    0.000000   0.000000   0.000000   0.000000   0.000000   0.000000
    10  O    0.000000   0.000000   0.000000   0.000000   0.000000   0.000000
    11  C    0.000000   0.000000   0.000000   0.000000   0.000000   0.000000
    12  H    0.000000   0.000000   0.000000   0.000000   0.000000   0.000000
    13  H    0.000000   0.000000   0.000000   0.000000   0.000000   0.000000
    14  H    0.000000   0.000000   0.000000   0.000000   0.000000   0.000000
    15  C    0.000000   0.000000   0.000000   0.000000   0.000000   0.000000
    16  H    0.000000   0.000000   0.000000   0.000000   0.000000   0.000000
    17  H    0.000000   0.000000   0.000000   0.000000   0.000000   0.000000
    18  H    0.000000   0.000000   0.000000   0.000000   0.000000   0.000000
               7          8          9         10         11         12
     1  C    0.000000   0.000000   0.000000   0.000000   0.000000   0.000000
     2  H    0.000000   0.000000   0.000000   0.000000   0.000000   0.000000
     3  H    0.000000   0.000000   0.000000   0.000000   0.000000   0.000000
     4  H    0.000000   0.000000   0.000000   0.000000   0.000000   0.000000
     5  C    0.000000   0.000000   0.000000   0.000000   0.000000   0.000000
     6  H    0.000000   0.000000   0.000000   0.000000   0.000000   0.000000
     7  H    0.944978   0.000000   0.000000   0.000000   0.000000   0.000000
     8  C    0.000000   3.925089   0.000000   0.000000   0.000000   0.000000
     9  H    0.000000   0.000000   0.973319   0.000000   0.000000   0.000000
    10  O    0.000000   0.000000   0.000000   6.293136   0.000000   0.000000
    11  C    0.000000   0.000000   0.000000   0.000000   4.120724   0.000000
    12  H    0.000000   0.000000   0.000000   0.000000   0.000000   0.816017
    13  H    0.000000   0.000000   0.000000   0.000000   0.000000   0.000000
    14  H    0.000000   0.000000   0.000000   0.000000   0.000000   0.000000
    15  C    0.000000   0.000000   0.000000   0.000000   0.000000   0.000000
    16  H    0.000000   0.000000   0.000000   0.000000   0.000000   0.000000
    17  H    0.000000   0.000000   0.000000   0.000000   0.000000   0.000000
    18  H    0.000000   0.000000   0.000000   0.000000   0.000000   0.000000
              13         14         15         16         17         18
     1  C    0.000000   0.000000   0.000000   0.000000   0.000000   0.000000
     2  H    0.000000   0.000000   0.000000   0.000000   0.000000   0.000000
     3  H    0.000000   0.000000   0.000000   0.000000   0.000000   0.000000
     4  H    0.000000   0.000000   0.000000   0.000000   0.000000   0.000000
     5  C    0.000000   0.000000   0.000000   0.000000   0.000000   0.000000
     6  H    0.000000   0.000000   0.000000   0.000000   0.000000   0.000000
     7  H    0.000000   0.000000   0.000000   0.000000   0.000000   0.000000
     8  C    0.000000   0.000000   0.000000   0.000000   0.000000   0.000000
     9  H    0.000000   0.000000   0.000000   0.000000   0.000000   0.000000
    10  O    0.000000   0.000000   0.000000   0.000000   0.000000   0.000000
    11  C    0.000000   0.000000   0.000000   0.000000   0.000000   0.000000
    12  H    0.000000   0.000000   0.000000   0.000000   0.000000   0.000000
    13  H    0.940933   0.000000   0.000000   0.000000   0.000000   0.000000
    14  H    0.000000   0.940875   0.000000   0.000000   0.000000   0.000000
    15  C    0.000000   0.000000   4.105912   0.000000   0.000000   0.000000
    16  H    0.000000   0.000000   0.000000   0.970328   0.000000   0.000000
    17  H    0.000000   0.000000   0.000000   0.000000   0.958046   0.000000
    18  H    0.000000   0.000000   0.000000   0.000000   0.000000   0.960907
 Mulliken charges:
               1
     1  C   -0.091929
     2  H    0.045678
     3  H    0.041976
     4  H    0.042927
     5  C   -0.151476
     6  H    0.063088
     7  H    0.055022
     8  C    0.074911
     9  H    0.026681
    10  O   -0.293136
    11  C   -0.120724
    12  H    0.183983
    13  H    0.059067
    14  H    0.059125
    15  C   -0.105912
    16  H    0.029672
    17  H    0.041954
    18  H    0.039093
 Sum of Mulliken charges =   0.00000
 Mulliken charges with hydrogens summed into heavy atoms:
               1
     1  C    0.038652
     5  C   -0.033366
     8  C    0.101592
    10  O   -0.109153
    11  C   -0.002533
    15  C    0.004807
 Charge=              0.0000 electrons
 Dipole moment (field-independent basis, Debye):
    X=              0.3108    Y=             -0.5853    Z=              1.2492  Tot=              1.4141
 N-N= 1.709590068239D+02 E-N=-2.561652758689D+02  KE=-5.968496321471D+01
 Leave Link  601 at Wed Sep  7 15:36:31 2022, MaxMem=   131072000 cpu:               0.0 elap:               0.0
 (Enter /opt/g16/l701.exe)
 ... and contract with generalized density number  0.
 Compute integral first derivatives.
 Leave Link  701 at Wed Sep  7 15:36:31 2022, MaxMem=   131072000 cpu:               0.0 elap:               0.0
 (Enter /opt/g16/l702.exe)
 L702 exits ... SP integral derivatives will be done elsewhere.
 Leave Link  702 at Wed Sep  7 15:36:31 2022, MaxMem=   131072000 cpu:               0.0 elap:               0.0
 (Enter /opt/g16/l703.exe)
 Integral derivatives from FoFJK, PRISM(SPDF).
 Compute integral first derivatives, UseDBF=F ICtDFT=           0.
 Calling FoFJK, ICntrl=      2127 FMM=F ISym2X=0 I1Cent= 0 IOpClX= 0 NMat=1 NMatS=1 NMatT=0.
 FoFJK:  IHMeth= 9 ICntrl=    2127 DoSepK=F KAlg= 0 I1Cent=           0 FoldK=F
 IRaf=         0 NMat=       1 IRICut=       1 DoRegI=T DoRafI=F ISym2E= 0 IDoP0=3 IntGTp=3.
 FoFCou: FMM=F IPFlag=           0 FMFlag=      100000 FMFlg1=         800
         NFxFlg=           0 DoJE=F BraDBF=F KetDBF=F FulRan=T
         wScrn=  0.000000 ICntrl=      2127 IOpCl=  0 I1Cent=           0 NGrid=           0
         NMat0=    1 NMatS0=      1 NMatT0=    0 NMatD0=    1 NMtDS0=    0 NMtDT0=    0
 Symmetry not used in FoFCou.
 Leave Link  703 at Wed Sep  7 15:36:31 2022, MaxMem=   131072000 cpu:               0.0 elap:               0.0
 (Enter /opt/g16/l716.exe)
 Dipole        = 1.22290887D-01-2.30284872D-01 4.91475592D-01
 ***** Axes restored to original set *****
 -------------------------------------------------------------------
 Center     Atomic                   Forces (Hartrees/Bohr)
 Number     Number              X              Y              Z
 -------------------------------------------------------------------
      1        6          -0.010782196   -0.006986812    0.021140559
      2        1           0.004959403   -0.011702609   -0.003438728
      3        1           0.006941373   -0.002165666    0.001838707
      4        1           0.014589333    0.008572391   -0.012158578
      5        6          -0.011753293    0.061939834   -0.004564162
      6        1           0.011151356   -0.002550359    0.014375725
      7        1           0.007602265   -0.005410491   -0.007174269
      8        6           0.012175239   -0.046472355   -0.017396594
      9        1           0.000527582    0.000502432    0.006507298
     10        8           0.026046315   -0.050009719    0.017360318
     11        6          -0.035839928   -0.012660231   -0.021340688
     12        1          -0.030076843    0.026989557    0.012843066
     13        1          -0.018304521    0.019035028    0.014932369
     14        1           0.017801957    0.018636177   -0.023075929
     15        6           0.007186818    0.003827479    0.014927836
     16        1          -0.011599513    0.017392495   -0.023481896
     17        1          -0.000653854   -0.011426381    0.007107245
     18        1           0.010028507   -0.007510768    0.001597722
 -------------------------------------------------------------------
 Cartesian Forces:  Max     0.061939834 RMS     0.018912792
 Leave Link  716 at Wed Sep  7 15:36:31 2022, MaxMem=   131072000 cpu:               0.0 elap:               0.0
 (Enter /opt/g16/l103.exe)

 GradGradGradGradGradGradGradGradGradGradGradGradGradGradGradGradGradGrad
 Berny optimization.
 FormGI is forming the generalized inverse of G from B-inverse, IUseBI=4.
 Internal  Forces:  Max     0.049946160 RMS     0.013083498
 Search for a local minimum.
 Step number   1 out of a maximum of   97
 All quantities printed in internal units (Hartrees-Bohrs-Radians)
 RMS Force = .13083D-01 SwitMx=.10000D-02 MixMth= 1
 Mixed Optimization -- RFO/linear search
 Second derivative matrix not updated -- first step.
 ITU=  0
     Eigenvalues ---    0.00392   0.00996   0.01047   0.01092   0.01685
     Eigenvalues ---    0.03309   0.03472   0.04453   0.04762   0.05026
     Eigenvalues ---    0.05219   0.05271   0.05702   0.05982   0.06600
     Eigenvalues ---    0.07882   0.08710   0.10011   0.12580   0.13237
     Eigenvalues ---    0.16000   0.16000   0.16000   0.16000   0.16000
     Eigenvalues ---    0.16000   0.16000   0.17656   0.20483   0.21874
     Eigenvalues ---    0.21875   0.29581   0.29879   0.30286   0.30313
     Eigenvalues ---    0.30626   0.32607   0.34273   0.34709   0.34870
     Eigenvalues ---    0.35103   0.35547   0.35655   0.36872   0.38283
     Eigenvalues ---    0.38435   0.45541   0.48725
 RFO step:  Lambda=-4.61196468D-02 EMin= 3.91626926D-03
 Linear search not attempted -- first point.
 Maximum step size (   0.300) exceeded in Quadratic search.
    -- Step size scaled by   0.793
 Iteration  1 RMS(Cart)=  0.06372188 RMS(Int)=  0.00238208
 Iteration  2 RMS(Cart)=  0.00299940 RMS(Int)=  0.00053767
 Iteration  3 RMS(Cart)=  0.00000817 RMS(Int)=  0.00053763
 Iteration  4 RMS(Cart)=  0.00000000 RMS(Int)=  0.00053763
 ITry= 1 IFail=0 DXMaxC= 3.25D-01 DCOld= 1.00D+10 DXMaxT= 3.00D-01 DXLimC= 3.00D+00 Rises=F
 Variable       Old X    -DE/DX   Delta X   Delta X   Delta X     New X
                                 (Linear)    (Quad)   (Total)
    R1        2.09747  -0.00933   0.00000  -0.01988  -0.01988   2.07759
    R2        2.04796   0.00520   0.00000   0.01027   0.01027   2.05823
    R3        2.14098  -0.01971   0.00000  -0.04478  -0.04478   2.09619
    R4        2.80172   0.01957   0.00000   0.03991   0.03991   2.84164
    R5        2.13433  -0.01041   0.00000  -0.02343  -0.02343   2.11089
    R6        2.14905  -0.01100   0.00000  -0.02530  -0.02530   2.12376
    R7        2.78808   0.04561   0.00000   0.09107   0.09107   2.87915
    R8        2.14044  -0.00313   0.00000  -0.00711  -0.00711   2.13333
    R9        2.64652   0.03320   0.00000   0.05249   0.05249   2.69902
   R10        2.79450   0.04995   0.00000   0.10071   0.10071   2.89522
   R11        1.87874  -0.03745   0.00000  -0.05568  -0.05568   1.82307
   R12        2.02739   0.02950   0.00000   0.05638   0.05638   2.08377
   R13        2.00437   0.03377   0.00000   0.06221   0.06221   2.06657
   R14        2.88806  -0.00403   0.00000  -0.00936  -0.00936   2.87871
   R15        2.00655   0.03057   0.00000   0.05651   0.05651   2.06306
   R16        2.05886   0.00943   0.00000   0.01893   0.01893   2.07779
   R17        2.04625   0.01029   0.00000   0.02026   0.02026   2.06651
    A1        1.97096  -0.00886   0.00000  -0.03951  -0.03953   1.93142
    A2        1.86687  -0.00500   0.00000  -0.01168  -0.01279   1.85408
    A3        1.86732   0.00967   0.00000   0.03746   0.03692   1.90424
    A4        1.92009  -0.00645   0.00000  -0.02579  -0.02593   1.89416
    A5        1.95004   0.00294   0.00000   0.00805   0.00797   1.95801
    A6        1.88444   0.00847   0.00000   0.03522   0.03463   1.91907
    A7        2.06244  -0.00812   0.00000  -0.05543  -0.05478   2.00765
    A8        1.84904   0.00697   0.00000   0.02676   0.02793   1.87697
    A9        2.09974  -0.01908   0.00000  -0.05662  -0.05677   2.04297
   A10        1.80925  -0.00222   0.00000  -0.00030  -0.00150   1.80774
   A11        1.77748   0.01855   0.00000   0.06544   0.06313   1.84061
   A12        1.83512   0.00689   0.00000   0.03453   0.03456   1.86967
   A13        1.88211   0.00246   0.00000   0.00450   0.00468   1.88680
   A14        1.98995  -0.00528   0.00000  -0.02645  -0.02629   1.96366
   A15        1.99774  -0.00830   0.00000  -0.02656  -0.02637   1.97137
   A16        1.88527  -0.00221   0.00000  -0.00809  -0.00878   1.87649
   A17        1.83074   0.00418   0.00000   0.03005   0.02997   1.86070
   A18        1.86874   0.00999   0.00000   0.03142   0.03085   1.89960
   A19        1.65600   0.03727   0.00000   0.14337   0.14337   1.79937
   A20        1.91453  -0.00045   0.00000   0.00740   0.00730   1.92183
   A21        1.96262   0.00063   0.00000  -0.01135  -0.01202   1.95059
   A22        1.98419  -0.00269   0.00000  -0.00985  -0.01037   1.97382
   A23        1.83482  -0.00022   0.00000   0.00400   0.00439   1.83920
   A24        1.77644   0.00665   0.00000   0.04311   0.04321   1.81965
   A25        1.97460  -0.00305   0.00000  -0.02502  -0.02544   1.94916
   A26        1.95988  -0.00560   0.00000  -0.01558  -0.01587   1.94401
   A27        1.89713   0.00483   0.00000   0.02029   0.02017   1.91731
   A28        2.03307  -0.00840   0.00000  -0.04048  -0.04083   1.99224
   A29        1.79281   0.00571   0.00000   0.03973   0.03968   1.83249
   A30        1.83638   0.00694   0.00000   0.02341   0.02295   1.85933
   A31        1.92936  -0.00188   0.00000  -0.01824  -0.01840   1.91095
    D1        1.35018  -0.00302   0.00000  -0.01701  -0.01821   1.33197
    D2       -0.66690  -0.00065   0.00000  -0.00441  -0.00461  -0.67151
    D3       -2.74026  -0.00319   0.00000  -0.03564  -0.03513  -2.77539
    D4       -0.81532  -0.00047   0.00000   0.00153   0.00066  -0.81467
    D5       -2.83240   0.00191   0.00000   0.01413   0.01425  -2.81815
    D6        1.37743  -0.00063   0.00000  -0.01710  -0.01626   1.36116
    D7       -2.92896   0.00013   0.00000   0.00529   0.00465  -2.92431
    D8        1.33715   0.00250   0.00000   0.01788   0.01825   1.35539
    D9       -0.73621  -0.00004   0.00000  -0.01334  -0.01227  -0.74848
   D10       -1.04568   0.00601   0.00000   0.04550   0.04596  -0.99971
   D11        1.04768   0.00163   0.00000   0.02183   0.02204   1.06972
   D12       -3.07543   0.00401   0.00000   0.02062   0.02121  -3.05422
   D13        1.27458  -0.00297   0.00000  -0.01549  -0.01659   1.25798
   D14       -2.91526  -0.00735   0.00000  -0.03916  -0.04051  -2.95577
   D15       -0.75518  -0.00496   0.00000  -0.04037  -0.04134  -0.79652
   D16       -3.12602   0.00328   0.00000   0.01783   0.01859  -3.10743
   D17       -1.03267  -0.00109   0.00000  -0.00584  -0.00533  -1.03800
   D18        1.12741   0.00129   0.00000  -0.00705  -0.00616   1.12125
   D19       -1.70599  -0.00085   0.00000   0.00629   0.00599  -1.70000
   D20        0.38558  -0.00261   0.00000  -0.01036  -0.01011   0.37547
   D21        2.34901   0.00596   0.00000   0.03550   0.03555   2.38456
   D22       -1.55122   0.00450   0.00000   0.03310   0.03314  -1.51807
   D23        0.48388   0.00433   0.00000   0.03592   0.03590   0.51978
   D24        2.75635  -0.00187   0.00000  -0.01914  -0.01905   2.73730
   D25        2.67278   0.00325   0.00000   0.02227   0.02259   2.69536
   D26       -1.57531   0.00308   0.00000   0.02509   0.02534  -1.54996
   D27        0.69716  -0.00312   0.00000  -0.02996  -0.02961   0.66756
   D28        0.67240  -0.00050   0.00000   0.00401   0.00367   0.67607
   D29        2.70750  -0.00067   0.00000   0.00683   0.00643   2.71393
   D30       -1.30322  -0.00687   0.00000  -0.04823  -0.04852  -1.35174
   D31       -3.01937   0.00479   0.00000   0.04354   0.04333  -2.97604
   D32        1.29239  -0.00192   0.00000  -0.00799  -0.00807   1.28433
   D33       -0.90028   0.00299   0.00000   0.03074   0.03072  -0.86956
   D34        1.20664   0.00255   0.00000   0.01321   0.01297   1.21961
   D35       -0.76478  -0.00416   0.00000  -0.03832  -0.03842  -0.80320
   D36       -2.95745   0.00075   0.00000   0.00041   0.00036  -2.95709
   D37       -0.75290   0.00038   0.00000  -0.00500  -0.00487  -0.75776
   D38       -2.72432  -0.00633   0.00000  -0.05653  -0.05626  -2.78058
   D39        1.36620  -0.00141   0.00000  -0.01780  -0.01748   1.34872
         Item               Value     Threshold  Converged?
 Maximum Force            0.049946     0.000450     NO 
 RMS     Force            0.013083     0.000300     NO 
 Maximum Displacement     0.324623     0.001800     NO 
 RMS     Displacement     0.063079     0.001200     NO 
 Predicted change in Energy=-2.475296D-02
 Lowest energy point so far.  Saving SCF results.
 GradGradGradGradGradGradGradGradGradGradGradGradGradGradGradGradGradGrad

 Leave Link  103 at Wed Sep  7 15:36:31 2022, MaxMem=   131072000 cpu:               0.0 elap:               0.0
 (Enter /opt/g16/l202.exe)
                          Input orientation:                          
 ---------------------------------------------------------------------
 Center     Atomic      Atomic             Coordinates (Angstroms)
 Number     Number       Type             X           Y           Z
 ---------------------------------------------------------------------
      1          6           0        4.081717    4.810789    6.294431
      2          1           0        4.539012    5.667227    6.810287
      3          1           0        4.838104    4.231425    5.766694
      4          1           0        3.637903    4.172945    7.086035
      5          6           0        3.003361    5.309861    5.372869
      6          1           0        3.369282    5.776518    4.426241
      7          1           0        2.474628    6.152782    5.895314
      8          6           0        1.937893    4.307824    4.946257
      9          1           0        2.455214    3.435237    4.450867
     10          8           0        1.195019    3.795103    6.053133
     11          6           0        0.958915    4.879214    3.915533
     12          1           0        1.631256    2.954908    6.238783
     13          1           0        0.129198    5.395602    4.426249
     14          1           0        1.430388    5.639515    3.286580
     15          6           0        0.274726    3.803886    3.081182
     16          1           0       -0.284853    4.239899    2.251346
     17          1           0       -0.478393    3.282298    3.689212
     18          1           0        0.960630    3.072967    2.643985
 ---------------------------------------------------------------------
                    Distance matrix (angstroms):
                    1          2          3          4          5
     1  C    0.000000
     2  H    1.099414   0.000000
     3  H    1.089170   1.800019   0.000000
     4  H    1.109258   1.766611   1.784535   0.000000
     5  C    1.503729   2.133566   2.164348   2.151781   0.000000
     6  H    2.220435   2.657797   2.518246   3.117388   1.117037
     7  H    2.131425   2.309680   3.048635   2.586654   1.123844
     8  C    2.581962   3.476838   3.014992   2.736215   1.523580
     9  H    2.817159   3.858867   2.836103   2.981120   2.159808
    10  O    3.069669   3.906459   3.680284   2.679054   2.455067
    11  C    3.926287   4.670938   4.346784   4.210448   2.547360
    12  H    3.074435   4.017255   3.483711   2.495612   2.859770
    13  H    4.410727   5.020346   5.032484   4.569503   3.027252
    14  H    4.094325   4.699024   4.443671   4.632473   2.633537
    15  C    5.082519   5.963421   5.312173   5.242710   3.868493
    16  H    5.978243   6.789027   6.213086   6.226292   4.658441
    17  H    5.469740   6.372076   5.786356   5.410688   4.366729
    18  H    5.107540   6.073967   5.111569   5.301844   4.077162
                    6          7          8          9         10
     6  H    0.000000
     7  H    1.760726   0.000000
     8  C    2.115739   2.143050   0.000000
     9  H    2.513509   3.077639   1.128911   0.000000
    10  O    3.361578   2.687184   1.428258   2.069988   0.000000
    11  C    2.622184   2.799803   1.532082   2.147223   2.408397
    12  H    3.777238   3.325003   1.896057   2.026392   0.964726
    13  H    3.262398   2.869236   2.173717   3.042037   2.518794
    14  H    2.253199   2.856462   2.187576   2.695306   3.333327
    15  C    3.908546   4.275070   2.549232   2.601243   3.111191
    16  H    4.521512   4.955034   3.493961   3.604628   4.103834
    17  H    4.644238   4.671927   2.910379   3.034726   2.941326
    18  H    4.035744   4.727430   2.789332   2.372729   3.492665
                   11         12         13         14         15
    11  C    0.000000
    12  H    3.090710   0.000000
    13  H    1.102686   3.390936   0.000000
    14  H    1.093584   3.995368   1.746835   0.000000
    15  C    1.523347   3.539969   2.089005   2.178824   0.000000
    16  H    2.173753   4.606770   2.497456   2.443908   1.091725
    17  H    2.160374   3.325374   2.319147   3.059743   1.099520
    18  H    2.208929   3.658722   3.043415   2.687149   1.093549
                   16         17         18
    16  H    0.000000
    17  H    1.738366   0.000000
    18  H    1.751321   1.790840   0.000000
 Stoichiometry    C5H12O
 Framework group  C1[X(C5H12O)]
 Deg. of freedom    48
 Full point group                 C1      NOp   1
 RotChk:  IX=0 Diff= 1.37D-02
 Largest Abelian subgroup         C1      NOp   1
 Largest concise Abelian subgroup C1      NOp   1
                         Standard orientation:                         
 ---------------------------------------------------------------------
 Center     Atomic      Atomic             Coordinates (Angstroms)
 Number     Number       Type             X           Y           Z
 ---------------------------------------------------------------------
      1          6           0        2.551589   -0.169843    0.323020
      2          1           0        3.381505   -0.559994   -0.283390
      3          1           0        2.683955   -0.434496    1.371222
      4          1           0        2.592546    0.934791    0.230493
      5          6           0        1.252124   -0.683534   -0.232600
      6          1           0        1.022954   -1.749577    0.009898
      7          1           0        1.338048   -0.680477   -1.353150
      8          6           0       -0.009041    0.093953    0.122748
      9          1           0       -0.092201    0.132286    1.247939
     10          8           0        0.026910    1.440615   -0.351729
     11          6           0       -1.288223   -0.576675   -0.388358
     12          1           0        0.315465    1.937737    0.423062
     13          1           0       -1.498527   -0.254257   -1.421671
     14          1           0       -1.183316   -1.664014   -0.439500
     15          6           0       -2.530453   -0.167305    0.392581
     16          1           0       -3.391976   -0.779835    0.119727
     17          1           0       -2.816642    0.860547    0.126950
     18          1           0       -2.423068   -0.247209    1.477907
 ---------------------------------------------------------------------
 Rotational constants (GHZ):           6.8009366           1.8783330           1.6403922
 Leave Link  202 at Wed Sep  7 15:36:31 2022, MaxMem=   131072000 cpu:               0.0 elap:               0.0
 (Enter /opt/g16/l301.exe)
 Standard basis: VSTO-6G (5D, 7F)
 Ernie: Thresh=  0.10000D-02 Tol=  0.10000D-05 Strict=F.
  NNHCO=     0 NNPyr=     0 NCTC=     0               EPep=         0.000000000
    EC=       127.148439709  ECS=         2.191979322   EG=         0.565702240
   EHC=         0.000000000  EAt=       -36.836480110  AtH=         2.452923921
 EPDDG=         0.000000000  ECC=       129.906121270 EAtT=        39.289404030
 There are    36 symmetry adapted cartesian basis functions of A   symmetry.
 There are    36 symmetry adapted basis functions of A   symmetry.
    36 basis functions,   216 primitive gaussians,    36 cartesian basis functions
    19 alpha electrons       19 beta electrons
       nuclear repulsion energy       169.1955253004 Hartrees.
 IExCor=    0 DFT=F Ex=HF Corr=None ExCW=0 ScaHFX=  1.000000
 ScaDFX=  1.000000  1.000000  1.000000  1.000000 ScalE2=  1.000000  1.000000
 IRadAn=      5 IRanWt=     -1 IRanGd=            0 ICorTp=0 IEmpDi=  4
 Integral buffers will be    131072 words long.
 Regular integral format.
 Two-electron integral symmetry is turned off.
 Leave Link  301 at Wed Sep  7 15:36:31 2022, MaxMem=   131072000 cpu:               0.0 elap:               0.0
 (Enter /opt/g16/l302.exe)
 Do NDO integrals.
 NPDir=0 NMtPBC=     1 NCelOv=     1 NCel=       1 NClECP=     1 NCelD=      1
         NCelK=      1 NCelE2=     1 NClLst=     1 CellRange=     0.0.
 One-electron integrals computed using PRISM.
 NBasis=    36 RedAO= F EigKep=  0.00D+00  NBF=    36
 NBsUse=    36 1.00D-04 EigRej=  0.00D+00 NBFU=    36
 Leave Link  302 at Wed Sep  7 15:36:31 2022, MaxMem=   131072000 cpu:               0.0 elap:               0.0
 (Enter /opt/g16/l303.exe)
 DipDrv:  MaxL=1.
 Leave Link  303 at Wed Sep  7 15:36:31 2022, MaxMem=   131072000 cpu:               0.0 elap:               0.0
 (Enter /opt/g16/l401.exe)
 Initial guess from the checkpoint file:  "MD_extract_023_gaussian.chk"
 B after Tr=    -0.000000    0.000000    0.000000
         Rot=    0.999984   -0.000760   -0.000242    0.005659 Ang=  -0.65 deg.
 Guess basis will be translated and rotated to current coordinates.
 JPrj=0 DoOrth=T DoCkMO=T.
 Leave Link  401 at Wed Sep  7 15:36:31 2022, MaxMem=   131072000 cpu:               0.0 elap:               0.0
 (Enter /opt/g16/l502.exe)
 Keep J ints in memory in canonical form, NReq=862161.
 FoFCou: FMM=F IPFlag=           0 FMFlag=           0 FMFlg1=           0
         NFxFlg=           0 DoJE=F BraDBF=F KetDBF=F FulRan=T
         wScrn=  0.000000 ICntrl=       600 IOpCl=  2 I1Cent=           0 NGrid=           0
         NMat0=    1 NMatS0=     72 NMatT0=    0 NMatD0=    1 NMtDS0=    0 NMtDT0=    0
 Symmetry not used in FoFCou.
 Two-electron integral symmetry not used.
 Closed shell SCF:
 Using DIIS extrapolation, IDIIS=  1040.
 Overlap will be assumed to be unity.
 NGot=   131072000 LenX=   131006778 LenY=   131005041
 Requested convergence on RMS density matrix=1.00D-08 within 128 cycles.
 Requested convergence on MAX density matrix=1.00D-06.
 Requested convergence on             energy=1.00D-06.
 No special actions if energy rises.

 Cycle   1  Pass 1  IDiag  1:
 E=-0.102099914126200    
 DIIS: error= 5.63D-03 at cycle   1 NSaved=   1.
 NSaved= 1 IEnMin= 1 EnMin=-0.102099914126200     IErMin= 1 ErrMin= 5.63D-03
 ErrMax= 5.63D-03  0.00D+00 EMaxC= 1.00D-01 BMatC= 1.77D-03 BMatP= 1.77D-03
 IDIUse=3 WtCom= 9.44D-01 WtEn= 5.63D-02
 Coeff-Com:  0.100D+01
 Coeff-En:   0.100D+01
 Coeff:      0.100D+01
 GapD=    2.000 DampG=2.000 DampE=1.000 DampFc=2.0000 IDamp=-1.
 RMSDP=1.98D-03 MaxDP=1.11D-02              OVMax= 0.00D+00

 Cycle   2  Pass 1  IDiag  3:
 E=-0.107737980079548     Delta-E=       -0.005638065953 Rises=F Damp=F
 DIIS: error= 2.61D-03 at cycle   2 NSaved=   2.
 NSaved= 2 IEnMin= 2 EnMin=-0.107737980079548     IErMin= 2 ErrMin= 2.61D-03
 ErrMax= 2.61D-03  0.00D+00 EMaxC= 1.00D-01 BMatC= 2.43D-04 BMatP= 1.77D-03
 IDIUse=3 WtCom= 9.74D-01 WtEn= 2.61D-02
 Coeff-Com: -0.492D+00 0.149D+01
 Coeff-En:   0.000D+00 0.100D+01
 Coeff:     -0.479D+00 0.148D+01
 Gap=     0.518 Goal=   None    Shift=    0.000
 RMSDP=1.21D-03 MaxDP=7.66D-03 DE=-5.64D-03 OVMax= 7.14D-03

 Cycle   3  Pass 1  IDiag  3:
 E=-0.108840506730957     Delta-E=       -0.001102526651 Rises=F Damp=F
 DIIS: error= 6.06D-04 at cycle   3 NSaved=   3.
 NSaved= 3 IEnMin= 3 EnMin=-0.108840506730957     IErMin= 3 ErrMin= 6.06D-04
 ErrMax= 6.06D-04  0.00D+00 EMaxC= 1.00D-01 BMatC= 9.66D-06 BMatP= 2.43D-04
 IDIUse=3 WtCom= 9.94D-01 WtEn= 6.06D-03
 Coeff-Com:  0.199D+00-0.724D+00 0.152D+01
 Coeff-En:   0.000D+00 0.000D+00 0.100D+01
 Coeff:      0.198D+00-0.720D+00 0.152D+01
 Gap=     0.518 Goal=   None    Shift=    0.000
 RMSDP=3.12D-04 MaxDP=2.65D-03 DE=-1.10D-03 OVMax= 3.01D-03

 Cycle   4  Pass 1  IDiag  3:
 E=-0.108895414559072     Delta-E=       -0.000054907828 Rises=F Damp=F
 DIIS: error= 1.27D-04 at cycle   4 NSaved=   4.
 NSaved= 4 IEnMin= 4 EnMin=-0.108895414559072     IErMin= 4 ErrMin= 1.27D-04
 ErrMax= 1.27D-04  0.00D+00 EMaxC= 1.00D-01 BMatC= 3.76D-07 BMatP= 9.66D-06
 IDIUse=3 WtCom= 9.99D-01 WtEn= 1.27D-03
 Coeff-Com: -0.882D-01 0.331D+00-0.809D+00 0.157D+01
 Coeff-En:   0.000D+00 0.000D+00 0.000D+00 0.100D+01
 Coeff:     -0.881D-01 0.331D+00-0.808D+00 0.157D+01
 Gap=     0.518 Goal=   None    Shift=    0.000
 RMSDP=6.69D-05 MaxDP=7.73D-04 DE=-5.49D-05 OVMax= 9.36D-04

 Cycle   5  Pass 1  IDiag  3:
 E=-0.108897840543506     Delta-E=       -0.000002425984 Rises=F Damp=F
 DIIS: error= 4.12D-05 at cycle   5 NSaved=   5.
 NSaved= 5 IEnMin= 5 EnMin=-0.108897840543506     IErMin= 5 ErrMin= 4.12D-05
 ErrMax= 4.12D-05  0.00D+00 EMaxC= 1.00D-01 BMatC= 2.59D-08 BMatP= 3.76D-07
 IDIUse=1 WtCom= 1.00D+00 WtEn= 0.00D+00
 Coeff-Com:  0.471D-01-0.178D+00 0.447D+00-0.103D+01 0.171D+01
 Coeff:      0.471D-01-0.178D+00 0.447D+00-0.103D+01 0.171D+01
 Gap=     0.518 Goal=   None    Shift=    0.000
 RMSDP=2.00D-05 MaxDP=2.49D-04 DE=-2.43D-06 OVMax= 2.65D-04

 Cycle   6  Pass 1  IDiag  3:
 E=-0.108898022545077     Delta-E=       -0.000000182002 Rises=F Damp=F
 DIIS: error= 7.46D-06 at cycle   6 NSaved=   6.
 NSaved= 6 IEnMin= 6 EnMin=-0.108898022545077     IErMin= 6 ErrMin= 7.46D-06
 ErrMax= 7.46D-06  0.00D+00 EMaxC= 1.00D-01 BMatC= 1.03D-09 BMatP= 2.59D-08
 IDIUse=1 WtCom= 1.00D+00 WtEn= 0.00D+00
 Coeff-Com: -0.136D-01 0.517D-01-0.131D+00 0.319D+00-0.674D+00 0.145D+01
 Coeff:     -0.136D-01 0.517D-01-0.131D+00 0.319D+00-0.674D+00 0.145D+01
 Gap=     0.518 Goal=   None    Shift=    0.000
 RMSDP=3.62D-06 MaxDP=4.26D-05 DE=-1.82D-07 OVMax= 3.34D-05

 Cycle   7  Pass 1  IDiag  3:
 E=-0.108898028900171     Delta-E=       -0.000000006355 Rises=F Damp=F
 DIIS: error= 1.05D-06 at cycle   7 NSaved=   7.
 NSaved= 7 IEnMin= 7 EnMin=-0.108898028900171     IErMin= 7 ErrMin= 1.05D-06
 ErrMax= 1.05D-06  0.00D+00 EMaxC= 1.00D-01 BMatC= 3.86D-11 BMatP= 1.03D-09
 IDIUse=1 WtCom= 1.00D+00 WtEn= 0.00D+00
 Coeff-Com:  0.345D-02-0.131D-01 0.333D-01-0.823D-01 0.185D+00-0.519D+00
 Coeff-Com:  0.139D+01
 Coeff:      0.345D-02-0.131D-01 0.333D-01-0.823D-01 0.185D+00-0.519D+00
 Coeff:      0.139D+01
 Gap=     0.518 Goal=   None    Shift=    0.000
 RMSDP=6.10D-07 MaxDP=5.99D-06 DE=-6.36D-09 OVMax= 4.01D-06

 Cycle   8  Pass 1  IDiag  3:
 E=-0.108898029112225     Delta-E=       -0.000000000212 Rises=F Damp=F
 DIIS: error= 1.53D-07 at cycle   8 NSaved=   8.
 NSaved= 8 IEnMin= 8 EnMin=-0.108898029112225     IErMin= 8 ErrMin= 1.53D-07
 ErrMax= 1.53D-07  0.00D+00 EMaxC= 1.00D-01 BMatC= 1.63D-12 BMatP= 3.86D-11
 IDIUse=1 WtCom= 1.00D+00 WtEn= 0.00D+00
 Coeff-Com: -0.689D-03 0.262D-02-0.671D-02 0.168D-01-0.388D-01 0.122D+00
 Coeff-Com: -0.480D+00 0.138D+01
 Coeff:     -0.689D-03 0.262D-02-0.671D-02 0.168D-01-0.388D-01 0.122D+00
 Coeff:     -0.480D+00 0.138D+01
 Gap=     0.518 Goal=   None    Shift=    0.000
 RMSDP=1.24D-07 MaxDP=7.93D-07 DE=-2.12D-10 OVMax= 8.15D-07

 Cycle   9  Pass 1  IDiag  3:
 E=-0.108898029121292     Delta-E=       -0.000000000009 Rises=F Damp=F
 DIIS: error= 4.74D-08 at cycle   9 NSaved=   9.
 NSaved= 9 IEnMin= 9 EnMin=-0.108898029121292     IErMin= 9 ErrMin= 4.74D-08
 ErrMax= 4.74D-08  0.00D+00 EMaxC= 1.00D-01 BMatC= 8.23D-14 BMatP= 1.63D-12
 IDIUse=1 WtCom= 1.00D+00 WtEn= 0.00D+00
 Coeff-Com:  0.151D-03-0.579D-03 0.149D-02-0.382D-02 0.901D-02-0.311D-01
 Coeff-Com:  0.145D+00-0.577D+00 0.146D+01
 Coeff:      0.151D-03-0.579D-03 0.149D-02-0.382D-02 0.901D-02-0.311D-01
 Coeff:      0.145D+00-0.577D+00 0.146D+01
 Gap=     0.518 Goal=   None    Shift=    0.000
 RMSDP=2.90D-08 MaxDP=2.55D-07 DE=-9.07D-12 OVMax= 2.15D-07

 Cycle  10  Pass 1  IDiag  3:
 E=-0.108898029121804     Delta-E=       -0.000000000001 Rises=F Damp=F
 DIIS: error= 1.34D-08 at cycle  10 NSaved=  10.
 NSaved=10 IEnMin=10 EnMin=-0.108898029121804     IErMin=10 ErrMin= 1.34D-08
 ErrMax= 1.34D-08  0.00D+00 EMaxC= 1.00D-01 BMatC= 5.63D-15 BMatP= 8.23D-14
 IDIUse=1 WtCom= 1.00D+00 WtEn= 0.00D+00
 Coeff-Com: -0.386D-04 0.148D-03-0.384D-03 0.102D-02-0.249D-02 0.953D-02
 Coeff-Com: -0.496D-01 0.221D+00-0.734D+00 0.155D+01
 Coeff:     -0.386D-04 0.148D-03-0.384D-03 0.102D-02-0.249D-02 0.953D-02
 Coeff:     -0.496D-01 0.221D+00-0.734D+00 0.155D+01
 Gap=     0.518 Goal=   None    Shift=    0.000
 RMSDP=8.15D-09 MaxDP=8.38D-08 DE=-5.12D-13 OVMax= 5.72D-08

 Cycle  11  Pass 2  IDiag  1:
 SCF Done:  E(RPM3) = -0.108898029122     A.U. after   11 cycles
            NFock= 10  Conv=0.81D-08     -V/T= 0.9982
 KE=-5.962223489329D+01 PE=-2.529247475465D+02 EE= 1.432425591103D+02
 Leave Link  502 at Wed Sep  7 15:36:31 2022, MaxMem=   131072000 cpu:               0.0 elap:               0.0
 (Enter /opt/g16/l701.exe)
 ... and contract with generalized density number  0.
 Compute integral first derivatives.
 Leave Link  701 at Wed Sep  7 15:36:31 2022, MaxMem=   131072000 cpu:               0.0 elap:               0.0
 (Enter /opt/g16/l702.exe)
 L702 exits ... SP integral derivatives will be done elsewhere.
 Leave Link  702 at Wed Sep  7 15:36:31 2022, MaxMem=   131072000 cpu:               0.0 elap:               0.0
 (Enter /opt/g16/l703.exe)
 Integral derivatives from FoFJK, PRISM(SPDF).
 Compute integral first derivatives, UseDBF=F ICtDFT=           0.
 Calling FoFJK, ICntrl=      2127 FMM=F ISym2X=0 I1Cent= 0 IOpClX= 0 NMat=1 NMatS=1 NMatT=0.
 FoFJK:  IHMeth= 9 ICntrl=    2127 DoSepK=F KAlg= 0 I1Cent=           0 FoldK=F
 IRaf=         0 NMat=       1 IRICut=       1 DoRegI=T DoRafI=F ISym2E= 0 IDoP0=3 IntGTp=3.
 FoFCou: FMM=F IPFlag=           0 FMFlag=      100000 FMFlg1=         800
         NFxFlg=           0 DoJE=F BraDBF=F KetDBF=F FulRan=T
         wScrn=  0.000000 ICntrl=      2127 IOpCl=  0 I1Cent=           0 NGrid=           0
         NMat0=    1 NMatS0=      1 NMatT0=    0 NMatD0=    1 NMtDS0=    0 NMtDT0=    0
 Symmetry not used in FoFCou.
 Leave Link  703 at Wed Sep  7 15:36:31 2022, MaxMem=   131072000 cpu:               0.0 elap:               0.0
 (Enter /opt/g16/l716.exe)
 Dipole        = 1.19747137D-01-2.15039040D-01 4.98437459D-01
 ***** Axes restored to original set *****
 -------------------------------------------------------------------
 Center     Atomic                   Forces (Hartrees/Bohr)
 Number     Number              X              Y              Z
 -------------------------------------------------------------------
      1        6          -0.010139183   -0.003144887    0.004957833
      2        1           0.004289076   -0.003294883   -0.002241758
      3        1           0.003816675   -0.001057832   -0.000056801
      4        1           0.004955974    0.001906325   -0.004255809
      5        6          -0.017879602    0.024437796   -0.001303274
      6        1           0.006743797   -0.003211249    0.006749330
      7        1           0.003224508   -0.004231273   -0.003308795
      8        6           0.004037792   -0.025062094   -0.006142877
      9        1          -0.000622843    0.003015823    0.003946273
     10        8           0.013718923   -0.010302061   -0.003428647
     11        6          -0.014831784   -0.006760219    0.004702920
     12        1          -0.009288307    0.015769247   -0.000650549
     13        1          -0.000361685    0.006927425    0.004671036
     14        1           0.006718576    0.002753039   -0.005623938
     15        6           0.000838374    0.004248891    0.004835142
     16        1          -0.000848799    0.004048770   -0.004615316
     17        1           0.003219214   -0.004366046    0.000031387
     18        1           0.002409294   -0.001676774    0.001733842
 -------------------------------------------------------------------
 Cartesian Forces:  Max     0.025062094 RMS     0.007704106
 Leave Link  716 at Wed Sep  7 15:36:32 2022, MaxMem=   131072000 cpu:               0.0 elap:               0.0
 (Enter /opt/g16/l103.exe)

 GradGradGradGradGradGradGradGradGradGradGradGradGradGradGradGradGradGrad
 Berny optimization.
 Using GEDIIS/GDIIS optimizer.
 FormGI is forming the generalized inverse of G from B-inverse, IUseBI=4.
 GSVD:  received Info=                   1 from GESDD.
 Internal  Forces:  Max     0.018058931 RMS     0.004020861
 Search for a local minimum.
 Step number   2 out of a maximum of   97
 All quantities printed in internal units (Hartrees-Bohrs-Radians)
 RMS Force = .40209D-02 SwitMx=.10000D-02 MixMth= 1
 Mixed Optimization -- RFO/linear search
 Update second derivatives using D2CorX and points    1    2
 DE= -2.23D-02 DEPred=-2.48D-02 R= 9.03D-01
 TightC=F SS=  1.41D+00  RLast= 3.40D-01 DXNew= 5.0454D-01 1.0204D+00
 Trust test= 9.03D-01 RLast= 3.40D-01 DXMaxT set to 5.05D-01
 ITU=  1  0
 Use linear search instead of GDIIS.
     Eigenvalues ---    0.00392   0.00996   0.01047   0.01092   0.01685
     Eigenvalues ---    0.03549   0.03629   0.04539   0.05106   0.05135
     Eigenvalues ---    0.05142   0.05324   0.05664   0.05817   0.06231
     Eigenvalues ---    0.07714   0.08554   0.09445   0.12356   0.12751
     Eigenvalues ---    0.15751   0.16000   0.16000   0.16000   0.16000
     Eigenvalues ---    0.16000   0.16858   0.17630   0.20265   0.21059
     Eigenvalues ---    0.21886   0.29241   0.29741   0.30149   0.30352
     Eigenvalues ---    0.30577   0.32607   0.34254   0.34857   0.34902
     Eigenvalues ---    0.35484   0.35636   0.36524   0.37689   0.38335
     Eigenvalues ---    0.39791   0.47320   0.53227
 RFO step:  Lambda=-9.44799384D-03 EMin= 3.91574148D-03
 Quartic linear search produced a step of  0.38668.
 Iteration  1 RMS(Cart)=  0.06377348 RMS(Int)=  0.00318661
 Iteration  2 RMS(Cart)=  0.00422964 RMS(Int)=  0.00146372
 Iteration  3 RMS(Cart)=  0.00000705 RMS(Int)=  0.00146371
 Iteration  4 RMS(Cart)=  0.00000001 RMS(Int)=  0.00146371
 ITry= 1 IFail=0 DXMaxC= 1.87D-01 DCOld= 1.00D+10 DXMaxT= 5.05D-01 DXLimC= 3.00D+00 Rises=F
 Variable       Old X    -DE/DX   Delta X   Delta X   Delta X     New X
                                 (Linear)    (Quad)   (Total)
    R1        2.07759  -0.00183  -0.00769  -0.00084  -0.00853   2.06907
    R2        2.05823   0.00324   0.00397   0.00872   0.01269   2.07092
    R3        2.09619  -0.00612  -0.01732  -0.01177  -0.02908   2.06711
    R4        2.84164   0.00297   0.01543  -0.00175   0.01368   2.85532
    R5        2.11089  -0.00485  -0.00906  -0.01316  -0.02222   2.08868
    R6        2.12376  -0.00623  -0.00978  -0.01913  -0.02892   2.09484
    R7        2.87915   0.00416   0.03521  -0.01450   0.02072   2.89987
    R8        2.13333  -0.00435  -0.00275  -0.01662  -0.01937   2.11396
    R9        2.69902  -0.00743   0.02030  -0.03911  -0.01881   2.68020
   R10        2.89522  -0.00010   0.03894  -0.03389   0.00505   2.90027
   R11        1.82307  -0.01806  -0.02153  -0.03138  -0.05291   1.77016
   R12        2.08377   0.00568   0.02180   0.00181   0.02361   2.10739
   R13        2.06657   0.00805   0.02405   0.00730   0.03136   2.09793
   R14        2.87871  -0.00520  -0.00362  -0.02015  -0.02376   2.85494
   R15        2.06306   0.00556   0.02185   0.00064   0.02249   2.08556
   R16        2.07779  -0.00012   0.00732  -0.00674   0.00058   2.07837
   R17        2.06651   0.00194   0.00783   0.00050   0.00834   2.07485
    A1        1.93142  -0.00440  -0.01529  -0.03625  -0.05131   1.88012
    A2        1.85408  -0.00137  -0.00494   0.01321   0.00621   1.86029
    A3        1.90424   0.00436   0.01428   0.02341   0.03672   1.94096
    A4        1.89416  -0.00247  -0.01003  -0.01347  -0.02343   1.87074
    A5        1.95801   0.00043   0.00308  -0.00834  -0.00510   1.95291
    A6        1.91907   0.00336   0.01339   0.02270   0.03505   1.95411
    A7        2.00765  -0.00415  -0.02118  -0.06195  -0.08277   1.92489
    A8        1.87697   0.00503   0.01080   0.03930   0.05306   1.93004
    A9        2.04297  -0.01182  -0.02195  -0.05730  -0.08040   1.96257
   A10        1.80774  -0.00077  -0.00058   0.02453   0.02261   1.83035
   A11        1.84061   0.00958   0.02441   0.03557   0.05212   1.89273
   A12        1.86967   0.00372   0.01336   0.03508   0.04868   1.91835
   A13        1.88680   0.00110   0.00181   0.02212   0.02491   1.91171
   A14        1.96366  -0.00170  -0.01017  -0.03177  -0.04385   1.91981
   A15        1.97137  -0.00339  -0.01020  -0.02883  -0.04065   1.93072
   A16        1.87649   0.00057  -0.00340   0.02755   0.02440   1.90089
   A17        1.86070   0.00327   0.01159   0.04988   0.06186   1.92256
   A18        1.89960   0.00063   0.01193  -0.03065  -0.02189   1.87771
   A19        1.79937   0.00516   0.05544  -0.00839   0.04705   1.84642
   A20        1.92183  -0.00113   0.00282   0.00214   0.00469   1.92651
   A21        1.95059  -0.00013  -0.00465  -0.03595  -0.04301   1.90758
   A22        1.97382  -0.00338  -0.00401  -0.02027  -0.02618   1.94764
   A23        1.83920  -0.00038   0.00170   0.00732   0.00969   1.84889
   A24        1.81965   0.00602   0.01671   0.07658   0.09352   1.91317
   A25        1.94916  -0.00040  -0.00984  -0.01933  -0.03168   1.91748
   A26        1.94401  -0.00202  -0.00614  -0.00112  -0.00792   1.93609
   A27        1.91731   0.00349   0.00780   0.02389   0.03133   1.94864
   A28        1.99224  -0.00352  -0.01579  -0.02722  -0.04337   1.94887
   A29        1.83249   0.00204   0.01534   0.03006   0.04478   1.87727
   A30        1.85933   0.00239   0.00887   0.00570   0.01396   1.87329
   A31        1.91095  -0.00202  -0.00712  -0.02771  -0.03490   1.87606
    D1        1.33197  -0.00170  -0.00704  -0.02010  -0.03053   1.30144
    D2       -0.67151  -0.00172  -0.00178  -0.04151  -0.04356  -0.71508
    D3       -2.77539  -0.00260  -0.01358  -0.07969  -0.09140  -2.86679
    D4       -0.81467   0.00052   0.00025   0.01512   0.01262  -0.80204
    D5       -2.81815   0.00050   0.00551  -0.00630  -0.00041  -2.81856
    D6        1.36116  -0.00037  -0.00629  -0.04447  -0.04825   1.31291
    D7       -2.92431   0.00105   0.00180   0.02206   0.02162  -2.90269
    D8        1.35539   0.00103   0.00706   0.00064   0.00859   1.36398
    D9       -0.74848   0.00015  -0.00474  -0.03753  -0.03925  -0.78773
   D10       -0.99971   0.00351   0.01777   0.06068   0.07926  -0.92045
   D11        1.06972   0.00390   0.00852   0.09014   0.09856   1.16828
   D12       -3.05422   0.00076   0.00820   0.00167   0.01128  -3.04294
   D13        1.25798  -0.00284  -0.00642  -0.03683  -0.04518   1.21281
   D14       -2.95577  -0.00245  -0.01566  -0.00738  -0.02588  -2.98165
   D15       -0.79652  -0.00559  -0.01599  -0.09584  -0.11316  -0.90968
   D16       -3.10743   0.00190   0.00719   0.02013   0.02875  -3.07869
   D17       -1.03800   0.00229  -0.00206   0.04958   0.04805  -0.98995
   D18        1.12125  -0.00085  -0.00238  -0.03888  -0.03923   1.08202
   D19       -1.70000  -0.00131   0.00232  -0.00814  -0.00545  -1.70545
   D20        0.37547  -0.00059  -0.00391   0.01825   0.01438   0.38985
   D21        2.38456   0.00386   0.01375   0.07561   0.08893   2.47349
   D22       -1.51807   0.00406   0.01282   0.08441   0.09684  -1.42123
   D23        0.51978   0.00279   0.01388   0.07284   0.08579   0.60557
   D24        2.73730  -0.00064  -0.00737  -0.00022  -0.00735   2.72995
   D25        2.69536   0.00254   0.00873   0.04155   0.05051   2.74588
   D26       -1.54996   0.00127   0.00980   0.02998   0.03946  -1.51050
   D27        0.66756  -0.00216  -0.01145  -0.04307  -0.05368   0.61388
   D28        0.67607  -0.00014   0.00142  -0.00147   0.00004   0.67611
   D29        2.71393  -0.00141   0.00249  -0.01304  -0.01101   2.70292
   D30       -1.35174  -0.00484  -0.01876  -0.08609  -0.10415  -1.45589
   D31       -2.97604   0.00247   0.01675   0.03493   0.05144  -2.92460
   D32        1.28433  -0.00096  -0.00312  -0.01585  -0.01936   1.26497
   D33       -0.86956   0.00155   0.01188   0.02192   0.03370  -0.83586
   D34        1.21961   0.00182   0.00502  -0.00543  -0.00069   1.21893
   D35       -0.80320  -0.00161  -0.01486  -0.05621  -0.07148  -0.87469
   D36       -2.95709   0.00090   0.00014  -0.01844  -0.01843  -2.97552
   D37       -0.75776  -0.00081  -0.00188  -0.04682  -0.04819  -0.80595
   D38       -2.78058  -0.00425  -0.02175  -0.09760  -0.11899  -2.89956
   D39        1.34872  -0.00174  -0.00676  -0.05983  -0.06593   1.28279
         Item               Value     Threshold  Converged?
 Maximum Force            0.018059     0.000450     NO 
 RMS     Force            0.004021     0.000300     NO 
 Maximum Displacement     0.186639     0.001800     NO 
 RMS     Displacement     0.065151     0.001200     NO 
 Predicted change in Energy=-5.920803D-03
 Lowest energy point so far.  Saving SCF results.
 GradGradGradGradGradGradGradGradGradGradGradGradGradGradGradGradGradGrad

 Leave Link  103 at Wed Sep  7 15:36:32 2022, MaxMem=   131072000 cpu:               0.0 elap:               0.0
 (Enter /opt/g16/l202.exe)
                          Input orientation:                          
 ---------------------------------------------------------------------
 Center     Atomic      Atomic             Coordinates (Angstroms)
 Number     Number       Type             X           Y           Z
 ---------------------------------------------------------------------
      1          6           0        4.036941    4.786538    6.251153
      2          1           0        4.582868    5.582258    6.768458
      3          1           0        4.764062    4.203263    5.674914
[...]
 ! A10   A(6,5,7)              105.7712         -DE/DX =    0.0                 !
 ! A11   A(6,5,8)              109.3408         -DE/DX =    0.0                 !
 ! A12   A(7,5,8)              109.8323         -DE/DX =    0.0                 !
 ! A13   A(5,8,9)              109.3447         -DE/DX =    0.0                 !
 ! A14   A(5,8,10)             111.9608         -DE/DX =    0.0                 !
 ! A15   A(5,8,11)             110.494          -DE/DX =    0.0                 !
 ! A16   A(9,8,10)             107.8069         -DE/DX =    0.0                 !
 ! A17   A(9,8,11)             109.783          -DE/DX =    0.0                 !
 ! A18   A(10,8,11)            107.3879         -DE/DX =    0.0                 !
 ! A19   A(8,10,12)            106.0291         -DE/DX =    0.0                 !
 ! A20   A(8,11,13)            110.056          -DE/DX =    0.0                 !
 ! A21   A(8,11,14)            108.8693         -DE/DX =    0.0                 !
 ! A22   A(8,11,15)            112.2191         -DE/DX =    0.0                 !
 ! A23   A(13,11,14)           105.7695         -DE/DX =    0.0                 !
 ! A24   A(13,11,15)           110.0484         -DE/DX =    0.0                 !
 ! A25   A(14,11,15)           109.6671         -DE/DX =    0.0                 !
 ! A26   A(11,15,16)           111.0666         -DE/DX =    0.0                 !
 ! A27   A(11,15,17)           111.729          -DE/DX =    0.0                 !
 ! A28   A(11,15,18)           111.7226         -DE/DX =    0.0                 !
 ! A29   A(16,15,17)           107.3992         -DE/DX =    0.0                 !
 ! A30   A(16,15,18)           107.3856         -DE/DX =    0.0                 !
 ! A31   A(17,15,18)           107.3004         -DE/DX =    0.0                 !
 ! D1    D(2,1,5,6)             66.1497         -DE/DX =    0.0                 !
 ! D2    D(2,1,5,7)            -50.096          -DE/DX =    0.0                 !
 ! D3    D(2,1,5,8)           -172.3484         -DE/DX =    0.0                 !
 ! D4    D(3,1,5,6)            -54.2981         -DE/DX =    0.0                 !
 ! D5    D(3,1,5,7)           -170.5438         -DE/DX =    0.0                 !
 ! D6    D(3,1,5,8)             67.2038         -DE/DX =    0.0                 !
 ! D7    D(4,1,5,6)           -173.9152         -DE/DX =    0.0                 !
 ! D8    D(4,1,5,7)             69.8391         -DE/DX =    0.0                 !
 ! D9    D(4,1,5,8)            -52.4133         -DE/DX =    0.0                 !
 ! D10   D(1,5,8,9)            -56.5488         -DE/DX =    0.0                 !
 ! D11   D(1,5,8,10)            62.8593         -DE/DX =    0.0                 !
 ! D12   D(1,5,8,11)          -177.4904         -DE/DX =    0.0                 !
 ! D13   D(6,5,8,9)             65.3435         -DE/DX =    0.0                 !
 ! D14   D(6,5,8,10)          -175.2485         -DE/DX =    0.0                 !
 ! D15   D(6,5,8,11)           -55.5982         -DE/DX =    0.0                 !
 ! D16   D(7,5,8,9)           -179.0109         -DE/DX =    0.0                 !
 ! D17   D(7,5,8,10)           -59.6028         -DE/DX =    0.0                 !
 ! D18   D(7,5,8,11)            60.0474         -DE/DX =    0.0                 !
 ! D19   D(5,8,10,12)          -42.8336         -DE/DX =    0.0                 !
 ! D20   D(9,8,10,12)           77.4748         -DE/DX =    0.0                 !
 ! D21   D(11,8,10,12)        -164.29           -DE/DX =    0.0                 !
 ! D22   D(5,8,11,13)          -71.7849         -DE/DX =    0.0                 !
 ! D23   D(5,8,11,14)           43.7156         -DE/DX =    0.0                 !
 ! D24   D(5,8,11,15)          165.3035         -DE/DX =    0.0                 !
 ! D25   D(9,8,11,13)          167.5346         -DE/DX =    0.0                 !
 ! D26   D(9,8,11,14)          -76.9649         -DE/DX =    0.0                 !
 ! D27   D(9,8,11,15)           44.6231         -DE/DX =    0.0                 !
 ! D28   D(10,8,11,13)          50.5863         -DE/DX =    0.0                 !
 ! D29   D(10,8,11,14)         166.0868         -DE/DX =    0.0                 !
 ! D30   D(10,8,11,15)         -72.3253         -DE/DX =    0.0                 !
 ! D31   D(8,11,15,16)        -179.1082         -DE/DX =    0.0                 !
 ! D32   D(8,11,15,17)          60.9928         -DE/DX =    0.0                 !
 ! D33   D(8,11,15,18)         -59.231          -DE/DX =    0.0                 !
 ! D34   D(13,11,15,16)         57.9759         -DE/DX =    0.0                 !
 ! D35   D(13,11,15,17)        -61.923          -DE/DX =    0.0                 !
 ! D36   D(13,11,15,18)        177.8532         -DE/DX =    0.0                 !
 ! D37   D(14,11,15,16)        -57.9779         -DE/DX =    0.0                 !
 ! D38   D(14,11,15,17)       -177.8769         -DE/DX =    0.0                 !
 ! D39   D(14,11,15,18)         61.8994         -DE/DX =    0.0                 !
 --------------------------------------------------------------------------------
 Lowest energy point so far.  Saving SCF results.
 Largest change from initial coordinates is atom   12       0.054 Angstoms.
 GradGradGradGradGradGradGradGradGradGradGradGradGradGradGradGradGradGrad

 Leave Link  103 at Wed Sep  7 15:36:39 2022, MaxMem=   131072000 cpu:               0.0 elap:               0.0
 (Enter /opt/g16/l202.exe)
                          Input orientation:                          
 ---------------------------------------------------------------------
 Center     Atomic      Atomic             Coordinates (Angstroms)
 Number     Number       Type             X           Y           Z
 ---------------------------------------------------------------------
      1          6           0        3.980143    4.753441    6.304344
      2          1           0        4.570195    5.538154    6.792953
      3          1           0        4.678679    4.106454    5.757526
      4          1           0        3.520876    4.140098    7.097443
      5          6           0        2.924968    5.338252    5.391925
      6          1           0        3.405850    5.858602    4.541094
      7          1           0        2.342076    6.113249    5.928438
      8          6           0        1.977064    4.250349    4.854459
      9          1           0        2.575352    3.463429    4.330280
     10          8           0        1.249214    3.620298    5.894828
     11          6           0        0.955553    4.859311    3.883513
     12          1           0        1.872850    3.470989    6.599001
     13          1           0        0.217685    5.469626    4.441590
     14          1           0        1.479610    5.564117    3.207400
     15          6           0        0.243916    3.804612    3.066661
     16          1           0       -0.469682    4.261083    2.368662
     17          1           0       -0.318496    3.108763    3.702805
     18          1           0        0.948148    3.207174    2.472078
 ---------------------------------------------------------------------
                    Distance matrix (angstroms):
                    1          2          3          4          5
     1  C    0.000000
     2  H    1.096665   0.000000
     3  H    1.097977   1.770210   0.000000
     4  H    1.102779   1.774357   1.771162   0.000000
     5  C    1.512583   2.170164   2.174050   2.167827   0.000000
     6  H    2.158759   2.555241   2.483913   3.082435   1.107214
     7  H    2.161862   2.458178   3.084826   2.578657   1.108255
     8  C    2.523409   3.484327   2.852185   2.725158   1.539781
     9  H    2.744904   3.787960   2.621926   3.001514   2.182724
    10  O    2.984910   3.938745   3.466472   2.622389   2.452026
    11  C    3.875536   4.689489   4.235609   4.174625   2.526517
    12  H    2.484389   3.403889   2.997427   1.847198   2.459808
    13  H    4.258975   4.947520   4.846689   4.442102   2.872243
    14  H    4.062132   4.733770   4.343036   4.618119   2.629110
    15  C    5.034109   5.967169   5.196054   5.205595   3.866128
    16  H    5.960953   6.826831   6.165544   6.188745   4.671623
    17  H    5.286896   6.272979   5.494454   5.227619   4.282968
    18  H    5.125446   6.101037   5.051706   5.374316   4.120051
                    6          7          8          9         10
     6  H    0.000000
     7  H    1.766687   0.000000
     8  C    2.173961   2.181069   0.000000
     9  H    2.543821   3.103236   1.118908   0.000000
    10  O    3.390233   2.722183   1.417427   2.056954   0.000000
    11  C    2.726711   2.770654   1.535270   2.184453   2.380500
    12  H    3.505105   2.766110   1.913554   2.375007   0.952404
    13  H    3.213347   2.671704   2.180026   3.097711   2.568262
    14  H    2.361326   2.906792   2.164774   2.621907   3.324723
    15  C    4.048537   4.233420   2.529566   2.673711   3.007179
    16  H    4.721364   4.899848   3.487960   3.708966   3.974803
    17  H    4.704796   4.589011   2.810538   2.982259   2.743055
    18  H    4.165477   4.725964   2.796895   2.483218   3.460713
                   11         12         13         14         15
    11  C    0.000000
    12  H    3.184767   0.000000
    13  H    1.108325   3.374691   0.000000
    14  H    1.108384   4.004843   1.767656   0.000000
    15  C    1.511973   3.904119   2.159489   2.154671   0.000000
    16  H    2.164242   4.899742   2.496013   2.490205   1.097630
    17  H    2.172619   3.649816   2.531199   3.083403   1.097813
    18  H    2.172961   4.237471   3.087271   2.525536   1.098364
                   16         17         18
    16  H    0.000000
    17  H    1.769361   0.000000
    18  H    1.769650   1.768830   0.000000
 Stoichiometry    C5H12O
 Framework group  C1[X(C5H12O)]
 Deg. of freedom    48
 Full point group                 C1      NOp   1
 RotChk:  IX=0 Diff= 1.97D-15
 Largest Abelian subgroup         C1      NOp   1
 Largest concise Abelian subgroup C1      NOp   1
                         Standard orientation:                         
 ---------------------------------------------------------------------
 Center     Atomic      Atomic             Coordinates (Angstroms)
 Number     Number       Type             X           Y           Z
 ---------------------------------------------------------------------
      1          6           0        2.500491   -0.112982    0.305126
      2          1           0        3.394978   -0.590123   -0.113090
      3          1           0        2.552003   -0.213521    1.397277
      4          1           0        2.558960    0.963717    0.073994
      5          6           0        1.233366   -0.719654   -0.255454
      6          1           0        1.137111   -1.771194    0.077597
      7          1           0        1.284268   -0.757583   -1.361889
      8          6           0       -0.013299    0.070402    0.183369
      9          1           0       -0.046953    0.119046    1.300712
     10          8           0        0.001474    1.399804   -0.308131
     11          6           0       -1.288703   -0.600390   -0.346195
     12          1           0        0.891794    1.715342   -0.186316
     13          1           0       -1.368823   -0.453070   -1.441760
     14          1           0       -1.207241   -1.695340   -0.194658
     15          6           0       -2.533417   -0.083095    0.338754
     16          1           0       -3.431488   -0.585969   -0.042533
     17          1           0       -2.667527    0.994614    0.178287
     18          1           0       -2.499501   -0.250037    1.423827
 ---------------------------------------------------------------------
 Rotational constants (GHZ):           7.1081978           1.9153030           1.6724062
 Leave Link  202 at Wed Sep  7 15:36:39 2022, MaxMem=   131072000 cpu:               0.0 elap:               0.0
 (Enter /opt/g16/l601.exe)
 Copying SCF densities to generalized density rwf, IOpCl= 0 IROHF=0.

 **********************************************************************

            Population analysis using the SCF density.

 **********************************************************************

 Orbital symmetries:
       Occupied  (A) (A) (A) (A) (A) (A) (A) (A) (A) (A) (A) (A)
                 (A) (A) (A) (A) (A) (A) (A)
       Virtual   (A) (A) (A) (A) (A) (A) (A) (A) (A) (A) (A) (A)
                 (A) (A) (A) (A) (A)
 The electronic state is 1-A.
 Alpha  occ. eigenvalues --   -1.48625  -1.24039  -1.21329  -0.95408  -0.79118
 Alpha  occ. eigenvalues --   -0.76033  -0.65828  -0.61755  -0.56449  -0.55600
 Alpha  occ. eigenvalues --   -0.53681  -0.51710  -0.49721  -0.48172  -0.47037
 Alpha  occ. eigenvalues --   -0.44413  -0.43792  -0.42903  -0.40140
 Alpha virt. eigenvalues --    0.11494   0.12631   0.12926   0.13655   0.13781
 Alpha virt. eigenvalues --    0.14522   0.14728   0.15174   0.15566   0.15889
 Alpha virt. eigenvalues --    0.16802   0.17077   0.17338   0.18400   0.18570
 Alpha virt. eigenvalues --    0.18885   0.21165
          Condensed to atoms (all electrons):
               1          2          3          4          5          6
     1  C    4.110441   0.000000   0.000000   0.000000   0.000000   0.000000
     2  H    0.000000   0.955447   0.000000   0.000000   0.000000   0.000000
     3  H    0.000000   0.000000   0.958856   0.000000   0.000000   0.000000
     4  H    0.000000   0.000000   0.000000   0.966421   0.000000   0.000000
     5  C    0.000000   0.000000   0.000000   0.000000   4.145558   0.000000
     6  H    0.000000   0.000000   0.000000   0.000000   0.000000   0.939323
     7  H    0.000000   0.000000   0.000000   0.000000   0.000000   0.000000
     8  C    0.000000   0.000000   0.000000   0.000000   0.000000   0.000000
     9  H    0.000000   0.000000   0.000000   0.000000   0.000000   0.000000
    10  O    0.000000   0.000000   0.000000   0.000000   0.000000   0.000000
    11  C    0.000000   0.000000   0.000000   0.000000   0.000000   0.000000
    12  H    0.000000   0.000000   0.000000   0.000000   0.000000   0.000000
    13  H    0.000000   0.000000   0.000000   0.000000   0.000000   0.000000
    14  H    0.000000   0.000000   0.000000   0.000000   0.000000   0.000000
    15  C    0.000000   0.000000   0.000000   0.000000   0.000000   0.000000
    16  H    0.000000   0.000000   0.000000   0.000000   0.000000   0.000000
    17  H    0.000000   0.000000   0.000000   0.000000   0.000000   0.000000
    18  H    0.000000   0.000000   0.000000   0.000000   0.000000   0.000000
               7          8          9         10         11         12
     1  C    0.000000   0.000000   0.000000   0.000000   0.000000   0.000000
     2  H    0.000000   0.000000   0.000000   0.000000   0.000000   0.000000
     3  H    0.000000   0.000000   0.000000   0.000000   0.000000   0.000000
     4  H    0.000000   0.000000   0.000000   0.000000   0.000000   0.000000
     5  C    0.000000   0.000000   0.000000   0.000000   0.000000   0.000000
     6  H    0.000000   0.000000   0.000000   0.000000   0.000000   0.000000
     7  H    0.937703   0.000000   0.000000   0.000000   0.000000   0.000000
     8  C    0.000000   3.922978   0.000000   0.000000   0.000000   0.000000
     9  H    0.000000   0.000000   0.954960   0.000000   0.000000   0.000000
    10  O    0.000000   0.000000   0.000000   6.317151   0.000000   0.000000
    11  C    0.000000   0.000000   0.000000   0.000000   4.105384   0.000000
    12  H    0.000000   0.000000   0.000000   0.000000   0.000000   0.808879
    13  H    0.000000   0.000000   0.000000   0.000000   0.000000   0.000000
    14  H    0.000000   0.000000   0.000000   0.000000   0.000000   0.000000
    15  C    0.000000   0.000000   0.000000   0.000000   0.000000   0.000000
    16  H    0.000000   0.000000   0.000000   0.000000   0.000000   0.000000
    17  H    0.000000   0.000000   0.000000   0.000000   0.000000   0.000000
    18  H    0.000000   0.000000   0.000000   0.000000   0.000000   0.000000
              13         14         15         16         17         18
     1  C    0.000000   0.000000   0.000000   0.000000   0.000000   0.000000
     2  H    0.000000   0.000000   0.000000   0.000000   0.000000   0.000000
     3  H    0.000000   0.000000   0.000000   0.000000   0.000000   0.000000
     4  H    0.000000   0.000000   0.000000   0.000000   0.000000   0.000000
     5  C    0.000000   0.000000   0.000000   0.000000   0.000000   0.000000
     6  H    0.000000   0.000000   0.000000   0.000000   0.000000   0.000000
     7  H    0.000000   0.000000   0.000000   0.000000   0.000000   0.000000
     8  C    0.000000   0.000000   0.000000   0.000000   0.000000   0.000000
     9  H    0.000000   0.000000   0.000000   0.000000   0.000000   0.000000
    10  O    0.000000   0.000000   0.000000   0.000000   0.000000   0.000000
    11  C    0.000000   0.000000   0.000000   0.000000   0.000000   0.000000
    12  H    0.000000   0.000000   0.000000   0.000000   0.000000   0.000000
    13  H    0.938742   0.000000   0.000000   0.000000   0.000000   0.000000
    14  H    0.000000   0.951471   0.000000   0.000000   0.000000   0.000000
    15  C    0.000000   0.000000   4.106978   0.000000   0.000000   0.000000
    16  H    0.000000   0.000000   0.000000   0.965040   0.000000   0.000000
    17  H    0.000000   0.000000   0.000000   0.000000   0.949134   0.000000
    18  H    0.000000   0.000000   0.000000   0.000000   0.000000   0.965532
 Mulliken charges:
               1
     1  C   -0.110441
     2  H    0.044553
     3  H    0.041144
     4  H    0.033579
     5  C   -0.145558
     6  H    0.060677
     7  H    0.062297
     8  C    0.077022
     9  H    0.045040
    10  O   -0.317151
    11  C   -0.105384
    12  H    0.191121
    13  H    0.061258
    14  H    0.048529
    15  C   -0.106978
    16  H    0.034960
    17  H    0.050866
    18  H    0.034468
 Sum of Mulliken charges =   0.00000
 Mulliken charges with hydrogens summed into heavy atoms:
               1
     1  C    0.008835
     5  C   -0.022584
     8  C    0.122062
    10  O   -0.126030
    11  C    0.004403
    15  C    0.013315
 Charge=              0.0000 electrons
 Dipole moment (field-independent basis, Debye):
    X=              1.2452    Y=             -0.8612    Z=              0.5075  Tot=              1.5968
 N-N= 1.700394172813D+02 E-N=-2.545119970280D+02  KE=-5.968713826464D+01
 Leave Link  601 at Wed Sep  7 15:36:39 2022, MaxMem=   131072000 cpu:               0.0 elap:               0.0
 (Enter /opt/g16/l9999.exe)
 1\1\GINC-TOTEM2\FOpt\RPM3\ZDO\C5H12O1\JRAMOS\07-Sep-2022\0\\#p opt pm3
 \\Conformer number 023. Energy MM = 0.000 kcal/mol\\0,1\C,3.9801431738
 ,4.7534410599,6.3043439679\H,4.5701949255,5.5381539126,6.7929533846\H,
 4.6786787845,4.1064537582,5.7575259355\H,3.520876438,4.1400978031,7.09
 74425849\C,2.9249682049,5.3382524906,5.3919245428\H,3.4058501696,5.858
 6019346,4.541094291\H,2.342075679,6.1132492115,5.9284377359\C,1.977063
 8059,4.2503489401,4.8544588612\H,2.5753517074,3.4634289819,4.330279865
 \O,1.2492139397,3.6202981736,5.8948284492\C,0.9555528218,4.8593105876,
 3.8835127889\H,1.8728499345,3.4709892271,6.59900056\H,0.2176848861,5.4
 696263877,4.4415899765\H,1.4796101745,5.5641167066,3.2074004938\C,0.24
 3916196,3.8046115456,3.0666614015\H,-0.4696820107,4.2610829708,2.36866
 16559\H,-0.3184963714,3.1087627062,3.7028052066\H,0.9481475408,3.20717
 36023,2.4720782988\\Version=ES64L-G16RevA.03\State=1-A\HF=-0.1176668\R
 MSD=1.332e-09\RMSF=5.399e-06\Dipole=0.5954243,0.1996595,0.0171519\PG=C
 01 [X(C5H12O1)]\\@


 Age does not diminish the extreme disappointment of
 having a scoop of ice cream fall from the cone.
 -- Jim Fiebig
 Job cpu time:       0 days  0 hours  0 minutes  8.3 seconds.
 Elapsed time:       0 days  0 hours  0 minutes  6.5 seconds.
 File lengths (MBytes):  RWF=      6 Int=      0 D2E=      0 Chk=      2 Scr=      1
 Normal termination of Gaussian 16 at Wed Sep  7 15:36:39 2022.
