 Entering Gaussian System, Link 0=/opt/g16/g16
 Input=MD_extract_021_gaussian.com
 Output=MD_extract_021_gaussian.log
 Initial command:
 /opt/g16/l1.exe "/tmp/Gau-318217.inp" -scrdir="/tmp/"
 Entering Link 1 = /opt/g16/l1.exe PID=    318219.
  
 Copyright (c) 1988,1990,1992,1993,1995,1998,2003,2009,2016,
            Gaussian, Inc.  All Rights Reserved.
  
 This is part of the Gaussian(R) 16 program.  It is based on
 the Gaussian(R) 09 system (copyright 2009, Gaussian, Inc.),
 the Gaussian(R) 03 system (copyright 2003, Gaussian, Inc.),
 the Gaussian(R) 98 system (copyright 1998, Gaussian, Inc.),
 the Gaussian(R) 94 system (copyright 1995, Gaussian, Inc.),
 the Gaussian 92(TM) system (copyright 1992, Gaussian, Inc.),
 the Gaussian 90(TM) system (copyright 1990, Gaussian, Inc.),
 the Gaussian 88(TM) system (copyright 1988, Gaussian, Inc.),
 the Gaussian 86(TM) system (copyright 1986, Carnegie Mellon
 University), and the Gaussian 82(TM) system (copyright 1983,
 Carnegie Mellon University). Gaussian is a federally registered
 trademark of Gaussian, Inc.
  
 This software contains proprietary and confidential information,
 including trade secrets, belonging to Gaussian, Inc.
  
 This software is provided under written license and may be
 used, copied, transmitted, or stored only in accord with that
 written license.
  
 The following legend is applicable only to US Government
 contracts under FAR:
  
                    RESTRICTED RIGHTS LEGEND
  
 Use, reproduction and disclosure by the US Government is
 subject to restrictions as set forth in subparagraphs (a)
 and (c) of the Commercial Computer Software - Restricted
 Rights clause in FAR 52.227-19.
  
 Gaussian, Inc.
 340 Quinnipiac St., Bldg. 40, Wallingford CT 06492
  
  
 ---------------------------------------------------------------
 Warning -- This program may not be used in any manner that
 competes with the business of Gaussian, Inc. or will provide
 assistance to any competitor of Gaussian, Inc.  The licensee
 of this program is prohibited from giving any competitor of
 Gaussian, Inc. access to this program.  By using this program,
 the user acknowledges that Gaussian, Inc. is engaged in the
 business of creating and licensing software in the field of
 computational chemistry and represents and warrants to the
 licensee that it is not a competitor of Gaussian, Inc. and that
 it will not use this program in any manner prohibited above.
 ---------------------------------------------------------------
  

 Cite this work as:
 Gaussian 16, Revision A.03,
 M. J. Frisch, G. W. Trucks, H. B. Schlegel, G. E. Scuseria, 
 M. A. Robb, J. R. Cheeseman, G. Scalmani, V. Barone, 
 G. A. Petersson, H. Nakatsuji, X. Li, M. Caricato, A. V. Marenich, 
 J. Bloino, B. G. Janesko, R. Gomperts, B. Mennucci, H. P. Hratchian, 
 J. V. Ortiz, A. F. Izmaylov, J. L. Sonnenberg, D. Williams-Young, 
 F. Ding, F. Lipparini, F. Egidi, J. Goings, B. Peng, A. Petrone, 
 T. Henderson, D. Ranasinghe, V. G. Zakrzewski, J. Gao, N. Rega, 
 G. Zheng, W. Liang, M. Hada, M. Ehara, K. Toyota, R. Fukuda, 
 J. Hasegawa, M. Ishida, T. Nakajima, Y. Honda, O. Kitao, H. Nakai, 
 T. Vreven, K. Throssell, J. A. Montgomery, Jr., J. E. Peralta, 
 F. Ogliaro, M. J. Bearpark, J. J. Heyd, E. N. Brothers, K. N. Kudin, 
 V. N. Staroverov, T. A. Keith, R. Kobayashi, J. Normand, 
 K. Raghavachari, A. P. Rendell, J. C. Burant, S. S. Iyengar, 
 J. Tomasi, M. Cossi, J. M. Millam, M. Klene, C. Adamo, R. Cammi, 
 J. W. Ochterski, R. L. Martin, K. Morokuma, O. Farkas, 
 J. B. Foresman, and D. J. Fox, Gaussian, Inc., Wallingford CT, 2016.
 
 ******************************************
 Gaussian 16:  ES64L-G16RevA.03 25-Dec-2016
                 7-Sep-2022 
 ******************************************
 %chk=MD_extract_021_gaussian.chk
 %nproc=1
 Will use up to    1 processors via shared memory.
 %mem=1000Mb
 ----------
 #p opt pm3
 ----------
 1/18=20,19=15,26=1,38=1/1,3;
 2/9=110,12=2,17=6,18=5,40=1/2;
 3/5=2,25=1,41=800000,71=1/1,2,3;
 4/35=1/1;
 5/5=2,35=1,38=5/2;
 6/7=2,8=2,9=2,10=2,28=1/1;
 7//1,2,3,16;
 1/18=20,19=15,26=1/3(2);
 2/9=110/2;
 99//99;
 2/9=110/2;
 3/5=2,25=1,41=800000,71=1,135=20/1,2,3;
 4/5=5,16=3,35=1/1;
 5/5=2,35=1,38=5/2;
 7//1,2,3,16;
 1/18=20,19=15,26=1/3(-5);
 2/9=110/2;
 6/7=2,8=2,9=2,10=2,19=2,28=1/1;
 99/9=1/99;
 Leave Link    1 at Wed Sep  7 15:36:15 2022, MaxMem=   131072000 cpu:               0.0 elap:               4.9
 (Enter /opt/g16/l101.exe)
 ------------------------------------------------
 Conformer number 021. Energy MM = 0.000 kcal/mol
 ------------------------------------------------
 Symbolic Z-matrix:
 Charge =  0 Multiplicity = 1
 C                     9.225     1.212    -0.544 
 H                     9.149     0.281     0.107 
 H                     10.188    0.887    -1.038 
 H                     8.542     1.304    -1.287 
 C                     9.307     2.456     0.323 
 H                     9.783     2.239     1.294 
 H                     8.287     2.721     0.777 
 C                     9.96      3.641    -0.248 
 H                     9.477     3.721    -1.187 
 O                     9.633     4.78      0.502 
 C                     11.395    3.522    -0.466 
 H                     9.955     5.501    -0.021 
 H                     11.693    2.425    -0.691 
 H                     11.662    4.127    -1.37 
 C                     12.402    4.054     0.613 
 H                     12.551    3.275     1.383 
 H                     12.016    4.9       1.202 
 H                     13.303    4.423     0.236 
 
 ITRead=  0  0  0  0  0  0  0  0  0  0  0  0  0  0  0  0  0  0
 MicOpt= -1 -1 -1 -1 -1 -1 -1 -1 -1 -1 -1 -1 -1 -1 -1 -1 -1 -1
 NAtoms=     18 NQM=       18 NQMF=       0 NMMI=      0 NMMIF=      0
                NMic=       0 NMicF=      0.
                    Isotopes and Nuclear Properties:
 (Nuclear quadrupole moments (NQMom) in fm**2, nuclear magnetic moments (NMagM)
  in nuclear magnetons)

  Atom         1           2           3           4           5           6           7           8           9          10
 IAtWgt=          12           1           1           1          12           1           1          12           1          16
 AtmWgt=  12.0000000   1.0078250   1.0078250   1.0078250  12.0000000   1.0078250   1.0078250  12.0000000   1.0078250  15.9949146
 NucSpn=           0           1           1           1           0           1           1           0           1           0
 AtZEff=  -0.0000000  -0.0000000  -0.0000000  -0.0000000  -0.0000000  -0.0000000  -0.0000000  -0.0000000  -0.0000000  -0.0000000
 NQMom=    0.0000000   0.0000000   0.0000000   0.0000000   0.0000000   0.0000000   0.0000000   0.0000000   0.0000000   0.0000000
 NMagM=    0.0000000   2.7928460   2.7928460   2.7928460   0.0000000   2.7928460   2.7928460   0.0000000   2.7928460   0.0000000
 AtZNuc=   6.0000000   1.0000000   1.0000000   1.0000000   6.0000000   1.0000000   1.0000000   6.0000000   1.0000000   8.0000000

  Atom        11          12          13          14          15          16          17          18
 IAtWgt=          12           1           1           1          12           1           1           1
 AtmWgt=  12.0000000   1.0078250   1.0078250   1.0078250  12.0000000   1.0078250   1.0078250   1.0078250
 NucSpn=           0           1           1           1           0           1           1           1
 AtZEff=  -0.0000000  -0.0000000  -0.0000000  -0.0000000  -0.0000000  -0.0000000  -0.0000000  -0.0000000
 NQMom=    0.0000000   0.0000000   0.0000000   0.0000000   0.0000000   0.0000000   0.0000000   0.0000000
 NMagM=    0.0000000   2.7928460   2.7928460   2.7928460   0.0000000   2.7928460   2.7928460   2.7928460
 AtZNuc=   6.0000000   1.0000000   1.0000000   1.0000000   6.0000000   1.0000000   1.0000000   1.0000000
 Leave Link  101 at Wed Sep  7 15:36:15 2022, MaxMem=   131072000 cpu:               0.1 elap:               0.1
 (Enter /opt/g16/l103.exe)

 GradGradGradGradGradGradGradGradGradGradGradGradGradGradGradGradGradGrad
 Berny optimization.
 Initialization pass.
                           ----------------------------
                           !    Initial Parameters    !
                           ! (Angstroms and Degrees)  !
 --------------------------                            --------------------------
 ! Name  Definition              Value          Derivative Info.                !
 --------------------------------------------------------------------------------
 ! R1    R(1,2)                  1.1386         estimate D2E/DX2                !
 ! R2    R(1,3)                  1.1301         estimate D2E/DX2                !
 ! R3    R(1,4)                  1.0134         estimate D2E/DX2                !
 ! R4    R(1,5)                  1.5185         estimate D2E/DX2                !
 ! R5    R(5,6)                  1.103          estimate D2E/DX2                !
 ! R6    R(5,7)                  1.1475         estimate D2E/DX2                !
 ! R7    R(5,8)                  1.4686         estimate D2E/DX2                !
 ! R8    R(8,9)                  1.059          estimate D2E/DX2                !
 ! R9    R(8,10)                 1.4024         estimate D2E/DX2                !
 ! R10   R(8,11)                 1.4563         estimate D2E/DX2                !
 ! R11   R(10,12)                0.9471         estimate D2E/DX2                !
 ! R12   R(11,13)                1.1588         estimate D2E/DX2                !
 ! R13   R(11,14)                1.1201         estimate D2E/DX2                !
 ! R14   R(11,15)                1.5689         estimate D2E/DX2                !
 ! R15   R(15,16)                1.1054         estimate D2E/DX2                !
 ! R16   R(15,17)                1.1007         estimate D2E/DX2                !
 ! R17   R(15,18)                1.0441         estimate D2E/DX2                !
 ! A1    A(2,1,3)               94.1096         estimate D2E/DX2                !
 ! A2    A(2,1,4)              116.6442         estimate D2E/DX2                !
 ! A3    A(2,1,5)              110.305          estimate D2E/DX2                !
 ! A4    A(3,1,4)              106.2564         estimate D2E/DX2                !
 ! A5    A(3,1,5)              116.051          estimate D2E/DX2                !
 ! A6    A(4,1,5)              112.3722         estimate D2E/DX2                !
 ! A7    A(1,5,6)              111.3933         estimate D2E/DX2                !
 ! A8    A(1,5,7)              111.5356         estimate D2E/DX2                !
 ! A9    A(1,5,8)              117.584          estimate D2E/DX2                !
 ! A10   A(6,5,7)               94.6313         estimate D2E/DX2                !
 ! A11   A(6,5,8)              108.0084         estimate D2E/DX2                !
 ! A12   A(7,5,8)              111.2683         estimate D2E/DX2                !
 ! A13   A(5,8,9)              101.7077         estimate D2E/DX2                !
 ! A14   A(5,8,10)             110.1047         estimate D2E/DX2                !
 ! A15   A(5,8,11)             115.4934         estimate D2E/DX2                !
 ! A16   A(9,8,10)             107.8486         estimate D2E/DX2                !
 ! A17   A(9,8,11)             108.8362         estimate D2E/DX2                !
 ! A18   A(10,8,11)            112.0968         estimate D2E/DX2                !
 ! A19   A(8,10,12)            104.104          estimate D2E/DX2                !
 ! A20   A(8,11,13)            111.0886         estimate D2E/DX2                !
 ! A21   A(8,11,14)            108.1537         estimate D2E/DX2                !
 ! A22   A(8,11,15)            120.1195         estimate D2E/DX2                !
 ! A23   A(13,11,14)           107.0573         estimate D2E/DX2                !
 ! A24   A(13,11,15)           106.8274         estimate D2E/DX2                !
 ! A25   A(14,11,15)           102.6455         estimate D2E/DX2                !
 ! A26   A(11,15,16)           109.064          estimate D2E/DX2                !
 ! A27   A(11,15,17)           113.8006         estimate D2E/DX2                !
 ! A28   A(11,15,18)           115.177          estimate D2E/DX2                !
 ! A29   A(16,15,17)           102.4836         estimate D2E/DX2                !
 ! A30   A(16,15,18)           112.598          estimate D2E/DX2                !
 ! A31   A(17,15,18)           102.9559         estimate D2E/DX2                !
 ! D1    D(2,1,5,6)             29.2339         estimate D2E/DX2                !
 ! D2    D(2,1,5,7)            -75.115          estimate D2E/DX2                !
 ! D3    D(2,1,5,8)            154.6342         estimate D2E/DX2                !
 ! D4    D(3,1,5,6)            -76.1882         estimate D2E/DX2                !
 ! D5    D(3,1,5,7)            179.4629         estimate D2E/DX2                !
 ! D6    D(3,1,5,8)             49.2121         estimate D2E/DX2                !
 ! D7    D(4,1,5,6)            161.2532         estimate D2E/DX2                !
 ! D8    D(4,1,5,7)             56.9043         estimate D2E/DX2                !
 ! D9    D(4,1,5,8)            -73.3465         estimate D2E/DX2                !
 ! D10   D(1,5,8,9)             49.5593         estimate D2E/DX2                !
 ! D11   D(1,5,8,10)           163.7127         estimate D2E/DX2                !
 ! D12   D(1,5,8,11)           -68.0929         estimate D2E/DX2                !
 ! D13   D(6,5,8,9)            176.6143         estimate D2E/DX2                !
 ! D14   D(6,5,8,10)           -69.2323         estimate D2E/DX2                !
 ! D15   D(6,5,8,11)            58.9621         estimate D2E/DX2                !
 ! D16   D(7,5,8,9)            -80.815          estimate D2E/DX2                !
 ! D17   D(7,5,8,10)            33.3384         estimate D2E/DX2                !
 ! D18   D(7,5,8,11)           161.5328         estimate D2E/DX2                !
 ! D19   D(5,8,10,12)         -169.802          estimate D2E/DX2                !
 ! D20   D(9,8,10,12)          -59.6277         estimate D2E/DX2                !
 ! D21   D(11,8,10,12)          60.1613         estimate D2E/DX2                !
 ! D22   D(5,8,11,13)           30.0617         estimate D2E/DX2                !
 ! D23   D(5,8,11,14)          147.2746         estimate D2E/DX2                !
 ! D24   D(5,8,11,15)          -95.5595         estimate D2E/DX2                !
 ! D25   D(9,8,11,13)          -83.5284         estimate D2E/DX2                !
 ! D26   D(9,8,11,14)           33.6845         estimate D2E/DX2                !
 ! D27   D(9,8,11,15)          150.8504         estimate D2E/DX2                !
 ! D28   D(10,8,11,13)         157.2613         estimate D2E/DX2                !
 ! D29   D(10,8,11,14)         -85.5258         estimate D2E/DX2                !
 ! D30   D(10,8,11,15)          31.6401         estimate D2E/DX2                !
 ! D31   D(8,11,15,16)          84.5412         estimate D2E/DX2                !
 ! D32   D(8,11,15,17)         -29.186          estimate D2E/DX2                !
 ! D33   D(8,11,15,18)        -147.7472         estimate D2E/DX2                !
 ! D34   D(13,11,15,16)        -43.0512         estimate D2E/DX2                !
 ! D35   D(13,11,15,17)       -156.7784         estimate D2E/DX2                !
 ! D36   D(13,11,15,18)         84.6604         estimate D2E/DX2                !
 ! D37   D(14,11,15,16)       -155.504          estimate D2E/DX2                !
 ! D38   D(14,11,15,17)         90.7687         estimate D2E/DX2                !
 ! D39   D(14,11,15,18)        -27.7924         estimate D2E/DX2                !
 --------------------------------------------------------------------------------
 Trust Radius=3.00D-01 FncErr=1.00D-07 GrdErr=1.00D-07 EigMax=2.50D+02 EigMin=1.00D-04
 Number of steps in this run=     97 maximum allowed number of steps=    108.
 GradGradGradGradGradGradGradGradGradGradGradGradGradGradGradGradGradGrad

 Leave Link  103 at Wed Sep  7 15:36:15 2022, MaxMem=   131072000 cpu:               0.0 elap:               0.0
 (Enter /opt/g16/l202.exe)
                          Input orientation:                          
 ---------------------------------------------------------------------
 Center     Atomic      Atomic             Coordinates (Angstroms)
 Number     Number       Type             X           Y           Z
 ---------------------------------------------------------------------
      1          6           0        9.225000    1.212000   -0.544000
      2          1           0        9.149000    0.281000    0.107000
      3          1           0       10.188000    0.887000   -1.038000
      4          1           0        8.542000    1.304000   -1.287000
      5          6           0        9.307000    2.456000    0.323000
      6          1           0        9.783000    2.239000    1.294000
      7          1           0        8.287000    2.721000    0.777000
      8          6           0        9.960000    3.641000   -0.248000
      9          1           0        9.477000    3.721000   -1.187000
     10          8           0        9.633000    4.780000    0.502000
     11          6           0       11.395000    3.522000   -0.466000
     12          1           0        9.955000    5.501000   -0.021000
     13          1           0       11.693000    2.425000   -0.691000
     14          1           0       11.662000    4.127000   -1.370000
     15          6           0       12.402000    4.054000    0.613000
     16          1           0       12.551000    3.275000    1.383000
     17          1           0       12.016000    4.900000    1.202000
     18          1           0       13.303000    4.423000    0.236000
 ---------------------------------------------------------------------
                    Distance matrix (angstroms):
                    1          2          3          4          5
     1  C    0.000000
     2  H    1.138568   0.000000
     3  H    1.130058   1.660657   0.000000
     4  H    1.013411   1.832543   1.716160   0.000000
     5  C    1.518535   2.191403   2.256157   2.122364   0.000000
     6  H    2.178150   2.375855   2.725831   3.012618   1.102953
     7  H    2.214038   2.673115   3.204931   2.516547   1.147493
     8  C    2.554972   3.474672   2.874126   2.924348   1.468562
     9  H    2.602313   3.689935   2.925624   2.593475   1.977176
    10  O    3.740482   4.542167   4.223159   4.058741   2.353570
    11  C    3.170344   3.984586   2.954193   3.705830   2.473585
    12  H    4.382003   5.283410   4.730494   4.605880   3.132134
    13  H    2.753907   3.421327   2.179651   3.397154   2.592712
    14  H    3.888248   4.825807   3.574983   4.208399   3.347315
    15  C    4.416893   5.007352   4.202081   5.106085   3.495244
    16  H    4.362519   4.708059   4.140961   5.204404   3.509686
    17  H    4.943636   5.545618   4.946044   5.585250   3.752927
    18  H    5.248715   5.867582   4.881557   5.891928   4.454736
                    6          7          8          9         10
     6  H    0.000000
     7  H    1.654578   0.000000
     8  C    2.091578   2.167015   0.000000
     9  H    2.906083   2.504675   1.058966   0.000000
    10  O    2.665792   2.475242   1.402409   1.999634   0.000000
    11  C    2.709656   3.441847   1.456334   2.058681   2.371546
    12  H    3.521286   3.338776   1.873807   2.180926   0.947129
    13  H    2.760964   3.720682   2.162913   2.614630   3.348563
    14  H    3.767238   4.239937   2.095682   2.229922   2.836835
    15  C    3.258396   4.328627   2.622071   3.450582   2.864744
    16  H    2.956863   4.342332   3.083407   4.031537   3.399398
    17  H    3.475007   4.339828   2.813311   3.680201   2.486582
    18  H    4.275467   5.324447   3.467193   4.141981   3.696905
                   11         12         13         14         15
    11  C    0.000000
    12  H    2.487582   0.000000
    13  H    1.158809   3.596014   0.000000
    14  H    1.120058   2.573233   1.832705   0.000000
    15  C    1.568858   2.912658   2.203801   2.117833   0.000000
    16  H    2.194572   3.696689   2.400029   3.015831   1.105415
    17  H    2.250944   2.470759   3.132635   2.708880   1.100742
    18  H    2.223751   3.526647   2.728266   2.315110   1.044074
                   16         17         18
    16  H    0.000000
    17  H    1.720352   0.000000
    18  H    1.788580   1.678408   0.000000
 Stoichiometry    C5H12O
 Framework group  C1[X(C5H12O)]
 Deg. of freedom    48
 Full point group                 C1      NOp   1
 Largest Abelian subgroup         C1      NOp   1
 Largest concise Abelian subgroup C1      NOp   1
                         Standard orientation:                         
 ---------------------------------------------------------------------
 Center     Atomic      Atomic             Coordinates (Angstroms)
 Number     Number       Type             X           Y           Z
 ---------------------------------------------------------------------
      1          6           0       -2.330713   -0.615369   -0.054616
      2          1           0       -2.933787   -1.048682    0.808448
      3          1           0       -1.999135   -1.625738   -0.437030
      4          1           0       -2.857295   -0.186244   -0.806657
      5          6           0       -1.232620    0.291304    0.472721
      6          1           0       -0.895323   -0.025655    1.473857
      7          1           0       -1.652702    1.297351    0.830692
      8          6           0       -0.043648    0.479486   -0.368473
      9          1           0       -0.478082    0.718093   -1.304284
     10          8           0        0.682233    1.597949    0.066139
     11          6           0        0.802971   -0.694587   -0.528781
     12          1           0        1.323856    1.736260   -0.616682
     13          1           0        0.179877   -1.669620   -0.466309
     14          1           0        1.257394   -0.660074   -1.551933
     15          6           0        2.054200   -0.895152    0.396158
     16          1           0        1.732931   -1.373707    1.339404
     17          1           0        2.502216    0.046793    0.747804
     18          1           0        2.861047   -1.386467   -0.048475
 ---------------------------------------------------------------------
 Rotational constants (GHZ):           4.9699136           2.3385748           1.8344788
 Leave Link  202 at Wed Sep  7 15:36:15 2022, MaxMem=   131072000 cpu:               0.0 elap:               0.0
 (Enter /opt/g16/l301.exe)
 Standard basis: VSTO-6G (5D, 7F)
 Ernie: Thresh=  0.10000D-02 Tol=  0.10000D-05 Strict=F.
  NNHCO=     0 NNPyr=     0 NCTC=     0               EPep=         0.000000000
    EC=       129.163293186  ECS=         2.292938093   EG=         0.566217613
   EHC=         0.000000000  EAt=       -36.836480110  AtH=         2.452923921
 EPDDG=         0.000000000  ECC=       132.022448892 EAtT=        39.289404030
 There are    36 symmetry adapted cartesian basis functions of A   symmetry.
 There are    36 symmetry adapted basis functions of A   symmetry.
    36 basis functions,   216 primitive gaussians,    36 cartesian basis functions
    19 alpha electrons       19 beta electrons
       nuclear repulsion energy       171.3118529229 Hartrees.
 IExCor=    0 DFT=F Ex=HF Corr=None ExCW=0 ScaHFX=  1.000000
 ScaDFX=  1.000000  1.000000  1.000000  1.000000 ScalE2=  1.000000  1.000000
 IRadAn=      5 IRanWt=     -1 IRanGd=            0 ICorTp=0 IEmpDi=  4
 Integral buffers will be    131072 words long.
 Regular integral format.
 Two-electron integral symmetry is turned off.
 Leave Link  301 at Wed Sep  7 15:36:15 2022, MaxMem=   131072000 cpu:               0.0 elap:               0.0
 (Enter /opt/g16/l302.exe)
 Do NDO integrals.
 NPDir=0 NMtPBC=     1 NCelOv=     1 NCel=       1 NClECP=     1 NCelD=      1
         NCelK=      1 NCelE2=     1 NClLst=     1 CellRange=     0.0.
 One-electron integrals computed using PRISM.
 NBasis=    36 RedAO= F EigKep=  0.00D+00  NBF=    36
 NBsUse=    36 1.00D-04 EigRej=  0.00D+00 NBFU=    36
 Leave Link  302 at Wed Sep  7 15:36:15 2022, MaxMem=   131072000 cpu:               0.0 elap:               0.0
 (Enter /opt/g16/l303.exe)
 DipDrv:  MaxL=1.
 Leave Link  303 at Wed Sep  7 15:36:15 2022, MaxMem=   131072000 cpu:               0.0 elap:               0.0
 (Enter /opt/g16/l401.exe)
 Simple Huckel Guess.
 JPrj=0 DoOrth=F DoCkMO=F.
 Leave Link  401 at Wed Sep  7 15:36:15 2022, MaxMem=   131072000 cpu:               0.0 elap:               0.0
 (Enter /opt/g16/l502.exe)
 Keep J ints in memory in canonical form, NReq=862161.
 FoFCou: FMM=F IPFlag=           0 FMFlag=           0 FMFlg1=           0
         NFxFlg=           0 DoJE=F BraDBF=F KetDBF=F FulRan=T
         wScrn=  0.000000 ICntrl=       600 IOpCl=  2 I1Cent=           0 NGrid=           0
         NMat0=    1 NMatS0=     72 NMatT0=    0 NMatD0=    1 NMtDS0=    0 NMtDT0=    0
 Symmetry not used in FoFCou.
 Two-electron integral symmetry not used.
 Closed shell SCF:
 Using DIIS extrapolation, IDIIS=  1040.
 Overlap will be assumed to be unity.
 NGot=   131072000 LenX=   131006778 LenY=   131005041
 Requested convergence on RMS density matrix=1.00D-08 within 128 cycles.
 Requested convergence on MAX density matrix=1.00D-06.
 Requested convergence on             energy=1.00D-06.
 No special actions if energy rises.

 Cycle   1  Pass 1  IDiag  1:
 E= 0.204481434282371    
 DIIS: error= 7.14D-02 at cycle   1 NSaved=   1.
 NSaved= 1 IEnMin= 1 EnMin= 0.204481434282371     IErMin= 1 ErrMin= 7.14D-02
 ErrMax= 7.14D-02  0.00D+00 EMaxC= 1.00D-01 BMatC= 1.09D-01 BMatP= 1.09D-01
 IDIUse=3 WtCom= 2.86D-01 WtEn= 7.14D-01
 Coeff-Com:  0.100D+01
 Coeff-En:   0.100D+01
 Coeff:      0.100D+01
 GapD=    2.000 DampG=2.000 DampE=0.500 DampFc=1.0000 IDamp=-1.
 RMSDP=1.26D-02 MaxDP=1.52D-01              OVMax= 0.00D+00

 Cycle   2  Pass 1  IDiag  1:
 E=-0.539257101974897E-01 Delta-E=       -0.258407144480 Rises=F Damp=F
 DIIS: error= 1.47D-02 at cycle   2 NSaved=   2.
 NSaved= 2 IEnMin= 2 EnMin=-0.539257101974897E-01 IErMin= 2 ErrMin= 1.47D-02
 ErrMax= 1.47D-02  0.00D+00 EMaxC= 1.00D-01 BMatC= 7.06D-03 BMatP= 1.09D-01
 IDIUse=3 WtCom= 8.53D-01 WtEn= 1.47D-01
 Coeff-Com: -0.305D+00 0.130D+01
 Coeff-En:   0.000D+00 0.100D+01
 Coeff:     -0.260D+00 0.126D+01
 RMSDP=4.59D-03 MaxDP=4.48D-02 DE=-2.58D-01 OVMax= 0.00D+00

 Cycle   3  Pass 1  IDiag  3:
 E=-0.755072277532634E-01 Delta-E=       -0.021581517556 Rises=F Damp=F
 DIIS: error= 3.49D-03 at cycle   3 NSaved=   3.
 NSaved= 3 IEnMin= 3 EnMin=-0.755072277532634E-01 IErMin= 3 ErrMin= 3.49D-03
 ErrMax= 3.49D-03  0.00D+00 EMaxC= 1.00D-01 BMatC= 2.12D-04 BMatP= 7.06D-03
 IDIUse=3 WtCom= 9.65D-01 WtEn= 3.49D-02
 Coeff-Com:  0.142D+00-0.694D+00 0.155D+01
 Coeff-En:   0.000D+00 0.000D+00 0.100D+01
 Coeff:      0.137D+00-0.670D+00 0.153D+01
 Gap=     0.510 Goal=   None    Shift=    0.000
 RMSDP=1.29D-03 MaxDP=1.80D-02 DE=-2.16D-02 OVMax= 6.06D-03

 Cycle   4  Pass 1  IDiag  3:
 E=-0.766105286467962E-01 Delta-E=       -0.001103300894 Rises=F Damp=F
 DIIS: error= 6.92D-04 at cycle   4 NSaved=   4.
 NSaved= 4 IEnMin= 4 EnMin=-0.766105286467962E-01 IErMin= 4 ErrMin= 6.92D-04
 ErrMax= 6.92D-04  0.00D+00 EMaxC= 1.00D-01 BMatC= 8.76D-06 BMatP= 2.12D-04
 IDIUse=3 WtCom= 9.93D-01 WtEn= 6.92D-03
 Coeff-Com: -0.293D-01 0.158D+00-0.536D+00 0.141D+01
 Coeff-En:   0.000D+00 0.000D+00 0.000D+00 0.100D+01
 Coeff:     -0.291D-01 0.157D+00-0.532D+00 0.140D+01
 Gap=     0.512 Goal=   None    Shift=    0.000
 RMSDP=3.05D-04 MaxDP=4.05D-03 DE=-1.10D-03 OVMax= 1.70D-03

 Cycle   5  Pass 1  IDiag  3:
 E=-0.766612598011989E-01 Delta-E=       -0.000050731154 Rises=F Damp=F
 DIIS: error= 1.13D-04 at cycle   5 NSaved=   5.
 NSaved= 5 IEnMin= 5 EnMin=-0.766612598011989E-01 IErMin= 5 ErrMin= 1.13D-04
 ErrMax= 1.13D-04  0.00D+00 EMaxC= 1.00D-01 BMatC= 3.03D-07 BMatP= 8.76D-06
 IDIUse=3 WtCom= 9.99D-01 WtEn= 1.13D-03
 Coeff-Com:  0.175D-02-0.127D-01 0.772D-01-0.380D+00 0.131D+01
 Coeff-En:   0.000D+00 0.000D+00 0.000D+00 0.000D+00 0.100D+01
 Coeff:      0.175D-02-0.127D-01 0.771D-01-0.380D+00 0.131D+01
 Gap=     0.512 Goal=   None    Shift=    0.000
 RMSDP=5.27D-05 MaxDP=5.99D-04 DE=-5.07D-05 OVMax= 3.45D-04

 Cycle   6  Pass 1  IDiag  3:
 E=-0.766629537522192E-01 Delta-E=       -0.000001693951 Rises=F Damp=F
 DIIS: error= 3.46D-05 at cycle   6 NSaved=   6.
 NSaved= 6 IEnMin= 6 EnMin=-0.766629537522192E-01 IErMin= 6 ErrMin= 3.46D-05
 ErrMax= 3.46D-05  0.00D+00 EMaxC= 1.00D-01 BMatC= 2.20D-08 BMatP= 3.03D-07
 IDIUse=1 WtCom= 1.00D+00 WtEn= 0.00D+00
 Coeff-Com: -0.246D-03 0.289D-02-0.264D-01 0.158D+00-0.728D+00 0.159D+01
 Coeff:     -0.246D-03 0.289D-02-0.264D-01 0.158D+00-0.728D+00 0.159D+01
 Gap=     0.512 Goal=   None    Shift=    0.000
 RMSDP=1.60D-05 MaxDP=2.20D-04 DE=-1.69D-06 OVMax= 1.28D-04

 Cycle   7  Pass 1  IDiag  3:
 E=-0.766630899707366E-01 Delta-E=       -0.000000136219 Rises=F Damp=F
 DIIS: error= 6.15D-06 at cycle   7 NSaved=   7.
 NSaved= 7 IEnMin= 7 EnMin=-0.766630899707366E-01 IErMin= 7 ErrMin= 6.15D-06
 ErrMax= 6.15D-06  0.00D+00 EMaxC= 1.00D-01 BMatC= 1.22D-09 BMatP= 2.20D-08
 IDIUse=1 WtCom= 1.00D+00 WtEn= 0.00D+00
 Coeff-Com:  0.133D-03-0.145D-02 0.129D-01-0.767D-01 0.370D+00-0.962D+00
 Coeff-Com:  0.166D+01
 Coeff:      0.133D-03-0.145D-02 0.129D-01-0.767D-01 0.370D+00-0.962D+00
 Coeff:      0.166D+01
 Gap=     0.512 Goal=   None    Shift=    0.000
 RMSDP=3.98D-06 MaxDP=5.15D-05 DE=-1.36D-07 OVMax= 2.46D-05

 Cycle   8  Pass 1  IDiag  3:
 E=-0.766630974127054E-01 Delta-E=       -0.000000007442 Rises=F Damp=F
 DIIS: error= 1.06D-06 at cycle   8 NSaved=   8.
 NSaved= 8 IEnMin= 8 EnMin=-0.766630974127054E-01 IErMin= 8 ErrMin= 1.06D-06
 ErrMax= 1.06D-06  0.00D+00 EMaxC= 1.00D-01 BMatC= 3.77D-11 BMatP= 1.22D-09
 IDIUse=1 WtCom= 1.00D+00 WtEn= 0.00D+00
 Coeff-Com: -0.504D-04 0.596D-03-0.550D-02 0.331D-01-0.162D+00 0.435D+00
 Coeff-Com: -0.850D+00 0.155D+01
 Coeff:     -0.504D-04 0.596D-03-0.550D-02 0.331D-01-0.162D+00 0.435D+00
 Coeff:     -0.850D+00 0.155D+01
 Gap=     0.512 Goal=   None    Shift=    0.000
 RMSDP=6.51D-07 MaxDP=5.83D-06 DE=-7.44D-09 OVMax= 4.21D-06

 Cycle   9  Pass 1  IDiag  3:
 E=-0.766630976416991E-01 Delta-E=       -0.000000000229 Rises=F Damp=F
 DIIS: error= 2.17D-07 at cycle   9 NSaved=   9.
 NSaved= 9 IEnMin= 9 EnMin=-0.766630976416991E-01 IErMin= 9 ErrMin= 2.17D-07
 ErrMax= 2.17D-07  0.00D+00 EMaxC= 1.00D-01 BMatC= 2.12D-12 BMatP= 3.77D-11
 IDIUse=1 WtCom= 1.00D+00 WtEn= 0.00D+00
 Coeff-Com:  0.182D-04-0.249D-03 0.245D-02-0.150D-01 0.740D-01-0.201D+00
 Coeff-Com:  0.404D+00-0.880D+00 0.162D+01
 Coeff:      0.182D-04-0.249D-03 0.245D-02-0.150D-01 0.740D-01-0.201D+00
 Coeff:      0.404D+00-0.880D+00 0.162D+01
 Gap=     0.512 Goal=   None    Shift=    0.000
 RMSDP=1.63D-07 MaxDP=1.58D-06 DE=-2.29D-10 OVMax= 1.06D-06

 Cycle  10  Pass 1  IDiag  3:
 E=-0.766630976551426E-01 Delta-E=       -0.000000000013 Rises=F Damp=F
 DIIS: error= 4.15D-08 at cycle  10 NSaved=  10.
 NSaved=10 IEnMin=10 EnMin=-0.766630976551426E-01 IErMin=10 ErrMin= 4.15D-08
 ErrMax= 4.15D-08  0.00D+00 EMaxC= 1.00D-01 BMatC= 1.21D-13 BMatP= 2.12D-12
 IDIUse=1 WtCom= 1.00D+00 WtEn= 0.00D+00
 Coeff-Com: -0.691D-05 0.101D-03-0.102D-02 0.626D-02-0.311D-01 0.851D-01
 Coeff-Com: -0.172D+00 0.388D+00-0.876D+00 0.160D+01
 Coeff:     -0.691D-05 0.101D-03-0.102D-02 0.626D-02-0.311D-01 0.851D-01
 Coeff:     -0.172D+00 0.388D+00-0.876D+00 0.160D+01
 Gap=     0.512 Goal=   None    Shift=    0.000
 RMSDP=4.07D-08 MaxDP=3.54D-07 DE=-1.34D-11 OVMax= 2.53D-07

 Cycle  11  Pass 1  IDiag  3:
 E=-0.766630976560805E-01 Delta-E=       -0.000000000001 Rises=F Damp=F
 DIIS: error= 1.05D-08 at cycle  11 NSaved=  11.
 NSaved=11 IEnMin=11 EnMin=-0.766630976560805E-01 IErMin=11 ErrMin= 1.05D-08
 ErrMax= 1.05D-08  0.00D+00 EMaxC= 1.00D-01 BMatC= 6.44D-15 BMatP= 1.21D-13
 IDIUse=1 WtCom= 1.00D+00 WtEn= 0.00D+00
 Coeff-Com:  0.195D-05-0.278D-04 0.280D-03-0.172D-02 0.859D-02-0.236D-01
 Coeff-Com:  0.479D-01-0.108D+00 0.263D+00-0.648D+00 0.146D+01
 Coeff:      0.195D-05-0.278D-04 0.280D-03-0.172D-02 0.859D-02-0.236D-01
 Coeff:      0.479D-01-0.108D+00 0.263D+00-0.648D+00 0.146D+01
 Gap=     0.512 Goal=   None    Shift=    0.000
 RMSDP=8.76D-09 MaxDP=8.45D-08 DE=-9.38D-13 OVMax= 4.50D-08

 Cycle  12  Pass 2  IDiag  1:
 SCF Done:  E(RPM3) = -0.766630976561E-01 A.U. after   12 cycles
            NFock= 11  Conv=0.88D-08     -V/T= 0.9987
 KE=-5.966672631398D+01 PE=-2.569139851629D+02 EE= 1.451921954564D+02
 Leave Link  502 at Wed Sep  7 15:36:15 2022, MaxMem=   131072000 cpu:               0.0 elap:               0.0
 (Enter /opt/g16/l601.exe)
 Copying SCF densities to generalized density rwf, IOpCl= 0 IROHF=0.

 **********************************************************************

            Population analysis using the SCF density.

 **********************************************************************

 Orbital symmetries:
       Occupied  (A) (A) (A) (A) (A) (A) (A) (A) (A) (A) (A) (A)
                 (A) (A) (A) (A) (A) (A) (A)
       Virtual   (A) (A) (A) (A) (A) (A) (A) (A) (A) (A) (A) (A)
                 (A) (A) (A) (A) (A)
 The electronic state is 1-A.
 Alpha  occ. eigenvalues --   -1.50722  -1.26085  -1.18380  -0.96628  -0.85578
 Alpha  occ. eigenvalues --   -0.71935  -0.65373  -0.61507  -0.60912  -0.54689
 Alpha  occ. eigenvalues --   -0.53587  -0.50610  -0.50013  -0.48585  -0.46177
 Alpha  occ. eigenvalues --   -0.44019  -0.43154  -0.42140  -0.39722
 Alpha virt. eigenvalues --    0.11367   0.12015   0.12685   0.13470   0.13683
 Alpha virt. eigenvalues --    0.14616   0.14726   0.15698   0.15842   0.16483
 Alpha virt. eigenvalues --    0.16893   0.17476   0.17818   0.18207   0.18817
 Alpha virt. eigenvalues --    0.19373   0.21341
          Condensed to atoms (all electrons):
               1          2          3          4          5          6
     1  C    4.091521   0.000000   0.000000   0.000000   0.000000   0.000000
     2  H    0.000000   0.959914   0.000000   0.000000   0.000000   0.000000
     3  H    0.000000   0.000000   0.973498   0.000000   0.000000   0.000000
     4  H    0.000000   0.000000   0.000000   0.954545   0.000000   0.000000
     5  C    0.000000   0.000000   0.000000   0.000000   4.130201   0.000000
     6  H    0.000000   0.000000   0.000000   0.000000   0.000000   0.951453
     7  H    0.000000   0.000000   0.000000   0.000000   0.000000   0.000000
     8  C    0.000000   0.000000   0.000000   0.000000   0.000000   0.000000
     9  H    0.000000   0.000000   0.000000   0.000000   0.000000   0.000000
    10  O    0.000000   0.000000   0.000000   0.000000   0.000000   0.000000
    11  C    0.000000   0.000000   0.000000   0.000000   0.000000   0.000000
    12  H    0.000000   0.000000   0.000000   0.000000   0.000000   0.000000
    13  H    0.000000   0.000000   0.000000   0.000000   0.000000   0.000000
    14  H    0.000000   0.000000   0.000000   0.000000   0.000000   0.000000
    15  C    0.000000   0.000000   0.000000   0.000000   0.000000   0.000000
    16  H    0.000000   0.000000   0.000000   0.000000   0.000000   0.000000
    17  H    0.000000   0.000000   0.000000   0.000000   0.000000   0.000000
    18  H    0.000000   0.000000   0.000000   0.000000   0.000000   0.000000
               7          8          9         10         11         12
     1  C    0.000000   0.000000   0.000000   0.000000   0.000000   0.000000
     2  H    0.000000   0.000000   0.000000   0.000000   0.000000   0.000000
     3  H    0.000000   0.000000   0.000000   0.000000   0.000000   0.000000
     4  H    0.000000   0.000000   0.000000   0.000000   0.000000   0.000000
     5  C    0.000000   0.000000   0.000000   0.000000   0.000000   0.000000
     6  H    0.000000   0.000000   0.000000   0.000000   0.000000   0.000000
     7  H    0.932410   0.000000   0.000000   0.000000   0.000000   0.000000
     8  C    0.000000   3.898233   0.000000   0.000000   0.000000   0.000000
     9  H    0.000000   0.000000   0.972936   0.000000   0.000000   0.000000
    10  O    0.000000   0.000000   0.000000   6.302468   0.000000   0.000000
    11  C    0.000000   0.000000   0.000000   0.000000   4.141081   0.000000
    12  H    0.000000   0.000000   0.000000   0.000000   0.000000   0.812747
    13  H    0.000000   0.000000   0.000000   0.000000   0.000000   0.000000
    14  H    0.000000   0.000000   0.000000   0.000000   0.000000   0.000000
    15  C    0.000000   0.000000   0.000000   0.000000   0.000000   0.000000
    16  H    0.000000   0.000000   0.000000   0.000000   0.000000   0.000000
    17  H    0.000000   0.000000   0.000000   0.000000   0.000000   0.000000
    18  H    0.000000   0.000000   0.000000   0.000000   0.000000   0.000000
              13         14         15         16         17         18
     1  C    0.000000   0.000000   0.000000   0.000000   0.000000   0.000000
     2  H    0.000000   0.000000   0.000000   0.000000   0.000000   0.000000
     3  H    0.000000   0.000000   0.000000   0.000000   0.000000   0.000000
     4  H    0.000000   0.000000   0.000000   0.000000   0.000000   0.000000
     5  C    0.000000   0.000000   0.000000   0.000000   0.000000   0.000000
     6  H    0.000000   0.000000   0.000000   0.000000   0.000000   0.000000
     7  H    0.000000   0.000000   0.000000   0.000000   0.000000   0.000000
     8  C    0.000000   0.000000   0.000000   0.000000   0.000000   0.000000
     9  H    0.000000   0.000000   0.000000   0.000000   0.000000   0.000000
    10  O    0.000000   0.000000   0.000000   0.000000   0.000000   0.000000
    11  C    0.000000   0.000000   0.000000   0.000000   0.000000   0.000000
    12  H    0.000000   0.000000   0.000000   0.000000   0.000000   0.000000
    13  H    0.930765   0.000000   0.000000   0.000000   0.000000   0.000000
    14  H    0.000000   0.960798   0.000000   0.000000   0.000000   0.000000
    15  C    0.000000   0.000000   4.105492   0.000000   0.000000   0.000000
    16  H    0.000000   0.000000   0.000000   0.961850   0.000000   0.000000
    17  H    0.000000   0.000000   0.000000   0.000000   0.961957   0.000000
    18  H    0.000000   0.000000   0.000000   0.000000   0.000000   0.958129
 Mulliken charges:
               1
     1  C   -0.091521
     2  H    0.040086
     3  H    0.026502
     4  H    0.045455
     5  C   -0.130201
     6  H    0.048547
     7  H    0.067590
     8  C    0.101767
     9  H    0.027064
    10  O   -0.302468
    11  C   -0.141081
    12  H    0.187253
    13  H    0.069235
    14  H    0.039202
    15  C   -0.105492
    16  H    0.038150
    17  H    0.038043
    18  H    0.041871
 Sum of Mulliken charges =  -0.00000
 Mulliken charges with hydrogens summed into heavy atoms:
               1
     1  C    0.020521
     5  C   -0.014064
     8  C    0.128830
    10  O   -0.115215
    11  C   -0.032644
    15  C    0.012571
 Charge=             -0.0000 electrons
 Dipole moment (field-independent basis, Debye):
    X=              0.1552    Y=             -0.8595    Z=             -1.1127  Tot=              1.4145
 N-N= 1.713118529229D+02 E-N=-2.569139853473D+02  KE=-5.966672631398D+01
 Leave Link  601 at Wed Sep  7 15:36:15 2022, MaxMem=   131072000 cpu:               0.0 elap:               0.0
 (Enter /opt/g16/l701.exe)
 ... and contract with generalized density number  0.
 Compute integral first derivatives.
 Leave Link  701 at Wed Sep  7 15:36:15 2022, MaxMem=   131072000 cpu:               0.0 elap:               0.0
 (Enter /opt/g16/l702.exe)
 L702 exits ... SP integral derivatives will be done elsewhere.
 Leave Link  702 at Wed Sep  7 15:36:15 2022, MaxMem=   131072000 cpu:               0.0 elap:               0.0
 (Enter /opt/g16/l703.exe)
 Integral derivatives from FoFJK, PRISM(SPDF).
 Compute integral first derivatives, UseDBF=F ICtDFT=           0.
 Calling FoFJK, ICntrl=      2127 FMM=F ISym2X=0 I1Cent= 0 IOpClX= 0 NMat=1 NMatS=1 NMatT=0.
 FoFJK:  IHMeth= 9 ICntrl=    2127 DoSepK=F KAlg= 0 I1Cent=           0 FoldK=F
 IRaf=         0 NMat=       1 IRICut=       1 DoRegI=T DoRafI=F ISym2E= 0 IDoP0=3 IntGTp=3.
 FoFCou: FMM=F IPFlag=           0 FMFlag=      100000 FMFlg1=         800
         NFxFlg=           0 DoJE=F BraDBF=F KetDBF=F FulRan=T
         wScrn=  0.000000 ICntrl=      2127 IOpCl=  0 I1Cent=           0 NGrid=           0
         NMat0=    1 NMatS0=      1 NMatT0=    0 NMatD0=    1 NMtDS0=    0 NMtDT0=    0
 Symmetry not used in FoFCou.
 Leave Link  703 at Wed Sep  7 15:36:15 2022, MaxMem=   131072000 cpu:               0.0 elap:               0.0
 (Enter /opt/g16/l716.exe)
 Dipole        = 6.10530833D-02-3.38145457D-01-4.37766802D-01
 ***** Axes restored to original set *****
 -------------------------------------------------------------------
 Center     Atomic                   Forces (Hartrees/Bohr)
 Number     Number              X              Y              Z
 -------------------------------------------------------------------
      1        6           0.067471549   -0.025548624    0.051805968
      2        1          -0.016781763    0.017803629   -0.009362264
      3        1          -0.004296078    0.017550801    0.001204239
      4        1          -0.047656325    0.000886027   -0.040628601
      5        6          -0.033017742   -0.032609948    0.050269852
      6        1           0.012884161   -0.009107627    0.003906210
      7        1           0.006034841   -0.003200903   -0.018433828
      8        6          -0.019031237    0.015891366    0.003162256
      9        1          -0.015302449    0.009229403   -0.038973823
     10        8          -0.009861966    0.012466898    0.010680769
     11        6           0.095848949   -0.008488885   -0.009372204
     12        1          -0.000542708    0.004815555    0.002224288
     13        1          -0.007517139    0.024966669    0.002570350
     14        1          -0.001907842   -0.008614702    0.000892135
     15        6          -0.059054773   -0.022194303    0.017192535
     16        1           0.005882873    0.000591517   -0.005882478
     17        1          -0.007486793    0.002880873   -0.001446577
     18        1           0.034334443    0.002682253   -0.019808828
 -------------------------------------------------------------------
 Cartesian Forces:  Max     0.095848949 RMS     0.026217543
 Leave Link  716 at Wed Sep  7 15:36:15 2022, MaxMem=   131072000 cpu:               0.0 elap:               0.0
 (Enter /opt/g16/l103.exe)

 GradGradGradGradGradGradGradGradGradGradGradGradGradGradGradGradGradGrad
 Berny optimization.
 FormGI is forming the generalized inverse of G from B-inverse, IUseBI=4.
 Internal  Forces:  Max     0.062260776 RMS     0.014662913
 Search for a local minimum.
 Step number   1 out of a maximum of   97
 All quantities printed in internal units (Hartrees-Bohrs-Radians)
 RMS Force = .14663D-01 SwitMx=.10000D-02 MixMth= 1
 Mixed Optimization -- RFO/linear search
 Second derivative matrix not updated -- first step.
 ITU=  0
     Eigenvalues ---    0.00230   0.00521   0.01182   0.01344   0.01660
     Eigenvalues ---    0.03081   0.03252   0.04376   0.04742   0.04805
     Eigenvalues ---    0.04811   0.05062   0.05444   0.05483   0.05615
     Eigenvalues ---    0.07944   0.09699   0.09886   0.13128   0.13218
     Eigenvalues ---    0.16000   0.16000   0.16000   0.16000   0.16000
     Eigenvalues ---    0.16000   0.16000   0.18232   0.20650   0.21585
     Eigenvalues ---    0.22086   0.26108   0.27934   0.28932   0.29753
     Eigenvalues ---    0.30508   0.30565   0.31558   0.33090   0.33358
     Eigenvalues ---    0.33600   0.35913   0.37427   0.38660   0.40709
     Eigenvalues ---    0.45224   0.45406   0.58336
 RFO step:  Lambda=-5.24868859D-02 EMin= 2.30000000D-03
 Linear search not attempted -- first point.
 Maximum step size (   0.300) exceeded in Quadratic search.
    -- Step size scaled by   0.803
 Iteration  1 RMS(Cart)=  0.04907643 RMS(Int)=  0.00122342
 Iteration  2 RMS(Cart)=  0.00146175 RMS(Int)=  0.00028314
 Iteration  3 RMS(Cart)=  0.00000164 RMS(Int)=  0.00028314
 Iteration  4 RMS(Cart)=  0.00000000 RMS(Int)=  0.00028314
 ITry= 1 IFail=0 DXMaxC= 1.67D-01 DCOld= 1.00D+10 DXMaxT= 3.00D-01 DXLimC= 3.00D+00 Rises=F
 Variable       Old X    -DE/DX   Delta X   Delta X   Delta X     New X
                                 (Linear)    (Quad)   (Total)
    R1        2.15158  -0.01879   0.00000  -0.04312  -0.04312   2.10846
    R2        2.13550  -0.00923   0.00000  -0.02071  -0.02071   2.11479
    R3        1.91507   0.06199   0.00000   0.09829   0.09829   2.01336
    R4        2.86962  -0.01041   0.00000  -0.02339  -0.02339   2.84622
    R5        2.08428   0.01079   0.00000   0.02245   0.02245   2.10673
    R6        2.16845  -0.01340   0.00000  -0.03148  -0.03148   2.13697
    R7        2.77518   0.04952   0.00000   0.09663   0.09663   2.87181
    R8        2.00116   0.04224   0.00000   0.07726   0.07726   2.07842
    R9        2.65017   0.02336   0.00000   0.03718   0.03718   2.68735
   R10        2.75207   0.06226   0.00000   0.11718   0.11718   2.86926
   R11        1.78982   0.00225   0.00000   0.00285   0.00285   1.79266
   R12        2.18983  -0.02607   0.00000  -0.06310  -0.06310   2.12673
   R13        2.11660  -0.00583   0.00000  -0.01272  -0.01272   2.10388
   R14        2.96471  -0.02918   0.00000  -0.07473  -0.07473   2.88998
   R15        2.08893  -0.00372   0.00000  -0.00780  -0.00780   2.08113
   R16        2.08010   0.00407   0.00000   0.00841   0.00841   2.08851
   R17        1.97301   0.03773   0.00000   0.06594   0.06594   2.03896
    A1        1.64252   0.01529   0.00000   0.08267   0.08317   1.72570
    A2        2.03583  -0.00696   0.00000  -0.04314  -0.04357   1.99225
    A3        1.92519  -0.00103   0.00000  -0.00231  -0.00233   1.92286
    A4        1.85452   0.00626   0.00000   0.02200   0.02173   1.87626
    A5        2.02547  -0.01550   0.00000  -0.04907  -0.04900   1.97647
    A6        1.96126   0.00250   0.00000  -0.00214  -0.00255   1.95872
    A7        1.94418  -0.00121   0.00000  -0.01004  -0.00966   1.93452
    A8        1.94666  -0.00043   0.00000  -0.01411  -0.01457   1.93209
    A9        2.05223  -0.00989   0.00000  -0.03885  -0.03937   2.01286
   A10        1.65163   0.00524   0.00000   0.05111   0.05084   1.70246
   A11        1.88510   0.00633   0.00000   0.02654   0.02615   1.91125
   A12        1.94200   0.00346   0.00000   0.00536   0.00421   1.94621
   A13        1.77513   0.00925   0.00000   0.04459   0.04474   1.81988
   A14        1.92169  -0.00768   0.00000  -0.03155  -0.03136   1.89033
   A15        2.01574  -0.00678   0.00000  -0.02374  -0.02368   1.99206
   A16        1.88231  -0.00248   0.00000  -0.00745  -0.00711   1.87520
   A17        1.89955  -0.00307   0.00000  -0.00859  -0.00840   1.89115
   A18        1.95646   0.01066   0.00000   0.02875   0.02818   1.98464
   A19        1.81696   0.00863   0.00000   0.03263   0.03263   1.84959
   A20        1.93886   0.00222   0.00000  -0.00436  -0.00466   1.93421
   A21        1.88764   0.00315   0.00000   0.01653   0.01701   1.90464
   A22        2.09648  -0.01284   0.00000  -0.03655  -0.03660   2.05988
   A23        1.86850  -0.00388   0.00000  -0.01628  -0.01640   1.85210
   A24        1.86449   0.00427   0.00000   0.00640   0.00586   1.87035
   A25        1.79150   0.00789   0.00000   0.03788   0.03812   1.82962
   A26        1.90353   0.00400   0.00000   0.01241   0.01215   1.91567
   A27        1.98619  -0.00650   0.00000  -0.01658  -0.01661   1.96959
   A28        2.01022  -0.00961   0.00000  -0.04173  -0.04209   1.96813
   A29        1.78868   0.00465   0.00000   0.02906   0.02913   1.81781
   A30        1.96521  -0.00145   0.00000  -0.01916  -0.01968   1.94553
   A31        1.79692   0.01044   0.00000   0.04410   0.04397   1.84089
    D1        0.51023   0.00838   0.00000   0.06690   0.06645   0.57668
    D2       -1.31100   0.00299   0.00000   0.01841   0.01846  -1.29254
    D3        2.69888   0.00779   0.00000   0.06210   0.06176   2.76063
    D4       -1.32974  -0.00173   0.00000  -0.00776  -0.00776  -1.33749
    D5        3.13222  -0.00713   0.00000  -0.05625  -0.05575   3.07647
    D6        0.85891  -0.00232   0.00000  -0.01256  -0.01245   0.84646
    D7        2.81440  -0.00002   0.00000   0.00315   0.00299   2.81739
    D8        0.99317  -0.00541   0.00000  -0.04534  -0.04500   0.94817
    D9       -1.28014  -0.00061   0.00000  -0.00164  -0.00170  -1.28184
   D10        0.86497  -0.00077   0.00000  -0.00803  -0.00784   0.85713
   D11        2.85733  -0.00201   0.00000  -0.00679  -0.00703   2.85030
   D12       -1.18844   0.00024   0.00000  -0.01500  -0.01454  -1.20299
   D13        3.08250  -0.00467   0.00000  -0.02918  -0.02942   3.05308
   D14       -1.20833  -0.00592   0.00000  -0.02794  -0.02861  -1.23694
   D15        1.02908  -0.00367   0.00000  -0.03615  -0.03612   0.99296
   D16       -1.41049   0.00580   0.00000   0.04448   0.04469  -1.36579
   D17        0.58187   0.00456   0.00000   0.04572   0.04550   0.62737
   D18        2.81928   0.00681   0.00000   0.03751   0.03799   2.85727
   D19       -2.96360  -0.00443   0.00000  -0.02475  -0.02498  -2.98859
   D20       -1.04070   0.00145   0.00000   0.00844   0.00851  -1.03219
   D21        1.05001   0.00246   0.00000   0.01030   0.01046   1.06047
   D22        0.52468   0.00457   0.00000   0.03019   0.03047   0.55514
   D23        2.57043   0.00301   0.00000   0.01794   0.01810   2.58852
   D24       -1.66783   0.00757   0.00000   0.05770   0.05773  -1.61010
   D25       -1.45785  -0.00101   0.00000  -0.00605  -0.00593  -1.46378
   D26        0.58791  -0.00257   0.00000  -0.01829  -0.01830   0.56960
   D27        2.63284   0.00199   0.00000   0.02146   0.02133   2.65417
   D28        2.74473  -0.00250   0.00000  -0.00891  -0.00893   2.73580
   D29       -1.49271  -0.00405   0.00000  -0.02115  -0.02130  -1.51400
   D30        0.55222   0.00050   0.00000   0.01860   0.01834   0.57056
   D31        1.47552   0.00119   0.00000   0.00233   0.00229   1.47781
   D32       -0.50939  -0.00337   0.00000  -0.03191  -0.03174  -0.54113
   D33       -2.57867  -0.00503   0.00000  -0.04652  -0.04630  -2.62498
   D34       -0.75139   0.00455   0.00000   0.03262   0.03252  -0.71887
   D35       -2.73630  -0.00001   0.00000  -0.00161  -0.00151  -2.73781
   D36        1.47760  -0.00167   0.00000  -0.01622  -0.01608   1.46153
   D37       -2.71406   0.00397   0.00000   0.03239   0.03208  -2.68198
   D38        1.58421  -0.00059   0.00000  -0.00185  -0.00195   1.58226
   D39       -0.48507  -0.00226   0.00000  -0.01646  -0.01651  -0.50158
         Item               Value     Threshold  Converged?
 Maximum Force            0.062261     0.000450     NO 
 RMS     Force            0.014663     0.000300     NO 
 Maximum Displacement     0.166951     0.001800     NO 
 RMS     Displacement     0.049422     0.001200     NO 
 Predicted change in Energy=-2.850540D-02
 Lowest energy point so far.  Saving SCF results.
 GradGradGradGradGradGradGradGradGradGradGradGradGradGradGradGradGradGrad

 Leave Link  103 at Wed Sep  7 15:36:15 2022, MaxMem=   131072000 cpu:               0.0 elap:               0.0
 (Enter /opt/g16/l202.exe)
                          Input orientation:                          
 ---------------------------------------------------------------------
 Center     Atomic      Atomic             Coordinates (Angstroms)
 Number     Number       Type             X           Y           Z
 ---------------------------------------------------------------------
      1          6           0        9.249045    1.213915   -0.511723
      2          1           0        9.140785    0.296988    0.114713
      3          1           0       10.227676    0.975347   -0.999314
      4          1           0        8.519909    1.303143   -1.283427
      5          6           0        9.304174    2.437879    0.364277
      6          1           0        9.805558    2.209665    1.333497
      7          1           0        8.280342    2.678496    0.779800
      8          6           0        9.950946    3.660022   -0.266223
      9          1           0        9.461080    3.750532   -1.246789
     10          8           0        9.587650    4.802420    0.498804
     11          6           0       11.446705    3.525229   -0.489618
     12          1           0        9.889069    5.554083    0.004781
     13          1           0       11.724237    2.456099   -0.705270
     14          1           0       11.734479    4.107646   -1.393762
     15          6           0       12.385192    4.021898    0.610996
     16          1           0       12.518883    3.234775    1.369549
     17          1           0       11.969048    4.874945    1.177193
     18          1           0       13.333225    4.365918    0.227516
 ---------------------------------------------------------------------
                    Distance matrix (angstroms):
                    1          2          3          4          5
     1  C    0.000000
     2  H    1.115750   0.000000
     3  H    1.119098   1.697810   0.000000
     4  H    1.065423   1.831020   1.761999   0.000000
     5  C    1.506155   2.161572   2.202553   2.148866   0.000000
     6  H    2.169346   2.363406   2.672776   3.053353   1.114834
     7  H    2.179774   2.618068   3.139757   2.491162   1.130834
     8  C    2.556634   3.480154   2.796692   2.938954   1.519696
     9  H    2.649473   3.726023   2.889736   2.622376   2.084037
    10  O    3.743419   4.543802   4.159385   4.069564   2.385269
    11  C    3.189416   4.012982   2.871885   3.759512   2.549884
    12  H    4.417405   5.311220   4.699754   4.648071   3.190935
    13  H    2.776159   3.465308   2.125743   3.454170   2.645934
    14  H    3.915233   4.850140   3.498191   4.267419   3.432958
    15  C    4.356683   4.964617   4.065642   5.091255   3.473134
    16  H    4.279592   4.649382   3.995767   5.173130   3.461209
    17  H    4.863538   5.485037   4.793373   5.541568   3.701578
    18  H    5.211730   5.843412   4.758730   5.901826   4.468701
                    6          7          8          9         10
     6  H    0.000000
     7  H    1.688983   0.000000
     8  C    2.164203   2.201925   0.000000
     9  H    3.025031   2.578850   1.099850   0.000000
    10  O    2.732503   2.509794   1.422084   2.041956   0.000000
    11  C    2.783491   3.514859   1.518344   2.137001   2.462576
    12  H    3.599665   3.384916   1.914350   2.236603   0.948635
    13  H    2.810450   3.757034   2.187865   2.662833   3.394116
    14  H    3.842005   4.324107   2.157012   2.305965   2.945062
    15  C    3.234301   4.322385   2.612665   3.474973   2.906552
    16  H    2.900738   4.315377   3.074229   4.057264   3.436253
    17  H    3.436399   4.311480   2.762648   3.664682   2.477202
    18  H    4.279843   5.355748   3.490255   4.188769   3.780670
                   11         12         13         14         15
    11  C    0.000000
    12  H    2.605169   0.000000
    13  H    1.125419   3.670084   0.000000
    14  H    1.113328   2.730135   1.789338   0.000000
    15  C    1.529310   2.990939   2.149684   2.109463   0.000000
    16  H    2.165741   3.762672   2.354288   3.002179   1.101289
    17  H    2.207450   2.482356   3.074804   2.693247   1.105190
    18  H    2.186321   3.650145   2.665772   2.291558   1.078969
                   16         17         18
    16  H    0.000000
    17  H    1.740539   0.000000
    18  H    1.801909   1.738383   0.000000
 Stoichiometry    C5H12O
 Framework group  C1[X(C5H12O)]
 Deg. of freedom    48
 Full point group                 C1      NOp   1
 RotChk:  IX=2 Diff= 2.38D-02
 Largest Abelian subgroup         C1      NOp   1
 Largest concise Abelian subgroup C1      NOp   1
                         Standard orientation:                         
 ---------------------------------------------------------------------
 Center     Atomic      Atomic             Coordinates (Angstroms)
 Number     Number       Type             X           Y           Z
 ---------------------------------------------------------------------
      1          6           0       -2.301213   -0.647017   -0.060829
      2          1           0       -2.928771   -1.059888    0.764160
      3          1           0       -1.882455   -1.606618   -0.456032
      4          1           0       -2.858647   -0.192824   -0.847024
      5          6           0       -1.249500    0.274908    0.498151
      6          1           0       -0.914828   -0.069048    1.504403
      7          1           0       -1.709190    1.256049    0.821929
      8          6           0       -0.037586    0.494301   -0.392135
      9          1           0       -0.464494    0.737136   -1.376235
     10          8           0        0.652784    1.648649    0.069593
     11          6           0        0.850273   -0.727932   -0.544526
     12          1           0        1.315381    1.835091   -0.583181
     13          1           0        0.241932   -1.673322   -0.492304
     14          1           0        1.316927   -0.716123   -1.555264
     15          6           0        2.021386   -0.890714    0.425415
     16          1           0        1.672657   -1.371444    1.352844
     17          1           0        2.437304    0.076272    0.762158
     18          1           0        2.851746   -1.425747   -0.008654
 ---------------------------------------------------------------------
 Rotational constants (GHZ):           4.7174097           2.3578668           1.8280904
 Leave Link  202 at Wed Sep  7 15:36:15 2022, MaxMem=   131072000 cpu:               0.0 elap:               0.0
 (Enter /opt/g16/l301.exe)
 Standard basis: VSTO-6G (5D, 7F)
 Ernie: Thresh=  0.10000D-02 Tol=  0.10000D-05 Strict=F.
  NNHCO=     0 NNPyr=     0 NCTC=     0               EPep=         0.000000000
    EC=       128.395876504  ECS=         2.206028303   EG=         0.564955036
   EHC=         0.000000000  EAt=       -36.836480110  AtH=         2.452923921
 EPDDG=         0.000000000  ECC=       131.166859843 EAtT=        39.289404030
 There are    36 symmetry adapted cartesian basis functions of A   symmetry.
 There are    36 symmetry adapted basis functions of A   symmetry.
    36 basis functions,   216 primitive gaussians,    36 cartesian basis functions
    19 alpha electrons       19 beta electrons
       nuclear repulsion energy       170.4562638736 Hartrees.
 IExCor=    0 DFT=F Ex=HF Corr=None ExCW=0 ScaHFX=  1.000000
 ScaDFX=  1.000000  1.000000  1.000000  1.000000 ScalE2=  1.000000  1.000000
 IRadAn=      5 IRanWt=     -1 IRanGd=            0 ICorTp=0 IEmpDi=  4
 Integral buffers will be    131072 words long.
 Regular integral format.
 Two-electron integral symmetry is turned off.
 Leave Link  301 at Wed Sep  7 15:36:15 2022, MaxMem=   131072000 cpu:               0.0 elap:               0.0
 (Enter /opt/g16/l302.exe)
 Do NDO integrals.
 NPDir=0 NMtPBC=     1 NCelOv=     1 NCel=       1 NClECP=     1 NCelD=      1
         NCelK=      1 NCelE2=     1 NClLst=     1 CellRange=     0.0.
 One-electron integrals computed using PRISM.
 NBasis=    36 RedAO= F EigKep=  0.00D+00  NBF=    36
 NBsUse=    36 1.00D-04 EigRej=  0.00D+00 NBFU=    36
 Leave Link  302 at Wed Sep  7 15:36:15 2022, MaxMem=   131072000 cpu:               0.0 elap:               0.0
 (Enter /opt/g16/l303.exe)
 DipDrv:  MaxL=1.
 Leave Link  303 at Wed Sep  7 15:36:15 2022, MaxMem=   131072000 cpu:               0.0 elap:               0.0
 (Enter /opt/g16/l401.exe)
 Initial guess from the checkpoint file:  "MD_extract_021_gaussian.chk"
 B after Tr=     0.000000   -0.000000   -0.000000
         Rot=    0.999973   -0.000075    0.005237   -0.005071 Ang=  -0.84 deg.
 Guess basis will be translated and rotated to current coordinates.
 JPrj=0 DoOrth=T DoCkMO=T.
 Leave Link  401 at Wed Sep  7 15:36:15 2022, MaxMem=   131072000 cpu:               0.0 elap:               0.0
 (Enter /opt/g16/l502.exe)
 Keep J ints in memory in canonical form, NReq=862161.
 FoFCou: FMM=F IPFlag=           0 FMFlag=           0 FMFlg1=           0
         NFxFlg=           0 DoJE=F BraDBF=F KetDBF=F FulRan=T
         wScrn=  0.000000 ICntrl=       600 IOpCl=  2 I1Cent=           0 NGrid=           0
         NMat0=    1 NMatS0=     72 NMatT0=    0 NMatD0=    1 NMtDS0=    0 NMtDT0=    0
 Symmetry not used in FoFCou.
 Two-electron integral symmetry not used.
 Closed shell SCF:
 Using DIIS extrapolation, IDIIS=  1040.
 Overlap will be assumed to be unity.
 NGot=   131072000 LenX=   131006778 LenY=   131005041
 Requested convergence on RMS density matrix=1.00D-08 within 128 cycles.
 Requested convergence on MAX density matrix=1.00D-06.
 Requested convergence on             energy=1.00D-06.
 No special actions if energy rises.

 Cycle   1  Pass 1  IDiag  1:
 E=-0.997258745208853E-01
 DIIS: error= 3.33D-03 at cycle   1 NSaved=   1.
 NSaved= 1 IEnMin= 1 EnMin=-0.997258745208853E-01 IErMin= 1 ErrMin= 3.33D-03
 ErrMax= 3.33D-03  0.00D+00 EMaxC= 1.00D-01 BMatC= 1.24D-03 BMatP= 1.24D-03
 IDIUse=3 WtCom= 9.67D-01 WtEn= 3.33D-02
 Coeff-Com:  0.100D+01
 Coeff-En:   0.100D+01
 Coeff:      0.100D+01
 GapD=    2.000 DampG=2.000 DampE=1.000 DampFc=2.0000 IDamp=-1.
 RMSDP=1.62D-03 MaxDP=1.19D-02              OVMax= 0.00D+00

 Cycle   2  Pass 1  IDiag  3:
 E=-0.103468286142146     Delta-E=       -0.003742411621 Rises=F Damp=F
 DIIS: error= 1.33D-03 at cycle   2 NSaved=   2.
 NSaved= 2 IEnMin= 2 EnMin=-0.103468286142146     IErMin= 2 ErrMin= 1.33D-03
 ErrMax= 1.33D-03  0.00D+00 EMaxC= 1.00D-01 BMatC= 1.39D-04 BMatP= 1.24D-03
 IDIUse=3 WtCom= 9.87D-01 WtEn= 1.33D-02
 Coeff-Com: -0.419D+00 0.142D+01
 Coeff-En:   0.000D+00 0.100D+01
 Coeff:     -0.413D+00 0.141D+01
 Gap=     0.514 Goal=   None    Shift=    0.000
 RMSDP=8.74D-04 MaxDP=4.93D-03 DE=-3.74D-03 OVMax= 5.15D-03

 Cycle   3  Pass 1  IDiag  3:
 E=-0.104062105263040     Delta-E=       -0.000593819121 Rises=F Damp=F
 DIIS: error= 3.95D-04 at cycle   3 NSaved=   3.
 NSaved= 3 IEnMin= 3 EnMin=-0.104062105263040     IErMin= 3 ErrMin= 3.95D-04
 ErrMax= 3.95D-04  0.00D+00 EMaxC= 1.00D-01 BMatC= 5.24D-06 BMatP= 1.39D-04
 IDIUse=3 WtCom= 9.96D-01 WtEn= 3.95D-03
 Coeff-Com:  0.176D+00-0.699D+00 0.152D+01
 Coeff-En:   0.000D+00 0.000D+00 0.100D+01
 Coeff:      0.175D+00-0.696D+00 0.152D+01
 Gap=     0.514 Goal=   None    Shift=    0.000
 RMSDP=2.22D-04 MaxDP=1.39D-03 DE=-5.94D-04 OVMax= 1.71D-03

 Cycle   4  Pass 1  IDiag  3:
 E=-0.104090556094604     Delta-E=       -0.000028450832 Rises=F Damp=F
 DIIS: error= 8.67D-05 at cycle   4 NSaved=   4.
 NSaved= 4 IEnMin= 4 EnMin=-0.104090556094604     IErMin= 4 ErrMin= 8.67D-05
 ErrMax= 8.67D-05  0.00D+00 EMaxC= 1.00D-01 BMatC= 1.79D-07 BMatP= 5.24D-06
 IDIUse=1 WtCom= 1.00D+00 WtEn= 0.00D+00
 Coeff-Com: -0.790D-01 0.321D+00-0.793D+00 0.155D+01
 Coeff:     -0.790D-01 0.321D+00-0.793D+00 0.155D+01
 Gap=     0.514 Goal=   None    Shift=    0.000
 RMSDP=4.51D-05 MaxDP=4.52D-04 DE=-2.85D-05 OVMax= 4.49D-04

 Cycle   5  Pass 1  IDiag  3:
 E=-0.104091688220279     Delta-E=       -0.000001132126 Rises=F Damp=F
 DIIS: error= 1.99D-05 at cycle   5 NSaved=   5.
 NSaved= 5 IEnMin= 5 EnMin=-0.104091688220279     IErMin= 5 ErrMin= 1.99D-05
 ErrMax= 1.99D-05  0.00D+00 EMaxC= 1.00D-01 BMatC= 1.26D-08 BMatP= 1.79D-07
 IDIUse=1 WtCom= 1.00D+00 WtEn= 0.00D+00
 Coeff-Com:  0.437D-01-0.178D+00 0.451D+00-0.103D+01 0.171D+01
 Coeff:      0.437D-01-0.178D+00 0.451D+00-0.103D+01 0.171D+01
 Gap=     0.514 Goal=   None    Shift=    0.000
 RMSDP=1.43D-05 MaxDP=1.74D-04 DE=-1.13D-06 OVMax= 1.30D-04

 Cycle   6  Pass 1  IDiag  3:
 E=-0.104091785327654     Delta-E=       -0.000000097107 Rises=F Damp=F
 DIIS: error= 6.87D-06 at cycle   6 NSaved=   6.
 NSaved= 6 IEnMin= 6 EnMin=-0.104091785327654     IErMin= 6 ErrMin= 6.87D-06
 ErrMax= 6.87D-06  0.00D+00 EMaxC= 1.00D-01 BMatC= 9.14D-10 BMatP= 1.26D-08
 IDIUse=1 WtCom= 1.00D+00 WtEn= 0.00D+00
 Coeff-Com: -0.192D-01 0.784D-01-0.199D+00 0.473D+00-0.996D+00 0.166D+01
 Coeff:     -0.192D-01 0.784D-01-0.199D+00 0.473D+00-0.996D+00 0.166D+01
 Gap=     0.514 Goal=   None    Shift=    0.000
 RMSDP=4.33D-06 MaxDP=4.77D-05 DE=-9.71D-08 OVMax= 4.93D-05

 Cycle   7  Pass 1  IDiag  3:
 E=-0.104091792697005     Delta-E=       -0.000000007369 Rises=F Damp=F
 DIIS: error= 1.25D-06 at cycle   7 NSaved=   7.
 NSaved= 7 IEnMin= 7 EnMin=-0.104091792697005     IErMin= 7 ErrMin= 1.25D-06
 ErrMax= 1.25D-06  0.00D+00 EMaxC= 1.00D-01 BMatC= 4.17D-11 BMatP= 9.14D-10
 IDIUse=1 WtCom= 1.00D+00 WtEn= 0.00D+00
 Coeff-Com:  0.671D-02-0.274D-01 0.697D-01-0.168D+00 0.379D+00-0.787D+00
 Coeff-Com:  0.153D+01
 Coeff:      0.671D-02-0.274D-01 0.697D-01-0.168D+00 0.379D+00-0.787D+00
 Coeff:      0.153D+01
 Gap=     0.514 Goal=   None    Shift=    0.000
 RMSDP=8.19D-07 MaxDP=8.38D-06 DE=-7.37D-09 OVMax= 1.02D-05

 Cycle   8  Pass 1  IDiag  3:
 E=-0.104091792994041     Delta-E=       -0.000000000297 Rises=F Damp=F
 DIIS: error= 2.99D-07 at cycle   8 NSaved=   8.
 NSaved= 8 IEnMin= 8 EnMin=-0.104091792994041     IErMin= 8 ErrMin= 2.99D-07
 ErrMax= 2.99D-07  0.00D+00 EMaxC= 1.00D-01 BMatC= 2.48D-12 BMatP= 4.17D-11
 IDIUse=1 WtCom= 1.00D+00 WtEn= 0.00D+00
 Coeff-Com: -0.194D-02 0.794D-02-0.202D-01 0.490D-01-0.113D+00 0.254D+00
 Coeff-Com: -0.664D+00 0.149D+01
 Coeff:     -0.194D-02 0.794D-02-0.202D-01 0.490D-01-0.113D+00 0.254D+00
 Coeff:     -0.664D+00 0.149D+01
 Gap=     0.514 Goal=   None    Shift=    0.000
 RMSDP=1.81D-07 MaxDP=1.96D-06 DE=-2.97D-10 OVMax= 1.78D-06

 Cycle   9  Pass 1  IDiag  3:
 E=-0.104091793010440     Delta-E=       -0.000000000016 Rises=F Damp=F
 DIIS: error= 9.21D-08 at cycle   9 NSaved=   9.
 NSaved= 9 IEnMin= 9 EnMin=-0.104091793010440     IErMin= 9 ErrMin= 9.21D-08
 ErrMax= 9.21D-08  0.00D+00 EMaxC= 1.00D-01 BMatC= 2.00D-13 BMatP= 2.48D-12
 IDIUse=1 WtCom= 1.00D+00 WtEn= 0.00D+00
 Coeff-Com:  0.477D-03-0.195D-02 0.497D-02-0.121D-01 0.288D-01-0.687D-01
 Coeff-Com:  0.212D+00-0.715D+00 0.155D+01
 Coeff:      0.477D-03-0.195D-02 0.497D-02-0.121D-01 0.288D-01-0.687D-01
 Coeff:      0.212D+00-0.715D+00 0.155D+01
 Gap=     0.514 Goal=   None    Shift=    0.000
 RMSDP=5.37D-08 MaxDP=6.35D-07 DE=-1.64D-11 OVMax= 5.03D-07

 Cycle  10  Pass 1  IDiag  3:
 E=-0.104091793012032     Delta-E=       -0.000000000002 Rises=F Damp=F
 DIIS: error= 2.27D-08 at cycle  10 NSaved=  10.
 NSaved=10 IEnMin=10 EnMin=-0.104091793012032     IErMin=10 ErrMin= 2.27D-08
 ErrMax= 2.27D-08  0.00D+00 EMaxC= 1.00D-01 BMatC= 1.23D-14 BMatP= 2.00D-13
 IDIUse=1 WtCom= 1.00D+00 WtEn= 0.00D+00
 Coeff-Com: -0.801D-04 0.328D-03-0.835D-03 0.205D-02-0.523D-02 0.139D-01
 Coeff-Com: -0.525D-01 0.229D+00-0.713D+00 0.153D+01
 Coeff:     -0.801D-04 0.328D-03-0.835D-03 0.205D-02-0.523D-02 0.139D-01
 Coeff:     -0.525D-01 0.229D+00-0.713D+00 0.153D+01
 Gap=     0.514 Goal=   None    Shift=    0.000
 RMSDP=1.32D-08 MaxDP=1.55D-07 DE=-1.59D-12 OVMax= 1.35D-07

 Cycle  11  Pass 1  IDiag  3:
 E=-0.104091793012174     Delta-E=       -0.000000000000 Rises=F Damp=F
 DIIS: error= 3.82D-09 at cycle  11 NSaved=  11.
 NSaved=11 IEnMin=11 EnMin=-0.104091793012174     IErMin=11 ErrMin= 3.82D-09
 ErrMax= 3.82D-09  0.00D+00 EMaxC= 1.00D-01 BMatC= 5.45D-16 BMatP= 1.23D-14
 IDIUse=1 WtCom= 1.00D+00 WtEn= 0.00D+00
 Coeff-Com:  0.522D-05-0.216D-04 0.554D-04-0.147D-03 0.523D-03-0.195D-02
 Coeff-Com:  0.106D-01-0.570D-01 0.213D+00-0.624D+00 0.146D+01
 Coeff:      0.522D-05-0.216D-04 0.554D-04-0.147D-03 0.523D-03-0.195D-02
 Coeff:      0.106D-01-0.570D-01 0.213D+00-0.624D+00 0.146D+01
 Gap=     0.514 Goal=   None    Shift=    0.000
 RMSDP=2.53D-09 MaxDP=2.32D-08 DE=-1.42D-13 OVMax= 2.14D-08

 Cycle  12  Pass 2  IDiag  1:
 SCF Done:  E(RPM3) = -0.104091793012     A.U. after   12 cycles
            NFock= 11  Conv=0.25D-08     -V/T= 0.9983
 KE=-5.963503056048D+01 PE=-2.554094672310D+02 EE= 1.444841421248D+02
 Leave Link  502 at Wed Sep  7 15:36:15 2022, MaxMem=   131072000 cpu:               0.0 elap:               0.0
 (Enter /opt/g16/l701.exe)
 ... and contract with generalized density number  0.
 Compute integral first derivatives.
 Leave Link  701 at Wed Sep  7 15:36:15 2022, MaxMem=   131072000 cpu:               0.0 elap:               0.0
 (Enter /opt/g16/l702.exe)
 L702 exits ... SP integral derivatives will be done elsewhere.
 Leave Link  702 at Wed Sep  7 15:36:16 2022, MaxMem=   131072000 cpu:               0.0 elap:               0.0
 (Enter /opt/g16/l703.exe)
 Integral derivatives from FoFJK, PRISM(SPDF).
 Compute integral first derivatives, UseDBF=F ICtDFT=           0.
 Calling FoFJK, ICntrl=      2127 FMM=F ISym2X=0 I1Cent= 0 IOpClX= 0 NMat=1 NMatS=1 NMatT=0.
 FoFJK:  IHMeth= 9 ICntrl=    2127 DoSepK=F KAlg= 0 I1Cent=           0 FoldK=F
 IRaf=         0 NMat=       1 IRICut=       1 DoRegI=T DoRafI=F ISym2E= 0 IDoP0=3 IntGTp=3.
 FoFCou: FMM=F IPFlag=           0 FMFlag=      100000 FMFlg1=         800
         NFxFlg=           0 DoJE=F BraDBF=F KetDBF=F FulRan=T
         wScrn=  0.000000 ICntrl=      2127 IOpCl=  0 I1Cent=           0 NGrid=           0
         NMat0=    1 NMatS0=      1 NMatT0=    0 NMatD0=    1 NMtDS0=    0 NMtDT0=    0
 Symmetry not used in FoFCou.
 Leave Link  703 at Wed Sep  7 15:36:16 2022, MaxMem=   131072000 cpu:               0.0 elap:               0.0
 (Enter /opt/g16/l716.exe)
 Dipole        = 8.58459362D-02-3.25998338D-01-4.46751958D-01
 ***** Axes restored to original set *****
 -------------------------------------------------------------------
 Center     Atomic                   Forces (Hartrees/Bohr)
 Number     Number              X              Y              Z
 -------------------------------------------------------------------
      1        6           0.033940581   -0.013748140    0.015404747
      2        1          -0.012022315    0.008123597   -0.005916528
      3        1          -0.005404832    0.010060905   -0.000337679
      4        1          -0.015565376   -0.002436633   -0.011398345
      5        6          -0.008990469   -0.000697703    0.032575225
      6        1           0.007557485   -0.002547168   -0.003571000
      7        1           0.004251997    0.000273613   -0.012335311
      8        6          -0.008894025    0.003046187   -0.000564262
      9        1          -0.003039940    0.003929544   -0.012233060
     10        8           0.000173894   -0.004562631   -0.000741838
     11        6           0.028753650    0.001651153   -0.001375740
     12        1           0.000621313   -0.001228803    0.000853782
     13        1          -0.006153481    0.008444614   -0.000636761
     14        1          -0.003776775   -0.004015431   -0.000627174
     15        6          -0.027253827   -0.004681516    0.011234134
     16        1           0.005095457    0.001067481   -0.002635188
     17        1          -0.000415003   -0.000467913   -0.003062328
     18        1           0.011121665   -0.002211155   -0.004632675
 -------------------------------------------------------------------
 Cartesian Forces:  Max     0.033940581 RMS     0.010598039
 Leave Link  716 at Wed Sep  7 15:36:16 2022, MaxMem=   131072000 cpu:               0.0 elap:               0.0
 (Enter /opt/g16/l103.exe)

 GradGradGradGradGradGradGradGradGradGradGradGradGradGradGradGradGradGrad
 Berny optimization.
 Using GEDIIS/GDIIS optimizer.
 FormGI is forming the generalized inverse of G from B-inverse, IUseBI=4.
 Internal  Forces:  Max     0.018704300 RMS     0.004742333
 Search for a local minimum.
 Step number   2 out of a maximum of   97
 All quantities printed in internal units (Hartrees-Bohrs-Radians)
 RMS Force = .47423D-02 SwitMx=.10000D-02 MixMth= 1
 Mixed Optimization -- RFO/linear search
 Update second derivatives using D2CorX and points    1    2
 DE= -2.74D-02 DEPred=-2.85D-02 R= 9.62D-01
 TightC=F SS=  1.41D+00  RLast= 3.54D-01 DXNew= 5.0454D-01 1.0623D+00
 Trust test= 9.62D-01 RLast= 3.54D-01 DXMaxT set to 5.05D-01
 ITU=  1  0
 Use linear search instead of GDIIS.
     Eigenvalues ---    0.00230   0.00521   0.01182   0.01343   0.01659
     Eigenvalues ---    0.03358   0.03403   0.04455   0.04812   0.05060
     Eigenvalues ---    0.05086   0.05103   0.05440   0.05452   0.05656
     Eigenvalues ---    0.07861   0.09304   0.09467   0.12884   0.12919
     Eigenvalues ---    0.15542   0.16000   0.16000   0.16000   0.16000
     Eigenvalues ---    0.16000   0.16297   0.17787   0.20424   0.21316
     Eigenvalues ---    0.21814   0.26124   0.27633   0.28701   0.29560
     Eigenvalues ---    0.30459   0.30586   0.31543   0.33077   0.33398
     Eigenvalues ---    0.33607   0.36414   0.38116   0.40192   0.41481
     Eigenvalues ---    0.44279   0.50684   0.58425
 RFO step:  Lambda=-1.24297991D-02 EMin= 2.29920423D-03
 Quartic linear search produced a step of  0.55443.
 Iteration  1 RMS(Cart)=  0.08192152 RMS(Int)=  0.00339770
 Iteration  2 RMS(Cart)=  0.00423621 RMS(Int)=  0.00109505
 Iteration  3 RMS(Cart)=  0.00001146 RMS(Int)=  0.00109501
 Iteration  4 RMS(Cart)=  0.00000002 RMS(Int)=  0.00109501
 ITry= 1 IFail=0 DXMaxC= 2.80D-01 DCOld= 1.00D+10 DXMaxT= 5.05D-01 DXLimC= 3.00D+00 Rises=F
 Variable       Old X    -DE/DX   Delta X   Delta X   Delta X     New X
                                 (Linear)    (Quad)   (Total)
    R1        2.10846  -0.00883  -0.02391  -0.01934  -0.04325   2.06521
    R2        2.11479  -0.00672  -0.01148  -0.02062  -0.03211   2.08268
    R3        2.01336   0.01870   0.05449   0.00738   0.06188   2.07523
    R4        2.84622  -0.00035  -0.01297   0.01127  -0.00170   2.84452
    R5        2.10673   0.00082   0.01245  -0.00880   0.00365   2.11038
    R6        2.13697  -0.00832  -0.01745  -0.02439  -0.04185   2.09512
    R7        2.87181   0.00516   0.05357  -0.03200   0.02158   2.89339
    R8        2.07842   0.01258   0.04283   0.00556   0.04840   2.12682
    R9        2.68735  -0.00480   0.02061  -0.03590  -0.01529   2.67206
   R10        2.86926   0.00754   0.06497  -0.03467   0.03030   2.89955
   R11        1.79266  -0.00122   0.00158  -0.00465  -0.00307   1.78959
   R12        2.12673  -0.00942  -0.03498  -0.01389  -0.04888   2.07786
   R13        2.10388  -0.00257  -0.00705  -0.00485  -0.01190   2.09198
   R14        2.88998  -0.00842  -0.04143  -0.00500  -0.04643   2.84355
   R15        2.08113  -0.00196  -0.00432  -0.00436  -0.00869   2.07245
   R16        2.08851  -0.00177   0.00466  -0.01236  -0.00770   2.08081
   R17        2.03896   0.01071   0.03656   0.00273   0.03929   2.07825
    A1        1.72570   0.00867   0.04611   0.09022   0.13634   1.86203
    A2        1.99225  -0.00611  -0.02416  -0.06887  -0.09430   1.89796
    A3        1.92286   0.00121  -0.00129   0.01735   0.01537   1.93823
    A4        1.87626   0.00159   0.01205  -0.00730   0.00391   1.88017
    A5        1.97647  -0.00703  -0.02717  -0.01121  -0.03883   1.93764
    A6        1.95872   0.00188  -0.00141  -0.01136  -0.01391   1.94481
    A7        1.93452   0.00074  -0.00536   0.00740   0.00200   1.93651
    A8        1.93209   0.00142  -0.00808   0.00082  -0.01103   1.92106
    A9        2.01286  -0.00707  -0.02183  -0.04968  -0.07426   1.93860
   A10        1.70246   0.00388   0.02818   0.08753   0.11564   1.81810
   A11        1.91125   0.00247   0.01450   0.00140   0.01522   1.92647
   A12        1.94621   0.00048   0.00233  -0.02537  -0.02656   1.91964
   A13        1.81988   0.00593   0.02481   0.06153   0.08722   1.90709
   A14        1.89033  -0.00230  -0.01739  -0.02196  -0.04093   1.84940
   A15        1.99206  -0.00515  -0.01313  -0.03671  -0.05097   1.94109
   A16        1.87520  -0.00053  -0.00394   0.01620   0.01319   1.88839
   A17        1.89115  -0.00078  -0.00466   0.00920   0.00568   1.89683
   A18        1.98464   0.00331   0.01563  -0.01767  -0.00536   1.97929
   A19        1.84959  -0.00065   0.01809  -0.02465  -0.00655   1.84304
   A20        1.93421  -0.00117  -0.00258  -0.05006  -0.05326   1.88095
   A21        1.90464   0.00062   0.00943  -0.00094   0.00999   1.91463
   A22        2.05988  -0.00837  -0.02029  -0.03305  -0.05365   2.00624
   A23        1.85210  -0.00186  -0.00909  -0.00225  -0.01336   1.83874
   A24        1.87035   0.00496   0.00325   0.02752   0.02699   1.89734
   A25        1.82962   0.00667   0.02113   0.06739   0.08841   1.91802
   A26        1.91567   0.00379   0.00674   0.02284   0.02876   1.94443
   A27        1.96959  -0.00182  -0.00921   0.01051   0.00091   1.97049
   A28        1.96813  -0.00317  -0.02333  -0.01730  -0.04103   1.92710
   A29        1.81781   0.00159   0.01615   0.02542   0.04082   1.85862
   A30        1.94553  -0.00339  -0.01091  -0.04865  -0.06032   1.88521
   A31        1.84089   0.00319   0.02438   0.00867   0.03306   1.87396
    D1        0.57668   0.00710   0.03684   0.13274   0.16902   0.74570
    D2       -1.29254   0.00139   0.01024   0.02468   0.03513  -1.25742
    D3        2.76063   0.00544   0.03424   0.10124   0.13484   2.89547
    D4       -1.33749  -0.00034  -0.00430   0.01888   0.01458  -1.32292
    D5        3.07647  -0.00605  -0.03091  -0.08917  -0.11932   2.95716
    D6        0.84646  -0.00200  -0.00690  -0.01262  -0.01961   0.82686
    D7        2.81739   0.00139   0.00166   0.04557   0.04711   2.86450
    D8        0.94817  -0.00432  -0.02495  -0.06248  -0.08678   0.86139
    D9       -1.28184  -0.00027  -0.00094   0.01407   0.01293  -1.26891
   D10        0.85713  -0.00070  -0.00435  -0.01037  -0.01395   0.84318
   D11        2.85030   0.00055  -0.00390   0.02802   0.02382   2.87412
   D12       -1.20299  -0.00085  -0.00806  -0.04178  -0.04784  -1.25083
   D13        3.05308  -0.00313  -0.01631  -0.03786  -0.05437   2.99871
   D14       -1.23694  -0.00188  -0.01586   0.00052  -0.01660  -1.25354
   D15        0.99296  -0.00329  -0.02003  -0.06928  -0.08826   0.90470
   D16       -1.36579   0.00296   0.02478   0.05382   0.07785  -1.28795
   D17        0.62737   0.00421   0.02523   0.09220   0.11562   0.74299
   D18        2.85727   0.00280   0.02106   0.02240   0.04396   2.90123
   D19       -2.98859  -0.00448  -0.01385  -0.07796  -0.09187  -3.08045
   D20       -1.03219   0.00103   0.00472  -0.00945  -0.00473  -1.03692
   D21        1.06047   0.00173   0.00580   0.00235   0.00820   1.06867
   D22        0.55514   0.00412   0.01689   0.07939   0.09719   0.65234
   D23        2.58852   0.00156   0.01003   0.04719   0.05713   2.64565
   D24       -1.61010   0.00509   0.03201   0.11303   0.14406  -1.46603
   D25       -1.46378   0.00027  -0.00329   0.01839   0.01602  -1.44775
   D26        0.56960  -0.00229  -0.01015  -0.01381  -0.02404   0.54556
   D27        2.65417   0.00124   0.01183   0.05203   0.06290   2.71707
   D28        2.73580  -0.00061  -0.00495   0.00272  -0.00118   2.73462
   D29       -1.51400  -0.00317  -0.01181  -0.02948  -0.04124  -1.55525
   D30        0.57056   0.00036   0.01017   0.03636   0.04570   0.61626
   D31        1.47781   0.00049   0.00127  -0.03608  -0.03481   1.44300
   D32       -0.54113  -0.00281  -0.01760  -0.08856  -0.10635  -0.64748
   D33       -2.62498  -0.00337  -0.02567  -0.09494  -0.12040  -2.74537
   D34       -0.71887   0.00413   0.01803   0.03348   0.05246  -0.66641
   D35       -2.73781   0.00083  -0.00084  -0.01900  -0.01909  -2.75690
   D36        1.46153   0.00027  -0.00891  -0.02538  -0.03313   1.42839
   D37       -2.68198   0.00121   0.01778  -0.00529   0.01152  -2.67046
   D38        1.58226  -0.00209  -0.00108  -0.05778  -0.06002   1.52223
   D39       -0.50158  -0.00265  -0.00916  -0.06416  -0.07407  -0.57565
         Item               Value     Threshold  Converged?
 Maximum Force            0.018704     0.000450     NO 
 RMS     Force            0.004742     0.000300     NO 
 Maximum Displacement     0.280264     0.001800     NO 
 RMS     Displacement     0.083733     0.001200     NO 
 Predicted change in Energy=-8.891849D-03
 Lowest energy point so far.  Saving SCF results.
 GradGradGradGradGradGradGradGradGradGradGradGradGradGradGradGradGradGrad

[...]
 ! A10   A(6,5,7)              106.134          -DE/DX =    0.0                 !
 ! A11   A(6,5,8)              108.6222         -DE/DX =    0.0                 !
 ! A12   A(7,5,8)              110.7163         -DE/DX =    0.0                 !
 ! A13   A(5,8,9)              109.5774         -DE/DX =    0.0                 !
 ! A14   A(5,8,10)             107.1698         -DE/DX =    0.0                 !
 ! A15   A(5,8,11)             110.0349         -DE/DX =    0.0                 !
 ! A16   A(9,8,10)             107.2333         -DE/DX =    0.0                 !
 ! A17   A(9,8,11)             109.0603         -DE/DX =    0.0                 !
 ! A18   A(10,8,11)            113.6708         -DE/DX =    0.0                 !
 ! A19   A(8,10,12)            106.765          -DE/DX =    0.0                 !
 ! A20   A(8,11,13)            106.7692         -DE/DX =    0.0                 !
 ! A21   A(8,11,14)            110.4688         -DE/DX =    0.0                 !
 ! A22   A(8,11,15)            112.798          -DE/DX =    0.0                 !
 ! A23   A(13,11,14)           106.2658         -DE/DX =    0.0                 !
 ! A24   A(13,11,15)           109.8226         -DE/DX =    0.0                 !
 ! A25   A(14,11,15)           110.4441         -DE/DX =    0.0                 !
 ! A26   A(11,15,16)           110.2672         -DE/DX =    0.0                 !
 ! A27   A(11,15,17)           111.9364         -DE/DX =    0.0                 !
 ! A28   A(11,15,18)           111.5669         -DE/DX =    0.0                 !
 ! A29   A(16,15,17)           107.2506         -DE/DX =    0.0                 !
 ! A30   A(16,15,18)           108.0935         -DE/DX =    0.0                 !
 ! A31   A(17,15,18)           107.5371         -DE/DX =    0.0                 !
 ! D1    D(2,1,5,6)             50.3891         -DE/DX =    0.0                 !
 ! D2    D(2,1,5,7)            -66.668          -DE/DX =    0.0                 !
 ! D3    D(2,1,5,8)            170.4364         -DE/DX =    0.0                 !
 ! D4    D(3,1,5,6)            -69.6563         -DE/DX =    0.0                 !
 ! D5    D(3,1,5,7)            173.2867         -DE/DX =    0.0                 !
 ! D6    D(3,1,5,8)             50.391          -DE/DX =    0.0                 !
 ! D7    D(4,1,5,6)            170.8938         -DE/DX =    0.0                 !
 ! D8    D(4,1,5,7)             53.8368         -DE/DX =    0.0                 !
 ! D9    D(4,1,5,8)            -69.0589         -DE/DX =    0.0                 !
 ! D10   D(1,5,8,9)             49.7137         -DE/DX =    0.0                 !
 ! D11   D(1,5,8,10)           165.7532         -DE/DX =    0.0                 !
 ! D12   D(1,5,8,11)           -70.1947         -DE/DX =    0.0                 !
 ! D13   D(6,5,8,9)            170.7357         -DE/DX =    0.0                 !
 ! D14   D(6,5,8,10)           -73.2247         -DE/DX =    0.0                 !
 ! D15   D(6,5,8,11)            50.8274         -DE/DX =    0.0                 !
 ! D16   D(7,5,8,9)            -73.0999         -DE/DX =    0.0                 !
 ! D17   D(7,5,8,10)            42.9396         -DE/DX =    0.0                 !
 ! D18   D(7,5,8,11)           166.9917         -DE/DX =    0.0                 !
 ! D19   D(5,8,10,12)          161.626          -DE/DX =    0.0                 !
 ! D20   D(9,8,10,12)          -80.7909         -DE/DX =    0.0                 !
 ! D21   D(11,8,10,12)          39.826          -DE/DX =    0.0                 !
 ! D22   D(5,8,11,13)           55.8            -DE/DX =    0.0                 !
 ! D23   D(5,8,11,14)          170.9332         -DE/DX =    0.0                 !
 ! D24   D(5,8,11,15)          -64.9197         -DE/DX =    0.0                 !
 ! D25   D(9,8,11,13)          -64.4215         -DE/DX =    0.0                 !
 ! D26   D(9,8,11,14)           50.7117         -DE/DX =    0.0                 !
 ! D27   D(9,8,11,15)          174.8588         -DE/DX =    0.0                 !
 ! D28   D(10,8,11,13)         175.9946         -DE/DX =    0.0                 !
 ! D29   D(10,8,11,14)         -68.8722         -DE/DX =    0.0                 !
 ! D30   D(10,8,11,15)          55.2749         -DE/DX =    0.0                 !
 ! D31   D(8,11,15,16)          48.3746         -DE/DX =    0.0                 !
 ! D32   D(8,11,15,17)         -70.934          -DE/DX =    0.0                 !
 ! D33   D(8,11,15,18)         168.5032         -DE/DX =    0.0                 !
 ! D34   D(13,11,15,16)        -70.5848         -DE/DX =    0.0                 !
 ! D35   D(13,11,15,17)        170.1066         -DE/DX =    0.0                 !
 ! D36   D(13,11,15,18)         49.5438         -DE/DX =    0.0                 !
 ! D37   D(14,11,15,16)        172.5353         -DE/DX =    0.0                 !
 ! D38   D(14,11,15,17)         53.2267         -DE/DX =    0.0                 !
 ! D39   D(14,11,15,18)        -67.3361         -DE/DX =    0.0                 !
 --------------------------------------------------------------------------------
 Lowest energy point so far.  Saving SCF results.
 Largest change from initial coordinates is atom   18       1.211 Angstoms.
 GradGradGradGradGradGradGradGradGradGradGradGradGradGradGradGradGradGrad

 Leave Link  103 at Wed Sep  7 15:36:35 2022, MaxMem=   131072000 cpu:               0.0 elap:               0.0
 (Enter /opt/g16/l202.exe)
                          Input orientation:                          
 ---------------------------------------------------------------------
 Center     Atomic      Atomic             Coordinates (Angstroms)
 Number     Number       Type             X           Y           Z
 ---------------------------------------------------------------------
      1          6           0        9.498266    1.243384   -0.375879
      2          1           0        9.356733    0.343118    0.233740
      3          1           0       10.483673    1.170256   -0.867065
      4          1           0        8.737065    1.230188   -1.166775
      5          6           0        9.418707    2.499974    0.461928
      6          1           0       10.085905    2.414202    1.350104
      7          1           0        8.394856    2.638788    0.858643
      8          6           0        9.852988    3.722673   -0.361903
      9          1           0        9.308765    3.728713   -1.339024
     10          8           0        9.444758    4.874326    0.352591
     11          6           0       11.367840    3.666637   -0.630498
     12          1           0        9.948229    5.601022    0.010589
     13          1           0       11.570203    2.690645   -1.127214
     14          1           0       11.661736    4.450140   -1.355119
     15          6           0       12.191270    3.779645    0.632354
     16          1           0       11.808331    3.087239    1.401651
     17          1           0       12.153866    4.791291    1.057216
     18          1           0       13.244810    3.536758    0.449661
 ---------------------------------------------------------------------
                    Distance matrix (angstroms):
                    1          2          3          4          5
     1  C    0.000000
     2  H    1.096425   0.000000
     3  H    1.103467   1.779304   0.000000
     4  H    1.097778   1.769837   1.773149   0.000000
     5  C    1.512371   2.169778   2.160677   2.174779   0.000000
     6  H    2.166830   2.463199   2.573219   3.091268   1.114167
     7  H    2.165343   2.566284   3.081852   2.490698   1.106763
     8  C    2.504575   3.467341   2.677272   2.847031   1.536974
     9  H    2.672156   3.733383   2.854621   2.568879   2.182960
    10  O    3.703683   4.533621   4.035721   4.011115   2.377011
    11  C    3.071204   3.979603   2.658879   3.625584   2.520638
    12  H    4.397821   5.295774   4.548480   4.685862   3.178145
    13  H    2.636663   3.501790   1.886746   3.187659   2.681541
    14  H    3.990338   4.970427   3.519044   4.353994   3.483674
    15  C    3.834243   4.472495   3.460210   4.654904   3.058383
    16  H    3.449031   3.860641   3.252170   4.413403   2.634058
    17  H    4.657641   5.318676   4.427674   5.413144   3.617402
    18  H    4.469639   5.036180   3.867554   5.315345   3.964106
                    6          7          8          9         10
     6  H    0.000000
     7  H    1.775281   0.000000
     8  C    2.167329   2.188764   0.000000
     9  H    3.092458   2.617806   1.118472   0.000000
    10  O    2.730991   2.521113   1.415436   2.047555   0.000000
    11  C    2.671093   3.480323   1.539499   2.178451   2.474514
    12  H    3.459636   3.450652   1.917295   2.394976   0.947912
    13  H    2.901149   3.745550   2.144670   2.497308   3.387595
    14  H    3.734504   4.342148   2.187980   2.461135   2.830406
    15  C    2.610011   3.970582   2.541526   3.492529   2.969835
    16  H    1.849969   3.485366   2.708738   3.764387   3.143355
    17  H    3.164300   4.336227   2.906868   3.868544   2.800475
    18  H    3.471254   4.949310   3.492514   4.327665   4.029752
                   11         12         13         14         15
    11  C    0.000000
    12  H    2.483573   0.000000
    13  H    1.113660   3.520751   0.000000
    14  H    1.106945   2.475034   1.776553   0.000000
    15  C    1.511821   2.955544   2.160491   2.163335   0.000000
    16  H    2.158556   3.422592   2.570826   3.078761   1.103578
    17  H    2.175101   2.572145   3.086278   2.485546   1.097878
    18  H    2.169476   3.914258   2.450867   2.568583   1.096502
                   16         17         18
    16  H    0.000000
    17  H    1.772519   0.000000
    18  H    1.780961   1.770066   0.000000
 Stoichiometry    C5H12O
 Framework group  C1[X(C5H12O)]
 Deg. of freedom    48
 Full point group                 C1      NOp   1
 RotChk:  IX=2 Diff= 9.33D-16
 Largest Abelian subgroup         C1      NOp   1
 Largest concise Abelian subgroup C1      NOp   1
                         Standard orientation:                         
 ---------------------------------------------------------------------
 Center     Atomic      Atomic             Coordinates (Angstroms)
 Number     Number       Type             X           Y           Z
 ---------------------------------------------------------------------
      1          6           0       -2.156676   -0.577772   -0.107111
      2          1           0       -2.882411   -0.972233    0.613901
      3          1           0       -1.681734   -1.434473   -0.615177
      4          1           0       -2.716630   -0.016791   -0.866630
      5          6           0       -1.110828    0.279759    0.569728
      6          1           0       -0.674115   -0.260316    1.440915
      7          1           0       -1.567946    1.201723    0.977096
      8          6           0        0.020420    0.622102   -0.412804
      9          1           0       -0.416177    1.011637   -1.366022
     10          8           0        0.771635    1.673519    0.164827
     11          6           0        0.852505   -0.636593   -0.718386
     12          1           0        1.608460    1.688199   -0.280196
     13          1           0        0.142610   -1.407287   -1.095634
     14          1           0        1.563585   -0.439642   -1.543555
     15          6           0        1.584394   -1.163807    0.494869
     16          1           0        0.897320   -1.232797    1.355715
     17          1           0        2.412936   -0.507355    0.791387
     18          1           0        2.002135   -2.160952    0.311811
 ---------------------------------------------------------------------
 Rotational constants (GHZ):           4.1856045           2.7326188           2.0296229
 Leave Link  202 at Wed Sep  7 15:36:35 2022, MaxMem=   131072000 cpu:               0.0 elap:               0.0
 (Enter /opt/g16/l601.exe)
 Copying SCF densities to generalized density rwf, IOpCl= 0 IROHF=0.

 **********************************************************************

            Population analysis using the SCF density.

 **********************************************************************

 Orbital symmetries:
       Occupied  (A) (A) (A) (A) (A) (A) (A) (A) (A) (A) (A) (A)
                 (A) (A) (A) (A) (A) (A) (A)
       Virtual   (A) (A) (A) (A) (A) (A) (A) (A) (A) (A) (A) (A)
                 (A) (A) (A) (A) (A)
 The electronic state is 1-A.
 Alpha  occ. eigenvalues --   -1.49361  -1.26837  -1.17425  -0.93490  -0.86009
 Alpha  occ. eigenvalues --   -0.71616  -0.63175  -0.61900  -0.60954  -0.54893
 Alpha  occ. eigenvalues --   -0.52551  -0.50804  -0.49942  -0.48665  -0.47796
 Alpha  occ. eigenvalues --   -0.44744  -0.42910  -0.42542  -0.39867
 Alpha virt. eigenvalues --    0.11762   0.12375   0.13063   0.13598   0.14150
 Alpha virt. eigenvalues --    0.14495   0.14752   0.15342   0.15594   0.16087
 Alpha virt. eigenvalues --    0.16797   0.17339   0.17605   0.17804   0.18518
 Alpha virt. eigenvalues --    0.18655   0.21295
          Condensed to atoms (all electrons):
               1          2          3          4          5          6
     1  C    4.113568   0.000000   0.000000   0.000000   0.000000   0.000000
     2  H    0.000000   0.959205   0.000000   0.000000   0.000000   0.000000
     3  H    0.000000   0.000000   0.959202   0.000000   0.000000   0.000000
     4  H    0.000000   0.000000   0.000000   0.961140   0.000000   0.000000
     5  C    0.000000   0.000000   0.000000   0.000000   4.121630   0.000000
     6  H    0.000000   0.000000   0.000000   0.000000   0.000000   0.936413
     7  H    0.000000   0.000000   0.000000   0.000000   0.000000   0.000000
     8  C    0.000000   0.000000   0.000000   0.000000   0.000000   0.000000
     9  H    0.000000   0.000000   0.000000   0.000000   0.000000   0.000000
    10  O    0.000000   0.000000   0.000000   0.000000   0.000000   0.000000
    11  C    0.000000   0.000000   0.000000   0.000000   0.000000   0.000000
    12  H    0.000000   0.000000   0.000000   0.000000   0.000000   0.000000
    13  H    0.000000   0.000000   0.000000   0.000000   0.000000   0.000000
    14  H    0.000000   0.000000   0.000000   0.000000   0.000000   0.000000
    15  C    0.000000   0.000000   0.000000   0.000000   0.000000   0.000000
    16  H    0.000000   0.000000   0.000000   0.000000   0.000000   0.000000
    17  H    0.000000   0.000000   0.000000   0.000000   0.000000   0.000000
    18  H    0.000000   0.000000   0.000000   0.000000   0.000000   0.000000
               7          8          9         10         11         12
     1  C    0.000000   0.000000   0.000000   0.000000   0.000000   0.000000
     2  H    0.000000   0.000000   0.000000   0.000000   0.000000   0.000000
     3  H    0.000000   0.000000   0.000000   0.000000   0.000000   0.000000
     4  H    0.000000   0.000000   0.000000   0.000000   0.000000   0.000000
     5  C    0.000000   0.000000   0.000000   0.000000   0.000000   0.000000
     6  H    0.000000   0.000000   0.000000   0.000000   0.000000   0.000000
     7  H    0.932474   0.000000   0.000000   0.000000   0.000000   0.000000
     8  C    0.000000   3.921276   0.000000   0.000000   0.000000   0.000000
     9  H    0.000000   0.000000   0.958042   0.000000   0.000000   0.000000
    10  O    0.000000   0.000000   0.000000   6.311555   0.000000   0.000000
    11  C    0.000000   0.000000   0.000000   0.000000   4.146749   0.000000
    12  H    0.000000   0.000000   0.000000   0.000000   0.000000   0.812390
    13  H    0.000000   0.000000   0.000000   0.000000   0.000000   0.000000
    14  H    0.000000   0.000000   0.000000   0.000000   0.000000   0.000000
    15  C    0.000000   0.000000   0.000000   0.000000   0.000000   0.000000
    16  H    0.000000   0.000000   0.000000   0.000000   0.000000   0.000000
    17  H    0.000000   0.000000   0.000000   0.000000   0.000000   0.000000
    18  H    0.000000   0.000000   0.000000   0.000000   0.000000   0.000000
              13         14         15         16         17         18
     1  C    0.000000   0.000000   0.000000   0.000000   0.000000   0.000000
     2  H    0.000000   0.000000   0.000000   0.000000   0.000000   0.000000
     3  H    0.000000   0.000000   0.000000   0.000000   0.000000   0.000000
     4  H    0.000000   0.000000   0.000000   0.000000   0.000000   0.000000
     5  C    0.000000   0.000000   0.000000   0.000000   0.000000   0.000000
     6  H    0.000000   0.000000   0.000000   0.000000   0.000000   0.000000
     7  H    0.000000   0.000000   0.000000   0.000000   0.000000   0.000000
     8  C    0.000000   0.000000   0.000000   0.000000   0.000000   0.000000
     9  H    0.000000   0.000000   0.000000   0.000000   0.000000   0.000000
    10  O    0.000000   0.000000   0.000000   0.000000   0.000000   0.000000
    11  C    0.000000   0.000000   0.000000   0.000000   0.000000   0.000000
    12  H    0.000000   0.000000   0.000000   0.000000   0.000000   0.000000
    13  H    0.934756   0.000000   0.000000   0.000000   0.000000   0.000000
    14  H    0.000000   0.949462   0.000000   0.000000   0.000000   0.000000
    15  C    0.000000   0.000000   4.114124   0.000000   0.000000   0.000000
    16  H    0.000000   0.000000   0.000000   0.948390   0.000000   0.000000
    17  H    0.000000   0.000000   0.000000   0.000000   0.959240   0.000000
    18  H    0.000000   0.000000   0.000000   0.000000   0.000000   0.960386
 Mulliken charges:
               1
     1  C   -0.113568
     2  H    0.040795
     3  H    0.040798
     4  H    0.038860
     5  C   -0.121630
     6  H    0.063587
     7  H    0.067526
     8  C    0.078724
     9  H    0.041958
    10  O   -0.311555
    11  C   -0.146749
    12  H    0.187610
    13  H    0.065244
    14  H    0.050538
    15  C   -0.114124
    16  H    0.051610
    17  H    0.040760
    18  H    0.039614
 Sum of Mulliken charges =   0.00000
 Mulliken charges with hydrogens summed into heavy atoms:
               1
     1  C    0.006886
     5  C    0.009483
     8  C    0.120682
    10  O   -0.123945
    11  C   -0.030966
    15  C    0.017860
 Charge=              0.0000 electrons
 Dipole moment (field-independent basis, Debye):
    X=              0.3888    Y=             -1.0990    Z=             -0.9874  Tot=              1.5277
 N-N= 1.722981673330D+02 E-N=-2.590175434330D+02  KE=-5.970268023925D+01
 Leave Link  601 at Wed Sep  7 15:36:35 2022, MaxMem=   131072000 cpu:               0.0 elap:               0.0
 (Enter /opt/g16/l9999.exe)
 1\1\GINC-TOTEM2\FOpt\RPM3\ZDO\C5H12O1\JRAMOS\07-Sep-2022\0\\#p opt pm3
 \\Conformer number 021. Energy MM = 0.000 kcal/mol\\0,1\C,9.4982657096
 ,1.2433844567,-0.3758794344\H,9.3567325917,0.3431177534,0.2337401852\H
 ,10.4836731601,1.1702556723,-0.8670645205\H,8.7370647307,1.230187821,-
 1.1667746058\C,9.4187070603,2.4999737447,0.4619280052\H,10.0859054943,
 2.4142020032,1.3501041046\H,8.3948555124,2.6387881373,0.8586430404\C,9
 .8529883325,3.7226726682,-0.3619030055\H,9.3087654553,3.7287134279,-1.
 3390239023\O,9.4447578134,4.8743258458,0.3525912042\C,11.3678399034,3.
 6666373099,-0.6304981324\H,9.9482289627,5.6010224787,0.0105888635\H,11
 .5702028985,2.6906452575,-1.127214007\H,11.6617358116,4.4501400828,-1.
 3551191388\C,12.1912699551,3.7796447083,0.6323537528\H,11.8083307893,3
 .087239201,1.4016505413\H,12.1538660793,4.7912911518,1.0572161479\H,13
 .2448097398,3.5367582797,0.4496609014\\Version=ES64L-G16RevA.03\State=
 1-A\HF=-0.1167659\RMSD=2.797e-09\RMSF=1.359e-05\Dipole=0.4493574,-0.08
 91324,-0.3890842\PG=C01 [X(C5H12O1)]\\@


 NEVER TEACH A PIG TO SING.
 IT WASTES YOUR TIME AND ANNOYS THE PIG.
     -- SEEN ON A GREETING CARD
 Job cpu time:       0 days  0 hours  0 minutes 19.8 seconds.
 Elapsed time:       0 days  0 hours  0 minutes 20.5 seconds.
 File lengths (MBytes):  RWF=      6 Int=      0 D2E=      0 Chk=      2 Scr=      1
 Normal termination of Gaussian 16 at Wed Sep  7 15:36:35 2022.
