 Entering Gaussian System, Link 0=/opt/g16/g16
 Input=MD_extract_001_gaussian.com
 Output=MD_extract_001_gaussian.log
 Initial command:
 /opt/g16/l1.exe "/tmp/Gau-316041.inp" -scrdir="/tmp/"
 Entering Link 1 = /opt/g16/l1.exe PID=    316043.
  
 Copyright (c) 1988,1990,1992,1993,1995,1998,2003,2009,2016,
            Gaussian, Inc.  All Rights Reserved.
  
 This is part of the Gaussian(R) 16 program.  It is based on
 the Gaussian(R) 09 system (copyright 2009, Gaussian, Inc.),
 the Gaussian(R) 03 system (copyright 2003, Gaussian, Inc.),
 the Gaussian(R) 98 system (copyright 1998, Gaussian, Inc.),
 the Gaussian(R) 94 system (copyright 1995, Gaussian, Inc.),
 the Gaussian 92(TM) system (copyright 1992, Gaussian, Inc.),
 the Gaussian 90(TM) system (copyright 1990, Gaussian, Inc.),
 the Gaussian 88(TM) system (copyright 1988, Gaussian, Inc.),
 the Gaussian 86(TM) system (copyright 1986, Carnegie Mellon
 University), and the Gaussian 82(TM) system (copyright 1983,
 Carnegie Mellon University). Gaussian is a federally registered
 trademark of Gaussian, Inc.
  
 This software contains proprietary and confidential information,
 including trade secrets, belonging to Gaussian, Inc.
  
 This software is provided under written license and may be
 used, copied, transmitted, or stored only in accord with that
 written license.
  
 The following legend is applicable only to US Government
 contracts under FAR:
  
                    RESTRICTED RIGHTS LEGEND
  
 Use, reproduction and disclosure by the US Government is
 subject to restrictions as set forth in subparagraphs (a)
 and (c) of the Commercial Computer Software - Restricted
 Rights clause in FAR 52.227-19.
  
 Gaussian, Inc.
 340 Quinnipiac St., Bldg. 40, Wallingford CT 06492
  
  
 ---------------------------------------------------------------
 Warning -- This program may not be used in any manner that
 competes with the business of Gaussian, Inc. or will provide
 assistance to any competitor of Gaussian, Inc.  The licensee
 of this program is prohibited from giving any competitor of
 Gaussian, Inc. access to this program.  By using this program,
 the user acknowledges that Gaussian, Inc. is engaged in the
 business of creating and licensing software in the field of
 computational chemistry and represents and warrants to the
 licensee that it is not a competitor of Gaussian, Inc. and that
 it will not use this program in any manner prohibited above.
 ---------------------------------------------------------------
  

 Cite this work as:
 Gaussian 16, Revision A.03,
 M. J. Frisch, G. W. Trucks, H. B. Schlegel, G. E. Scuseria, 
 M. A. Robb, J. R. Cheeseman, G. Scalmani, V. Barone, 
 G. A. Petersson, H. Nakatsuji, X. Li, M. Caricato, A. V. Marenich, 
 J. Bloino, B. G. Janesko, R. Gomperts, B. Mennucci, H. P. Hratchian, 
 J. V. Ortiz, A. F. Izmaylov, J. L. Sonnenberg, D. Williams-Young, 
 F. Ding, F. Lipparini, F. Egidi, J. Goings, B. Peng, A. Petrone, 
 T. Henderson, D. Ranasinghe, V. G. Zakrzewski, J. Gao, N. Rega, 
 G. Zheng, W. Liang, M. Hada, M. Ehara, K. Toyota, R. Fukuda, 
 J. Hasegawa, M. Ishida, T. Nakajima, Y. Honda, O. Kitao, H. Nakai, 
 T. Vreven, K. Throssell, J. A. Montgomery, Jr., J. E. Peralta, 
 F. Ogliaro, M. J. Bearpark, J. J. Heyd, E. N. Brothers, K. N. Kudin, 
 V. N. Staroverov, T. A. Keith, R. Kobayashi, J. Normand, 
 K. Raghavachari, A. P. Rendell, J. C. Burant, S. S. Iyengar, 
 J. Tomasi, M. Cossi, J. M. Millam, M. Klene, C. Adamo, R. Cammi, 
 J. W. Ochterski, R. L. Martin, K. Morokuma, O. Farkas, 
 J. B. Foresman, and D. J. Fox, Gaussian, Inc., Wallingford CT, 2016.
 
 ******************************************
 Gaussian 16:  ES64L-G16RevA.03 25-Dec-2016
                 7-Sep-2022 
 ******************************************
 %chk=MD_extract_001_gaussian.chk
 %nproc=1
 Will use up to    1 processors via shared memory.
 %mem=1000Mb
 ----------
 #p opt pm3
 ----------
 1/18=20,19=15,26=1,38=1/1,3;
 2/9=110,12=2,17=6,18=5,40=1/2;
 3/5=2,25=1,41=800000,71=1/1,2,3;
 4/35=1/1;
 5/5=2,35=1,38=5/2;
 6/7=2,8=2,9=2,10=2,28=1/1;
 7//1,2,3,16;
 1/18=20,19=15,26=1/3(2);
 2/9=110/2;
 99//99;
 2/9=110/2;
 3/5=2,25=1,41=800000,71=1,135=20/1,2,3;
 4/5=5,16=3,35=1/1;
 5/5=2,35=1,38=5/2;
 7//1,2,3,16;
 1/18=20,19=15,26=1/3(-5);
 2/9=110/2;
 6/7=2,8=2,9=2,10=2,19=2,28=1/1;
 99/9=1/99;
 Leave Link    1 at Wed Sep  7 15:33:19 2022, MaxMem=   131072000 cpu:               0.0 elap:               0.0
 (Enter /opt/g16/l101.exe)
 ------------------------------------------------
 Conformer number 001. Energy MM = 0.000 kcal/mol
 ------------------------------------------------
 Symbolic Z-matrix:
 Charge =  0 Multiplicity = 1
 C                     1.06      8.285     13.507 
 H                     1.993     8.635     13.06 
 H                     1.222     8.172     14.643 
 H                     0.488     9.196     13.262 
 C                     0.503     6.905     13.164 
 H                     0.313     6.794     12.057 
 H                    -0.441     6.795     13.679 
 C                     1.407     5.851     13.573 
 H                     1.272     4.871     12.973 
 O                     2.715     6.234     13.297 
 C                     1.404     5.511     14.968 
 H                     2.603     6.95      12.7 
 H                     1.913     6.292     15.597 
 H                     0.349     5.39      15.281 
 C                     2.303     4.249     15.17 
 H                     1.634     3.473     15.564 
 H                     2.998     4.42      15.967 
 H                     2.736     3.801     14.273 
 
 ITRead=  0  0  0  0  0  0  0  0  0  0  0  0  0  0  0  0  0  0
 MicOpt= -1 -1 -1 -1 -1 -1 -1 -1 -1 -1 -1 -1 -1 -1 -1 -1 -1 -1
 NAtoms=     18 NQM=       18 NQMF=       0 NMMI=      0 NMMIF=      0
                NMic=       0 NMicF=      0.
                    Isotopes and Nuclear Properties:
 (Nuclear quadrupole moments (NQMom) in fm**2, nuclear magnetic moments (NMagM)
  in nuclear magnetons)

  Atom         1           2           3           4           5           6           7           8           9          10
 IAtWgt=          12           1           1           1          12           1           1          12           1          16
 AtmWgt=  12.0000000   1.0078250   1.0078250   1.0078250  12.0000000   1.0078250   1.0078250  12.0000000   1.0078250  15.9949146
 NucSpn=           0           1           1           1           0           1           1           0           1           0
 AtZEff=  -0.0000000  -0.0000000  -0.0000000  -0.0000000  -0.0000000  -0.0000000  -0.0000000  -0.0000000  -0.0000000  -0.0000000
 NQMom=    0.0000000   0.0000000   0.0000000   0.0000000   0.0000000   0.0000000   0.0000000   0.0000000   0.0000000   0.0000000
 NMagM=    0.0000000   2.7928460   2.7928460   2.7928460   0.0000000   2.7928460   2.7928460   0.0000000   2.7928460   0.0000000
 AtZNuc=   6.0000000   1.0000000   1.0000000   1.0000000   6.0000000   1.0000000   1.0000000   6.0000000   1.0000000   8.0000000

  Atom        11          12          13          14          15          16          17          18
 IAtWgt=          12           1           1           1          12           1           1           1
 AtmWgt=  12.0000000   1.0078250   1.0078250   1.0078250  12.0000000   1.0078250   1.0078250   1.0078250
 NucSpn=           0           1           1           1           0           1           1           1
 AtZEff=  -0.0000000  -0.0000000  -0.0000000  -0.0000000  -0.0000000  -0.0000000  -0.0000000  -0.0000000
 NQMom=    0.0000000   0.0000000   0.0000000   0.0000000   0.0000000   0.0000000   0.0000000   0.0000000
 NMagM=    0.0000000   2.7928460   2.7928460   2.7928460   0.0000000   2.7928460   2.7928460   2.7928460
 AtZNuc=   6.0000000   1.0000000   1.0000000   1.0000000   6.0000000   1.0000000   1.0000000   1.0000000
 Leave Link  101 at Wed Sep  7 15:33:20 2022, MaxMem=   131072000 cpu:               0.1 elap:               0.1
 (Enter /opt/g16/l103.exe)

 GradGradGradGradGradGradGradGradGradGradGradGradGradGradGradGradGradGrad
 Berny optimization.
 Initialization pass.
                           ----------------------------
                           !    Initial Parameters    !
                           ! (Angstroms and Degrees)  !
 --------------------------                            --------------------------
 ! Name  Definition              Value          Derivative Info.                !
 --------------------------------------------------------------------------------
 ! R1    R(1,2)                  1.0922         estimate D2E/DX2                !
 ! R2    R(1,3)                  1.153          estimate D2E/DX2                !
 ! R3    R(1,4)                  1.1032         estimate D2E/DX2                !
 ! R4    R(1,5)                  1.5272         estimate D2E/DX2                !
 ! R5    R(5,6)                  1.1287         estimate D2E/DX2                !
 ! R6    R(5,7)                  1.081          estimate D2E/DX2                !
 ! R7    R(5,8)                  1.4476         estimate D2E/DX2                !
 ! R8    R(8,9)                  1.157          estimate D2E/DX2                !
 ! R9    R(8,10)                 1.3906         estimate D2E/DX2                !
 ! R10   R(8,11)                 1.4358         estimate D2E/DX2                !
 ! R11   R(10,12)                0.9389         estimate D2E/DX2                !
 ! R12   R(11,13)                1.1246         estimate D2E/DX2                !
 ! R13   R(11,14)                1.1071         estimate D2E/DX2                !
 ! R14   R(11,15)                1.5626         estimate D2E/DX2                !
 ! R15   R(15,16)                1.0977         estimate D2E/DX2                !
 ! R16   R(15,17)                1.0712         estimate D2E/DX2                !
 ! R17   R(15,18)                1.0922         estimate D2E/DX2                !
 ! A1    A(2,1,3)              108.3376         estimate D2E/DX2                !
 ! A2    A(2,1,4)               95.0142         estimate D2E/DX2                !
 ! A3    A(2,1,5)              120.6127         estimate D2E/DX2                !
 ! A4    A(3,1,4)              111.8736         estimate D2E/DX2                !
 ! A5    A(3,1,5)              100.6007         estimate D2E/DX2                !
 ! A6    A(4,1,5)              120.477          estimate D2E/DX2                !
 ! A7    A(1,5,6)              111.7497         estimate D2E/DX2                !
 ! A8    A(1,5,7)              107.6658         estimate D2E/DX2                !
 ! A9    A(1,5,8)              111.5135         estimate D2E/DX2                !
 ! A10   A(6,5,7)              108.0754         estimate D2E/DX2                !
 ! A11   A(6,5,8)              108.0981         estimate D2E/DX2                !
 ! A12   A(7,5,8)              109.6741         estimate D2E/DX2                !
 ! A13   A(5,8,9)              113.4125         estimate D2E/DX2                !
 ! A14   A(5,8,10)             109.3168         estimate D2E/DX2                !
 ! A15   A(5,8,11)             116.4631         estimate D2E/DX2                !
 ! A16   A(9,8,10)             103.8933         estimate D2E/DX2                !
 ! A17   A(9,8,11)             107.6392         estimate D2E/DX2                !
 ! A18   A(10,8,11)            105.071          estimate D2E/DX2                !
 ! A19   A(8,10,12)            102.9455         estimate D2E/DX2                !
 ! A20   A(8,11,13)            112.2108         estimate D2E/DX2                !
 ! A21   A(8,11,14)            107.6111         estimate D2E/DX2                !
 ! A22   A(8,11,15)            108.3995         estimate D2E/DX2                !
 ! A23   A(13,11,14)           110.4317         estimate D2E/DX2                !
 ! A24   A(13,11,15)           103.1901         estimate D2E/DX2                !
 ! A25   A(14,11,15)           115.0522         estimate D2E/DX2                !
 ! A26   A(11,15,16)           105.4683         estimate D2E/DX2                !
 ! A27   A(11,15,17)           109.9094         estimate D2E/DX2                !
 ! A28   A(11,15,18)           116.9503         estimate D2E/DX2                !
 ! A29   A(16,15,17)           103.958          estimate D2E/DX2                !
 ! A30   A(16,15,18)           104.2668         estimate D2E/DX2                !
 ! A31   A(17,15,18)           114.7923         estimate D2E/DX2                !
 ! D1    D(2,1,5,6)            -58.7406         estimate D2E/DX2                !
 ! D2    D(2,1,5,7)           -177.272          estimate D2E/DX2                !
 ! D3    D(2,1,5,8)             62.3746         estimate D2E/DX2                !
 ! D4    D(3,1,5,6)           -177.5994         estimate D2E/DX2                !
 ! D5    D(3,1,5,7)             63.8692         estimate D2E/DX2                !
 ! D6    D(3,1,5,8)            -56.4842         estimate D2E/DX2                !
 ! D7    D(4,1,5,6)             59.0379         estimate D2E/DX2                !
 ! D8    D(4,1,5,7)            -59.4935         estimate D2E/DX2                !
 ! D9    D(4,1,5,8)           -179.8469         estimate D2E/DX2                !
 ! D10   D(1,5,8,9)           -155.7994         estimate D2E/DX2                !
 ! D11   D(1,5,8,10)           -40.3925         estimate D2E/DX2                !
 ! D12   D(1,5,8,11)            78.4405         estimate D2E/DX2                !
 ! D13   D(6,5,8,9)            -32.5792         estimate D2E/DX2                !
 ! D14   D(6,5,8,10)            82.8276         estimate D2E/DX2                !
 ! D15   D(6,5,8,11)          -158.3393         estimate D2E/DX2                !
 ! D16   D(7,5,8,9)             85.0342         estimate D2E/DX2                !
 ! D17   D(7,5,8,10)          -159.559          estimate D2E/DX2                !
 ! D18   D(7,5,8,11)           -40.7259         estimate D2E/DX2                !
 ! D19   D(5,8,10,12)          -16.1356         estimate D2E/DX2                !
 ! D20   D(9,8,10,12)          105.2264         estimate D2E/DX2                !
 ! D21   D(11,8,10,12)        -141.8266         estimate D2E/DX2                !
 ! D22   D(5,8,11,13)          -73.6414         estimate D2E/DX2                !
 ! D23   D(5,8,11,14)           48.0418         estimate D2E/DX2                !
 ! D24   D(5,8,11,15)          173.0569         estimate D2E/DX2                !
 ! D25   D(9,8,11,13)          157.7476         estimate D2E/DX2                !
 ! D26   D(9,8,11,14)          -80.5693         estimate D2E/DX2                !
 ! D27   D(9,8,11,15)           44.4459         estimate D2E/DX2                !
 ! D28   D(10,8,11,13)          47.4705         estimate D2E/DX2                !
 ! D29   D(10,8,11,14)         169.1537         estimate D2E/DX2                !
 ! D30   D(10,8,11,15)         -65.8312         estimate D2E/DX2                !
 ! D31   D(8,11,15,16)        -118.275          estimate D2E/DX2                !
 ! D32   D(8,11,15,17)         130.2306         estimate D2E/DX2                !
 ! D33   D(8,11,15,18)          -2.9629         estimate D2E/DX2                !
 ! D34   D(13,11,15,16)        122.5725         estimate D2E/DX2                !
 ! D35   D(13,11,15,17)         11.0781         estimate D2E/DX2                !
 ! D36   D(13,11,15,18)       -122.1154         estimate D2E/DX2                !
 ! D37   D(14,11,15,16)          2.2192         estimate D2E/DX2                !
 ! D38   D(14,11,15,17)       -109.2752         estimate D2E/DX2                !
 ! D39   D(14,11,15,18)        117.5314         estimate D2E/DX2                !
 --------------------------------------------------------------------------------
 Trust Radius=3.00D-01 FncErr=1.00D-07 GrdErr=1.00D-07 EigMax=2.50D+02 EigMin=1.00D-04
 Number of steps in this run=     97 maximum allowed number of steps=    108.
 GradGradGradGradGradGradGradGradGradGradGradGradGradGradGradGradGradGrad

 Leave Link  103 at Wed Sep  7 15:33:20 2022, MaxMem=   131072000 cpu:               0.0 elap:               0.0
 (Enter /opt/g16/l202.exe)
                          Input orientation:                          
 ---------------------------------------------------------------------
 Center     Atomic      Atomic             Coordinates (Angstroms)
 Number     Number       Type             X           Y           Z
 ---------------------------------------------------------------------
      1          6           0        1.060000    8.285000   13.507000
      2          1           0        1.993000    8.635000   13.060000
      3          1           0        1.222000    8.172000   14.643000
      4          1           0        0.488000    9.196000   13.262000
      5          6           0        0.503000    6.905000   13.164000
      6          1           0        0.313000    6.794000   12.057000
      7          1           0       -0.441000    6.795000   13.679000
      8          6           0        1.407000    5.851000   13.573000
      9          1           0        1.272000    4.871000   12.973000
     10          8           0        2.715000    6.234000   13.297000
     11          6           0        1.404000    5.511000   14.968000
     12          1           0        2.603000    6.950000   12.700000
     13          1           0        1.913000    6.292000   15.597000
     14          1           0        0.349000    5.390000   15.281000
     15          6           0        2.303000    4.249000   15.170000
     16          1           0        1.634000    3.473000   15.564000
     17          1           0        2.998000    4.420000   15.967000
     18          1           0        2.736000    3.801000   14.273000
 ---------------------------------------------------------------------
                    Distance matrix (angstroms):
                    1          2          3          4          5
     1  C    0.000000
     2  H    1.092153   0.000000
     3  H    1.153043   1.820631   0.000000
     4  H    1.103236   1.618811   1.869356   0.000000
     5  C    1.527186   2.285567   2.075980   2.293144   0.000000
     6  H    2.209885   2.686576   3.067990   2.693001   1.128658
     7  H    2.121953   3.113377   2.364528   2.608013   1.080954
     8  C    2.459496   2.890886   2.562453   3.482859   1.447554
     9  H    3.462008   3.833420   3.699730   4.404975   2.182888
    10  O    2.643809   2.518383   2.792241   3.705968   2.315356
    11  C    3.154034   3.707662   2.686944   4.162778   2.451419
    12  H    2.194157   1.827820   2.678749   3.135855   2.151121
    13  H    3.011272   3.454333   2.218557   3.989494   2.878082
    14  H    3.468951   4.262112   2.984744   4.310605   2.607802
    15  C    4.538713   4.877007   4.103196   5.604239   3.783962
    16  H    5.264605   5.748490   4.806099   6.274173   4.337947
    17  H    4.974502   5.217940   4.357139   6.035503   4.500784
    18  H    4.847885   5.038946   4.640554   5.931412   3.981330
                    6          7          8          9         10
     6  H    0.000000
     7  H    1.788687   0.000000
     8  C    2.093882   2.077854   0.000000
     9  H    2.335951   2.671064   1.156990   0.000000
    10  O    2.760580   3.228154   1.390586   2.011217   0.000000
    11  C    3.363078   2.591178   1.435839   2.099297   2.243589
    12  H    2.383670   3.201313   1.844003   2.483612   0.938940
    13  H    3.917091   3.077832   2.132391   3.052130   2.436507
    14  H    3.516630   2.272560   2.061346   2.539322   3.201023
    15  C    4.486412   4.029235   2.433029   2.505325   2.760090
    16  H    5.007308   4.346784   3.109742   2.966265   3.732422
    17  H    5.304074   4.764692   3.210962   3.485185   3.240306
    18  H    4.442931   4.405701   2.541405   2.231187   2.621546
                   11         12         13         14         15
    11  C    0.000000
    12  H    2.941453   0.000000
    13  H    1.124581   3.049864   0.000000
    14  H    1.107084   3.765060   1.832909   0.000000
    15  C    1.562578   3.672370   2.123271   2.265462   0.000000
    16  H    2.135781   4.607709   2.832965   2.325124   1.097713
    17  H    2.174654   4.150929   2.195110   2.903222   1.071203
    18  H    2.276258   3.522530   2.938603   3.039532   1.092155
                   16         17         18
    16  H    0.000000
    17  H    1.708717   0.000000
    18  H    1.728777   1.822482   0.000000
 Stoichiometry    C5H12O
 Framework group  C1[X(C5H12O)]
 Deg. of freedom    48
 Full point group                 C1      NOp   1
 Largest Abelian subgroup         C1      NOp   1
 Largest concise Abelian subgroup C1      NOp   1
                         Standard orientation:                         
 ---------------------------------------------------------------------
 Center     Atomic      Atomic             Coordinates (Angstroms)
 Number     Number       Type             X           Y           Z
 ---------------------------------------------------------------------
      1          6           0        2.120284   -0.174179   -0.577601
      2          1           0        2.340455    0.857297   -0.861114
      3          1           0        1.466056   -0.645230   -1.401982
      4          1           0        3.167351   -0.516408   -0.638114
      5          6           0        1.276382   -0.477726    0.658517
      6          1           0        1.737078   -0.048409    1.595168
      7          1           0        1.231119   -1.552059    0.769068
      8          6           0       -0.063147    0.055932    0.530911
      9          1           0       -0.579126    0.250982    1.547939
     10          8           0       -0.002989    1.313473   -0.059597
     11          6           0       -0.976405   -0.695537   -0.283268
     12          1           0        0.902100    1.545862    0.032160
     13          1           0       -0.751762   -0.592197   -1.380327
     14          1           0       -0.907234   -1.755950    0.027175
     15          6           0       -2.396606   -0.057945   -0.148523
     16          1           0       -3.029985   -0.842837    0.284777
     17          1           0       -2.816594    0.105897   -1.120243
     18          1           0       -2.498600    0.782006    0.542044
 ---------------------------------------------------------------------
 Rotational constants (GHZ):           6.8494331           2.2115722           2.0211545
 Leave Link  202 at Wed Sep  7 15:33:20 2022, MaxMem=   131072000 cpu:               0.0 elap:               0.0
 (Enter /opt/g16/l301.exe)
 Standard basis: VSTO-6G (5D, 7F)
 Ernie: Thresh=  0.10000D-02 Tol=  0.10000D-05 Strict=F.
  NNHCO=     0 NNPyr=     0 NCTC=     0               EPep=         0.000000000
    EC=       132.254904571  ECS=         2.315648882   EG=         0.575052197
   EHC=         0.000000000  EAt=       -36.836480110  AtH=         2.452923921
 EPDDG=         0.000000000  ECC=       135.145605649 EAtT=        39.289404030
 There are    36 symmetry adapted cartesian basis functions of A   symmetry.
 There are    36 symmetry adapted basis functions of A   symmetry.
    36 basis functions,   216 primitive gaussians,    36 cartesian basis functions
    19 alpha electrons       19 beta electrons
       nuclear repulsion energy       174.4350096797 Hartrees.
 IExCor=    0 DFT=F Ex=HF Corr=None ExCW=0 ScaHFX=  1.000000
 ScaDFX=  1.000000  1.000000  1.000000  1.000000 ScalE2=  1.000000  1.000000
 IRadAn=      5 IRanWt=     -1 IRanGd=            0 ICorTp=0 IEmpDi=  4
 Integral buffers will be    131072 words long.
 Regular integral format.
 Two-electron integral symmetry is turned off.
 Leave Link  301 at Wed Sep  7 15:33:20 2022, MaxMem=   131072000 cpu:               0.0 elap:               0.0
 (Enter /opt/g16/l302.exe)
 Do NDO integrals.
 NPDir=0 NMtPBC=     1 NCelOv=     1 NCel=       1 NClECP=     1 NCelD=      1
         NCelK=      1 NCelE2=     1 NClLst=     1 CellRange=     0.0.
 One-electron integrals computed using PRISM.
 NBasis=    36 RedAO= F EigKep=  0.00D+00  NBF=    36
 NBsUse=    36 1.00D-04 EigRej=  0.00D+00 NBFU=    36
 Leave Link  302 at Wed Sep  7 15:33:20 2022, MaxMem=   131072000 cpu:               0.0 elap:               0.0
 (Enter /opt/g16/l303.exe)
 DipDrv:  MaxL=1.
 Leave Link  303 at Wed Sep  7 15:33:20 2022, MaxMem=   131072000 cpu:               0.0 elap:               0.0
 (Enter /opt/g16/l401.exe)
 Simple Huckel Guess.
 JPrj=0 DoOrth=F DoCkMO=F.
 Leave Link  401 at Wed Sep  7 15:33:20 2022, MaxMem=   131072000 cpu:               0.0 elap:               0.0
 (Enter /opt/g16/l502.exe)
 Keep J ints in memory in canonical form, NReq=862161.
 FoFCou: FMM=F IPFlag=           0 FMFlag=           0 FMFlg1=           0
         NFxFlg=           0 DoJE=F BraDBF=F KetDBF=F FulRan=T
         wScrn=  0.000000 ICntrl=       600 IOpCl=  2 I1Cent=           0 NGrid=           0
         NMat0=    1 NMatS0=     72 NMatT0=    0 NMatD0=    1 NMtDS0=    0 NMtDT0=    0
 Symmetry not used in FoFCou.
 Two-electron integral symmetry not used.
 Closed shell SCF:
 Using DIIS extrapolation, IDIIS=  1040.
 Overlap will be assumed to be unity.
 NGot=   131072000 LenX=   131006778 LenY=   131005041
 Requested convergence on RMS density matrix=1.00D-08 within 128 cycles.
 Requested convergence on MAX density matrix=1.00D-06.
 Requested convergence on             energy=1.00D-06.
 No special actions if energy rises.

 Cycle   1  Pass 1  IDiag  1:
 E= 0.217426674126784    
 DIIS: error= 7.07D-02 at cycle   1 NSaved=   1.
 NSaved= 1 IEnMin= 1 EnMin= 0.217426674126784     IErMin= 1 ErrMin= 7.07D-02
 ErrMax= 7.07D-02  0.00D+00 EMaxC= 1.00D-01 BMatC= 1.10D-01 BMatP= 1.10D-01
 IDIUse=3 WtCom= 2.93D-01 WtEn= 7.07D-01
 Coeff-Com:  0.100D+01
 Coeff-En:   0.100D+01
 Coeff:      0.100D+01
 GapD=    2.000 DampG=2.000 DampE=0.500 DampFc=1.0000 IDamp=-1.
 RMSDP=1.28D-02 MaxDP=1.50D-01              OVMax= 0.00D+00

 Cycle   2  Pass 1  IDiag  1:
 E=-0.451930005795589E-01 Delta-E=       -0.262619674706 Rises=F Damp=F
 DIIS: error= 1.37D-02 at cycle   2 NSaved=   2.
 NSaved= 2 IEnMin= 2 EnMin=-0.451930005795589E-01 IErMin= 2 ErrMin= 1.37D-02
 ErrMax= 1.37D-02  0.00D+00 EMaxC= 1.00D-01 BMatC= 7.15D-03 BMatP= 1.10D-01
 IDIUse=3 WtCom= 8.63D-01 WtEn= 1.37D-01
 Coeff-Com: -0.304D+00 0.130D+01
 Coeff-En:   0.000D+00 0.100D+01
 Coeff:     -0.262D+00 0.126D+01
 RMSDP=4.67D-03 MaxDP=3.96D-02 DE=-2.63D-01 OVMax= 0.00D+00

 Cycle   3  Pass 1  IDiag  3:
 E=-0.672941022342570E-01 Delta-E=       -0.022101101655 Rises=F Damp=F
 DIIS: error= 3.21D-03 at cycle   3 NSaved=   3.
 NSaved= 3 IEnMin= 3 EnMin=-0.672941022342570E-01 IErMin= 3 ErrMin= 3.21D-03
 ErrMax= 3.21D-03  0.00D+00 EMaxC= 1.00D-01 BMatC= 2.19D-04 BMatP= 7.15D-03
 IDIUse=3 WtCom= 9.68D-01 WtEn= 3.21D-02
 Coeff-Com:  0.141D+00-0.687D+00 0.155D+01
 Coeff-En:   0.000D+00 0.000D+00 0.100D+01
 Coeff:      0.137D+00-0.665D+00 0.153D+01
 Gap=     0.505 Goal=   None    Shift=    0.000
 RMSDP=1.31D-03 MaxDP=1.46D-02 DE=-2.21D-02 OVMax= 8.26D-03

 Cycle   4  Pass 1  IDiag  3:
 E=-0.684352432088531E-01 Delta-E=       -0.001141140975 Rises=F Damp=F
 DIIS: error= 6.13D-04 at cycle   4 NSaved=   4.
 NSaved= 4 IEnMin= 4 EnMin=-0.684352432088531E-01 IErMin= 4 ErrMin= 6.13D-04
 ErrMax= 6.13D-04  0.00D+00 EMaxC= 1.00D-01 BMatC= 9.54D-06 BMatP= 2.19D-04
 IDIUse=3 WtCom= 9.94D-01 WtEn= 6.13D-03
 Coeff-Com: -0.313D-01 0.167D+00-0.560D+00 0.142D+01
 Coeff-En:   0.000D+00 0.000D+00 0.000D+00 0.100D+01
 Coeff:     -0.311D-01 0.166D+00-0.557D+00 0.142D+01
 Gap=     0.506 Goal=   None    Shift=    0.000
 RMSDP=3.21D-04 MaxDP=3.33D-03 DE=-1.14D-03 OVMax= 2.18D-03

 Cycle   5  Pass 1  IDiag  3:
 E=-0.684911548164848E-01 Delta-E=       -0.000055911608 Rises=F Damp=F
 DIIS: error= 1.26D-04 at cycle   5 NSaved=   5.
 NSaved= 5 IEnMin= 5 EnMin=-0.684911548164848E-01 IErMin= 5 ErrMin= 1.26D-04
 ErrMax= 1.26D-04  0.00D+00 EMaxC= 1.00D-01 BMatC= 3.41D-07 BMatP= 9.54D-06
 IDIUse=3 WtCom= 9.99D-01 WtEn= 1.26D-03
 Coeff-Com:  0.210D-02-0.141D-01 0.807D-01-0.380D+00 0.131D+01
 Coeff-En:   0.000D+00 0.000D+00 0.000D+00 0.000D+00 0.100D+01
 Coeff:      0.210D-02-0.141D-01 0.806D-01-0.380D+00 0.131D+01
 Gap=     0.506 Goal=   None    Shift=    0.000
 RMSDP=5.74D-05 MaxDP=6.95D-04 DE=-5.59D-05 OVMax= 4.36D-04

 Cycle   6  Pass 1  IDiag  3:
 E=-0.684931620120608E-01 Delta-E=       -0.000002007196 Rises=F Damp=F
 DIIS: error= 3.83D-05 at cycle   6 NSaved=   6.
 NSaved= 6 IEnMin= 6 EnMin=-0.684931620120608E-01 IErMin= 6 ErrMin= 3.83D-05
 ErrMax= 3.83D-05  0.00D+00 EMaxC= 1.00D-01 BMatC= 3.01D-08 BMatP= 3.41D-07
 IDIUse=1 WtCom= 1.00D+00 WtEn= 0.00D+00
 Coeff-Com: -0.365D-03 0.342D-02-0.286D-01 0.165D+00-0.777D+00 0.164D+01
 Coeff:     -0.365D-03 0.342D-02-0.286D-01 0.165D+00-0.777D+00 0.164D+01
 Gap=     0.506 Goal=   None    Shift=    0.000
 RMSDP=2.02D-05 MaxDP=2.75D-04 DE=-2.01D-06 OVMax= 2.09D-04

 Cycle   7  Pass 1  IDiag  3:
 E=-0.684933678343782E-01 Delta-E=       -0.000000205822 Rises=F Damp=F
 DIIS: error= 7.18D-06 at cycle   7 NSaved=   7.
 NSaved= 7 IEnMin= 7 EnMin=-0.684933678343782E-01 IErMin= 7 ErrMin= 7.18D-06
 ErrMax= 7.18D-06  0.00D+00 EMaxC= 1.00D-01 BMatC= 1.99D-09 BMatP= 3.01D-08
 IDIUse=1 WtCom= 1.00D+00 WtEn= 0.00D+00
 Coeff-Com:  0.160D-03-0.157D-02 0.138D-01-0.813D-01 0.406D+00-0.104D+01
 Coeff-Com:  0.170D+01
 Coeff:      0.160D-03-0.157D-02 0.138D-01-0.813D-01 0.406D+00-0.104D+01
 Coeff:      0.170D+01
 Gap=     0.506 Goal=   None    Shift=    0.000
 RMSDP=5.65D-06 MaxDP=5.97D-05 DE=-2.06D-07 OVMax= 4.85D-05

 Cycle   8  Pass 1  IDiag  3:
 E=-0.684933814704891E-01 Delta-E=       -0.000000013636 Rises=F Damp=F
 DIIS: error= 1.04D-06 at cycle   8 NSaved=   8.
 NSaved= 8 IEnMin= 8 EnMin=-0.684933814704891E-01 IErMin= 8 ErrMin= 1.04D-06
 ErrMax= 1.04D-06  0.00D+00 EMaxC= 1.00D-01 BMatC= 7.21D-11 BMatP= 1.99D-09
 IDIUse=1 WtCom= 1.00D+00 WtEn= 0.00D+00
 Coeff-Com: -0.536D-04 0.609D-03-0.579D-02 0.350D-01-0.179D+00 0.476D+00
 Coeff-Com: -0.897D+00 0.157D+01
 Coeff:     -0.536D-04 0.609D-03-0.579D-02 0.350D-01-0.179D+00 0.476D+00
 Coeff:     -0.897D+00 0.157D+01
 Gap=     0.506 Goal=   None    Shift=    0.000
 RMSDP=9.66D-07 MaxDP=8.31D-06 DE=-1.36D-08 OVMax= 5.53D-06

 Cycle   9  Pass 1  IDiag  3:
 E=-0.684933819459559E-01 Delta-E=       -0.000000000475 Rises=F Damp=F
 DIIS: error= 2.47D-07 at cycle   9 NSaved=   9.
 NSaved= 9 IEnMin= 9 EnMin=-0.684933819459559E-01 IErMin= 9 ErrMin= 2.47D-07
 ErrMax= 2.47D-07  0.00D+00 EMaxC= 1.00D-01 BMatC= 4.35D-12 BMatP= 7.21D-11
 IDIUse=1 WtCom= 1.00D+00 WtEn= 0.00D+00
 Coeff-Com:  0.180D-04-0.245D-03 0.254D-02-0.156D-01 0.813D-01-0.219D+00
 Coeff-Com:  0.426D+00-0.909D+00 0.163D+01
 Coeff:      0.180D-04-0.245D-03 0.254D-02-0.156D-01 0.813D-01-0.219D+00
 Coeff:      0.426D+00-0.909D+00 0.163D+01
 Gap=     0.506 Goal=   None    Shift=    0.000
 RMSDP=2.55D-07 MaxDP=1.60D-06 DE=-4.75D-10 OVMax= 1.73D-06

 Cycle  10  Pass 1  IDiag  3:
 E=-0.684933819759408E-01 Delta-E=       -0.000000000030 Rises=F Damp=F
 DIIS: error= 6.28D-08 at cycle  10 NSaved=  10.
 NSaved=10 IEnMin=10 EnMin=-0.684933819759408E-01 IErMin=10 ErrMin= 6.28D-08
 ErrMax= 6.28D-08  0.00D+00 EMaxC= 1.00D-01 BMatC= 2.01D-13 BMatP= 4.35D-12
 IDIUse=1 WtCom= 1.00D+00 WtEn= 0.00D+00
 Coeff-Com: -0.605D-05 0.895D-04-0.965D-03 0.600D-02-0.314D-01 0.850D-01
 Coeff-Com: -0.166D+00 0.368D+00-0.806D+00 0.155D+01
 Coeff:     -0.605D-05 0.895D-04-0.965D-03 0.600D-02-0.314D-01 0.850D-01
 Coeff:     -0.166D+00 0.368D+00-0.806D+00 0.155D+01
 Gap=     0.506 Goal=   None    Shift=    0.000
 RMSDP=5.28D-08 MaxDP=4.56D-07 DE=-3.00D-11 OVMax= 2.97D-07

 Cycle  11  Pass 1  IDiag  3:
 E=-0.684933819773335E-01 Delta-E=       -0.000000000001 Rises=F Damp=F
 DIIS: error= 1.61D-08 at cycle  11 NSaved=  11.
 NSaved=11 IEnMin=11 EnMin=-0.684933819773335E-01 IErMin=11 ErrMin= 1.61D-08
 ErrMax= 1.61D-08  0.00D+00 EMaxC= 1.00D-01 BMatC= 1.03D-14 BMatP= 2.01D-13
 IDIUse=1 WtCom= 1.00D+00 WtEn= 0.00D+00
 Coeff-Com:  0.183D-05-0.268D-04 0.288D-03-0.179D-02 0.937D-02-0.255D-01
 Coeff-Com:  0.499D-01-0.111D+00 0.261D+00-0.667D+00 0.148D+01
 Coeff:      0.183D-05-0.268D-04 0.288D-03-0.179D-02 0.937D-02-0.255D-01
 Coeff:      0.499D-01-0.111D+00 0.261D+00-0.667D+00 0.148D+01
 Gap=     0.506 Goal=   None    Shift=    0.000
 RMSDP=1.13D-08 MaxDP=1.03D-07 DE=-1.39D-12 OVMax= 5.96D-08

 Cycle  12  Pass 1  IDiag  3:
 E=-0.684933819774471E-01 Delta-E=       -0.000000000000 Rises=F Damp=F
 DIIS: error= 4.04D-09 at cycle  12 NSaved=  12.
 NSaved=12 IEnMin=12 EnMin=-0.684933819774471E-01 IErMin=12 ErrMin= 4.04D-09
 ErrMax= 4.04D-09  0.00D+00 EMaxC= 1.00D-01 BMatC= 5.55D-16 BMatP= 1.03D-14
 IDIUse=1 WtCom= 1.00D+00 WtEn= 0.00D+00
 Coeff-Com: -0.246D-06 0.356D-05-0.384D-04 0.239D-03-0.126D-02 0.346D-02
 Coeff-Com: -0.677D-02 0.149D-01-0.389D-01 0.134D+00-0.521D+00 0.142D+01
 Coeff:     -0.246D-06 0.356D-05-0.384D-04 0.239D-03-0.126D-02 0.346D-02
 Coeff:     -0.677D-02 0.149D-01-0.389D-01 0.134D+00-0.521D+00 0.142D+01
 Gap=     0.506 Goal=   None    Shift=    0.000
 RMSDP=2.64D-09 MaxDP=2.68D-08 DE=-1.14D-13 OVMax= 1.71D-08

 Cycle  13  Pass 2  IDiag  1:
 SCF Done:  E(RPM3) = -0.684933819774E-01 A.U. after   13 cycles
            NFock= 12  Conv=0.26D-08     -V/T= 0.9989
 KE=-5.980906481765D+01 PE=-2.629759923293D+02 EE= 1.482815540853D+02
 Leave Link  502 at Wed Sep  7 15:33:20 2022, MaxMem=   131072000 cpu:               0.0 elap:               0.0
 (Enter /opt/g16/l601.exe)
 Copying SCF densities to generalized density rwf, IOpCl= 0 IROHF=0.

 **********************************************************************

            Population analysis using the SCF density.

 **********************************************************************

 Orbital symmetries:
       Occupied  (A) (A) (A) (A) (A) (A) (A) (A) (A) (A) (A) (A)
                 (A) (A) (A) (A) (A) (A) (A)
       Virtual   (A) (A) (A) (A) (A) (A) (A) (A) (A) (A) (A) (A)
                 (A) (A) (A) (A) (A)
 The electronic state is 1-A.
 Alpha  occ. eigenvalues --   -1.54488  -1.23402  -1.19742  -0.96211  -0.83603
 Alpha  occ. eigenvalues --   -0.73943  -0.64605  -0.63717  -0.59479  -0.53836
 Alpha  occ. eigenvalues --   -0.53439  -0.51308  -0.48658  -0.47362  -0.47254
 Alpha  occ. eigenvalues --   -0.44987  -0.43741  -0.42039  -0.39281
 Alpha virt. eigenvalues --    0.11240   0.12238   0.12931   0.13090   0.13844
 Alpha virt. eigenvalues --    0.14188   0.14465   0.15366   0.15670   0.16150
 Alpha virt. eigenvalues --    0.16734   0.17442   0.17968   0.18180   0.18793
 Alpha virt. eigenvalues --    0.19659   0.21643
          Condensed to atoms (all electrons):
               1          2          3          4          5          6
     1  C    4.139064   0.000000   0.000000   0.000000   0.000000   0.000000
     2  H    0.000000   0.957106   0.000000   0.000000   0.000000   0.000000
     3  H    0.000000   0.000000   0.946442   0.000000   0.000000   0.000000
     4  H    0.000000   0.000000   0.000000   0.951271   0.000000   0.000000
     5  C    0.000000   0.000000   0.000000   0.000000   4.126808   0.000000
     6  H    0.000000   0.000000   0.000000   0.000000   0.000000   0.945136
     7  H    0.000000   0.000000   0.000000   0.000000   0.000000   0.000000
     8  C    0.000000   0.000000   0.000000   0.000000   0.000000   0.000000
     9  H    0.000000   0.000000   0.000000   0.000000   0.000000   0.000000
    10  O    0.000000   0.000000   0.000000   0.000000   0.000000   0.000000
    11  C    0.000000   0.000000   0.000000   0.000000   0.000000   0.000000
    12  H    0.000000   0.000000   0.000000   0.000000   0.000000   0.000000
    13  H    0.000000   0.000000   0.000000   0.000000   0.000000   0.000000
    14  H    0.000000   0.000000   0.000000   0.000000   0.000000   0.000000
    15  C    0.000000   0.000000   0.000000   0.000000   0.000000   0.000000
    16  H    0.000000   0.000000   0.000000   0.000000   0.000000   0.000000
    17  H    0.000000   0.000000   0.000000   0.000000   0.000000   0.000000
    18  H    0.000000   0.000000   0.000000   0.000000   0.000000   0.000000
               7          8          9         10         11         12
     1  C    0.000000   0.000000   0.000000   0.000000   0.000000   0.000000
     2  H    0.000000   0.000000   0.000000   0.000000   0.000000   0.000000
     3  H    0.000000   0.000000   0.000000   0.000000   0.000000   0.000000
     4  H    0.000000   0.000000   0.000000   0.000000   0.000000   0.000000
     5  C    0.000000   0.000000   0.000000   0.000000   0.000000   0.000000
     6  H    0.000000   0.000000   0.000000   0.000000   0.000000   0.000000
     7  H    0.935029   0.000000   0.000000   0.000000   0.000000   0.000000
     8  C    0.000000   3.934779   0.000000   0.000000   0.000000   0.000000
     9  H    0.000000   0.000000   0.943753   0.000000   0.000000   0.000000
    10  O    0.000000   0.000000   0.000000   6.330241   0.000000   0.000000
    11  C    0.000000   0.000000   0.000000   0.000000   4.132501   0.000000
    12  H    0.000000   0.000000   0.000000   0.000000   0.000000   0.804972
    13  H    0.000000   0.000000   0.000000   0.000000   0.000000   0.000000
    14  H    0.000000   0.000000   0.000000   0.000000   0.000000   0.000000
    15  C    0.000000   0.000000   0.000000   0.000000   0.000000   0.000000
    16  H    0.000000   0.000000   0.000000   0.000000   0.000000   0.000000
    17  H    0.000000   0.000000   0.000000   0.000000   0.000000   0.000000
    18  H    0.000000   0.000000   0.000000   0.000000   0.000000   0.000000
              13         14         15         16         17         18
     1  C    0.000000   0.000000   0.000000   0.000000   0.000000   0.000000
     2  H    0.000000   0.000000   0.000000   0.000000   0.000000   0.000000
     3  H    0.000000   0.000000   0.000000   0.000000   0.000000   0.000000
     4  H    0.000000   0.000000   0.000000   0.000000   0.000000   0.000000
     5  C    0.000000   0.000000   0.000000   0.000000   0.000000   0.000000
     6  H    0.000000   0.000000   0.000000   0.000000   0.000000   0.000000
     7  H    0.000000   0.000000   0.000000   0.000000   0.000000   0.000000
     8  C    0.000000   0.000000   0.000000   0.000000   0.000000   0.000000
     9  H    0.000000   0.000000   0.000000   0.000000   0.000000   0.000000
    10  O    0.000000   0.000000   0.000000   0.000000   0.000000   0.000000
    11  C    0.000000   0.000000   0.000000   0.000000   0.000000   0.000000
    12  H    0.000000   0.000000   0.000000   0.000000   0.000000   0.000000
    13  H    0.931052   0.000000   0.000000   0.000000   0.000000   0.000000
    14  H    0.000000   0.939508   0.000000   0.000000   0.000000   0.000000
    15  C    0.000000   0.000000   4.096514   0.000000   0.000000   0.000000
    16  H    0.000000   0.000000   0.000000   0.988366   0.000000   0.000000
    17  H    0.000000   0.000000   0.000000   0.000000   0.958992   0.000000
    18  H    0.000000   0.000000   0.000000   0.000000   0.000000   0.938464
 Mulliken charges:
               1
     1  C   -0.139064
     2  H    0.042894
     3  H    0.053558
     4  H    0.048729
     5  C   -0.126808
     6  H    0.054864
     7  H    0.064971
     8  C    0.065221
     9  H    0.056247
    10  O   -0.330241
    11  C   -0.132501
    12  H    0.195028
    13  H    0.068948
    14  H    0.060492
    15  C   -0.096514
    16  H    0.011634
    17  H    0.041008
    18  H    0.061536
 Sum of Mulliken charges =   0.00000
 Mulliken charges with hydrogens summed into heavy atoms:
               1
     1  C    0.006117
     5  C   -0.006974
     8  C    0.121468
    10  O   -0.135214
    11  C   -0.003062
    15  C    0.017664
 Charge=              0.0000 electrons
 Dipole moment (field-independent basis, Debye):
    X=              1.2680    Y=             -0.9005    Z=              0.5006  Tot=              1.6338
 N-N= 1.744350096797D+02 E-N=-2.629759923961D+02  KE=-5.980906481765D+01
 Leave Link  601 at Wed Sep  7 15:33:20 2022, MaxMem=   131072000 cpu:               0.0 elap:               0.0
 (Enter /opt/g16/l701.exe)
 ... and contract with generalized density number  0.
 Compute integral first derivatives.
 Leave Link  701 at Wed Sep  7 15:33:20 2022, MaxMem=   131072000 cpu:               0.0 elap:               0.0
 (Enter /opt/g16/l702.exe)
 L702 exits ... SP integral derivatives will be done elsewhere.
 Leave Link  702 at Wed Sep  7 15:33:20 2022, MaxMem=   131072000 cpu:               0.0 elap:               0.0
 (Enter /opt/g16/l703.exe)
 Integral derivatives from FoFJK, PRISM(SPDF).
 Compute integral first derivatives, UseDBF=F ICtDFT=           0.
 Calling FoFJK, ICntrl=      2127 FMM=F ISym2X=0 I1Cent= 0 IOpClX= 0 NMat=1 NMatS=1 NMatT=0.
 FoFJK:  IHMeth= 9 ICntrl=    2127 DoSepK=F KAlg= 0 I1Cent=           0 FoldK=F
 IRaf=         0 NMat=       1 IRICut=       1 DoRegI=T DoRafI=F ISym2E= 0 IDoP0=3 IntGTp=3.
 FoFCou: FMM=F IPFlag=           0 FMFlag=      100000 FMFlg1=         800
         NFxFlg=           0 DoJE=F BraDBF=F KetDBF=F FulRan=T
         wScrn=  0.000000 ICntrl=      2127 IOpCl=  0 I1Cent=           0 NGrid=           0
         NMat0=    1 NMatS0=      1 NMatT0=    0 NMatD0=    1 NMtDS0=    0 NMtDT0=    0
 Symmetry not used in FoFCou.
 Leave Link  703 at Wed Sep  7 15:33:20 2022, MaxMem=   131072000 cpu:               0.0 elap:               0.0
 (Enter /opt/g16/l716.exe)
 Dipole        = 4.98886282D-01-3.54274155D-01 1.96964341D-01
 ***** Axes restored to original set *****
 -------------------------------------------------------------------
 Center     Atomic                   Forces (Hartrees/Bohr)
 Number     Number              X              Y              Z
 -------------------------------------------------------------------
      1        6          -0.006383559    0.007906400    0.036192850
      2        1           0.014837254   -0.015071906   -0.004703821
      3        1          -0.002025053    0.017585721   -0.026449812
      4        1          -0.017915803   -0.010913165    0.005940008
      5        6          -0.039802107    0.058170433   -0.042766860
      6        1          -0.002727434    0.005379403    0.010573507
      7        1          -0.018425376   -0.000847017    0.002561744
      8        6           0.026405288   -0.049649991   -0.053007414
      9        1          -0.004829922    0.015088360    0.004458506
     10        8           0.042393807   -0.005695188   -0.014097994
     11        6           0.021785634   -0.031889020    0.073209564
     12        1           0.016891639    0.012457249   -0.013579536
     13        1          -0.013303222   -0.001164955   -0.001721795
     14        1           0.004928755   -0.003645440    0.008475374
     15        6          -0.046527323   -0.001664351    0.011032666
     16        1          -0.001228430   -0.006772054    0.000805309
     17        1           0.018958019    0.003668688    0.004683116
     18        1           0.006967832    0.007056833   -0.001605412
 -------------------------------------------------------------------
 Cartesian Forces:  Max     0.073209564 RMS     0.023386500
 Leave Link  716 at Wed Sep  7 15:33:20 2022, MaxMem=   131072000 cpu:               0.0 elap:               0.0
 (Enter /opt/g16/l103.exe)

 GradGradGradGradGradGradGradGradGradGradGradGradGradGradGradGradGradGrad
 Berny optimization.
 FormGI is forming the generalized inverse of G from B-inverse, IUseBI=4.
 Internal  Forces:  Max     0.100346000 RMS     0.019430629
 Search for a local minimum.
 Step number   1 out of a maximum of   97
 All quantities printed in internal units (Hartrees-Bohrs-Radians)
 RMS Force = .19431D-01 SwitMx=.10000D-02 MixMth= 1
 Mixed Optimization -- RFO/linear search
 Second derivative matrix not updated -- first step.
 ITU=  0
     Eigenvalues ---    0.00230   0.00406   0.01460   0.01615   0.01816
     Eigenvalues ---    0.04118   0.04254   0.04362   0.04523   0.04583
     Eigenvalues ---    0.05264   0.05474   0.05589   0.05604   0.06188
     Eigenvalues ---    0.07848   0.08427   0.08792   0.11727   0.12176
     Eigenvalues ---    0.16000   0.16000   0.16000   0.16000   0.16000
     Eigenvalues ---    0.16000   0.16000   0.17551   0.19563   0.21895
     Eigenvalues ---    0.21937   0.26609   0.28091   0.28437   0.29685
     Eigenvalues ---    0.30702   0.31104   0.32911   0.33327   0.33936
     Eigenvalues ---    0.34565   0.34565   0.35879   0.37079   0.38567
     Eigenvalues ---    0.40162   0.47217   0.60261
 RFO step:  Lambda=-8.55139377D-02 EMin= 2.30000000D-03
 Linear search not attempted -- first point.
 Maximum step size (   0.300) exceeded in Quadratic search.
    -- Step size scaled by   0.654
 Iteration  1 RMS(Cart)=  0.10797081 RMS(Int)=  0.00334110
 Iteration  2 RMS(Cart)=  0.00478892 RMS(Int)=  0.00042845
 Iteration  3 RMS(Cart)=  0.00001417 RMS(Int)=  0.00042829
 Iteration  4 RMS(Cart)=  0.00000000 RMS(Int)=  0.00042829
 ITry= 1 IFail=0 DXMaxC= 4.22D-01 DCOld= 1.00D+10 DXMaxT= 3.00D-01 DXLimC= 3.00D+00 Rises=F
 Variable       Old X    -DE/DX   Delta X   Delta X   Delta X     New X
                                 (Linear)    (Quad)   (Total)
    R1        2.06387   0.00977   0.00000   0.01483   0.01483   2.07870
    R2        2.17894  -0.02807   0.00000  -0.04966  -0.04966   2.12928
    R3        2.08481  -0.00104   0.00000  -0.00163  -0.00163   2.08319
    R4        2.88596  -0.00217   0.00000  -0.00371  -0.00371   2.88225
    R5        2.13286  -0.01044   0.00000  -0.01741  -0.01741   2.11545
    R6        2.04271   0.01740   0.00000   0.02562   0.02562   2.06833
    R7        2.73548   0.09581   0.00000   0.13306   0.13306   2.86854
    R8        2.18639  -0.01453   0.00000  -0.02595  -0.02595   2.16045
    R9        2.62783   0.06312   0.00000   0.07407   0.07407   2.70189
   R10        2.71334   0.10035   0.00000   0.13480   0.13480   2.84815
   R11        1.77434   0.01612   0.00000   0.01533   0.01533   1.78967
   R12        2.12515  -0.00779   0.00000  -0.01286  -0.01286   2.11229
   R13        2.09209  -0.00190   0.00000  -0.00300  -0.00300   2.08908
   R14        2.95284  -0.01248   0.00000  -0.02323  -0.02323   2.92962
   R15        2.07438   0.00583   0.00000   0.00897   0.00897   2.08335
   R16        2.02428   0.01637   0.00000   0.02348   0.02348   2.04776
   R17        2.06387   0.00119   0.00000   0.00180   0.00180   2.06567
    A1        1.89085  -0.00461   0.00000  -0.00871  -0.00782   1.88303
    A2        1.65831   0.02615   0.00000   0.06938   0.06829   1.72660
    A3        2.10509  -0.01926   0.00000  -0.05004  -0.05028   2.05481
    A4        1.95256  -0.00723   0.00000  -0.02229  -0.02145   1.93112
    A5        1.75581   0.02450   0.00000   0.06558   0.06660   1.82241
    A6        2.10272  -0.02167   0.00000  -0.05936  -0.05961   2.04311
    A7        1.95040  -0.00893   0.00000  -0.02047  -0.02103   1.92937
    A8        1.87912  -0.00841   0.00000  -0.02019  -0.02052   1.85860
    A9        1.94628   0.02539   0.00000   0.05857   0.05851   2.00478
   A10        1.88627   0.00118   0.00000  -0.01083  -0.01128   1.87499
   A11        1.88667  -0.00453   0.00000  -0.00189  -0.00180   1.88486
   A12        1.91417  -0.00536   0.00000  -0.00716  -0.00698   1.90719
   A13        1.97942  -0.00514   0.00000  -0.02823  -0.02845   1.95097
   A14        1.90794   0.02085   0.00000   0.06266   0.06325   1.97119
   A15        2.03266  -0.01719   0.00000  -0.03551  -0.03659   1.99607
   A16        1.81328  -0.00897   0.00000  -0.02483  -0.02437   1.78891
   A17        1.87866   0.00807   0.00000   0.00984   0.00882   1.88748
   A18        1.83384   0.00382   0.00000   0.02075   0.02100   1.85483
   A19        1.79674   0.03351   0.00000   0.08931   0.08931   1.88605
   A20        1.95845  -0.00643   0.00000  -0.01025  -0.01097   1.94748
   A21        1.87817  -0.00008   0.00000   0.00738   0.00800   1.88617
   A22        1.89193   0.02094   0.00000   0.04989   0.04980   1.94173
   A23        1.92740  -0.00085   0.00000  -0.01658  -0.01675   1.91064
   A24        1.80101   0.00103   0.00000   0.01264   0.01228   1.81328
   A25        2.00804  -0.01464   0.00000  -0.04298  -0.04323   1.96481
   A26        1.84077   0.00833   0.00000   0.02962   0.02958   1.87035
   A27        1.91828   0.00372   0.00000   0.00651   0.00603   1.92431
   A28        2.04117  -0.00781   0.00000  -0.02525  -0.02544   2.01573
   A29        1.81441   0.00087   0.00000   0.01237   0.01199   1.82640
   A30        1.81980   0.00149   0.00000   0.00945   0.00971   1.82951
   A31        2.00350  -0.00431   0.00000  -0.02190  -0.02238   1.98112
    D1       -1.02522  -0.00392   0.00000  -0.01607  -0.01632  -1.04154
    D2       -3.09398   0.00509   0.00000   0.02170   0.02099  -3.07299
    D3        1.08864   0.00187   0.00000   0.00837   0.00786   1.09651
    D4       -3.09969  -0.00669   0.00000  -0.02898  -0.02872  -3.12842
    D5        1.11473   0.00231   0.00000   0.00880   0.00859   1.12332
    D6       -0.98584  -0.00091   0.00000  -0.00453  -0.00454  -0.99037
    D7        1.03041  -0.00425   0.00000  -0.01773  -0.01701   1.01339
    D8       -1.03836   0.00475   0.00000   0.02005   0.02030  -1.01806
    D9       -3.13892   0.00153   0.00000   0.00672   0.00717  -3.13175
   D10       -2.71921  -0.00416   0.00000  -0.02340  -0.02301  -2.74222
   D11       -0.70498  -0.00489   0.00000  -0.03051  -0.03059  -0.73558
   D12        1.36905   0.00438   0.00000   0.02032   0.01977   1.38882
   D13       -0.56861  -0.00201   0.00000  -0.01240  -0.01176  -0.58038
   D14        1.44562  -0.00274   0.00000  -0.01951  -0.01935   1.42626
   D15       -2.76354   0.00653   0.00000   0.03132   0.03102  -2.73252
   D16        1.48413  -0.00618   0.00000  -0.03045  -0.03006   1.45406
   D17       -2.78483  -0.00690   0.00000  -0.03756  -0.03765  -2.82248
   D18       -0.71080   0.00237   0.00000   0.01327   0.01272  -0.69808
   D19       -0.28162  -0.00357   0.00000  -0.00325  -0.00239  -0.28401
   D20        1.83655  -0.00414   0.00000  -0.01876  -0.01859   1.81796
   D21       -2.47534   0.00267   0.00000  -0.00982  -0.01085  -2.48620
   D22       -1.28528  -0.00580   0.00000  -0.02378  -0.02374  -1.30902
   D23        0.83849  -0.01093   0.00000  -0.04589  -0.04602   0.79247
   D24        3.02041  -0.01589   0.00000  -0.06286  -0.06256   2.95786
   D25        2.75321   0.00791   0.00000   0.03487   0.03496   2.78817
   D26       -1.40620   0.00277   0.00000   0.01275   0.01268  -1.39352
   D27        0.77573  -0.00219   0.00000  -0.00421  -0.00386   0.77187
   D28        0.82852   0.01306   0.00000   0.04972   0.04950   0.87801
   D29        2.95229   0.00793   0.00000   0.02761   0.02722   2.97950
   D30       -1.14897   0.00297   0.00000   0.01064   0.01068  -1.13829
   D31       -2.06429   0.00014   0.00000   0.00434   0.00500  -2.05929
   D32        2.27295  -0.00665   0.00000  -0.02752  -0.02704   2.24591
   D33       -0.05171   0.00351   0.00000   0.02286   0.02317  -0.02855
   D34        2.13929  -0.00251   0.00000  -0.01302  -0.01301   2.12628
   D35        0.19335  -0.00930   0.00000  -0.04488  -0.04504   0.14830
   D36       -2.13132   0.00085   0.00000   0.00551   0.00516  -2.12616
   D37        0.03873   0.00582   0.00000   0.02225   0.02211   0.06084
   D38       -1.90721  -0.00097   0.00000  -0.00961  -0.00992  -1.91714
   D39        2.05131   0.00919   0.00000   0.04077   0.04028   2.09159
         Item               Value     Threshold  Converged?
 Maximum Force            0.100346     0.000450     NO 
 RMS     Force            0.019431     0.000300     NO 
 Maximum Displacement     0.422311     0.001800     NO 
 RMS     Displacement     0.107290     0.001200     NO 
 Predicted change in Energy=-4.256662D-02
 Lowest energy point so far.  Saving SCF results.
 GradGradGradGradGradGradGradGradGradGradGradGradGradGradGradGradGradGrad

 Leave Link  103 at Wed Sep  7 15:33:20 2022, MaxMem=   131072000 cpu:               0.0 elap:               0.0
 (Enter /opt/g16/l202.exe)
                          Input orientation:                          
 ---------------------------------------------------------------------
 Center     Atomic      Atomic             Coordinates (Angstroms)
 Number     Number       Type             X           Y           Z
 ---------------------------------------------------------------------
      1          6           0        0.979382    8.369154   13.504440
      2          1           0        1.884657    8.738443   13.000355
      3          1           0        1.188936    8.334953   14.611021
      4          1           0        0.297839    9.201417   13.263469
      5          6           0        0.502219    6.960917   13.164612
      6          1           0        0.275365    6.876030   12.071682
      7          1           0       -0.436740    6.811726   13.706882
      8          6           0        1.473122    5.852570   13.529492
      9          1           0        1.292279    4.909069   12.909699
     10          8           0        2.830136    6.174320   13.214433
     11          6           0        1.457767    5.467149   14.986471
     12          1           0        2.826477    6.906883   12.614229
     13          1           0        1.973666    6.230640   15.619205
     14          1           0        0.403378    5.375457   15.305809
     15          6           0        2.269291    4.169454   15.233054
     16          1           0        1.566529    3.415773   15.624856
     17          1           0        2.983767    4.320226   16.033702
     18          1           0        2.703929    3.709818   14.341589
 ---------------------------------------------------------------------
                    Distance matrix (angstroms):
                    1          2          3          4          5
     1  C    0.000000
     2  H    1.100000   0.000000
     3  H    1.126766   1.800300   0.000000
     4  H    1.102375   1.673788   1.833224   0.000000
     5  C    1.525222   2.257813   2.109894   2.251974   0.000000
     6  H    2.185831   2.630749   3.067786   2.613099   1.119448
     7  H    2.114703   3.098436   2.404269   2.539063   1.094513
     8  C    2.564684   2.962704   2.722626   3.559050   1.517966
     9  H    3.524742   3.875982   3.826468   4.420216   2.213425
    10  O    2.885601   2.741257   3.051612   3.946929   2.457725
    11  C    3.293463   3.850748   2.904743   4.273046   2.542358
    12  H    2.518427   2.095407   2.950950   3.475689   2.389146
    13  H    3.167661   3.627035   2.461783   4.145287   2.953555
    14  H    3.541036   4.338086   3.139817   4.338232   2.666117
    15  C    4.721170   5.099858   4.348043   5.752090   3.897853
    16  H    5.420045   5.943066   5.036742   6.376472   4.444502
    17  H    5.177697   5.470821   4.622064   6.222092   4.622013
    18  H    5.038283   5.268509   4.874390   6.091738   4.099078
                    6          7          8          9         10
     6  H    0.000000
     7  H    1.784687   0.000000
     8  C    2.146463   2.144533   0.000000
     9  H    2.367556   2.691674   1.143259   0.000000
    10  O    2.885330   3.364710   1.429780   2.014628   0.000000
    11  C    3.446594   2.652243   1.507173   2.156808   2.350236
    12  H    2.608349   3.442606   1.944442   2.536204   0.947052
    13  H    3.985684   3.131246   2.181830   3.090673   2.553359
    14  H    3.567588   2.307647   2.127743   2.597885   3.301695
    15  C    4.614712   4.078407   2.523665   2.626701   2.899804
    16  H    5.124990   4.384542   3.215160   3.110824   3.875103
    17  H    5.437387   4.829238   3.301695   3.601008   3.377802
    18  H    4.590784   4.459652   2.601110   2.341211   2.712965
                   11         12         13         14         15
    11  C    0.000000
    12  H    3.094145   0.000000
    13  H    1.117776   3.196009   0.000000
    14  H    1.105495   3.932084   1.815312   0.000000
    15  C    1.550286   3.829128   2.117780   2.222919   0.000000
    16  H    2.151164   4.779037   2.844163   2.301102   1.102460
    17  H    2.177338   4.290493   2.200407   2.881275   1.083626
    18  H    2.248779   3.635934   2.918926   2.999435   1.093108
                   16         17         18
    16  H    0.000000
    17  H    1.730246   0.000000
    18  H    1.739803   1.820481   0.000000
 Stoichiometry    C5H12O
 Framework group  C1[X(C5H12O)]
 Deg. of freedom    48
 Full point group                 C1      NOp   1
 RotChk:  IX=0 Diff= 1.20D-01
 Largest Abelian subgroup         C1      NOp   1
 Largest concise Abelian subgroup C1      NOp   1
                         Standard orientation:                         
 ---------------------------------------------------------------------
 Center     Atomic      Atomic             Coordinates (Angstroms)
 Number     Number       Type             X           Y           Z
 ---------------------------------------------------------------------
      1          6           0        2.226874   -0.289006   -0.557324
      2          1           0        2.489994    0.727938   -0.883810
      3          1           0        1.644296   -0.779310   -1.387871
      4          1           0        3.241401   -0.714983   -0.490192
      5          6           0        1.331980   -0.431280    0.669552
      6          1           0        1.813153    0.040233    1.563594
      7          1           0        1.247900   -1.503982    0.870055
      8          6           0       -0.057619    0.160584    0.518113
      9          1           0       -0.525066    0.410364    1.531101
     10          8           0       -0.054297    1.428739   -0.142224
     11          6           0       -1.024499   -0.709511   -0.243234
     12          1           0        0.831500    1.763602   -0.130466
     13          1           0       -0.815537   -0.693207   -1.341183
     14          1           0       -0.926466   -1.743568    0.135230
     15          6           0       -2.473595   -0.169934   -0.132043
     16          1           0       -3.072390   -0.947008    0.370969
     17          1           0       -2.916161   -0.077699   -1.116864
     18          1           0       -2.597095    0.722598    0.486842
 ---------------------------------------------------------------------
 Rotational constants (GHZ):           6.2918082           2.0683393           1.8478864
 Leave Link  202 at Wed Sep  7 15:33:20 2022, MaxMem=   131072000 cpu:               0.0 elap:               0.0
 (Enter /opt/g16/l301.exe)
 Standard basis: VSTO-6G (5D, 7F)
 Ernie: Thresh=  0.10000D-02 Tol=  0.10000D-05 Strict=F.
  NNHCO=     0 NNPyr=     0 NCTC=     0               EPep=         0.000000000
    EC=       129.018640238  ECS=         2.186744859   EG=         0.563571963
   EHC=         0.000000000  EAt=       -36.836480110  AtH=         2.452923921
 EPDDG=         0.000000000  ECC=       131.768957059 EAtT=        39.289404030
 There are    36 symmetry adapted cartesian basis functions of A   symmetry.
 There are    36 symmetry adapted basis functions of A   symmetry.
    36 basis functions,   216 primitive gaussians,    36 cartesian basis functions
    19 alpha electrons       19 beta electrons
       nuclear repulsion energy       171.0583610896 Hartrees.
 IExCor=    0 DFT=F Ex=HF Corr=None ExCW=0 ScaHFX=  1.000000
 ScaDFX=  1.000000  1.000000  1.000000  1.000000 ScalE2=  1.000000  1.000000
 IRadAn=      5 IRanWt=     -1 IRanGd=            0 ICorTp=0 IEmpDi=  4
 Integral buffers will be    131072 words long.
 Regular integral format.
 Two-electron integral symmetry is turned off.
 Leave Link  301 at Wed Sep  7 15:33:20 2022, MaxMem=   131072000 cpu:               0.0 elap:               0.0
 (Enter /opt/g16/l302.exe)
 Do NDO integrals.
 NPDir=0 NMtPBC=     1 NCelOv=     1 NCel=       1 NClECP=     1 NCelD=      1
         NCelK=      1 NCelE2=     1 NClLst=     1 CellRange=     0.0.
 One-electron integrals computed using PRISM.
 NBasis=    36 RedAO= F EigKep=  0.00D+00  NBF=    36
 NBsUse=    36 1.00D-04 EigRej=  0.00D+00 NBFU=    36
 Leave Link  302 at Wed Sep  7 15:33:20 2022, MaxMem=   131072000 cpu:               0.0 elap:               0.0
 (Enter /opt/g16/l303.exe)
 DipDrv:  MaxL=1.
 Leave Link  303 at Wed Sep  7 15:33:20 2022, MaxMem=   131072000 cpu:               0.0 elap:               0.0
 (Enter /opt/g16/l401.exe)
 Initial guess from the checkpoint file:  "MD_extract_001_gaussian.chk"
 B after Tr=     0.000000    0.000000    0.000000
         Rot=    0.999165    0.040605    0.000074   -0.004631 Ang=   4.68 deg.
 Guess basis will be translated and rotated to current coordinates.
 JPrj=0 DoOrth=T DoCkMO=T.
 Leave Link  401 at Wed Sep  7 15:33:20 2022, MaxMem=   131072000 cpu:               0.0 elap:               0.0
 (Enter /opt/g16/l502.exe)
 Keep J ints in memory in canonical form, NReq=862161.
 FoFCou: FMM=F IPFlag=           0 FMFlag=           0 FMFlg1=           0
         NFxFlg=           0 DoJE=F BraDBF=F KetDBF=F FulRan=T
         wScrn=  0.000000 ICntrl=       600 IOpCl=  2 I1Cent=           0 NGrid=           0
         NMat0=    1 NMatS0=     72 NMatT0=    0 NMatD0=    1 NMtDS0=    0 NMtDT0=    0
 Symmetry not used in FoFCou.
 Two-electron integral symmetry not used.
 Closed shell SCF:
 Using DIIS extrapolation, IDIIS=  1040.
 Overlap will be assumed to be unity.
 NGot=   131072000 LenX=   131006778 LenY=   131005041
 Requested convergence on RMS density matrix=1.00D-08 within 128 cycles.
 Requested convergence on MAX density matrix=1.00D-06.
 Requested convergence on             energy=1.00D-06.
 No special actions if energy rises.

 Cycle   1  Pass 1  IDiag  1:
 E=-0.881505909273699E-01
 DIIS: error= 7.48D-03 at cycle   1 NSaved=   1.
 NSaved= 1 IEnMin= 1 EnMin=-0.881505909273699E-01 IErMin= 1 ErrMin= 7.48D-03
 ErrMax= 7.48D-03  0.00D+00 EMaxC= 1.00D-01 BMatC= 3.34D-03 BMatP= 3.34D-03
 IDIUse=3 WtCom= 9.25D-01 WtEn= 7.48D-02
 Coeff-Com:  0.100D+01
 Coeff-En:   0.100D+01
 Coeff:      0.100D+01
 GapD=    2.000 DampG=2.000 DampE=1.000 DampFc=2.0000 IDamp=-1.
 RMSDP=2.82D-03 MaxDP=1.72D-02              OVMax= 0.00D+00

 Cycle   2  Pass 1  IDiag  3:
 E=-0.991981028944338E-01 Delta-E=       -0.011047511967 Rises=F Damp=F
 DIIS: error= 3.21D-03 at cycle   2 NSaved=   2.
 NSaved= 2 IEnMin= 2 EnMin=-0.991981028944338E-01 IErMin= 2 ErrMin= 3.21D-03
 ErrMax= 3.21D-03  0.00D+00 EMaxC= 1.00D-01 BMatC= 4.62D-04 BMatP= 3.34D-03
 IDIUse=3 WtCom= 9.68D-01 WtEn= 3.21D-02
 Coeff-Com: -0.482D+00 0.148D+01
 Coeff-En:   0.000D+00 0.100D+01
 Coeff:     -0.466D+00 0.147D+01
 Gap=     0.508 Goal=   None    Shift=    0.000
 RMSDP=1.72D-03 MaxDP=1.13D-02 DE=-1.10D-02 OVMax= 9.65D-03

 Cycle   3  Pass 1  IDiag  3:
 E=-0.101377282421026     Delta-E=       -0.002179179527 Rises=F Damp=F
 DIIS: error= 6.12D-04 at cycle   3 NSaved=   3.
 NSaved= 3 IEnMin= 3 EnMin=-0.101377282421026     IErMin= 3 ErrMin= 6.12D-04
 ErrMax= 6.12D-04  0.00D+00 EMaxC= 1.00D-01 BMatC= 1.89D-05 BMatP= 4.62D-04
 IDIUse=3 WtCom= 9.94D-01 WtEn= 6.12D-03
 Coeff-Com:  0.164D+00-0.640D+00 0.148D+01
 Coeff-En:   0.000D+00 0.000D+00 0.100D+01
 Coeff:      0.163D+00-0.636D+00 0.147D+01
 Gap=     0.508 Goal=   None    Shift=    0.000
 RMSDP=4.43D-04 MaxDP=3.10D-03 DE=-2.18D-03 OVMax= 3.02D-03

 Cycle   4  Pass 1  IDiag  3:
 E=-0.101487087344651     Delta-E=       -0.000109804924 Rises=F Damp=F
 DIIS: error= 1.83D-04 at cycle   4 NSaved=   4.
 NSaved= 4 IEnMin= 4 EnMin=-0.101487087344651     IErMin= 4 ErrMin= 1.83D-04
 ErrMax= 1.83D-04  0.00D+00 EMaxC= 1.00D-01 BMatC= 9.17D-07 BMatP= 1.89D-05
 IDIUse=3 WtCom= 9.98D-01 WtEn= 1.83D-03
 Coeff-Com: -0.876D-01 0.354D+00-0.926D+00 0.166D+01
 Coeff-En:   0.000D+00 0.000D+00 0.000D+00 0.100D+01
 Coeff:     -0.874D-01 0.354D+00-0.925D+00 0.166D+01
 Gap=     0.508 Goal=   None    Shift=    0.000
 RMSDP=1.16D-04 MaxDP=1.18D-03 DE=-1.10D-04 OVMax= 1.44D-03

 Cycle   5  Pass 1  IDiag  3:
 E=-0.101494050480625     Delta-E=       -0.000006963136 Rises=F Damp=F
 DIIS: error= 5.96D-05 at cycle   5 NSaved=   5.
 NSaved= 5 IEnMin= 5 EnMin=-0.101494050480625     IErMin= 5 ErrMin= 5.96D-05
 ErrMax= 5.96D-05  0.00D+00 EMaxC= 1.00D-01 BMatC= 9.16D-08 BMatP= 9.17D-07
 IDIUse=1 WtCom= 1.00D+00 WtEn= 0.00D+00
 Coeff-Com:  0.525D-01-0.215D+00 0.580D+00-0.128D+01 0.186D+01
 Coeff:      0.525D-01-0.215D+00 0.580D+00-0.128D+01 0.186D+01
 Gap=     0.508 Goal=   None    Shift=    0.000
 RMSDP=4.72D-05 MaxDP=5.07D-04 DE=-6.96D-06 OVMax= 6.34D-04

 Cycle   6  Pass 1  IDiag  3:
 E=-0.101494846650979     Delta-E=       -0.000000796170 Rises=F Damp=F
 DIIS: error= 9.49D-06 at cycle   6 NSaved=   6.
 NSaved= 6 IEnMin= 6 EnMin=-0.101494846650979     IErMin= 6 ErrMin= 9.49D-06
 ErrMax= 9.49D-06  0.00D+00 EMaxC= 1.00D-01 BMatC= 3.23D-09 BMatP= 9.16D-08
 IDIUse=1 WtCom= 1.00D+00 WtEn= 0.00D+00
 Coeff-Com: -0.188D-01 0.769D-01-0.209D+00 0.475D+00-0.811D+00 0.149D+01
 Coeff:     -0.188D-01 0.769D-01-0.209D+00 0.475D+00-0.811D+00 0.149D+01
 Gap=     0.508 Goal=   None    Shift=    0.000
 RMSDP=7.28D-06 MaxDP=6.95D-05 DE=-7.96D-07 OVMax= 9.01D-05

 Cycle   7  Pass 1  IDiag  3:
 E=-0.101494869372118     Delta-E=       -0.000000022721 Rises=F Damp=F
 DIIS: error= 2.75D-06 at cycle   7 NSaved=   7.
 NSaved= 7 IEnMin= 7 EnMin=-0.101494869372118     IErMin= 7 ErrMin= 2.75D-06
 ErrMax= 2.75D-06  0.00D+00 EMaxC= 1.00D-01 BMatC= 1.87D-10 BMatP= 3.23D-09
 IDIUse=1 WtCom= 1.00D+00 WtEn= 0.00D+00
 Coeff-Com:  0.484D-02-0.198D-01 0.538D-01-0.123D+00 0.223D+00-0.579D+00
 Coeff-Com:  0.144D+01
 Coeff:      0.484D-02-0.198D-01 0.538D-01-0.123D+00 0.223D+00-0.579D+00
 Coeff:      0.144D+01
 Gap=     0.508 Goal=   None    Shift=    0.000
 RMSDP=1.48D-06 MaxDP=1.41D-05 DE=-2.27D-08 OVMax= 1.25D-05

 Cycle   8  Pass 1  IDiag  3:
 E=-0.101494870535078     Delta-E=       -0.000000001163 Rises=F Damp=F
 DIIS: error= 8.46D-07 at cycle   8 NSaved=   8.
 NSaved= 8 IEnMin= 8 EnMin=-0.101494870535078     IErMin= 8 ErrMin= 8.46D-07
 ErrMax= 8.46D-07  0.00D+00 EMaxC= 1.00D-01 BMatC= 1.18D-11 BMatP= 1.87D-10
 IDIUse=1 WtCom= 1.00D+00 WtEn= 0.00D+00
 Coeff-Com: -0.138D-02 0.565D-02-0.153D-01 0.352D-01-0.647D-01 0.186D+00
 Coeff-Com: -0.642D+00 0.150D+01
 Coeff:     -0.138D-02 0.565D-02-0.153D-01 0.352D-01-0.647D-01 0.186D+00
 Coeff:     -0.642D+00 0.150D+01
 Gap=     0.508 Goal=   None    Shift=    0.000
 RMSDP=3.79D-07 MaxDP=4.26D-06 DE=-1.16D-09 OVMax= 4.29D-06

 Cycle   9  Pass 1  IDiag  3:
 E=-0.101494870611674     Delta-E=       -0.000000000077 Rises=F Damp=F
 DIIS: error= 2.23D-07 at cycle   9 NSaved=   9.
 NSaved= 9 IEnMin= 9 EnMin=-0.101494870611674     IErMin= 9 ErrMin= 2.23D-07
 ErrMax= 2.23D-07  0.00D+00 EMaxC= 1.00D-01 BMatC= 8.54D-13 BMatP= 1.18D-11
 IDIUse=1 WtCom= 1.00D+00 WtEn= 0.00D+00
 Coeff-Com:  0.360D-03-0.147D-02 0.400D-02-0.926D-02 0.176D-01-0.565D-01
 Coeff-Com:  0.232D+00-0.749D+00 0.156D+01
 Coeff:      0.360D-03-0.147D-02 0.400D-02-0.926D-02 0.176D-01-0.565D-01
 Coeff:      0.232D+00-0.749D+00 0.156D+01
 Gap=     0.508 Goal=   None    Shift=    0.000
 RMSDP=1.07D-07 MaxDP=1.40D-06 DE=-7.66D-11 OVMax= 1.55D-06

 Cycle  10  Pass 1  IDiag  3:
 E=-0.101494870617501     Delta-E=       -0.000000000006 Rises=F Damp=F
 DIIS: error= 4.43D-08 at cycle  10 NSaved=  10.
 NSaved=10 IEnMin=10 EnMin=-0.101494870617501     IErMin=10 ErrMin= 4.43D-08
 ErrMax= 4.43D-08  0.00D+00 EMaxC= 1.00D-01 BMatC= 5.43D-14 BMatP= 8.54D-13
 IDIUse=1 WtCom= 1.00D+00 WtEn= 0.00D+00
 Coeff-Com: -0.450D-04 0.184D-03-0.500D-03 0.119D-02-0.254D-02 0.107D-01
 Coeff-Com: -0.519D-01 0.204D+00-0.651D+00 0.149D+01
 Coeff:     -0.450D-04 0.184D-03-0.500D-03 0.119D-02-0.254D-02 0.107D-01
 Coeff:     -0.519D-01 0.204D+00-0.651D+00 0.149D+01
 Gap=     0.508 Goal=   None    Shift=    0.000
 RMSDP=2.74D-08 MaxDP=3.47D-07 DE=-5.83D-12 OVMax= 3.62D-07

 Cycle  11  Pass 1  IDiag  3:
 E=-0.101494870617927     Delta-E=       -0.000000000000 Rises=F Damp=F
 DIIS: error= 4.93D-09 at cycle  11 NSaved=  11.
 NSaved=11 IEnMin=11 EnMin=-0.101494870617927     IErMin=11 ErrMin= 4.93D-09
 ErrMax= 4.93D-09  0.00D+00 EMaxC= 1.00D-01 BMatC= 1.99D-15 BMatP= 5.43D-14
 IDIUse=1 WtCom= 1.00D+00 WtEn= 0.00D+00
 Coeff-Com:  0.511D-05-0.209D-04 0.573D-04-0.145D-03 0.378D-03-0.205D-02
 Coeff-Com:  0.110D-01-0.479D-01 0.179D+00-0.557D+00 0.142D+01
 Coeff:      0.511D-05-0.209D-04 0.573D-04-0.145D-03 0.378D-03-0.205D-02
 Coeff:      0.110D-01-0.479D-01 0.179D+00-0.557D+00 0.142D+01
 Gap=     0.508 Goal=   None    Shift=    0.000
 RMSDP=4.77D-09 MaxDP=4.44D-08 DE=-4.26D-13 OVMax= 3.75D-08

 Cycle  12  Pass 2  IDiag  1:
 SCF Done:  E(RPM3) = -0.101494870618     A.U. after   12 cycles
            NFock= 11  Conv=0.48D-08     -V/T= 0.9983
 KE=-5.968241533228D+01 PE=-2.566067011157D+02 EE= 1.451292604877D+02
 Leave Link  502 at Wed Sep  7 15:33:20 2022, MaxMem=   131072000 cpu:               0.0 elap:               0.0
 (Enter /opt/g16/l701.exe)
 ... and contract with generalized density number  0.
 Compute integral first derivatives.
 Leave Link  701 at Wed Sep  7 15:33:20 2022, MaxMem=   131072000 cpu:               0.0 elap:               0.0
 (Enter /opt/g16/l702.exe)
 L702 exits ... SP integral derivatives will be done elsewhere.
 Leave Link  702 at Wed Sep  7 15:33:20 2022, MaxMem=   131072000 cpu:               0.0 elap:               0.0
 (Enter /opt/g16/l703.exe)
 Integral derivatives from FoFJK, PRISM(SPDF).
 Compute integral first derivatives, UseDBF=F ICtDFT=           0.
 Calling FoFJK, ICntrl=      2127 FMM=F ISym2X=0 I1Cent= 0 IOpClX= 0 NMat=1 NMatS=1 NMatT=0.
 FoFJK:  IHMeth= 9 ICntrl=    2127 DoSepK=F KAlg= 0 I1Cent=           0 FoldK=F
 IRaf=         0 NMat=       1 IRICut=       1 DoRegI=T DoRafI=F ISym2E= 0 IDoP0=3 IntGTp=3.
 FoFCou: FMM=F IPFlag=           0 FMFlag=      100000 FMFlg1=         800
         NFxFlg=           0 DoJE=F BraDBF=F KetDBF=F FulRan=T
         wScrn=  0.000000 ICntrl=      2127 IOpCl=  0 I1Cent=           0 NGrid=           0
         NMat0=    1 NMatS0=      1 NMatT0=    0 NMatD0=    1 NMtDS0=    0 NMtDT0=    0
 Symmetry not used in FoFCou.
 Leave Link  703 at Wed Sep  7 15:33:20 2022, MaxMem=   131072000 cpu:               0.0 elap:               0.0
 (Enter /opt/g16/l716.exe)
 Dipole        = 5.10374417D-01-3.33111257D-01 2.09810487D-01
 ***** Axes restored to original set *****
 -------------------------------------------------------------------
 Center     Atomic                   Forces (Hartrees/Bohr)
 Number     Number              X              Y              Z
 -------------------------------------------------------------------
      1        6           0.005623876   -0.002262337    0.018454389
      2        1           0.006500758   -0.011403441   -0.000842716
      3        1          -0.002315509    0.009800713   -0.016066338
      4        1          -0.009669404   -0.009259512    0.005020980
      5        6          -0.003148876    0.017979430   -0.015812564
      6        1          -0.000487710    0.002506265    0.007085366
      7        1          -0.008460006   -0.003391429    0.000264113
      8        6           0.022384906   -0.010133499   -0.020402664
      9        1          -0.003777569    0.012075909    0.005295296
     10        8          -0.001645676   -0.001979249   -0.001275836
     11        6           0.020378164   -0.011999321    0.014919458
     12        1          -0.000512609    0.001292157   -0.000798862
     13        1          -0.010324396    0.001218614   -0.003735770
     14        1           0.002649809   -0.000889543    0.004205046
     15        6          -0.035768265    0.002700196    0.004947736
     16        1           0.001039818   -0.002674234   -0.000361878
     17        1           0.011463348    0.001015007   -0.000444800
     18        1           0.006069341    0.005404273   -0.000450957
 -------------------------------------------------------------------
 Cartesian Forces:  Max     0.035768265 RMS     0.010095972
 Leave Link  716 at Wed Sep  7 15:33:20 2022, MaxMem=   131072000 cpu:               0.0 elap:               0.0
 (Enter /opt/g16/l103.exe)

 GradGradGradGradGradGradGradGradGradGradGradGradGradGradGradGradGradGrad
 Berny optimization.
 Using GEDIIS/GDIIS optimizer.
 FormGI is forming the generalized inverse of G from B-inverse, IUseBI=4.
 Internal  Forces:  Max     0.019825364 RMS     0.005852026
 Search for a local minimum.
 Step number   2 out of a maximum of   97
 All quantities printed in internal units (Hartrees-Bohrs-Radians)
 RMS Force = .58520D-02 SwitMx=.10000D-02 MixMth= 1
 Mixed Optimization -- RFO/linear search
 Update second derivatives using D2CorX and points    1    2
 DE= -3.30D-02 DEPred=-4.26D-02 R= 7.75D-01
 TightC=F SS=  1.41D+00  RLast= 3.40D-01 DXNew= 5.0454D-01 1.0204D+00
 Trust test= 7.75D-01 RLast= 3.40D-01 DXMaxT set to 5.05D-01
 ITU=  1  0
 Use linear search instead of GDIIS.
     Eigenvalues ---    0.00230   0.00406   0.01464   0.01615   0.01819
     Eigenvalues ---    0.03818   0.04147   0.04688   0.04702   0.04921
     Eigenvalues ---    0.05250   0.05354   0.05547   0.05629   0.05998
     Eigenvalues ---    0.08308   0.08479   0.08963   0.11970   0.12560
     Eigenvalues ---    0.14869   0.16000   0.16000   0.16000   0.16000
     Eigenvalues ---    0.16000   0.16657   0.17972   0.20055   0.21907
     Eigenvalues ---    0.23305   0.26136   0.27685   0.28285   0.29620
     Eigenvalues ---    0.30647   0.31065   0.32909   0.33320   0.33943
     Eigenvalues ---    0.34565   0.34579   0.35802   0.37011   0.39351
     Eigenvalues ---    0.44008   0.59414   0.64445
 RFO step:  Lambda=-1.86835971D-02 EMin= 2.29999521D-03
 Quartic linear search produced a step of  0.43253.
 Iteration  1 RMS(Cart)=  0.06351356 RMS(Int)=  0.00349777
 Iteration  2 RMS(Cart)=  0.00372453 RMS(Int)=  0.00159635
 Iteration  3 RMS(Cart)=  0.00000770 RMS(Int)=  0.00159634
 Iteration  4 RMS(Cart)=  0.00000002 RMS(Int)=  0.00159634
 ITry= 1 IFail=0 DXMaxC= 2.13D-01 DCOld= 1.00D+10 DXMaxT= 5.05D-01 DXLimC= 3.00D+00 Rises=F
 Variable       Old X    -DE/DX   Delta X   Delta X   Delta X     New X
                                 (Linear)    (Quad)   (Total)
    R1        2.07870   0.00191   0.00641   0.00085   0.00727   2.08597
    R2        2.12928  -0.01651  -0.02148  -0.05490  -0.07638   2.05290
    R3        2.08319  -0.00211  -0.00070  -0.00773  -0.00843   2.07476
    R4        2.88225  -0.01061  -0.00161  -0.04572  -0.04733   2.83492
    R5        2.11545  -0.00701  -0.00753  -0.02265  -0.03018   2.08527
    R6        2.06833   0.00785   0.01108   0.01802   0.02910   2.09743
    R7        2.86854   0.01100   0.05755  -0.02023   0.03732   2.90586
    R8        2.16045  -0.01224  -0.01122  -0.04613  -0.05736   2.10309
    R9        2.70189  -0.00175   0.03204  -0.03764  -0.00560   2.69629
   R10        2.84815   0.01983   0.05831   0.00709   0.06540   2.91354
   R11        1.78967   0.00151   0.00663  -0.00334   0.00329   1.79295
   R12        2.11229  -0.00605  -0.00556  -0.02018  -0.02574   2.08655
   R13        2.08908  -0.00124  -0.00130  -0.00370  -0.00499   2.08409
   R14        2.92962  -0.01381  -0.01005  -0.05809  -0.06814   2.86148
   R15        2.08335   0.00104   0.00388   0.00013   0.00401   2.08736
   R16        2.04776   0.00737   0.01015   0.01632   0.02648   2.07423
   R17        2.06567   0.00051   0.00078   0.00117   0.00195   2.06763
    A1        1.88303  -0.00228  -0.00338  -0.00736  -0.00719   1.87584
    A2        1.72660   0.01691   0.02954   0.10741   0.13210   1.85870
    A3        2.05481  -0.01334  -0.02175  -0.07766  -0.09997   1.95483
    A4        1.93112  -0.00391  -0.00928  -0.03293  -0.03859   1.89252
    A5        1.82241   0.01578   0.02881   0.09270   0.12537   1.94778
    A6        2.04311  -0.01383  -0.02578  -0.08620  -0.11260   1.93050
    A7        1.92937  -0.00043  -0.00910  -0.00297  -0.01217   1.91720
    A8        1.85860   0.00315  -0.00887   0.03843   0.02951   1.88811
    A9        2.00478  -0.00392   0.02531  -0.04413  -0.01882   1.98597
   A10        1.87499  -0.00216  -0.00488  -0.02315  -0.02814   1.84685
   A11        1.88486   0.00302  -0.00078   0.02390   0.02305   1.90792
   A12        1.90719   0.00033  -0.00302   0.00826   0.00539   1.91258
   A13        1.95097  -0.00188  -0.01230  -0.03602  -0.04871   1.90226
   A14        1.97119   0.00226   0.02736  -0.00571   0.02293   1.99412
   A15        1.99607  -0.00720  -0.01583  -0.03373  -0.05075   1.94533
   A16        1.78891  -0.00033  -0.01054   0.03094   0.02010   1.80901
   A17        1.88748   0.00370   0.00382   0.02018   0.02080   1.90828
   A18        1.85483   0.00455   0.00908   0.03491   0.04411   1.89894
   A19        1.88605  -0.00092   0.03863  -0.04615  -0.00752   1.87853
   A20        1.94748  -0.00431  -0.00474  -0.01855  -0.02664   1.92084
   A21        1.88617   0.00201   0.00346   0.01213   0.01637   1.90254
   A22        1.94173   0.00476   0.02154   0.01867   0.03921   1.98094
   A23        1.91064  -0.00208  -0.00725  -0.04355  -0.04992   1.86072
   A24        1.81328   0.00524   0.00531   0.07108   0.07613   1.88941
   A25        1.96481  -0.00590  -0.01870  -0.04112  -0.05927   1.90554
   A26        1.87035   0.00620   0.01279   0.07013   0.08220   1.95254
   A27        1.92431   0.00300   0.00261   0.00478   0.00299   1.92730
   A28        2.01573  -0.00564  -0.01100  -0.05326  -0.06617   1.94956
   A29        1.82640   0.00036   0.00519   0.04085   0.04303   1.86943
   A30        1.82951   0.00139   0.00420   0.03344   0.03917   1.86868
   A31        1.98112  -0.00405  -0.00968  -0.07323  -0.08809   1.89303
    D1       -1.04154  -0.00046  -0.00706  -0.00002  -0.00926  -1.05080
    D2       -3.07299   0.00055   0.00908   0.00725   0.01404  -3.05895
    D3        1.09651   0.00031   0.00340  -0.00328  -0.00201   1.09450
    D4       -3.12842  -0.00146  -0.01242  -0.01406  -0.02649   3.12828
    D5        1.12332  -0.00045   0.00372  -0.00679  -0.00319   1.12013
    D6       -0.99037  -0.00069  -0.00196  -0.01732  -0.01924  -1.00961
    D7        1.01339   0.00016  -0.00736   0.01141   0.00631   1.01970
    D8       -1.01806   0.00117   0.00878   0.01868   0.02961  -0.98845
    D9       -3.13175   0.00093   0.00310   0.00816   0.01356  -3.11819
   D10       -2.74222  -0.00030  -0.00995  -0.01829  -0.02709  -2.76932
   D11       -0.73558  -0.00049  -0.01323  -0.00649  -0.01981  -0.75538
   D12        1.38882   0.00182   0.00855   0.00972   0.01727   1.40609
   D13       -0.58038  -0.00128  -0.00509  -0.03461  -0.03857  -0.61894
   D14        1.42626  -0.00147  -0.00837  -0.02281  -0.03128   1.39499
   D15       -2.73252   0.00085   0.01342  -0.00660   0.00580  -2.72672
   D16        1.45406  -0.00199  -0.01300  -0.04445  -0.05635   1.39771
   D17       -2.82248  -0.00219  -0.01628  -0.03264  -0.04907  -2.87154
   D18       -0.69808   0.00013   0.00550  -0.01644  -0.01199  -0.71007
   D19       -0.28401  -0.00090  -0.00103   0.01025   0.00985  -0.27417
   D20        1.81796  -0.00221  -0.00804  -0.01656  -0.02441   1.79354
   D21       -2.48620   0.00342  -0.00469   0.03138   0.02586  -2.46034
   D22       -1.30902   0.00149  -0.01027   0.03138   0.02066  -1.28836
   D23        0.79247  -0.00241  -0.01991  -0.02591  -0.04590   0.74657
   D24        2.95786  -0.00532  -0.02706  -0.05700  -0.08346   2.87440
   D25        2.78817   0.00624   0.01512   0.08715   0.10240   2.89057
   D26       -1.39352   0.00234   0.00548   0.02986   0.03584  -1.35768
   D27        0.77187  -0.00057  -0.00167  -0.00123  -0.00172   0.77015
   D28        0.87801   0.00299   0.02141   0.02772   0.04803   0.92605
   D29        2.97950  -0.00091   0.01177  -0.02956  -0.01853   2.96098
   D30       -1.13829  -0.00382   0.00462  -0.06066  -0.05608  -1.19438
   D31       -2.05929   0.00041   0.00216   0.02277   0.02753  -2.03176
   D32        2.24591  -0.00482  -0.01169  -0.06514  -0.07487   2.17105
   D33       -0.02855   0.00312   0.01002   0.08170   0.09137   0.06282
   D34        2.12628  -0.00001  -0.00563  -0.00695  -0.01276   2.11352
   D35        0.14830  -0.00525  -0.01948  -0.09486  -0.11516   0.03314
[...]
 ! A13   A(5,8,9)              109.1189         -DE/DX =    0.0                 !
 ! A14   A(5,8,10)             112.2024         -DE/DX =    0.0                 !
 ! A15   A(5,8,11)             111.6449         -DE/DX =    0.0                 !
 ! A16   A(9,8,10)             101.1823         -DE/DX =    0.0                 !
 ! A17   A(9,8,11)             109.7921         -DE/DX =    0.0                 !
 ! A18   A(10,8,11)            112.3628         -DE/DX =    0.0                 !
 ! A19   A(8,10,12)            107.2538         -DE/DX =    0.0                 !
 ! A20   A(8,11,13)            110.3451         -DE/DX =    0.0                 !
 ! A21   A(8,11,14)            108.9185         -DE/DX =    0.0                 !
 ! A22   A(8,11,15)            112.0756         -DE/DX =    0.0                 !
 ! A23   A(13,11,14)           105.6003         -DE/DX =    0.0                 !
 ! A24   A(13,11,15)           109.8381         -DE/DX =    0.0                 !
 ! A25   A(14,11,15)           109.8549         -DE/DX =    0.0                 !
 ! A26   A(11,15,16)           111.6618         -DE/DX =    0.0                 !
 ! A27   A(11,15,17)           111.1776         -DE/DX =    0.0                 !
 ! A28   A(11,15,18)           111.6357         -DE/DX =    0.0                 !
 ! A29   A(16,15,17)           107.3991         -DE/DX =    0.0                 !
 ! A30   A(16,15,18)           107.2485         -DE/DX =    0.0                 !
 ! A31   A(17,15,18)           107.4845         -DE/DX =    0.0                 !
 ! D1    D(2,1,5,6)            -63.3249         -DE/DX =    0.0                 !
 ! D2    D(2,1,5,7)           -178.7988         -DE/DX =    0.0                 !
 ! D3    D(2,1,5,8)             59.082          -DE/DX =    0.0                 !
 ! D4    D(3,1,5,6)            176.0394         -DE/DX =    0.0                 !
 ! D5    D(3,1,5,7)             60.5656         -DE/DX =    0.0                 !
 ! D6    D(3,1,5,8)            -61.5537         -DE/DX =    0.0                 !
 ! D7    D(4,1,5,6)             56.3159         -DE/DX =    0.0                 !
 ! D8    D(4,1,5,7)            -59.1579         -DE/DX =    0.0                 !
 ! D9    D(4,1,5,8)            178.7228         -DE/DX =    0.0                 !
 ! D10   D(1,5,8,9)           -177.5292         -DE/DX =    0.0                 !
 ! D11   D(1,5,8,10)           -66.2341         -DE/DX =    0.0                 !
 ! D12   D(1,5,8,11)            60.9285         -DE/DX =    0.0                 !
 ! D13   D(6,5,8,9)            -54.8828         -DE/DX =    0.0                 !
 ! D14   D(6,5,8,10)            56.4124         -DE/DX =    0.0                 !
 ! D15   D(6,5,8,11)          -176.425          -DE/DX =    0.0                 !
 ! D16   D(7,5,8,9)             59.7241         -DE/DX =    0.0                 !
 ! D17   D(7,5,8,10)           171.0193         -DE/DX =    0.0                 !
 ! D18   D(7,5,8,11)           -61.8181         -DE/DX =    0.0                 !
 ! D19   D(5,8,10,12)           62.4941         -DE/DX =    0.0                 !
 ! D20   D(9,8,10,12)          178.6803         -DE/DX =    0.0                 !
 ! D21   D(11,8,10,12)         -64.2831         -DE/DX =    0.0                 !
 ! D22   D(5,8,11,13)          -73.2129         -DE/DX =    0.0                 !
 ! D23   D(5,8,11,14)           42.2728         -DE/DX =    0.0                 !
 ! D24   D(5,8,11,15)          164.038          -DE/DX =    0.0                 !
 ! D25   D(9,8,11,13)          165.6352         -DE/DX =    0.0                 !
 ! D26   D(9,8,11,14)          -78.879          -DE/DX =    0.0                 !
 ! D27   D(9,8,11,15)           42.8861         -DE/DX =    0.0                 !
 ! D28   D(10,8,11,13)          53.8628         -DE/DX =    0.0                 !
 ! D29   D(10,8,11,14)         169.3486         -DE/DX =    0.0                 !
 ! D30   D(10,8,11,15)         -68.8863         -DE/DX =    0.0                 !
 ! D31   D(8,11,15,16)         -60.6109         -DE/DX =    0.0                 !
 ! D32   D(8,11,15,17)         179.4601         -DE/DX =    0.0                 !
 ! D33   D(8,11,15,18)          59.4401         -DE/DX =    0.0                 !
 ! D34   D(13,11,15,16)        176.3533         -DE/DX =    0.0                 !
 ! D35   D(13,11,15,17)         56.4242         -DE/DX =    0.0                 !
 ! D36   D(13,11,15,18)        -63.5958         -DE/DX =    0.0                 !
 ! D37   D(14,11,15,16)         60.6165         -DE/DX =    0.0                 !
 ! D38   D(14,11,15,17)        -59.3125         -DE/DX =    0.0                 !
 ! D39   D(14,11,15,18)       -179.3325         -DE/DX =    0.0                 !
 --------------------------------------------------------------------------------
 Lowest energy point so far.  Saving SCF results.
 Largest change from initial coordinates is atom   17       1.152 Angstoms.
 GradGradGradGradGradGradGradGradGradGradGradGradGradGradGradGradGradGrad

 Leave Link  103 at Wed Sep  7 15:33:27 2022, MaxMem=   131072000 cpu:               0.0 elap:               0.0
 (Enter /opt/g16/l202.exe)
                          Input orientation:                          
 ---------------------------------------------------------------------
 Center     Atomic      Atomic             Coordinates (Angstroms)
 Number     Number       Type             X           Y           Z
 ---------------------------------------------------------------------
      1          6           0        0.944303    8.296023   13.619986
      2          1           0        1.904272    8.567795   13.159256
      3          1           0        1.087505    8.316183   14.709189
      4          1           0        0.230834    9.092328   13.370970
      5          6           0        0.442757    6.952304   13.141423
      6          1           0        0.245394    7.000484   12.051799
      7          1           0       -0.534441    6.729261   13.613330
      8          6           0        1.400816    5.781296   13.423897
      9          1           0        0.969095    4.845054   12.997799
     10          8           0        2.600429    5.886559   12.692518
     11          6           0        1.648315    5.601693   14.931418
     12          1           0        3.035654    6.681471   12.977900
     13          1           0        2.304203    6.410504   15.313609
     14          1           0        0.686964    5.718308   15.469677
     15          6           0        2.255466    4.254881   15.250916
     16          1           0        1.598531    3.430550   14.942381
     17          1           0        2.434535    4.146204   16.328283
     18          1           0        3.217370    4.113103   14.740649
 ---------------------------------------------------------------------
                    Distance matrix (angstroms):
                    1          2          3          4          5
     1  C    0.000000
     2  H    1.098942   0.000000
     3  H    1.098761   1.769946   0.000000
     4  H    1.097793   1.766452   1.768366   0.000000
     5  C    1.512002   2.178567   2.175719   2.162708   0.000000
     6  H    2.150839   2.536691   3.082521   2.473103   1.108401
     7  H    2.154407   3.087671   2.519908   2.495690   1.107863
     8  C    2.563339   2.843955   2.859334   3.512064   1.539133
     9  H    3.506696   3.841800   3.871900   4.327081   2.176733
    10  O    3.067322   2.809182   3.501281   4.043789   2.448035
    11  C    3.078132   3.464655   2.780710   4.077841   2.545900
    12  H    2.718970   2.207064   3.076512   3.719375   2.612127
    13  H    2.876259   3.074913   2.340361   3.907030   2.911515
    14  H    3.183111   3.865160   2.736372   3.999580   2.646347
    15  C    4.550814   4.806205   4.260489   5.570837   3.874528
    16  H    5.084247   5.446494   4.917818   6.032882   4.120924
    17  H    5.174617   5.465746   4.671689   6.169777   4.690145
    18  H    4.890761   4.906049   4.712027   5.965577   4.279845
                    6          7          8          9         10
     6  H    0.000000
     7  H    1.766376   0.000000
     8  C    2.168887   2.163271   0.000000
     9  H    2.462629   2.487918   1.115568   0.000000
    10  O    2.682823   3.374233   1.408924   1.959383   0.000000
    11  C    3.495284   2.788044   1.538225   2.184657   2.449560
    12  H    2.957192   3.626518   1.918834   2.764686   0.950131
    13  H    3.902073   3.324222   2.187012   3.097761   2.689309
    14  H    3.677071   2.441287   2.167664   2.636731   3.376724
    15  C    4.670447   4.072815   2.529499   2.660750   3.053976
    16  H    4.788619   4.146980   2.805511   2.485640   3.478170
    17  H    5.588164   4.781001   3.489636   3.705136   4.034247
    18  H    4.939588   4.710756   2.795814   2.937349   2.778597
                   11         12         13         14         15
    11  C    0.000000
    12  H    2.628091   0.000000
    13  H    1.109249   2.462515   0.000000
    14  H    1.107934   3.557103   1.766056   0.000000
    15  C    1.511494   3.415206   2.157085   2.156310   0.000000
    16  H    2.171742   4.061157   3.084786   2.518498   1.098308
    17  H    2.165138   4.244289   2.484674   2.502543   1.097542
    18  H    2.171228   3.120388   2.537757   3.084011   1.098059
                   16         17         18
    16  H    0.000000
    17  H    1.769686   0.000000
    18  H    1.768394   1.770455   0.000000
 Stoichiometry    C5H12O
 Framework group  C1[X(C5H12O)]
 Deg. of freedom    48
 Full point group                 C1      NOp   1
 RotChk:  IX=0 Diff= 8.31D-16
 Largest Abelian subgroup         C1      NOp   1
 Largest concise Abelian subgroup C1      NOp   1
                         Standard orientation:                         
 ---------------------------------------------------------------------
 Center     Atomic      Atomic             Coordinates (Angstroms)
 Number     Number       Type             X           Y           Z
 ---------------------------------------------------------------------
      1          6           0        2.107010   -0.594386   -0.509977
      2          1           0        2.199910    0.203196   -1.260248
      3          1           0        1.601054   -1.440989   -0.994278
      4          1           0        3.124659   -0.922656   -0.261423
      5          6           0        1.371895   -0.130178    0.727064
      6          1           0        1.953635    0.674192    1.220137
      7          1           0        1.320626   -0.956920    1.462747
      8          6           0       -0.056631    0.377673    0.461862
      9          1           0       -0.500040    0.738097    1.419971
     10          8           0       -0.067758    1.559024   -0.305831
     11          6           0       -0.946501   -0.721678   -0.142865
     12          1           0        0.318064    1.350961   -1.148802
     13          1           0       -0.667736   -0.905026   -1.200743
     14          1           0       -0.749740   -1.674814    0.386599
     15          6           0       -2.415481   -0.377574   -0.051747
     16          1           0       -2.738772   -0.252870    0.990468
     17          1           0       -3.035840   -1.166710   -0.495613
     18          1           0       -2.645507    0.558206   -0.578185
 ---------------------------------------------------------------------
 Rotational constants (GHZ):           5.5144994           2.1825716           1.8722541
 Leave Link  202 at Wed Sep  7 15:33:27 2022, MaxMem=   131072000 cpu:               0.0 elap:               0.0
 (Enter /opt/g16/l601.exe)
 Copying SCF densities to generalized density rwf, IOpCl= 0 IROHF=0.

 **********************************************************************

            Population analysis using the SCF density.

 **********************************************************************

 Orbital symmetries:
       Occupied  (A) (A) (A) (A) (A) (A) (A) (A) (A) (A) (A) (A)
                 (A) (A) (A) (A) (A) (A) (A)
       Virtual   (A) (A) (A) (A) (A) (A) (A) (A) (A) (A) (A) (A)
                 (A) (A) (A) (A) (A)
 The electronic state is 1-A.
 Alpha  occ. eigenvalues --   -1.49052  -1.24573  -1.20143  -0.95180  -0.83293
 Alpha  occ. eigenvalues --   -0.74753  -0.63343  -0.61220  -0.58375  -0.56641
 Alpha  occ. eigenvalues --   -0.53646  -0.51354  -0.49802  -0.47821  -0.47205
 Alpha  occ. eigenvalues --   -0.44620  -0.43631  -0.42948  -0.40700
 Alpha virt. eigenvalues --    0.11507   0.12825   0.13072   0.13547   0.13964
 Alpha virt. eigenvalues --    0.14135   0.14684   0.14929   0.15516   0.15969
 Alpha virt. eigenvalues --    0.16913   0.17141   0.17303   0.17616   0.18326
 Alpha virt. eigenvalues --    0.18418   0.21348
          Condensed to atoms (all electrons):
               1          2          3          4          5          6
     1  C    4.112179   0.000000   0.000000   0.000000   0.000000   0.000000
     2  H    0.000000   0.963799   0.000000   0.000000   0.000000   0.000000
     3  H    0.000000   0.000000   0.959686   0.000000   0.000000   0.000000
     4  H    0.000000   0.000000   0.000000   0.957903   0.000000   0.000000
     5  C    0.000000   0.000000   0.000000   0.000000   4.135211   0.000000
     6  H    0.000000   0.000000   0.000000   0.000000   0.000000   0.938992
     7  H    0.000000   0.000000   0.000000   0.000000   0.000000   0.000000
     8  C    0.000000   0.000000   0.000000   0.000000   0.000000   0.000000
     9  H    0.000000   0.000000   0.000000   0.000000   0.000000   0.000000
    10  O    0.000000   0.000000   0.000000   0.000000   0.000000   0.000000
    11  C    0.000000   0.000000   0.000000   0.000000   0.000000   0.000000
    12  H    0.000000   0.000000   0.000000   0.000000   0.000000   0.000000
    13  H    0.000000   0.000000   0.000000   0.000000   0.000000   0.000000
    14  H    0.000000   0.000000   0.000000   0.000000   0.000000   0.000000
    15  C    0.000000   0.000000   0.000000   0.000000   0.000000   0.000000
    16  H    0.000000   0.000000   0.000000   0.000000   0.000000   0.000000
    17  H    0.000000   0.000000   0.000000   0.000000   0.000000   0.000000
    18  H    0.000000   0.000000   0.000000   0.000000   0.000000   0.000000
               7          8          9         10         11         12
     1  C    0.000000   0.000000   0.000000   0.000000   0.000000   0.000000
     2  H    0.000000   0.000000   0.000000   0.000000   0.000000   0.000000
     3  H    0.000000   0.000000   0.000000   0.000000   0.000000   0.000000
     4  H    0.000000   0.000000   0.000000   0.000000   0.000000   0.000000
     5  C    0.000000   0.000000   0.000000   0.000000   0.000000   0.000000
     6  H    0.000000   0.000000   0.000000   0.000000   0.000000   0.000000
     7  H    0.943782   0.000000   0.000000   0.000000   0.000000   0.000000
     8  C    0.000000   3.926243   0.000000   0.000000   0.000000   0.000000
     9  H    0.000000   0.000000   0.929487   0.000000   0.000000   0.000000
    10  O    0.000000   0.000000   0.000000   6.307925   0.000000   0.000000
    11  C    0.000000   0.000000   0.000000   0.000000   4.133205   0.000000
    12  H    0.000000   0.000000   0.000000   0.000000   0.000000   0.815958
    13  H    0.000000   0.000000   0.000000   0.000000   0.000000   0.000000
    14  H    0.000000   0.000000   0.000000   0.000000   0.000000   0.000000
    15  C    0.000000   0.000000   0.000000   0.000000   0.000000   0.000000
    16  H    0.000000   0.000000   0.000000   0.000000   0.000000   0.000000
    17  H    0.000000   0.000000   0.000000   0.000000   0.000000   0.000000
    18  H    0.000000   0.000000   0.000000   0.000000   0.000000   0.000000
              13         14         15         16         17         18
     1  C    0.000000   0.000000   0.000000   0.000000   0.000000   0.000000
     2  H    0.000000   0.000000   0.000000   0.000000   0.000000   0.000000
     3  H    0.000000   0.000000   0.000000   0.000000   0.000000   0.000000
     4  H    0.000000   0.000000   0.000000   0.000000   0.000000   0.000000
     5  C    0.000000   0.000000   0.000000   0.000000   0.000000   0.000000
     6  H    0.000000   0.000000   0.000000   0.000000   0.000000   0.000000
     7  H    0.000000   0.000000   0.000000   0.000000   0.000000   0.000000
     8  C    0.000000   0.000000   0.000000   0.000000   0.000000   0.000000
     9  H    0.000000   0.000000   0.000000   0.000000   0.000000   0.000000
    10  O    0.000000   0.000000   0.000000   0.000000   0.000000   0.000000
    11  C    0.000000   0.000000   0.000000   0.000000   0.000000   0.000000
    12  H    0.000000   0.000000   0.000000   0.000000   0.000000   0.000000
    13  H    0.947781   0.000000   0.000000   0.000000   0.000000   0.000000
    14  H    0.000000   0.943981   0.000000   0.000000   0.000000   0.000000
    15  C    0.000000   0.000000   4.106930   0.000000   0.000000   0.000000
    16  H    0.000000   0.000000   0.000000   0.961099   0.000000   0.000000
    17  H    0.000000   0.000000   0.000000   0.000000   0.964104   0.000000
    18  H    0.000000   0.000000   0.000000   0.000000   0.000000   0.951734
 Mulliken charges:
               1
     1  C   -0.112179
     2  H    0.036201
     3  H    0.040314
     4  H    0.042097
     5  C   -0.135211
     6  H    0.061008
     7  H    0.056218
     8  C    0.073757
     9  H    0.070513
    10  O   -0.307925
    11  C   -0.133205
    12  H    0.184042
    13  H    0.052219
    14  H    0.056019
    15  C   -0.106930
    16  H    0.038901
    17  H    0.035896
    18  H    0.048266
 Sum of Mulliken charges =  -0.00000
 Mulliken charges with hydrogens summed into heavy atoms:
               1
     1  C    0.006433
     5  C   -0.017985
     8  C    0.144270
    10  O   -0.123883
    11  C   -0.024967
    15  C    0.016133
 Charge=             -0.0000 electrons
 Dipole moment (field-independent basis, Debye):
    X=              0.5499    Y=             -1.4058    Z=             -0.3714  Tot=              1.5545
 N-N= 1.711160325675D+02 E-N=-2.566104270534D+02  KE=-5.969409781270D+01
 Leave Link  601 at Wed Sep  7 15:33:27 2022, MaxMem=   131072000 cpu:               0.0 elap:               0.0
 (Enter /opt/g16/l9999.exe)
 1\1\GINC-TOTEM2\FOpt\RPM3\ZDO\C5H12O1\JRAMOS\07-Sep-2022\0\\#p opt pm3
 \\Conformer number 001. Energy MM = 0.000 kcal/mol\\0,1\C,0.944302658,
 8.2960226951,13.6199862418\H,1.9042720504,8.5677949062,13.1592555928\H
 ,1.0875048921,8.3161825525,14.7091888297\H,0.2308340367,9.0923282909,1
 3.3709700954\C,0.4427566264,6.9523042656,13.1414225742\H,0.2453941749,
 7.0004838575,12.0517986312\H,-0.5344410286,6.7292612243,13.6133300648\
 C,1.4008158435,5.7812957468,13.4238967464\H,0.9690950167,4.8450535179,
 12.9977993337\O,2.6004286689,5.8865590913,12.6925181533\C,1.6483149151
 ,5.6016932425,14.9314184999\H,3.035653757,6.6814713124,12.9779004711\H
 ,2.3042026623,6.4105036396,15.3136088559\H,0.6869637224,5.718307642,15
 .4696768399\C,2.2554661488,4.2548811487,15.2509158182\H,1.5985305262,3
 .4305499719,14.9423810336\H,2.4345351357,4.1462041762,16.3282834476\H,
 3.2173701935,4.1131027186,14.7406487704\\Version=ES64L-G16RevA.03\Stat
 e=1-A\HF=-0.1192312\RMSD=9.365e-09\RMSF=3.297e-06\Dipole=-0.2319446,0.
 3817044,0.4177944\PG=C01 [X(C5H12O1)]\\@


 THE TRULY SUCCESSFUL PERFORMANCE OF RESEARCHES IN
 INORGANIC CHEMISTRY IS POSSIBLE ONLY TO ONE WHO IS NOT
 ONLY A THEORETICAL CHEMIST, BUT ALSO AN ACCOMPLISHED
 ANALYST AND, MOREOVER, NOT MERELY A PRACTICALLY TRAINED,
 MECHANICAL WORKER, BUT A THINKING CREATIVE ARTIST.
   --  CLEMENS WINKLER, BER. 33, 1697(1900)
 Job cpu time:       0 days  0 hours  0 minutes  7.5 seconds.
 Elapsed time:       0 days  0 hours  0 minutes  6.2 seconds.
 File lengths (MBytes):  RWF=      6 Int=      0 D2E=      0 Chk=      2 Scr=      1
 Normal termination of Gaussian 16 at Wed Sep  7 15:33:27 2022.
