 Entering Gaussian System, Link 0=/opt/g16/g16
 Input=MD_extract_012_gaussian.com
 Output=MD_extract_012_gaussian.log
 Initial command:
 /opt/g16/l1.exe "/tmp/Gau-317109.inp" -scrdir="/tmp/"
 Entering Link 1 = /opt/g16/l1.exe PID=    317111.
  
 Copyright (c) 1988,1990,1992,1993,1995,1998,2003,2009,2016,
            Gaussian, Inc.  All Rights Reserved.
  
 This is part of the Gaussian(R) 16 program.  It is based on
 the Gaussian(R) 09 system (copyright 2009, Gaussian, Inc.),
 the Gaussian(R) 03 system (copyright 2003, Gaussian, Inc.),
 the Gaussian(R) 98 system (copyright 1998, Gaussian, Inc.),
 the Gaussian(R) 94 system (copyright 1995, Gaussian, Inc.),
 the Gaussian 92(TM) system (copyright 1992, Gaussian, Inc.),
 the Gaussian 90(TM) system (copyright 1990, Gaussian, Inc.),
 the Gaussian 88(TM) system (copyright 1988, Gaussian, Inc.),
 the Gaussian 86(TM) system (copyright 1986, Carnegie Mellon
 University), and the Gaussian 82(TM) system (copyright 1983,
 Carnegie Mellon University). Gaussian is a federally registered
 trademark of Gaussian, Inc.
  
 This software contains proprietary and confidential information,
 including trade secrets, belonging to Gaussian, Inc.
  
 This software is provided under written license and may be
 used, copied, transmitted, or stored only in accord with that
 written license.
  
 The following legend is applicable only to US Government
 contracts under FAR:
  
                    RESTRICTED RIGHTS LEGEND
  
 Use, reproduction and disclosure by the US Government is
 subject to restrictions as set forth in subparagraphs (a)
 and (c) of the Commercial Computer Software - Restricted
 Rights clause in FAR 52.227-19.
  
 Gaussian, Inc.
 340 Quinnipiac St., Bldg. 40, Wallingford CT 06492
  
  
 ---------------------------------------------------------------
 Warning -- This program may not be used in any manner that
 competes with the business of Gaussian, Inc. or will provide
 assistance to any competitor of Gaussian, Inc.  The licensee
 of this program is prohibited from giving any competitor of
 Gaussian, Inc. access to this program.  By using this program,
 the user acknowledges that Gaussian, Inc. is engaged in the
 business of creating and licensing software in the field of
 computational chemistry and represents and warrants to the
 licensee that it is not a competitor of Gaussian, Inc. and that
 it will not use this program in any manner prohibited above.
 ---------------------------------------------------------------
  

 Cite this work as:
 Gaussian 16, Revision A.03,
 M. J. Frisch, G. W. Trucks, H. B. Schlegel, G. E. Scuseria, 
 M. A. Robb, J. R. Cheeseman, G. Scalmani, V. Barone, 
 G. A. Petersson, H. Nakatsuji, X. Li, M. Caricato, A. V. Marenich, 
 J. Bloino, B. G. Janesko, R. Gomperts, B. Mennucci, H. P. Hratchian, 
 J. V. Ortiz, A. F. Izmaylov, J. L. Sonnenberg, D. Williams-Young, 
 F. Ding, F. Lipparini, F. Egidi, J. Goings, B. Peng, A. Petrone, 
 T. Henderson, D. Ranasinghe, V. G. Zakrzewski, J. Gao, N. Rega, 
 G. Zheng, W. Liang, M. Hada, M. Ehara, K. Toyota, R. Fukuda, 
 J. Hasegawa, M. Ishida, T. Nakajima, Y. Honda, O. Kitao, H. Nakai, 
 T. Vreven, K. Throssell, J. A. Montgomery, Jr., J. E. Peralta, 
 F. Ogliaro, M. J. Bearpark, J. J. Heyd, E. N. Brothers, K. N. Kudin, 
 V. N. Staroverov, T. A. Keith, R. Kobayashi, J. Normand, 
 K. Raghavachari, A. P. Rendell, J. C. Burant, S. S. Iyengar, 
 J. Tomasi, M. Cossi, J. M. Millam, M. Klene, C. Adamo, R. Cammi, 
 J. W. Ochterski, R. L. Martin, K. Morokuma, O. Farkas, 
 J. B. Foresman, and D. J. Fox, Gaussian, Inc., Wallingford CT, 2016.
 
 ******************************************
 Gaussian 16:  ES64L-G16RevA.03 25-Dec-2016
                 7-Sep-2022 
 ******************************************
 %chk=MD_extract_012_gaussian.chk
 %nproc=1
 Will use up to    1 processors via shared memory.
 %mem=1000Mb
 ----------
 #p opt pm3
 ----------
 1/18=20,19=15,26=1,38=1/1,3;
 2/9=110,12=2,17=6,18=5,40=1/2;
 3/5=2,25=1,41=800000,71=1/1,2,3;
 4/35=1/1;
 5/5=2,35=1,38=5/2;
 6/7=2,8=2,9=2,10=2,28=1/1;
 7//1,2,3,16;
 1/18=20,19=15,26=1/3(2);
 2/9=110/2;
 99//99;
 2/9=110/2;
 3/5=2,25=1,41=800000,71=1,135=20/1,2,3;
 4/5=5,16=3,35=1/1;
 5/5=2,35=1,38=5/2;
 7//1,2,3,16;
 1/18=20,19=15,26=1/3(-5);
 2/9=110/2;
 6/7=2,8=2,9=2,10=2,19=2,28=1/1;
 99/9=1/99;
 Leave Link    1 at Wed Sep  7 15:34:39 2022, MaxMem=   131072000 cpu:               0.0 elap:               5.8
 (Enter /opt/g16/l101.exe)
 ------------------------------------------------
 Conformer number 012. Energy MM = 0.000 kcal/mol
 ------------------------------------------------
 Symbolic Z-matrix:
 Charge =  0 Multiplicity = 1
 C                     5.905     15.078    10.327 
 H                     5.443     14.895    11.278 
 H                     5.305     14.389    9.617 
 H                     5.773     16.099    10.121 
 C                     7.382     14.694    10.209 
 H                     8.091     15.341    10.886 
 H                     7.678     15.053    9.188 
 C                     7.689     13.287    10.327 
 H                     6.917     12.582    9.945 
 O                     8.879     13.174    9.509 
 C                     7.915     12.923    11.738 
 H                     8.72      12.483    8.859 
 H                     8.506     13.656    12.26 
 H                     6.941     12.799    12.26 
 C                     8.538     11.517    11.872 
 H                     7.897     10.838    11.307 
 H                     8.752     11.221    12.906 
 H                     9.488     11.372    11.301 
 
 ITRead=  0  0  0  0  0  0  0  0  0  0  0  0  0  0  0  0  0  0
 MicOpt= -1 -1 -1 -1 -1 -1 -1 -1 -1 -1 -1 -1 -1 -1 -1 -1 -1 -1
 NAtoms=     18 NQM=       18 NQMF=       0 NMMI=      0 NMMIF=      0
                NMic=       0 NMicF=      0.
                    Isotopes and Nuclear Properties:
 (Nuclear quadrupole moments (NQMom) in fm**2, nuclear magnetic moments (NMagM)
  in nuclear magnetons)

  Atom         1           2           3           4           5           6           7           8           9          10
 IAtWgt=          12           1           1           1          12           1           1          12           1          16
 AtmWgt=  12.0000000   1.0078250   1.0078250   1.0078250  12.0000000   1.0078250   1.0078250  12.0000000   1.0078250  15.9949146
 NucSpn=           0           1           1           1           0           1           1           0           1           0
 AtZEff=  -0.0000000  -0.0000000  -0.0000000  -0.0000000  -0.0000000  -0.0000000  -0.0000000  -0.0000000  -0.0000000  -0.0000000
 NQMom=    0.0000000   0.0000000   0.0000000   0.0000000   0.0000000   0.0000000   0.0000000   0.0000000   0.0000000   0.0000000
 NMagM=    0.0000000   2.7928460   2.7928460   2.7928460   0.0000000   2.7928460   2.7928460   0.0000000   2.7928460   0.0000000
 AtZNuc=   6.0000000   1.0000000   1.0000000   1.0000000   6.0000000   1.0000000   1.0000000   6.0000000   1.0000000   8.0000000

  Atom        11          12          13          14          15          16          17          18
 IAtWgt=          12           1           1           1          12           1           1           1
 AtmWgt=  12.0000000   1.0078250   1.0078250   1.0078250  12.0000000   1.0078250   1.0078250   1.0078250
 NucSpn=           0           1           1           1           0           1           1           1
 AtZEff=  -0.0000000  -0.0000000  -0.0000000  -0.0000000  -0.0000000  -0.0000000  -0.0000000  -0.0000000
 NQMom=    0.0000000   0.0000000   0.0000000   0.0000000   0.0000000   0.0000000   0.0000000   0.0000000
 NMagM=    0.0000000   2.7928460   2.7928460   2.7928460   0.0000000   2.7928460   2.7928460   2.7928460
 AtZNuc=   6.0000000   1.0000000   1.0000000   1.0000000   6.0000000   1.0000000   1.0000000   1.0000000
 Leave Link  101 at Wed Sep  7 15:34:39 2022, MaxMem=   131072000 cpu:               0.1 elap:               0.1
 (Enter /opt/g16/l103.exe)

 GradGradGradGradGradGradGradGradGradGradGradGradGradGradGradGradGradGrad
 Berny optimization.
 Initialization pass.
                           ----------------------------
                           !    Initial Parameters    !
                           ! (Angstroms and Degrees)  !
 --------------------------                            --------------------------
 ! Name  Definition              Value          Derivative Info.                !
 --------------------------------------------------------------------------------
 ! R1    R(1,2)                  1.073          estimate D2E/DX2                !
 ! R2    R(1,3)                  1.1571         estimate D2E/DX2                !
 ! R3    R(1,4)                  1.0499         estimate D2E/DX2                !
 ! R4    R(1,5)                  1.5307         estimate D2E/DX2                !
 ! R5    R(5,6)                  1.1746         estimate D2E/DX2                !
 ! R6    R(5,7)                  1.122          estimate D2E/DX2                !
 ! R7    R(5,8)                  1.4449         estimate D2E/DX2                !
 ! R8    R(8,9)                  1.1131         estimate D2E/DX2                !
 ! R9    R(8,10)                 1.4484         estimate D2E/DX2                !
 ! R10   R(8,11)                 1.4746         estimate D2E/DX2                !
 ! R11   R(10,12)                0.9619         estimate D2E/DX2                !
 ! R12   R(11,13)                1.0766         estimate D2E/DX2                !
 ! R13   R(11,14)                1.112          estimate D2E/DX2                !
 ! R14   R(11,15)                1.5437         estimate D2E/DX2                !
 ! R15   R(15,16)                1.0914         estimate D2E/DX2                !
 ! R16   R(15,17)                1.0966         estimate D2E/DX2                !
 ! R17   R(15,18)                1.1178         estimate D2E/DX2                !
 ! A1    A(2,1,3)              102.6515         estimate D2E/DX2                !
 ! A2    A(2,1,4)              106.5959         estimate D2E/DX2                !
 ! A3    A(2,1,5)              116.1686         estimate D2E/DX2                !
 ! A4    A(3,1,4)              113.1713         estimate D2E/DX2                !
 ! A5    A(3,1,5)              107.6788         estimate D2E/DX2                !
 ! A6    A(4,1,5)              110.497          estimate D2E/DX2                !
 ! A7    A(1,5,6)              113.5682         estimate D2E/DX2                !
 ! A8    A(1,5,7)              104.1489         estimate D2E/DX2                !
 ! A9    A(1,5,8)              116.2961         estimate D2E/DX2                !
 ! A10   A(6,5,7)              100.8943         estimate D2E/DX2                !
 ! A11   A(6,5,8)              111.1653         estimate D2E/DX2                !
 ! A12   A(7,5,8)              109.2578         estimate D2E/DX2                !
 ! A13   A(5,8,9)              116.1911         estimate D2E/DX2                !
 ! A14   A(5,8,10)             101.7946         estimate D2E/DX2                !
 ! A15   A(5,8,11)             110.5527         estimate D2E/DX2                !
 ! A16   A(9,8,10)             109.062          estimate D2E/DX2                !
 ! A17   A(9,8,11)             106.1611         estimate D2E/DX2                !
 ! A18   A(10,8,11)            113.279          estimate D2E/DX2                !
 ! A19   A(8,10,12)            107.5694         estimate D2E/DX2                !
 ! A20   A(8,11,13)            112.3346         estimate D2E/DX2                !
 ! A21   A(8,11,14)            110.0268         estimate D2E/DX2                !
 ! A22   A(8,11,15)            111.6998         estimate D2E/DX2                !
 ! A23   A(13,11,14)           109.2169         estimate D2E/DX2                !
 ! A24   A(13,11,15)           110.8849         estimate D2E/DX2                !
 ! A25   A(14,11,15)           102.1918         estimate D2E/DX2                !
 ! A26   A(11,15,16)           106.5399         estimate D2E/DX2                !
 ! A27   A(11,15,17)           113.9824         estimate D2E/DX2                !
 ! A28   A(11,15,18)           114.6322         estimate D2E/DX2                !
 ! A29   A(16,15,17)           115.7732         estimate D2E/DX2                !
 ! A30   A(16,15,18)            98.8588         estimate D2E/DX2                !
 ! A31   A(17,15,18)           106.3069         estimate D2E/DX2                !
 ! D1    D(2,1,5,6)            -66.0962         estimate D2E/DX2                !
 ! D2    D(2,1,5,7)           -174.9175         estimate D2E/DX2                !
 ! D3    D(2,1,5,8)             64.8195         estimate D2E/DX2                !
 ! D4    D(3,1,5,6)            179.5262         estimate D2E/DX2                !
 ! D5    D(3,1,5,7)             70.7049         estimate D2E/DX2                !
 ! D6    D(3,1,5,8)            -49.5581         estimate D2E/DX2                !
 ! D7    D(4,1,5,6)             55.467          estimate D2E/DX2                !
 ! D8    D(4,1,5,7)            -53.3543         estimate D2E/DX2                !
 ! D9    D(4,1,5,8)           -173.6173         estimate D2E/DX2                !
 ! D10   D(1,5,8,9)             32.3732         estimate D2E/DX2                !
 ! D11   D(1,5,8,10)           150.7012         estimate D2E/DX2                !
 ! D12   D(1,5,8,11)           -88.6704         estimate D2E/DX2                !
 ! D13   D(6,5,8,9)            164.4076         estimate D2E/DX2                !
 ! D14   D(6,5,8,10)           -77.2644         estimate D2E/DX2                !
 ! D15   D(6,5,8,11)            43.364          estimate D2E/DX2                !
 ! D16   D(7,5,8,9)            -85.1081         estimate D2E/DX2                !
 ! D17   D(7,5,8,10)            33.2199         estimate D2E/DX2                !
 ! D18   D(7,5,8,11)           153.8483         estimate D2E/DX2                !
 ! D19   D(5,8,10,12)         -125.9217         estimate D2E/DX2                !
 ! D20   D(9,8,10,12)           -2.6097         estimate D2E/DX2                !
 ! D21   D(11,8,10,12)         115.3758         estimate D2E/DX2                !
 ! D22   D(5,8,11,13)          -42.3432         estimate D2E/DX2                !
 ! D23   D(5,8,11,14)           79.5603         estimate D2E/DX2                !
 ! D24   D(5,8,11,15)         -167.6736         estimate D2E/DX2                !
 ! D25   D(9,8,11,13)         -169.1712         estimate D2E/DX2                !
 ! D26   D(9,8,11,14)          -47.2677         estimate D2E/DX2                !
 ! D27   D(9,8,11,15)           65.4985         estimate D2E/DX2                !
 ! D28   D(10,8,11,13)          71.1696         estimate D2E/DX2                !
 ! D29   D(10,8,11,14)        -166.9269         estimate D2E/DX2                !
 ! D30   D(10,8,11,15)         -54.1608         estimate D2E/DX2                !
 ! D31   D(8,11,15,16)         -52.9175         estimate D2E/DX2                !
 ! D32   D(8,11,15,17)         178.1396         estimate D2E/DX2                !
 ! D33   D(8,11,15,18)          55.3162         estimate D2E/DX2                !
 ! D34   D(13,11,15,16)       -179.0461         estimate D2E/DX2                !
 ! D35   D(13,11,15,17)         52.011          estimate D2E/DX2                !
 ! D36   D(13,11,15,18)        -70.8124         estimate D2E/DX2                !
 ! D37   D(14,11,15,16)         64.6674         estimate D2E/DX2                !
 ! D38   D(14,11,15,17)        -64.2755         estimate D2E/DX2                !
 ! D39   D(14,11,15,18)        172.9011         estimate D2E/DX2                !
 --------------------------------------------------------------------------------
 Trust Radius=3.00D-01 FncErr=1.00D-07 GrdErr=1.00D-07 EigMax=2.50D+02 EigMin=1.00D-04
 Number of steps in this run=     97 maximum allowed number of steps=    108.
 GradGradGradGradGradGradGradGradGradGradGradGradGradGradGradGradGradGrad

 Leave Link  103 at Wed Sep  7 15:34:39 2022, MaxMem=   131072000 cpu:               0.0 elap:               0.0
 (Enter /opt/g16/l202.exe)
                          Input orientation:                          
 ---------------------------------------------------------------------
 Center     Atomic      Atomic             Coordinates (Angstroms)
 Number     Number       Type             X           Y           Z
 ---------------------------------------------------------------------
      1          6           0        5.905000   15.078000   10.327000
      2          1           0        5.443000   14.895000   11.278000
      3          1           0        5.305000   14.389000    9.617000
      4          1           0        5.773000   16.099000   10.121000
      5          6           0        7.382000   14.694000   10.209000
      6          1           0        8.091000   15.341000   10.886000
      7          1           0        7.678000   15.053000    9.188000
      8          6           0        7.689000   13.287000   10.327000
      9          1           0        6.917000   12.582000    9.945000
     10          8           0        8.879000   13.174000    9.509000
     11          6           0        7.915000   12.923000   11.738000
     12          1           0        8.720000   12.483000    8.859000
     13          1           0        8.506000   13.656000   12.260000
     14          1           0        6.941000   12.799000   12.260000
     15          6           0        8.538000   11.517000   11.872000
     16          1           0        7.897000   10.838000   11.307000
     17          1           0        8.752000   11.221000   12.906000
     18          1           0        9.488000   11.372000   11.301000
 ---------------------------------------------------------------------
                    Distance matrix (angstroms):
                    1          2          3          4          5
     1  C    0.000000
     2  H    1.073002   0.000000
     3  H    1.157074   1.741838   0.000000
     4  H    1.049905   1.702106   1.843133   0.000000
     5  C    1.530656   2.223260   2.181151   2.137908   0.000000
     6  H    2.271617   2.713758   3.206004   2.555956   1.174572
     7  H    2.107481   3.064031   2.501213   2.365086   1.122024
     8  C    2.527912   2.921401   2.720654   3.408935   1.444930
     9  H    2.720310   3.049514   2.443640   3.702567   2.178638
    10  O    3.624778   4.230520   3.776422   4.310151   2.245308
    11  C    3.267269   3.195492   3.668773   4.158104   2.399661
    12  H    4.100399   4.733712   3.983670   4.832485   2.915693
    13  H    3.538894   3.446943   4.215346   4.244156   2.558793
    14  H    3.162851   2.757090   3.491424   4.102383   2.827031
    15  C    4.690462   4.619821   4.877058   5.630804   3.767656
    16  H    4.786028   4.741540   4.710007   5.796214   4.042223
    17  H    5.443629   5.205587   5.721499   6.358109   4.605696
    18  H    5.246046   5.364148   5.425462   6.126839   4.082081
                    6          7          8          9         10
     6  H    0.000000
     7  H    1.771078   0.000000
     8  C    2.166334   2.101475   0.000000
     9  H    3.142585   2.694070   1.113074   0.000000
    10  O    2.685696   2.253016   1.448445   2.095234   0.000000
    11  C    2.569748   3.331001   1.474616   2.080176   2.441462
    12  H    3.559850   2.792652   1.965808   2.107132   0.961905
    13  H    2.213442   3.474820   2.130760   3.006264   2.817704
    14  H    3.110006   3.880834   2.129351   2.325272   3.385922
    15  C    3.974290   4.521808   2.498145   2.734080   2.906148
    16  H    4.526796   4.722748   2.645990   2.420120   3.107093
    17  H    4.635916   5.446212   3.471248   3.739929   3.920452
    18  H    4.228096   4.614177   2.802196   3.148472   2.613302
                   11         12         13         14         15
    11  C    0.000000
    12  H    3.021633   0.000000
    13  H    1.076594   3.603960   0.000000
    14  H    1.111996   3.851168   1.784285   0.000000
    15  C    1.543671   3.169298   2.174141   2.084341   0.000000
    16  H    2.129157   3.062035   3.036481   2.380686   1.091397
    17  H    2.227464   4.239325   2.531217   2.487392   1.096617
    18  H    2.251866   2.790611   2.664707   3.072982   1.117840
                   16         17         18
    16  H    0.000000
    17  H    1.853244   0.000000
    18  H    1.678235   1.772152   0.000000
 Stoichiometry    C5H12O
 Framework group  C1[X(C5H12O)]
 Deg. of freedom    48
 Full point group                 C1      NOp   1
 Largest Abelian subgroup         C1      NOp   1
 Largest concise Abelian subgroup C1      NOp   1
                         Standard orientation:                         
 ---------------------------------------------------------------------
 Center     Atomic      Atomic             Coordinates (Angstroms)
 Number     Number       Type             X           Y           Z
 ---------------------------------------------------------------------
      1          6           0        2.363133   -0.661353    0.242476
      2          1           0        2.161412   -1.714903    0.216488
      3          1           0        2.382746   -0.434992    1.377023
      4          1           0        3.294150   -0.522731   -0.222597
      5          6           0        1.305939    0.244270   -0.393996
      6          1           0        1.205593    0.104332   -1.555877
      7          1           0        1.756688    1.270464   -0.342144
      8          6           0        0.009312    0.260527    0.243433
      9          1           0        0.002770    0.118373    1.347372
     10          8           0       -0.455043    1.597608   -0.064107
     11          6           0       -0.853853   -0.798285   -0.311865
     12          1           0       -0.694555    2.019965    0.766260
     13          1           0       -0.773349   -0.871985   -1.382912
     14          1           0       -0.593952   -1.779115    0.143065
     15          6           0       -2.325496   -0.619105    0.118348
     16          1           0       -2.323103   -0.535432    1.206530
     17          1           0       -3.006873   -1.369232   -0.300703
     18          1           0       -2.765399    0.378074   -0.130015
 ---------------------------------------------------------------------
 Rotational constants (GHZ):           5.5921526           2.2045743           1.7469721
 Leave Link  202 at Wed Sep  7 15:34:39 2022, MaxMem=   131072000 cpu:               0.0 elap:               0.0
 (Enter /opt/g16/l301.exe)
 Standard basis: VSTO-6G (5D, 7F)
 Ernie: Thresh=  0.10000D-02 Tol=  0.10000D-05 Strict=F.
  NNHCO=     0 NNPyr=     0 NCTC=     0               EPep=         0.000000000
    EC=       128.782964497  ECS=         2.231437909   EG=         0.565916477
   EHC=         0.000000000  EAt=       -36.836480110  AtH=         2.452923921
 EPDDG=         0.000000000  ECC=       131.580318883 EAtT=        39.289404030
 There are    36 symmetry adapted cartesian basis functions of A   symmetry.
 There are    36 symmetry adapted basis functions of A   symmetry.
    36 basis functions,   216 primitive gaussians,    36 cartesian basis functions
    19 alpha electrons       19 beta electrons
       nuclear repulsion energy       170.8697229134 Hartrees.
 IExCor=    0 DFT=F Ex=HF Corr=None ExCW=0 ScaHFX=  1.000000
 ScaDFX=  1.000000  1.000000  1.000000  1.000000 ScalE2=  1.000000  1.000000
 IRadAn=      5 IRanWt=     -1 IRanGd=            0 ICorTp=0 IEmpDi=  4
 Integral buffers will be    131072 words long.
 Regular integral format.
 Two-electron integral symmetry is turned off.
 Leave Link  301 at Wed Sep  7 15:34:39 2022, MaxMem=   131072000 cpu:               0.0 elap:               0.0
 (Enter /opt/g16/l302.exe)
 Do NDO integrals.
 NPDir=0 NMtPBC=     1 NCelOv=     1 NCel=       1 NClECP=     1 NCelD=      1
         NCelK=      1 NCelE2=     1 NClLst=     1 CellRange=     0.0.
 One-electron integrals computed using PRISM.
 NBasis=    36 RedAO= F EigKep=  0.00D+00  NBF=    36
 NBsUse=    36 1.00D-04 EigRej=  0.00D+00 NBFU=    36
 Leave Link  302 at Wed Sep  7 15:34:39 2022, MaxMem=   131072000 cpu:               0.0 elap:               0.0
 (Enter /opt/g16/l303.exe)
 DipDrv:  MaxL=1.
 Leave Link  303 at Wed Sep  7 15:34:39 2022, MaxMem=   131072000 cpu:               0.0 elap:               0.0
 (Enter /opt/g16/l401.exe)
 Simple Huckel Guess.
 JPrj=0 DoOrth=F DoCkMO=F.
 Leave Link  401 at Wed Sep  7 15:34:39 2022, MaxMem=   131072000 cpu:               0.0 elap:               0.0
 (Enter /opt/g16/l502.exe)
 Keep J ints in memory in canonical form, NReq=862161.
 FoFCou: FMM=F IPFlag=           0 FMFlag=           0 FMFlg1=           0
         NFxFlg=           0 DoJE=F BraDBF=F KetDBF=F FulRan=T
         wScrn=  0.000000 ICntrl=       600 IOpCl=  2 I1Cent=           0 NGrid=           0
         NMat0=    1 NMatS0=     72 NMatT0=    0 NMatD0=    1 NMtDS0=    0 NMtDT0=    0
 Symmetry not used in FoFCou.
 Two-electron integral symmetry not used.
 Closed shell SCF:
 Using DIIS extrapolation, IDIIS=  1040.
 Overlap will be assumed to be unity.
 NGot=   131072000 LenX=   131006778 LenY=   131005041
 Requested convergence on RMS density matrix=1.00D-08 within 128 cycles.
 Requested convergence on MAX density matrix=1.00D-06.
 Requested convergence on             energy=1.00D-06.
 No special actions if energy rises.

 Cycle   1  Pass 1  IDiag  1:
 E= 0.198802086433631    
 DIIS: error= 7.22D-02 at cycle   1 NSaved=   1.
 NSaved= 1 IEnMin= 1 EnMin= 0.198802086433631     IErMin= 1 ErrMin= 7.22D-02
 ErrMax= 7.22D-02  0.00D+00 EMaxC= 1.00D-01 BMatC= 1.08D-01 BMatP= 1.08D-01
 IDIUse=3 WtCom= 2.78D-01 WtEn= 7.22D-01
 Coeff-Com:  0.100D+01
 Coeff-En:   0.100D+01
 Coeff:      0.100D+01
 GapD=    2.000 DampG=2.000 DampE=0.500 DampFc=1.0000 IDamp=-1.
 RMSDP=1.28D-02 MaxDP=1.51D-01              OVMax= 0.00D+00

 Cycle   2  Pass 1  IDiag  1:
 E=-0.618506570328066E-01 Delta-E=       -0.260652743466 Rises=F Damp=F
 DIIS: error= 1.59D-02 at cycle   2 NSaved=   2.
 NSaved= 2 IEnMin= 2 EnMin=-0.618506570328066E-01 IErMin= 2 ErrMin= 1.59D-02
 ErrMax= 1.59D-02  0.00D+00 EMaxC= 1.00D-01 BMatC= 7.09D-03 BMatP= 1.08D-01
 IDIUse=3 WtCom= 8.41D-01 WtEn= 1.59D-01
 Coeff-Com: -0.306D+00 0.131D+01
 Coeff-En:   0.000D+00 0.100D+01
 Coeff:     -0.258D+00 0.126D+01
 RMSDP=4.69D-03 MaxDP=5.53D-02 DE=-2.61D-01 OVMax= 0.00D+00

 Cycle   3  Pass 1  IDiag  3:
 E=-0.840295473082620E-01 Delta-E=       -0.022178890275 Rises=F Damp=F
 DIIS: error= 4.16D-03 at cycle   3 NSaved=   3.
 NSaved= 3 IEnMin= 3 EnMin=-0.840295473082620E-01 IErMin= 3 ErrMin= 4.16D-03
 ErrMax= 4.16D-03  0.00D+00 EMaxC= 1.00D-01 BMatC= 2.29D-04 BMatP= 7.09D-03
 IDIUse=3 WtCom= 9.58D-01 WtEn= 4.16D-02
 Coeff-Com:  0.145D+00-0.713D+00 0.157D+01
 Coeff-En:   0.000D+00 0.000D+00 0.100D+01
 Coeff:      0.139D+00-0.683D+00 0.154D+01
 Gap=     0.527 Goal=   None    Shift=    0.000
 RMSDP=1.38D-03 MaxDP=2.40D-02 DE=-2.22D-02 OVMax= 1.25D-02

 Cycle   4  Pass 1  IDiag  3:
 E=-0.852657504176477E-01 Delta-E=       -0.001236203109 Rises=F Damp=F
 DIIS: error= 8.30D-04 at cycle   4 NSaved=   4.
 NSaved= 4 IEnMin= 4 EnMin=-0.852657504176477E-01 IErMin= 4 ErrMin= 8.30D-04
 ErrMax= 8.30D-04  0.00D+00 EMaxC= 1.00D-01 BMatC= 9.78D-06 BMatP= 2.29D-04
 IDIUse=3 WtCom= 9.92D-01 WtEn= 8.30D-03
 Coeff-Com: -0.289D-01 0.159D+00-0.540D+00 0.141D+01
 Coeff-En:   0.000D+00 0.000D+00 0.000D+00 0.100D+01
 Coeff:     -0.287D-01 0.158D+00-0.535D+00 0.141D+01
 Gap=     0.529 Goal=   None    Shift=    0.000
 RMSDP=3.32D-04 MaxDP=5.57D-03 DE=-1.24D-03 OVMax= 3.29D-03

 Cycle   5  Pass 1  IDiag  3:
 E=-0.853237191642506E-01 Delta-E=       -0.000057968747 Rises=F Damp=F
 DIIS: error= 1.07D-04 at cycle   5 NSaved=   5.
 NSaved= 5 IEnMin= 5 EnMin=-0.853237191642506E-01 IErMin= 5 ErrMin= 1.07D-04
 ErrMax= 1.07D-04  0.00D+00 EMaxC= 1.00D-01 BMatC= 3.10D-07 BMatP= 9.78D-06
 IDIUse=3 WtCom= 9.99D-01 WtEn= 1.07D-03
 Coeff-Com:  0.165D-02-0.125D-01 0.755D-01-0.366D+00 0.130D+01
 Coeff-En:   0.000D+00 0.000D+00 0.000D+00 0.000D+00 0.100D+01
 Coeff:      0.164D-02-0.125D-01 0.754D-01-0.365D+00 0.130D+01
 Gap=     0.529 Goal=   None    Shift=    0.000
 RMSDP=5.33D-05 MaxDP=5.75D-04 DE=-5.80D-05 OVMax= 5.08D-04

 Cycle   6  Pass 1  IDiag  3:
 E=-0.853254312588092E-01 Delta-E=       -0.000001712095 Rises=F Damp=F
 DIIS: error= 2.65D-05 at cycle   6 NSaved=   6.
 NSaved= 6 IEnMin= 6 EnMin=-0.853254312588092E-01 IErMin= 6 ErrMin= 2.65D-05
 ErrMax= 2.65D-05  0.00D+00 EMaxC= 1.00D-01 BMatC= 2.24D-08 BMatP= 3.10D-07
 IDIUse=1 WtCom= 1.00D+00 WtEn= 0.00D+00
 Coeff-Com: -0.323D-03 0.346D-02-0.276D-01 0.156D+00-0.718D+00 0.159D+01
 Coeff:     -0.323D-03 0.346D-02-0.276D-01 0.156D+00-0.718D+00 0.159D+01
 Gap=     0.529 Goal=   None    Shift=    0.000
 RMSDP=1.57D-05 MaxDP=1.84D-04 DE=-1.71D-06 OVMax= 1.30D-04

 Cycle   7  Pass 1  IDiag  3:
 E=-0.853255697111024E-01 Delta-E=       -0.000000138452 Rises=F Damp=F
 DIIS: error= 4.82D-06 at cycle   7 NSaved=   7.
 NSaved= 7 IEnMin= 7 EnMin=-0.853255697111024E-01 IErMin= 7 ErrMin= 4.82D-06
 ErrMax= 4.82D-06  0.00D+00 EMaxC= 1.00D-01 BMatC= 1.55D-09 BMatP= 2.24D-08
 IDIUse=1 WtCom= 1.00D+00 WtEn= 0.00D+00
 Coeff-Com:  0.164D-03-0.174D-02 0.140D-01-0.795D-01 0.382D+00-0.102D+01
 Coeff-Com:  0.171D+01
 Coeff:      0.164D-03-0.174D-02 0.140D-01-0.795D-01 0.382D+00-0.102D+01
 Coeff:      0.171D+01
 Gap=     0.529 Goal=   None    Shift=    0.000
 RMSDP=4.74D-06 MaxDP=4.73D-05 DE=-1.38D-07 OVMax= 3.08D-05

 Cycle   8  Pass 1  IDiag  3:
 E=-0.853255798449197E-01 Delta-E=       -0.000000010134 Rises=F Damp=F
 DIIS: error= 1.05D-06 at cycle   8 NSaved=   8.
 NSaved= 8 IEnMin= 8 EnMin=-0.853255798449197E-01 IErMin= 8 ErrMin= 1.05D-06
 ErrMax= 1.05D-06  0.00D+00 EMaxC= 1.00D-01 BMatC= 5.12D-11 BMatP= 1.55D-09
 IDIUse=1 WtCom= 1.00D+00 WtEn= 0.00D+00
 Coeff-Com: -0.584D-04 0.689D-03-0.582D-02 0.337D-01-0.165D+00 0.457D+00
 Coeff-Com: -0.870D+00 0.155D+01
 Coeff:     -0.584D-04 0.689D-03-0.582D-02 0.337D-01-0.165D+00 0.457D+00
 Coeff:     -0.870D+00 0.155D+01
 Gap=     0.529 Goal=   None    Shift=    0.000
 RMSDP=7.86D-07 MaxDP=7.32D-06 DE=-1.01D-08 OVMax= 4.20D-06

 Cycle   9  Pass 1  IDiag  3:
 E=-0.853255801663977E-01 Delta-E=       -0.000000000321 Rises=F Damp=F
 DIIS: error= 1.98D-07 at cycle   9 NSaved=   9.
 NSaved= 9 IEnMin= 9 EnMin=-0.853255801663977E-01 IErMin= 9 ErrMin= 1.98D-07
 ErrMax= 1.98D-07  0.00D+00 EMaxC= 1.00D-01 BMatC= 2.98D-12 BMatP= 5.12D-11
 IDIUse=1 WtCom= 1.00D+00 WtEn= 0.00D+00
 Coeff-Com:  0.199D-04-0.270D-03 0.243D-02-0.143D-01 0.709D-01-0.200D+00
 Coeff-Com:  0.394D+00-0.856D+00 0.160D+01
 Coeff:      0.199D-04-0.270D-03 0.243D-02-0.143D-01 0.709D-01-0.200D+00
 Coeff:      0.394D+00-0.856D+00 0.160D+01
 Gap=     0.529 Goal=   None    Shift=    0.000
 RMSDP=1.96D-07 MaxDP=1.52D-06 DE=-3.21D-10 OVMax= 1.16D-06

 Cycle  10  Pass 1  IDiag  3:
 E=-0.853255801858097E-01 Delta-E=       -0.000000000019 Rises=F Damp=F
 DIIS: error= 5.74D-08 at cycle  10 NSaved=  10.
 NSaved=10 IEnMin=10 EnMin=-0.853255801858097E-01 IErMin=10 ErrMin= 5.74D-08
 ErrMax= 5.74D-08  0.00D+00 EMaxC= 1.00D-01 BMatC= 1.60D-13 BMatP= 2.98D-12
 IDIUse=1 WtCom= 1.00D+00 WtEn= 0.00D+00
 Coeff-Com: -0.689D-05 0.100D-03-0.927D-03 0.551D-02-0.275D-01 0.778D-01
 Coeff-Com: -0.155D+00 0.354D+00-0.819D+00 0.157D+01
 Coeff:     -0.689D-05 0.100D-03-0.927D-03 0.551D-02-0.275D-01 0.778D-01
 Coeff:     -0.155D+00 0.354D+00-0.819D+00 0.157D+01
 Gap=     0.529 Goal=   None    Shift=    0.000
 RMSDP=4.58D-08 MaxDP=3.97D-07 DE=-1.94D-11 OVMax= 3.03D-07

 Cycle  11  Pass 1  IDiag  3:
 E=-0.853255801869466E-01 Delta-E=       -0.000000000001 Rises=F Damp=F
 DIIS: error= 1.53D-08 at cycle  11 NSaved=  11.
 NSaved=11 IEnMin=11 EnMin=-0.853255801869466E-01 IErMin=11 ErrMin= 1.53D-08
 ErrMax= 1.53D-08  0.00D+00 EMaxC= 1.00D-01 BMatC= 8.67D-15 BMatP= 1.60D-13
 IDIUse=1 WtCom= 1.00D+00 WtEn= 0.00D+00
 Coeff-Com:  0.190D-05-0.273D-04 0.251D-03-0.149D-02 0.747D-02-0.213D-01
 Coeff-Com:  0.426D-01-0.982D-01 0.247D+00-0.646D+00 0.147D+01
 Coeff:      0.190D-05-0.273D-04 0.251D-03-0.149D-02 0.747D-02-0.213D-01
 Coeff:      0.426D-01-0.982D-01 0.247D+00-0.646D+00 0.147D+01
 Gap=     0.529 Goal=   None    Shift=    0.000
 RMSDP=1.04D-08 MaxDP=8.78D-08 DE=-1.14D-12 OVMax= 8.84D-08

 Cycle  12  Pass 1  IDiag  3:
 E=-0.853255801870034E-01 Delta-E=       -0.000000000000 Rises=F Damp=F
 DIIS: error= 3.47D-09 at cycle  12 NSaved=  12.
 NSaved=12 IEnMin=12 EnMin=-0.853255801870034E-01 IErMin=12 ErrMin= 3.47D-09
 ErrMax= 3.47D-09  0.00D+00 EMaxC= 1.00D-01 BMatC= 5.64D-16 BMatP= 8.67D-15
 IDIUse=1 WtCom= 1.00D+00 WtEn= 0.00D+00
 Coeff-Com: -0.377D-06 0.532D-05-0.487D-04 0.289D-03-0.146D-02 0.417D-02
 Coeff-Com: -0.838D-02 0.193D-01-0.524D-01 0.172D+00-0.625D+00 0.149D+01
 Coeff:     -0.377D-06 0.532D-05-0.487D-04 0.289D-03-0.146D-02 0.417D-02
 Coeff:     -0.838D-02 0.193D-01-0.524D-01 0.172D+00-0.625D+00 0.149D+01
 Gap=     0.529 Goal=   None    Shift=    0.000
 RMSDP=2.79D-09 MaxDP=2.17D-08 DE=-5.68D-14 OVMax= 3.14D-08

 Cycle  13  Pass 2  IDiag  1:
 SCF Done:  E(RPM3) = -0.853255801870E-01 A.U. after   13 cycles
            NFock= 12  Conv=0.28D-08     -V/T= 0.9986
 KE=-5.967950363273D+01 PE=-2.561709859703D+02 EE= 1.448954411095D+02
 Leave Link  502 at Wed Sep  7 15:34:39 2022, MaxMem=   131072000 cpu:               0.0 elap:               0.0
 (Enter /opt/g16/l601.exe)
 Copying SCF densities to generalized density rwf, IOpCl= 0 IROHF=0.

 **********************************************************************

            Population analysis using the SCF density.

 **********************************************************************

 Orbital symmetries:
       Occupied  (A) (A) (A) (A) (A) (A) (A) (A) (A) (A) (A) (A)
                 (A) (A) (A) (A) (A) (A) (A)
       Virtual   (A) (A) (A) (A) (A) (A) (A) (A) (A) (A) (A) (A)
                 (A) (A) (A) (A) (A)
 The electronic state is 1-A.
 Alpha  occ. eigenvalues --   -1.49371  -1.24505  -1.19666  -0.95442  -0.81465
 Alpha  occ. eigenvalues --   -0.74912  -0.66308  -0.59183  -0.58866  -0.55386
 Alpha  occ. eigenvalues --   -0.53069  -0.50388  -0.49973  -0.47056  -0.46613
 Alpha  occ. eigenvalues --   -0.45256  -0.42686  -0.41462  -0.41372
 Alpha virt. eigenvalues --    0.11390   0.12078   0.12700   0.13543   0.14276
 Alpha virt. eigenvalues --    0.14774   0.15007   0.15377   0.15905   0.16203
 Alpha virt. eigenvalues --    0.16968   0.17256   0.17695   0.18011   0.18866
 Alpha virt. eigenvalues --    0.19217   0.20996
          Condensed to atoms (all electrons):
               1          2          3          4          5          6
     1  C    4.096124   0.000000   0.000000   0.000000   0.000000   0.000000
     2  H    0.000000   0.968824   0.000000   0.000000   0.000000   0.000000
     3  H    0.000000   0.000000   0.967032   0.000000   0.000000   0.000000
     4  H    0.000000   0.000000   0.000000   0.957416   0.000000   0.000000
     5  C    0.000000   0.000000   0.000000   0.000000   4.143691   0.000000
     6  H    0.000000   0.000000   0.000000   0.000000   0.000000   0.928990
     7  H    0.000000   0.000000   0.000000   0.000000   0.000000   0.000000
     8  C    0.000000   0.000000   0.000000   0.000000   0.000000   0.000000
     9  H    0.000000   0.000000   0.000000   0.000000   0.000000   0.000000
    10  O    0.000000   0.000000   0.000000   0.000000   0.000000   0.000000
    11  C    0.000000   0.000000   0.000000   0.000000   0.000000   0.000000
    12  H    0.000000   0.000000   0.000000   0.000000   0.000000   0.000000
    13  H    0.000000   0.000000   0.000000   0.000000   0.000000   0.000000
    14  H    0.000000   0.000000   0.000000   0.000000   0.000000   0.000000
    15  C    0.000000   0.000000   0.000000   0.000000   0.000000   0.000000
    16  H    0.000000   0.000000   0.000000   0.000000   0.000000   0.000000
    17  H    0.000000   0.000000   0.000000   0.000000   0.000000   0.000000
    18  H    0.000000   0.000000   0.000000   0.000000   0.000000   0.000000
               7          8          9         10         11         12
     1  C    0.000000   0.000000   0.000000   0.000000   0.000000   0.000000
     2  H    0.000000   0.000000   0.000000   0.000000   0.000000   0.000000
     3  H    0.000000   0.000000   0.000000   0.000000   0.000000   0.000000
     4  H    0.000000   0.000000   0.000000   0.000000   0.000000   0.000000
     5  C    0.000000   0.000000   0.000000   0.000000   0.000000   0.000000
     6  H    0.000000   0.000000   0.000000   0.000000   0.000000   0.000000
     7  H    0.936724   0.000000   0.000000   0.000000   0.000000   0.000000
     8  C    0.000000   3.906856   0.000000   0.000000   0.000000   0.000000
     9  H    0.000000   0.000000   0.954441   0.000000   0.000000   0.000000
    10  O    0.000000   0.000000   0.000000   6.319817   0.000000   0.000000
    11  C    0.000000   0.000000   0.000000   0.000000   4.122380   0.000000
    12  H    0.000000   0.000000   0.000000   0.000000   0.000000   0.817660
    13  H    0.000000   0.000000   0.000000   0.000000   0.000000   0.000000
    14  H    0.000000   0.000000   0.000000   0.000000   0.000000   0.000000
    15  C    0.000000   0.000000   0.000000   0.000000   0.000000   0.000000
    16  H    0.000000   0.000000   0.000000   0.000000   0.000000   0.000000
    17  H    0.000000   0.000000   0.000000   0.000000   0.000000   0.000000
    18  H    0.000000   0.000000   0.000000   0.000000   0.000000   0.000000
              13         14         15         16         17         18
     1  C    0.000000   0.000000   0.000000   0.000000   0.000000   0.000000
     2  H    0.000000   0.000000   0.000000   0.000000   0.000000   0.000000
     3  H    0.000000   0.000000   0.000000   0.000000   0.000000   0.000000
     4  H    0.000000   0.000000   0.000000   0.000000   0.000000   0.000000
     5  C    0.000000   0.000000   0.000000   0.000000   0.000000   0.000000
     6  H    0.000000   0.000000   0.000000   0.000000   0.000000   0.000000
     7  H    0.000000   0.000000   0.000000   0.000000   0.000000   0.000000
     8  C    0.000000   0.000000   0.000000   0.000000   0.000000   0.000000
     9  H    0.000000   0.000000   0.000000   0.000000   0.000000   0.000000
    10  O    0.000000   0.000000   0.000000   0.000000   0.000000   0.000000
    11  C    0.000000   0.000000   0.000000   0.000000   0.000000   0.000000
    12  H    0.000000   0.000000   0.000000   0.000000   0.000000   0.000000
    13  H    0.932501   0.000000   0.000000   0.000000   0.000000   0.000000
    14  H    0.000000   0.945613   0.000000   0.000000   0.000000   0.000000
    15  C    0.000000   0.000000   4.119964   0.000000   0.000000   0.000000
    16  H    0.000000   0.000000   0.000000   0.972368   0.000000   0.000000
    17  H    0.000000   0.000000   0.000000   0.000000   0.948195   0.000000
    18  H    0.000000   0.000000   0.000000   0.000000   0.000000   0.961405
 Mulliken charges:
               1
     1  C   -0.096124
     2  H    0.031176
     3  H    0.032968
     4  H    0.042584
     5  C   -0.143691
     6  H    0.071010
     7  H    0.063276
     8  C    0.093144
     9  H    0.045559
    10  O   -0.319817
    11  C   -0.122380
    12  H    0.182340
    13  H    0.067499
    14  H    0.054387
    15  C   -0.119964
    16  H    0.027632
    17  H    0.051805
    18  H    0.038595
 Sum of Mulliken charges =   0.00000
 Mulliken charges with hydrogens summed into heavy atoms:
               1
     1  C    0.010604
     5  C   -0.009404
     8  C    0.138703
    10  O   -0.137477
    11  C   -0.000494
    15  C   -0.001932
 Charge=              0.0000 electrons
 Dipole moment (field-independent basis, Debye):
    X=              0.1665    Y=             -0.6192    Z=              1.3296  Tot=              1.4761
 N-N= 1.708697229134D+02 E-N=-2.561709860332D+02  KE=-5.967950363273D+01
 Leave Link  601 at Wed Sep  7 15:34:39 2022, MaxMem=   131072000 cpu:               0.0 elap:               0.0
 (Enter /opt/g16/l701.exe)
 ... and contract with generalized density number  0.
 Compute integral first derivatives.
 Leave Link  701 at Wed Sep  7 15:34:39 2022, MaxMem=   131072000 cpu:               0.0 elap:               0.0
 (Enter /opt/g16/l702.exe)
 L702 exits ... SP integral derivatives will be done elsewhere.
 Leave Link  702 at Wed Sep  7 15:34:39 2022, MaxMem=   131072000 cpu:               0.0 elap:               0.0
 (Enter /opt/g16/l703.exe)
 Integral derivatives from FoFJK, PRISM(SPDF).
 Compute integral first derivatives, UseDBF=F ICtDFT=           0.
 Calling FoFJK, ICntrl=      2127 FMM=F ISym2X=0 I1Cent= 0 IOpClX= 0 NMat=1 NMatS=1 NMatT=0.
 FoFJK:  IHMeth= 9 ICntrl=    2127 DoSepK=F KAlg= 0 I1Cent=           0 FoldK=F
 IRaf=         0 NMat=       1 IRICut=       1 DoRegI=T DoRafI=F ISym2E= 0 IDoP0=3 IntGTp=3.
 FoFCou: FMM=F IPFlag=           0 FMFlag=      100000 FMFlg1=         800
         NFxFlg=           0 DoJE=F BraDBF=F KetDBF=F FulRan=T
         wScrn=  0.000000 ICntrl=      2127 IOpCl=  0 I1Cent=           0 NGrid=           0
         NMat0=    1 NMatS0=      1 NMatT0=    0 NMatD0=    1 NMtDS0=    0 NMtDT0=    0
 Symmetry not used in FoFCou.
 Leave Link  703 at Wed Sep  7 15:34:39 2022, MaxMem=   131072000 cpu:               0.0 elap:               0.0
 (Enter /opt/g16/l716.exe)
 Dipole        = 6.54903187D-02-2.43592761D-01 5.23093259D-01
 ***** Axes restored to original set *****
 -------------------------------------------------------------------
 Center     Atomic                   Forces (Hartrees/Bohr)
 Number     Number              X              Y              Z
 -------------------------------------------------------------------
      1        6           0.005431266   -0.054712707   -0.018347051
      2        1          -0.000868846   -0.004924671    0.019949776
      3        1           0.013206404    0.024270361    0.013600000
      4        1          -0.006409177    0.030056285   -0.012435999
      5        6          -0.016271445    0.096313850   -0.004127850
      6        1          -0.023930973   -0.016071611   -0.013283241
      7        1           0.000032190    0.000225553    0.003090618
      8        6           0.019600506   -0.043012454   -0.035665181
      9        1          -0.004550941    0.002439374   -0.006864058
     10        8          -0.001258284   -0.022918953   -0.004251845
     11        6           0.009450972   -0.055194988    0.036570266
     12        1           0.000709427    0.010405682    0.014345275
     13        1           0.010207965    0.011825449    0.010854742
     14        1           0.000051601    0.010643738    0.000556457
     15        6           0.012114497    0.012099056   -0.019883357
     16        1          -0.009114113   -0.011255032    0.009791887
     17        1          -0.006703931   -0.000492974   -0.003073292
     18        1          -0.001697119    0.010304040    0.009172854
 -------------------------------------------------------------------
 Cartesian Forces:  Max     0.096313850 RMS     0.022375362
 Leave Link  716 at Wed Sep  7 15:34:39 2022, MaxMem=   131072000 cpu:               0.0 elap:               0.0
 (Enter /opt/g16/l103.exe)

 GradGradGradGradGradGradGradGradGradGradGradGradGradGradGradGradGradGrad
 Berny optimization.
 FormGI is forming the generalized inverse of G from B-inverse, IUseBI=4.
 Internal  Forces:  Max     0.080249004 RMS     0.013371981
 Search for a local minimum.
 Step number   1 out of a maximum of   97
 All quantities printed in internal units (Hartrees-Bohrs-Radians)
 RMS Force = .13372D-01 SwitMx=.10000D-02 MixMth= 1
 Mixed Optimization -- RFO/linear search
 Second derivative matrix not updated -- first step.
 ITU=  0
     Eigenvalues ---    0.00230   0.00360   0.01051   0.01102   0.01494
     Eigenvalues ---    0.03355   0.03821   0.04715   0.04979   0.05111
     Eigenvalues ---    0.05148   0.05275   0.05716   0.05741   0.05780
     Eigenvalues ---    0.07575   0.08237   0.09406   0.12148   0.13011
     Eigenvalues ---    0.15999   0.16000   0.16000   0.16000   0.16000
     Eigenvalues ---    0.16000   0.16000   0.16000   0.19398   0.21781
     Eigenvalues ---    0.21988   0.26619   0.28084   0.28196   0.29363
     Eigenvalues ---    0.31359   0.31784   0.32277   0.32390   0.34059
     Eigenvalues ---    0.34652   0.35193   0.36409   0.36853   0.38449
     Eigenvalues ---    0.38917   0.39890   0.55066
 RFO step:  Lambda=-4.68483027D-02 EMin= 2.30000000D-03
 Linear search not attempted -- first point.
 Maximum step size (   0.300) exceeded in Quadratic search.
    -- Step size scaled by   0.833
 Iteration  1 RMS(Cart)=  0.06333672 RMS(Int)=  0.00171953
 Iteration  2 RMS(Cart)=  0.00188982 RMS(Int)=  0.00044843
 Iteration  3 RMS(Cart)=  0.00000301 RMS(Int)=  0.00044843
 Iteration  4 RMS(Cart)=  0.00000000 RMS(Int)=  0.00044843
 ITry= 1 IFail=0 DXMaxC= 2.10D-01 DCOld= 1.00D+10 DXMaxT= 3.00D-01 DXLimC= 3.00D+00 Rises=F
 Variable       Old X    -DE/DX   Delta X   Delta X   Delta X     New X
                                 (Linear)    (Quad)   (Total)
    R1        2.02768   0.01890   0.00000   0.03789   0.03789   2.06557
    R2        2.18655  -0.02965   0.00000  -0.07535  -0.07535   2.11121
    R3        1.98403   0.03247   0.00000   0.06068   0.06068   2.04471
    R4        2.89252  -0.01208   0.00000  -0.02955  -0.02955   2.86297
    R5        2.21962  -0.03095   0.00000  -0.08236  -0.08236   2.13726
    R6        2.12032  -0.00273   0.00000  -0.00631  -0.00631   2.11401
    R7        2.73052   0.08025   0.00000   0.15328   0.15328   2.88381
    R8        2.10340   0.00397   0.00000   0.00894   0.00894   2.11234
    R9        2.73716  -0.00517   0.00000  -0.00999  -0.00999   2.72717
   R10        2.78662   0.04973   0.00000   0.10387   0.10387   2.89049
   R11        1.81774  -0.01729   0.00000  -0.02409  -0.02409   1.79364
   R12        2.03447   0.01892   0.00000   0.03834   0.03834   2.07281
   R13        2.10137  -0.00097   0.00000  -0.00218  -0.00218   2.09919
   R14        2.91712  -0.01223   0.00000  -0.03098  -0.03098   2.88614
   R15        2.06244   0.00729   0.00000   0.01543   0.01543   2.07787
   R16        2.07231  -0.00407   0.00000  -0.00876  -0.00876   2.06355
   R17        2.11241  -0.00746   0.00000  -0.01705  -0.01705   2.09536
    A1        1.79161   0.00429   0.00000   0.02536   0.02578   1.81739
    A2        1.86045   0.00498   0.00000   0.02017   0.02014   1.88059
    A3        2.02752  -0.01154   0.00000  -0.04267  -0.04248   1.98504
    A4        1.97521  -0.00708   0.00000  -0.03639  -0.03638   1.93883
    A5        1.87935   0.00634   0.00000   0.02572   0.02595   1.90529
    A6        1.92854   0.00233   0.00000   0.00540   0.00538   1.93392
    A7        1.98214  -0.00320   0.00000  -0.02978  -0.03012   1.95201
    A8        1.81774   0.00436   0.00000   0.02480   0.02521   1.84295
    A9        2.02975  -0.00731   0.00000  -0.02610  -0.02653   2.00322
   A10        1.76094  -0.00024   0.00000   0.00889   0.00898   1.76992
   A11        1.94020   0.00478   0.00000   0.00900   0.00782   1.94802
   A12        1.90691   0.00303   0.00000   0.02323   0.02333   1.93024
   A13        2.02792  -0.01103   0.00000  -0.05388  -0.05354   1.97438
   A14        1.77665   0.01632   0.00000   0.07530   0.07618   1.85283
   A15        1.92951   0.00418   0.00000   0.02469   0.02506   1.95457
   A16        1.90349  -0.00171   0.00000  -0.01467  -0.01407   1.88942
   A17        1.85286   0.00556   0.00000   0.01375   0.01351   1.86637
   A18        1.97709  -0.01465   0.00000  -0.04954  -0.05120   1.92589
   A19        1.87744  -0.00593   0.00000  -0.02389  -0.02389   1.85355
   A20        1.96061  -0.00035   0.00000  -0.00496  -0.00498   1.95563
   A21        1.92033  -0.00399   0.00000  -0.01429  -0.01506   1.90527
   A22        1.94953   0.00534   0.00000   0.02117   0.02104   1.97057
   A23        1.90619  -0.00166   0.00000  -0.01941  -0.01941   1.88679
   A24        1.93531  -0.00412   0.00000  -0.01743  -0.01726   1.91805
   A25        1.78358   0.00502   0.00000   0.03731   0.03734   1.82092
   A26        1.85947   0.00993   0.00000   0.04600   0.04615   1.90562
   A27        1.98937  -0.00405   0.00000  -0.02979  -0.03020   1.95917
   A28        2.00071  -0.00874   0.00000  -0.02896  -0.02950   1.97121
   A29        2.02062  -0.00851   0.00000  -0.04840  -0.04814   1.97248
   A30        1.72541   0.00750   0.00000   0.06043   0.06044   1.78585
   A31        1.85540   0.00444   0.00000   0.00872   0.00774   1.86315
    D1       -1.15360   0.00232   0.00000   0.02451   0.02399  -1.12961
    D2       -3.05289   0.00154   0.00000   0.01293   0.01288  -3.04001
    D3        1.13131  -0.00116   0.00000  -0.01896  -0.01875   1.11257
    D4        3.13332  -0.00078   0.00000  -0.00042  -0.00071   3.13261
    D5        1.23403  -0.00156   0.00000  -0.01199  -0.01182   1.22221
    D6       -0.86495  -0.00426   0.00000  -0.04389  -0.04345  -0.90840
    D7        0.96808   0.00231   0.00000   0.02425   0.02386   0.99194
    D8       -0.93121   0.00153   0.00000   0.01267   0.01275  -0.91846
    D9       -3.03019  -0.00117   0.00000  -0.01922  -0.01888  -3.04907
   D10        0.56502   0.00360   0.00000   0.03474   0.03500   0.60002
   D11        2.63023   0.00692   0.00000   0.04030   0.03938   2.66961
   D12       -1.54759   0.00094   0.00000   0.03619   0.03696  -1.51063
   D13        2.86945  -0.00334   0.00000  -0.02533  -0.02526   2.84419
   D14       -1.34852  -0.00002   0.00000  -0.01977  -0.02089  -1.36940
   D15        0.75685  -0.00601   0.00000  -0.02389  -0.02330   0.73354
   D16       -1.48542   0.00049   0.00000   0.00254   0.00288  -1.48254
   D17        0.57980   0.00381   0.00000   0.00810   0.00726   0.58705
   D18        2.68516  -0.00217   0.00000   0.00399   0.00484   2.69000
   D19       -2.19775   0.00287   0.00000   0.00753   0.00673  -2.19101
   D20       -0.04555  -0.00176   0.00000  -0.02052  -0.02064  -0.06619
   D21        2.01369  -0.00503   0.00000  -0.04385  -0.04293   1.97076
   D22       -0.73903  -0.00675   0.00000  -0.04288  -0.04257  -0.78160
   D23        1.38859  -0.01194   0.00000  -0.08127  -0.08074   1.30785
   D24       -2.92646  -0.00518   0.00000  -0.03242  -0.03213  -2.95859
   D25       -2.95259   0.00051   0.00000  -0.00101  -0.00105  -2.95365
   D26       -0.82498  -0.00469   0.00000  -0.03941  -0.03922  -0.86420
   D27        1.14316   0.00207   0.00000   0.00944   0.00939   1.15255
   D28        1.24214   0.00743   0.00000   0.03665   0.03618   1.27832
   D29       -2.91342   0.00223   0.00000  -0.00174  -0.00199  -2.91542
   D30       -0.94528   0.00899   0.00000   0.04711   0.04662  -0.89867
   D31       -0.92358  -0.00561   0.00000  -0.04969  -0.05000  -0.97358
   D32        3.10912   0.00058   0.00000  -0.00097  -0.00091   3.10822
   D33        0.96545   0.00506   0.00000   0.03574   0.03524   1.00069
   D34       -3.12494  -0.00605   0.00000  -0.04585  -0.04596   3.11228
   D35        0.90776   0.00014   0.00000   0.00287   0.00313   0.91090
   D36       -1.23591   0.00462   0.00000   0.03958   0.03928  -1.19663
   D37        1.12866  -0.00504   0.00000  -0.03584  -0.03561   1.09305
   D38       -1.12182   0.00115   0.00000   0.01287   0.01348  -1.10834
   D39        3.01769   0.00563   0.00000   0.04958   0.04963   3.06732
         Item               Value     Threshold  Converged?
 Maximum Force            0.080249     0.000450     NO 
 RMS     Force            0.013372     0.000300     NO 
 Maximum Displacement     0.210061     0.001800     NO 
 RMS     Displacement     0.063140     0.001200     NO 
 Predicted change in Energy=-2.572294D-02
 Lowest energy point so far.  Saving SCF results.
 GradGradGradGradGradGradGradGradGradGradGradGradGradGradGradGradGradGrad

 Leave Link  103 at Wed Sep  7 15:34:39 2022, MaxMem=   131072000 cpu:               0.0 elap:               0.0
 (Enter /opt/g16/l202.exe)
                          Input orientation:                          
 ---------------------------------------------------------------------
 Center     Atomic      Atomic             Coordinates (Angstroms)
 Number     Number       Type             X           Y           Z
 ---------------------------------------------------------------------
      1          6           0        5.888170   15.089629   10.317858
      2          1           0        5.486830   14.852160   11.306439
      3          1           0        5.300660   14.442198    9.622295
      4          1           0        5.698344   16.137778   10.127850
      5          6           0        7.362047   14.773522   10.166048
      6          1           0        8.001614   15.412464   10.845643
      7          1           0        7.651151   15.164160    9.158440
      8          6           0        7.714829   13.293967   10.289629
      9          1           0        6.924853   12.618485    9.878353
     10          8           0        8.919615   13.102560    9.518552
     11          6           0        7.942780   12.879097   11.744117
     12          1           0        8.731724   12.405466    8.902394
     13          1           0        8.562745   13.603348   12.286570
     14          1           0        6.962137   12.808475   12.261149
     15          6           0        8.541501   11.480310   11.876425
     16          1           0        7.895394   10.759872   11.354365
     17          1           0        8.730740   11.208224   12.916899
     18          1           0        9.503866   11.369285   11.336974
 ---------------------------------------------------------------------
                    Distance matrix (angstroms):
                    1          2          3          4          5
     1  C    0.000000
     2  H    1.093050   0.000000
     3  H    1.117203   1.743293   0.000000
     4  H    1.082014   1.756880   1.813485   0.000000
     5  C    1.515019   2.196159   2.157490   2.151874   0.000000
     6  H    2.202141   2.617329   3.119799   2.519198   1.130991
     7  H    2.111375   3.065213   2.502239   2.387707   1.118684
     8  C    2.561617   2.902731   2.755356   3.489935   1.526044
     9  H    2.715590   3.016064   2.455504   3.735237   2.217677
    10  O    3.711736   4.247546   3.860340   4.467704   2.374317
    11  C    3.337977   3.180602   3.731784   4.274203   2.533060
    12  H    4.158614   4.721767   4.054472   4.963194   3.013392
    13  H    3.638436   3.461422   4.294559   4.391834   2.703257
    14  H    3.183308   2.695301   3.520385   4.151192   2.900135
    15  C    4.743045   4.585331   4.935275   5.730014   3.893808
    16  H    4.883656   4.748716   4.826204   5.937445   4.219709
    17  H    5.468137   5.137587   5.751387   6.424541   4.706575
    18  H    5.287042   5.316759   5.481775   6.219526   4.188948
                    6          7          8          9         10
     6  H    0.000000
     7  H    1.741015   0.000000
     8  C    2.208943   2.186611   0.000000
     9  H    3.146646   2.743399   1.117804   0.000000
    10  O    2.817721   2.447218   1.443158   2.083953   0.000000
    11  C    2.688618   3.462988   1.529579   2.141301   2.440754
    12  H    3.653946   2.973818   1.935958   2.064620   0.949155
    13  H    2.379925   3.612802   2.191450   3.074436   2.835501
    14  H    3.140848   3.956108   2.165442   2.390649   3.382313
    15  C    4.100710   4.663788   2.547677   2.810923   2.886907
    16  H    4.681527   4.927423   2.754615   2.564178   3.147607
    17  H    4.743138   5.562459   3.504989   3.805631   3.895246
    18  H    4.341136   4.751804   2.828778   3.215491   2.579196
                   11         12         13         14         15
    11  C    0.000000
    12  H    2.986997   0.000000
    13  H    1.096883   3.593901   0.000000
    14  H    1.110842   3.817734   1.787293   0.000000
    15  C    1.527278   3.120411   2.162397   2.099148   0.000000
    16  H    2.155289   3.069136   3.065897   2.426933   1.099560
    17  H    2.188176   4.189229   2.482369   2.473614   1.091984
    18  H    2.209589   2.756276   2.603551   3.063617   1.108819
                   16         17         18
    16  H    0.000000
    17  H    1.827658   0.000000
    18  H    1.720136   1.766303   0.000000
 Stoichiometry    C5H12O
 Framework group  C1[X(C5H12O)]
 Deg. of freedom    48
 Full point group                 C1      NOp   1
 RotChk:  IX=0 Diff= 9.26D-03
 Largest Abelian subgroup         C1      NOp   1
 Largest concise Abelian subgroup C1      NOp   1
                         Standard orientation:                         
 ---------------------------------------------------------------------
 Center     Atomic      Atomic             Coordinates (Angstroms)
 Number     Number       Type             X           Y           Z
 ---------------------------------------------------------------------
      1          6           0        2.392581   -0.666563    0.261944
      2          1           0        2.106183   -1.720355    0.214418
      3          1           0        2.425930   -0.442093    1.355856
      4          1           0        3.373216   -0.570761   -0.185190
      5          6           0        1.402774    0.265127   -0.407025
      6          1           0        1.339951    0.082483   -1.521402
      7          1           0        1.875068    1.278724   -0.375194
      8          6           0        0.019288    0.297129    0.236211
      9          1           0        0.048440    0.171871    1.346592
     10          8           0       -0.530253    1.598808   -0.057624
     11          6           0       -0.892868   -0.801387   -0.312286
     12          1           0       -0.775781    1.977258    0.777473
     13          1           0       -0.834663   -0.877488   -1.404977
     14          1           0       -0.586788   -1.778438    0.118592
     15          6           0       -2.348260   -0.636670    0.120470
     16          1           0       -2.395981   -0.591869    1.218080
     17          1           0       -2.995570   -1.406935   -0.303923
     18          1           0       -2.779061    0.341317   -0.175219
 ---------------------------------------------------------------------
 Rotational constants (GHZ):           5.5267593           2.1114018           1.6836843
 Leave Link  202 at Wed Sep  7 15:34:39 2022, MaxMem=   131072000 cpu:               0.0 elap:               0.0
 (Enter /opt/g16/l301.exe)
 Standard basis: VSTO-6G (5D, 7F)
 Ernie: Thresh=  0.10000D-02 Tol=  0.10000D-05 Strict=F.
  NNHCO=     0 NNPyr=     0 NCTC=     0               EPep=         0.000000000
    EC=       127.449431352  ECS=         2.177891552   EG=         0.561441974
   EHC=         0.000000000  EAt=       -36.836480110  AtH=         2.452923921
 EPDDG=         0.000000000  ECC=       130.188764877 EAtT=        39.289404030
 There are    36 symmetry adapted cartesian basis functions of A   symmetry.
 There are    36 symmetry adapted basis functions of A   symmetry.
    36 basis functions,   216 primitive gaussians,    36 cartesian basis functions
    19 alpha electrons       19 beta electrons
       nuclear repulsion energy       169.4781689078 Hartrees.
 IExCor=    0 DFT=F Ex=HF Corr=None ExCW=0 ScaHFX=  1.000000
 ScaDFX=  1.000000  1.000000  1.000000  1.000000 ScalE2=  1.000000  1.000000
 IRadAn=      5 IRanWt=     -1 IRanGd=            0 ICorTp=0 IEmpDi=  4
 Integral buffers will be    131072 words long.
 Regular integral format.
 Two-electron integral symmetry is turned off.
 Leave Link  301 at Wed Sep  7 15:34:39 2022, MaxMem=   131072000 cpu:               0.0 elap:               0.0
 (Enter /opt/g16/l302.exe)
 Do NDO integrals.
 NPDir=0 NMtPBC=     1 NCelOv=     1 NCel=       1 NClECP=     1 NCelD=      1
         NCelK=      1 NCelE2=     1 NClLst=     1 CellRange=     0.0.
 One-electron integrals computed using PRISM.
 NBasis=    36 RedAO= F EigKep=  0.00D+00  NBF=    36
 NBsUse=    36 1.00D-04 EigRej=  0.00D+00 NBFU=    36
 Leave Link  302 at Wed Sep  7 15:34:39 2022, MaxMem=   131072000 cpu:               0.1 elap:               0.0
 (Enter /opt/g16/l303.exe)
 DipDrv:  MaxL=1.
 Leave Link  303 at Wed Sep  7 15:34:39 2022, MaxMem=   131072000 cpu:               0.0 elap:               0.0
 (Enter /opt/g16/l401.exe)
 Initial guess from the checkpoint file:  "MD_extract_012_gaussian.chk"
 B after Tr=     0.000000    0.000000   -0.000000
         Rot=    0.999993    0.000211    0.002060   -0.002999 Ang=   0.42 deg.
 Guess basis will be translated and rotated to current coordinates.
 JPrj=0 DoOrth=T DoCkMO=T.
 Leave Link  401 at Wed Sep  7 15:34:39 2022, MaxMem=   131072000 cpu:               0.0 elap:               0.0
 (Enter /opt/g16/l502.exe)
 Keep J ints in memory in canonical form, NReq=862161.
 FoFCou: FMM=F IPFlag=           0 FMFlag=           0 FMFlg1=           0
         NFxFlg=           0 DoJE=F BraDBF=F KetDBF=F FulRan=T
         wScrn=  0.000000 ICntrl=       600 IOpCl=  2 I1Cent=           0 NGrid=           0
         NMat0=    1 NMatS0=     72 NMatT0=    0 NMatD0=    1 NMtDS0=    0 NMtDT0=    0
 Symmetry not used in FoFCou.
 Two-electron integral symmetry not used.
 Closed shell SCF:
 Using DIIS extrapolation, IDIIS=  1040.
 Overlap will be assumed to be unity.
 NGot=   131072000 LenX=   131006778 LenY=   131005041
 Requested convergence on RMS density matrix=1.00D-08 within 128 cycles.
 Requested convergence on MAX density matrix=1.00D-06.
 Requested convergence on             energy=1.00D-06.
 No special actions if energy rises.

 Cycle   1  Pass 1  IDiag  1:
 E=-0.100501977857988    
 DIIS: error= 6.70D-03 at cycle   1 NSaved=   1.
 NSaved= 1 IEnMin= 1 EnMin=-0.100501977857988     IErMin= 1 ErrMin= 6.70D-03
 ErrMax= 6.70D-03  0.00D+00 EMaxC= 1.00D-01 BMatC= 1.99D-03 BMatP= 1.99D-03
 IDIUse=3 WtCom= 9.33D-01 WtEn= 6.70D-02
 Coeff-Com:  0.100D+01
 Coeff-En:   0.100D+01
 Coeff:      0.100D+01
 GapD=    2.000 DampG=2.000 DampE=1.000 DampFc=2.0000 IDamp=-1.
 RMSDP=2.19D-03 MaxDP=1.55D-02              OVMax= 0.00D+00

 Cycle   2  Pass 1  IDiag  3:
 E=-0.107095508763479     Delta-E=       -0.006593530905 Rises=F Damp=F
 DIIS: error= 2.87D-03 at cycle   2 NSaved=   2.
 NSaved= 2 IEnMin= 2 EnMin=-0.107095508763479     IErMin= 2 ErrMin= 2.87D-03
 ErrMax= 2.87D-03  0.00D+00 EMaxC= 1.00D-01 BMatC= 2.72D-04 BMatP= 1.99D-03
 IDIUse=3 WtCom= 9.71D-01 WtEn= 2.87D-02
 Coeff-Com: -0.482D+00 0.148D+01
 Coeff-En:   0.000D+00 0.100D+01
 Coeff:     -0.468D+00 0.147D+01
 Gap=     0.526 Goal=   None    Shift=    0.000
 RMSDP=1.34D-03 MaxDP=1.07D-02 DE=-6.59D-03 OVMax= 7.19D-03

 Cycle   3  Pass 1  IDiag  3:
 E=-0.108401302772506     Delta-E=       -0.001305794009 Rises=F Damp=F
 DIIS: error= 8.36D-04 at cycle   3 NSaved=   3.
 NSaved= 3 IEnMin= 3 EnMin=-0.108401302772506     IErMin= 3 ErrMin= 8.36D-04
 ErrMax= 8.36D-04  0.00D+00 EMaxC= 1.00D-01 BMatC= 1.33D-05 BMatP= 2.72D-04
 IDIUse=3 WtCom= 9.92D-01 WtEn= 8.36D-03
 Coeff-Com:  0.217D+00-0.794D+00 0.158D+01
 Coeff-En:   0.000D+00 0.000D+00 0.100D+01
 Coeff:      0.215D+00-0.787D+00 0.157D+01
 Gap=     0.526 Goal=   None    Shift=    0.000
 RMSDP=3.98D-04 MaxDP=4.40D-03 DE=-1.31D-03 OVMax= 3.32D-03

 Cycle   4  Pass 1  IDiag  3:
 E=-0.108487169767955     Delta-E=       -0.000085866995 Rises=F Damp=F
 DIIS: error= 2.27D-04 at cycle   4 NSaved=   4.
 NSaved= 4 IEnMin= 4 EnMin=-0.108487169767955     IErMin= 4 ErrMin= 2.27D-04
 ErrMax= 2.27D-04  0.00D+00 EMaxC= 1.00D-01 BMatC= 8.69D-07 BMatP= 1.33D-05
 IDIUse=3 WtCom= 9.98D-01 WtEn= 2.27D-03
 Coeff-Com: -0.132D+00 0.497D+00-0.114D+01 0.177D+01
 Coeff-En:   0.000D+00 0.000D+00 0.000D+00 0.100D+01
 Coeff:     -0.132D+00 0.496D+00-0.113D+01 0.177D+01
 Gap=     0.526 Goal=   None    Shift=    0.000
 RMSDP=1.25D-04 MaxDP=1.46D-03 DE=-8.59D-05 OVMax= 1.64D-03

 Cycle   5  Pass 1  IDiag  3:
 E=-0.108494075528114     Delta-E=       -0.000006905760 Rises=F Damp=F
 DIIS: error= 4.36D-05 at cycle   5 NSaved=   5.
 NSaved= 5 IEnMin= 5 EnMin=-0.108494075528114     IErMin= 5 ErrMin= 4.36D-05
 ErrMax= 4.36D-05  0.00D+00 EMaxC= 1.00D-01 BMatC= 5.11D-08 BMatP= 8.69D-07
 IDIUse=1 WtCom= 1.00D+00 WtEn= 0.00D+00
 Coeff-Com:  0.570D-01-0.216D+00 0.511D+00-0.973D+00 0.162D+01
 Coeff:      0.570D-01-0.216D+00 0.511D+00-0.973D+00 0.162D+01
 Gap=     0.526 Goal=   None    Shift=    0.000
 RMSDP=3.19D-05 MaxDP=3.29D-04 DE=-6.91D-06 OVMax= 4.53D-04

 Cycle   6  Pass 1  IDiag  3:
 E=-0.108494475682846     Delta-E=       -0.000000400155 Rises=F Damp=F
 DIIS: error= 9.69D-06 at cycle   6 NSaved=   6.
 NSaved= 6 IEnMin= 6 EnMin=-0.108494475682846     IErMin= 6 ErrMin= 9.69D-06
 ErrMax= 9.69D-06  0.00D+00 EMaxC= 1.00D-01 BMatC= 2.26D-09 BMatP= 5.11D-08
 IDIUse=1 WtCom= 1.00D+00 WtEn= 0.00D+00
 Coeff-Com: -0.183D-01 0.698D-01-0.167D+00 0.334D+00-0.693D+00 0.147D+01
 Coeff:     -0.183D-01 0.698D-01-0.167D+00 0.334D+00-0.693D+00 0.147D+01
 Gap=     0.526 Goal=   None    Shift=    0.000
 RMSDP=5.68D-06 MaxDP=5.67D-05 DE=-4.00D-07 OVMax= 6.85D-05

 Cycle   7  Pass 1  IDiag  3:
 E=-0.108494491363700     Delta-E=       -0.000000015681 Rises=F Damp=F
 DIIS: error= 3.87D-06 at cycle   7 NSaved=   7.
 NSaved= 7 IEnMin= 7 EnMin=-0.108494491363700     IErMin= 7 ErrMin= 3.87D-06
 ErrMax= 3.87D-06  0.00D+00 EMaxC= 1.00D-01 BMatC= 1.80D-10 BMatP= 2.26D-09
 IDIUse=1 WtCom= 1.00D+00 WtEn= 0.00D+00
 Coeff-Com:  0.603D-02-0.229D-01 0.551D-01-0.112D+00 0.251D+00-0.730D+00
 Coeff-Com:  0.155D+01
 Coeff:      0.603D-02-0.229D-01 0.551D-01-0.112D+00 0.251D+00-0.730D+00
 Coeff:      0.155D+01
 Gap=     0.526 Goal=   None    Shift=    0.000
 RMSDP=1.58D-06 MaxDP=2.24D-05 DE=-1.57D-08 OVMax= 1.32D-05

 Cycle   8  Pass 1  IDiag  3:
 E=-0.108494492623805     Delta-E=       -0.000000001260 Rises=F Damp=F
 DIIS: error= 1.16D-06 at cycle   8 NSaved=   8.
 NSaved= 8 IEnMin= 8 EnMin=-0.108494492623805     IErMin= 8 ErrMin= 1.16D-06
 ErrMax= 1.16D-06  0.00D+00 EMaxC= 1.00D-01 BMatC= 1.32D-11 BMatP= 1.80D-10
 IDIUse=1 WtCom= 1.00D+00 WtEn= 0.00D+00
 Coeff-Com: -0.192D-02 0.730D-02-0.176D-01 0.359D-01-0.821D-01 0.262D+00
 Coeff-Com: -0.767D+00 0.156D+01
 Coeff:     -0.192D-02 0.730D-02-0.176D-01 0.359D-01-0.821D-01 0.262D+00
 Coeff:     -0.767D+00 0.156D+01
 Gap=     0.526 Goal=   None    Shift=    0.000
 RMSDP=4.55D-07 MaxDP=7.53D-06 DE=-1.26D-09 OVMax= 5.03D-06

 Cycle   9  Pass 1  IDiag  3:
 E=-0.108494492719359     Delta-E=       -0.000000000096 Rises=F Damp=F
 DIIS: error= 2.29D-07 at cycle   9 NSaved=   9.
 NSaved= 9 IEnMin= 9 EnMin=-0.108494492719359     IErMin= 9 ErrMin= 2.29D-07
 ErrMax= 2.29D-07  0.00D+00 EMaxC= 1.00D-01 BMatC= 7.70D-13 BMatP= 1.32D-11
 IDIUse=1 WtCom= 1.00D+00 WtEn= 0.00D+00
 Coeff-Com:  0.437D-03-0.166D-02 0.403D-02-0.833D-02 0.198D-01-0.679D-01
 Coeff-Com:  0.236D+00-0.693D+00 0.151D+01
 Coeff:      0.437D-03-0.166D-02 0.403D-02-0.833D-02 0.198D-01-0.679D-01
 Coeff:      0.236D+00-0.693D+00 0.151D+01
 Gap=     0.526 Goal=   None    Shift=    0.000
 RMSDP=1.05D-07 MaxDP=1.63D-06 DE=-9.56D-11 OVMax= 1.33D-06

 Cycle  10  Pass 1  IDiag  3:
 E=-0.108494492724191     Delta-E=       -0.000000000005 Rises=F Damp=F
 DIIS: error= 2.82D-08 at cycle  10 NSaved=  10.
 NSaved=10 IEnMin=10 EnMin=-0.108494492724191     IErMin=10 ErrMin= 2.82D-08
 ErrMax= 2.82D-08  0.00D+00 EMaxC= 1.00D-01 BMatC= 3.01D-14 BMatP= 7.70D-13
 IDIUse=1 WtCom= 1.00D+00 WtEn= 0.00D+00
 Coeff-Com: -0.559D-04 0.213D-03-0.523D-03 0.112D-02-0.293D-02 0.113D-01
 Coeff-Com: -0.457D-01 0.165D+00-0.530D+00 0.140D+01
 Coeff:     -0.559D-04 0.213D-03-0.523D-03 0.112D-02-0.293D-02 0.113D-01
 Coeff:     -0.457D-01 0.165D+00-0.530D+00 0.140D+01
 Gap=     0.526 Goal=   None    Shift=    0.000
 RMSDP=1.88D-08 MaxDP=2.22D-07 DE=-4.83D-12 OVMax= 1.83D-07

 Cycle  11  Pass 1  IDiag  3:
 E=-0.108494492724503     Delta-E=       -0.000000000000 Rises=F Damp=F
 DIIS: error= 2.76D-09 at cycle  11 NSaved=  11.
 NSaved=11 IEnMin=11 EnMin=-0.108494492724503     IErMin=11 ErrMin= 2.76D-09
 ErrMax= 2.76D-09  0.00D+00 EMaxC= 1.00D-01 BMatC= 8.59D-16 BMatP= 3.01D-14
 IDIUse=1 WtCom= 1.00D+00 WtEn= 0.00D+00
 Coeff-Com:  0.721D-05-0.275D-04 0.698D-04-0.159D-03 0.490D-03-0.217D-02
 Coeff-Com:  0.982D-02-0.387D-01 0.139D+00-0.477D+00 0.137D+01
 Coeff:      0.721D-05-0.275D-04 0.698D-04-0.159D-03 0.490D-03-0.217D-02
 Coeff:      0.982D-02-0.387D-01 0.139D+00-0.477D+00 0.137D+01
 Gap=     0.526 Goal=   None    Shift=    0.000
 RMSDP=2.80D-09 MaxDP=1.94D-08 DE=-3.13D-13 OVMax= 1.57D-08

 Cycle  12  Pass 2  IDiag  1:
 SCF Done:  E(RPM3) = -0.108494492725     A.U. after   12 cycles
            NFock= 11  Conv=0.28D-08     -V/T= 0.9982
 KE=-5.962897126367D+01 PE=-2.535353081564D+02 EE= 1.435776160196D+02
 Leave Link  502 at Wed Sep  7 15:34:39 2022, MaxMem=   131072000 cpu:               0.0 elap:               0.0
 (Enter /opt/g16/l701.exe)
 ... and contract with generalized density number  0.
 Compute integral first derivatives.
 Leave Link  701 at Wed Sep  7 15:34:40 2022, MaxMem=   131072000 cpu:               0.0 elap:               0.0
 (Enter /opt/g16/l702.exe)
 L702 exits ... SP integral derivatives will be done elsewhere.
 Leave Link  702 at Wed Sep  7 15:34:40 2022, MaxMem=   131072000 cpu:               0.0 elap:               0.0
 (Enter /opt/g16/l703.exe)
 Integral derivatives from FoFJK, PRISM(SPDF).
 Compute integral first derivatives, UseDBF=F ICtDFT=           0.
 Calling FoFJK, ICntrl=      2127 FMM=F ISym2X=0 I1Cent= 0 IOpClX= 0 NMat=1 NMatS=1 NMatT=0.
 FoFJK:  IHMeth= 9 ICntrl=    2127 DoSepK=F KAlg= 0 I1Cent=           0 FoldK=F
 IRaf=         0 NMat=       1 IRICut=       1 DoRegI=T DoRafI=F ISym2E= 0 IDoP0=3 IntGTp=3.
 FoFCou: FMM=F IPFlag=           0 FMFlag=      100000 FMFlg1=         800
         NFxFlg=           0 DoJE=F BraDBF=F KetDBF=F FulRan=T
         wScrn=  0.000000 ICntrl=      2127 IOpCl=  0 I1Cent=           0 NGrid=           0
         NMat0=    1 NMatS0=      1 NMatT0=    0 NMatD0=    1 NMtDS0=    0 NMtDT0=    0
 Symmetry not used in FoFCou.
 Leave Link  703 at Wed Sep  7 15:34:40 2022, MaxMem=   131072000 cpu:               0.0 elap:               0.0
 (Enter /opt/g16/l716.exe)
 Dipole        = 8.84346072D-02-2.48989534D-01 5.21591731D-01
 ***** Axes restored to original set *****
 -------------------------------------------------------------------
 Center     Atomic                   Forces (Hartrees/Bohr)
 Number     Number              X              Y              Z
 -------------------------------------------------------------------
      1        6           0.000721021   -0.024413254   -0.002525330
      2        1           0.002122423    0.000320906    0.005632306
      3        1           0.003436433    0.010953943    0.003420913
      4        1          -0.003707639    0.007285093   -0.003602309
      5        6           0.003679254    0.020389047   -0.003449211
      6        1          -0.009021664   -0.009648042   -0.002422409
      7        1           0.000907293   -0.004741674    0.001641476
      8        6           0.013346413   -0.006878662   -0.008186701
      9        1          -0.001273675    0.004361470   -0.002658634
     10        8          -0.010460249   -0.000040587    0.005803479
     11        6          -0.000194710   -0.019069629    0.005275673
     12        1          -0.000605313    0.002551780    0.004329340
     13        1           0.002291428    0.004231222    0.001550141
     14        1           0.000633739    0.008484141   -0.000380396
     15        6           0.006177019    0.007243830   -0.018520486
     16        1          -0.002909444   -0.003503264    0.008176850
     17        1          -0.004002951   -0.002331714    0.000751488
     18        1          -0.001139377    0.004805394    0.005163810
 -------------------------------------------------------------------
 Cartesian Forces:  Max     0.024413254 RMS     0.007555770
 Leave Link  716 at Wed Sep  7 15:34:40 2022, MaxMem=   131072000 cpu:               0.0 elap:               0.0
 (Enter /opt/g16/l103.exe)

 GradGradGradGradGradGradGradGradGradGradGradGradGradGradGradGradGradGrad
 Berny optimization.
 Using GEDIIS/GDIIS optimizer.
 FormGI is forming the generalized inverse of G from B-inverse, IUseBI=4.
 Internal  Forces:  Max     0.014984828 RMS     0.003820307
 Search for a local minimum.
 Step number   2 out of a maximum of   97
 All quantities printed in internal units (Hartrees-Bohrs-Radians)
 RMS Force = .38203D-02 SwitMx=.10000D-02 MixMth= 1
 Mixed Optimization -- RFO/linear search
 Update second derivatives using D2CorX and points    1    2
 DE= -2.32D-02 DEPred=-2.57D-02 R= 9.01D-01
 TightC=F SS=  1.41D+00  RLast= 3.58D-01 DXNew= 5.0454D-01 1.0739D+00
 Trust test= 9.01D-01 RLast= 3.58D-01 DXMaxT set to 5.05D-01
 ITU=  1  0
 Use linear search instead of GDIIS.
     Eigenvalues ---    0.00230   0.00360   0.01053   0.01101   0.01495
     Eigenvalues ---    0.03532   0.03727   0.04972   0.05048   0.05083
     Eigenvalues ---    0.05175   0.05280   0.05485   0.05643   0.05772
     Eigenvalues ---    0.07637   0.08375   0.09203   0.12276   0.12727
     Eigenvalues ---    0.15367   0.16000   0.16000   0.16000   0.16000
     Eigenvalues ---    0.16000   0.16019   0.17012   0.19521   0.21468
     Eigenvalues ---    0.22018   0.25736   0.27654   0.28189   0.29338
     Eigenvalues ---    0.31329   0.31722   0.32288   0.32384   0.34064
     Eigenvalues ---    0.34660   0.35753   0.36157   0.36732   0.37687
     Eigenvalues ---    0.39682   0.50508   0.55040
 RFO step:  Lambda=-9.54935570D-03 EMin= 2.29988718D-03
 Quartic linear search produced a step of  0.33069.
 Iteration  1 RMS(Cart)=  0.07778425 RMS(Int)=  0.00341546
 Iteration  2 RMS(Cart)=  0.00427624 RMS(Int)=  0.00085548
 Iteration  3 RMS(Cart)=  0.00001078 RMS(Int)=  0.00085545
 Iteration  4 RMS(Cart)=  0.00000001 RMS(Int)=  0.00085545
 ITry= 1 IFail=0 DXMaxC= 2.87D-01 DCOld= 1.00D+10 DXMaxT= 5.05D-01 DXLimC= 3.00D+00 Rises=F
 Variable       Old X    -DE/DX   Delta X   Delta X   Delta X     New X
                                 (Linear)    (Quad)   (Total)
    R1        2.06557   0.00424   0.01253   0.00548   0.01801   2.08358
    R2        2.11121  -0.01028  -0.02492  -0.02786  -0.05278   2.05843
    R3        2.04471   0.00834   0.02007   0.01201   0.03208   2.07678
    R4        2.86297  -0.00343  -0.00977  -0.00757  -0.01734   2.84563
    R5        2.13726  -0.01201  -0.02723  -0.03674  -0.06398   2.07329
    R6        2.11401  -0.00290  -0.00209  -0.01021  -0.01230   2.10171
    R7        2.88381   0.00068   0.05069  -0.03506   0.01563   2.89944
    R8        2.11234  -0.00076   0.00296  -0.00517  -0.00222   2.11012
    R9        2.72717  -0.01498  -0.00330  -0.04740  -0.05071   2.67647
   R10        2.89049   0.00208   0.03435  -0.01780   0.01655   2.90704
   R11        1.79364  -0.00456  -0.00797  -0.00487  -0.01284   1.78080
   R12        2.07281   0.00486   0.01268   0.00768   0.02036   2.09317
   R13        2.09919  -0.00128  -0.00072  -0.00448  -0.00520   2.09399
   R14        2.88614  -0.00681  -0.01024  -0.02299  -0.03323   2.85291
   R15        2.07787   0.00012   0.00510  -0.00332   0.00179   2.07965
   R16        2.06355   0.00060  -0.00290   0.00440   0.00150   2.06505
   R17        2.09536  -0.00398  -0.00564  -0.01176  -0.01740   2.07796
    A1        1.81739   0.00246   0.00853   0.03474   0.04367   1.86106
    A2        1.88059   0.00097   0.00666  -0.00596   0.00041   1.88100
    A3        1.98504  -0.00538  -0.01405  -0.02472  -0.03870   1.94634
    A4        1.93883  -0.00489  -0.01203  -0.04117  -0.05310   1.88573
    A5        1.90529   0.00462   0.00858   0.03414   0.04299   1.94829
    A6        1.93392   0.00195   0.00178   0.00231   0.00400   1.93792
    A7        1.95201   0.00069  -0.00996  -0.01387  -0.02783   1.92419
    A8        1.84295   0.00590   0.00834   0.06474   0.07381   1.91676
    A9        2.00322  -0.00730  -0.00877  -0.04813  -0.05893   1.94430
   A10        1.76992   0.00096   0.00297   0.04813   0.05148   1.82140
   A11        1.94802   0.00137   0.00259  -0.02953  -0.03076   1.91726
   A12        1.93024  -0.00030   0.00772  -0.00327   0.00603   1.93627
   A13        1.97438  -0.00353  -0.01771  -0.03762  -0.05494   1.91943
   A14        1.85283   0.00401   0.02519   0.00816   0.03384   1.88667
   A15        1.95457  -0.00284   0.00829  -0.02646  -0.01816   1.93642
   A16        1.88942  -0.00009  -0.00465   0.01738   0.01322   1.90264
   A17        1.86637   0.00398   0.00447   0.03310   0.03679   1.90316
   A18        1.92589  -0.00161  -0.01693   0.00675  -0.01066   1.91523
   A19        1.85355  -0.00352  -0.00790  -0.02112  -0.02902   1.82453
   A20        1.95563  -0.00100  -0.00165  -0.02813  -0.03011   1.92553
   A21        1.90527  -0.00250  -0.00498  -0.01513  -0.02188   1.88339
   A22        1.97057  -0.00002   0.00696   0.00144   0.00810   1.97868
   A23        1.88679  -0.00149  -0.00642  -0.02430  -0.03189   1.85489
   A24        1.91805   0.00026  -0.00571   0.00564   0.00008   1.91813
   A25        1.82092   0.00503   0.01235   0.06533   0.07764   1.89856
   A26        1.90562   0.00484   0.01526   0.03041   0.04499   1.95061
   A27        1.95917  -0.00125  -0.00999  -0.02429  -0.03471   1.92446
   A28        1.97121  -0.00369  -0.00976  -0.00503  -0.01601   1.95520
   A29        1.97248  -0.00551  -0.01592  -0.06185  -0.07765   1.89483
   A30        1.78585   0.00408   0.01999   0.06328   0.08190   1.86775
   A31        1.86315   0.00166   0.00256   0.00289   0.00451   1.86766
    D1       -1.12961   0.00399   0.00793   0.07306   0.08013  -1.04948
    D2       -3.04001  -0.00052   0.00426  -0.01074  -0.00704  -3.04705
    D3        1.11257   0.00013  -0.00620  -0.02342  -0.02874   1.08382
    D4        3.13261   0.00112  -0.00024   0.02218   0.02134  -3.12923
    D5        1.22221  -0.00339  -0.00391  -0.06163  -0.06583   1.15638
    D6       -0.90840  -0.00274  -0.01437  -0.07431  -0.08754  -0.99593
    D7        0.99194   0.00287   0.00789   0.04932   0.05663   1.04857
    D8       -0.91846  -0.00164   0.00422  -0.03448  -0.03054  -0.94900
    D9       -3.04907  -0.00099  -0.00624  -0.04717  -0.05225  -3.10132
   D10        0.60002   0.00250   0.01157   0.05561   0.06707   0.66709
   D11        2.66961   0.00299   0.01302   0.06098   0.07290   2.74251
   D12       -1.51063   0.00196   0.01222   0.05924   0.07071  -1.43993
   D13        2.84419  -0.00168  -0.00835  -0.03278  -0.03981   2.80438
   D14       -1.36940  -0.00119  -0.00691  -0.02741  -0.03398  -1.40339
   D15        0.73354  -0.00222  -0.00771  -0.02915  -0.03618   0.69736
   D16       -1.48254   0.00009   0.00095   0.00710   0.00847  -1.47406
   D17        0.58705   0.00058   0.00240   0.01247   0.01430   0.60135
   D18        2.69000  -0.00045   0.00160   0.01073   0.01211   2.70211
   D19       -2.19101  -0.00053   0.00223  -0.02640  -0.02468  -2.21570
   D20       -0.06619  -0.00249  -0.00683  -0.05691  -0.06346  -0.12965
   D21        1.97076   0.00135  -0.01420  -0.00326  -0.01723   1.95353
   D22       -0.78160  -0.00143  -0.01408  -0.04287  -0.05740  -0.83900
   D23        1.30785  -0.00558  -0.02670  -0.10107  -0.12732   1.18053
   D24       -2.95859  -0.00097  -0.01063  -0.02919  -0.04016  -2.99875
   D25       -2.95365   0.00206  -0.00035  -0.00158  -0.00197  -2.95561
   D26       -0.86420  -0.00209  -0.01297  -0.05978  -0.07188  -0.93608
   D27        1.15255   0.00253   0.00311   0.01209   0.01527   1.16782
   D28        1.27832   0.00074   0.01196  -0.04505  -0.03361   1.24471
   D29       -2.91542  -0.00341  -0.00066  -0.10325  -0.10352  -3.01894
   D30       -0.89867   0.00120   0.01542  -0.03137  -0.01637  -0.91504
   D31       -0.97358  -0.00371  -0.01653  -0.06055  -0.07797  -1.05155
   D32        3.10822   0.00071  -0.00030   0.01467   0.01416   3.12237
   D33        1.00069   0.00215   0.01165   0.03244   0.04371   1.04440
   D34        3.11228  -0.00258  -0.01520  -0.02889  -0.04443   3.06785
   D35        0.91090   0.00184   0.00104   0.04634   0.04770   0.95859
[...]
 ! A10   A(6,5,7)              105.5905         -DE/DX =    0.0                 !
 ! A11   A(6,5,8)              109.8226         -DE/DX =    0.0                 !
 ! A12   A(7,5,8)              109.9656         -DE/DX =    0.0                 !
 ! A13   A(5,8,9)              109.4085         -DE/DX =    0.0                 !
 ! A14   A(5,8,10)             106.4193         -DE/DX =    0.0                 !
 ! A15   A(5,8,11)             110.645          -DE/DX =    0.0                 !
 ! A16   A(9,8,10)             108.2832         -DE/DX =    0.0                 !
 ! A17   A(9,8,11)             109.5821         -DE/DX =    0.0                 !
 ! A18   A(10,8,11)            112.4065         -DE/DX =    0.0                 !
 ! A19   A(8,10,12)            106.4268         -DE/DX =    0.0                 !
 ! A20   A(8,11,13)            110.1514         -DE/DX =    0.0                 !
 ! A21   A(8,11,14)            107.7436         -DE/DX =    0.0                 !
 ! A22   A(8,11,15)            112.524          -DE/DX =    0.0                 !
 ! A23   A(13,11,14)           105.7204         -DE/DX =    0.0                 !
 ! A24   A(13,11,15)           110.3221         -DE/DX =    0.0                 !
 ! A25   A(14,11,15)           110.125          -DE/DX =    0.0                 !
 ! A26   A(11,15,16)           111.7664         -DE/DX =    0.0                 !
 ! A27   A(11,15,17)           111.11           -DE/DX =    0.0                 !
 ! A28   A(11,15,18)           112.0413         -DE/DX =    0.0                 !
 ! A29   A(16,15,17)           107.3385         -DE/DX =    0.0                 !
 ! A30   A(16,15,18)           107.2351         -DE/DX =    0.0                 !
 ! A31   A(17,15,18)           107.0816         -DE/DX =    0.0                 !
 ! D1    D(2,1,5,6)            -68.9518         -DE/DX =    0.0                 !
 ! D2    D(2,1,5,7)            174.9517         -DE/DX =    0.0                 !
 ! D3    D(2,1,5,8)             52.9435         -DE/DX =    0.0                 !
 ! D4    D(3,1,5,6)            171.5267         -DE/DX =    0.0                 !
 ! D5    D(3,1,5,7)             55.4301         -DE/DX =    0.0                 !
 ! D6    D(3,1,5,8)            -66.5781         -DE/DX =    0.0                 !
 ! D7    D(4,1,5,6)             51.0749         -DE/DX =    0.0                 !
 ! D8    D(4,1,5,7)            -65.0217         -DE/DX =    0.0                 !
 ! D9    D(4,1,5,8)            172.9701         -DE/DX =    0.0                 !
 ! D10   D(1,5,8,9)             54.45           -DE/DX =    0.0                 !
 ! D11   D(1,5,8,10)           171.2309         -DE/DX =    0.0                 !
 ! D12   D(1,5,8,11)           -66.3792         -DE/DX =    0.0                 !
 ! D13   D(6,5,8,9)            176.5744         -DE/DX =    0.0                 !
 ! D14   D(6,5,8,10)           -66.6447         -DE/DX =    0.0                 !
 ! D15   D(6,5,8,11)            55.7452         -DE/DX =    0.0                 !
 ! D16   D(7,5,8,9)            -67.646          -DE/DX =    0.0                 !
 ! D17   D(7,5,8,10)            49.1349         -DE/DX =    0.0                 !
 ! D18   D(7,5,8,11)           171.5248         -DE/DX =    0.0                 !
 ! D19   D(5,8,10,12)          171.0941         -DE/DX =    0.0                 !
 ! D20   D(9,8,10,12)          -71.3763         -DE/DX =    0.0                 !
 ! D21   D(11,8,10,12)          49.8235         -DE/DX =    0.0                 !
 ! D22   D(5,8,11,13)          -71.2572         -DE/DX =    0.0                 !
 ! D23   D(5,8,11,14)           43.6056         -DE/DX =    0.0                 !
 ! D24   D(5,8,11,15)          165.192          -DE/DX =    0.0                 !
 ! D25   D(9,8,11,13)          168.0168         -DE/DX =    0.0                 !
 ! D26   D(9,8,11,14)          -77.1204         -DE/DX =    0.0                 !
 ! D27   D(9,8,11,15)           44.4661         -DE/DX =    0.0                 !
 ! D28   D(10,8,11,13)          47.5636         -DE/DX =    0.0                 !
 ! D29   D(10,8,11,14)         162.4265         -DE/DX =    0.0                 !
 ! D30   D(10,8,11,15)         -75.9871         -DE/DX =    0.0                 !
 ! D31   D(8,11,15,16)         -58.4107         -DE/DX =    0.0                 !
 ! D32   D(8,11,15,17)        -178.2872         -DE/DX =    0.0                 !
 ! D33   D(8,11,15,18)          61.9774         -DE/DX =    0.0                 !
 ! D34   D(13,11,15,16)        178.1337         -DE/DX =    0.0                 !
 ! D35   D(13,11,15,17)         58.2571         -DE/DX =    0.0                 !
 ! D36   D(13,11,15,18)        -61.4783         -DE/DX =    0.0                 !
 ! D37   D(14,11,15,16)         61.8109         -DE/DX =    0.0                 !
 ! D38   D(14,11,15,17)        -58.0657         -DE/DX =    0.0                 !
 ! D39   D(14,11,15,18)       -177.8011         -DE/DX =    0.0                 !
 --------------------------------------------------------------------------------
 Lowest energy point so far.  Saving SCF results.
 Largest change from initial coordinates is atom   12       0.462 Angstoms.
 GradGradGradGradGradGradGradGradGradGradGradGradGradGradGradGradGradGrad

 Leave Link  103 at Wed Sep  7 15:34:45 2022, MaxMem=   131072000 cpu:               0.0 elap:               0.0
 (Enter /opt/g16/l202.exe)
                          Input orientation:                          
 ---------------------------------------------------------------------
 Center     Atomic      Atomic             Coordinates (Angstroms)
 Number     Number       Type             X           Y           Z
 ---------------------------------------------------------------------
      1          6           0        5.897844   14.872205   10.525669
      2          1           0        5.845698   14.468893   11.551463
      3          1           0        5.194777   14.294219    9.911806
      4          1           0        5.538827   15.907946   10.552707
      5          6           0        7.310622   14.789220    9.992121
      6          1           0        7.967335   15.497843   10.535178
      7          1           0        7.337206   15.111083    8.932251
      8          6           0        7.864911   13.361595   10.121075
      9          1           0        7.164317   12.644352    9.623996
     10          8           0        9.093208   13.343793    9.415951
     11          6           0        8.032727   12.976463   11.601208
     12          1           0        9.502167   12.510298    9.610535
     13          1           0        8.877790   13.536737   12.047958
     14          1           0        7.122898   13.317493   12.145996
     15          6           0        8.227830   11.490589   11.794143
     16          1           0        7.386078   10.913171   11.388432
     17          1           0        8.314635   11.238237   12.858799
     18          1           0        9.140131   11.126863   11.300712
 ---------------------------------------------------------------------
                    Distance matrix (angstroms):
                    1          2          3          4          5
     1  C    0.000000
     2  H    1.103464   0.000000
     3  H    1.097815   1.772761   0.000000
     4  H    1.096532   1.778357   1.770096   0.000000
     5  C    1.512449   2.163367   2.174459   2.169115   0.000000
     6  H    2.162015   2.567668   3.086160   2.462954   1.108301
     7  H    2.160510   3.081764   2.493350   2.548536   1.107983
     8  C    2.512965   2.710966   2.836052   3.475755   1.536873
     9  H    2.716670   2.963584   2.585340   3.762415   2.181141
    10  O    3.711855   4.046305   4.043136   4.527772   2.366188
    11  C    3.050959   2.648192   3.555914   3.989045   2.529167
    12  H    4.405362   4.579635   4.671910   5.304692   3.184645
    13  H    3.602904   3.210764   4.324524   4.359711   2.872490
    14  H    2.557996   1.819459   3.108576   3.429036   2.615416
    15  C    4.298044   3.821484   4.539046   5.318358   3.869046
    16  H    4.316613   3.878467   4.291119   5.390598   4.120574
    17  H    4.948747   4.271055   5.268520   5.901639   4.672832
    18  H    5.014051   4.699503   5.246620   6.032218   4.297950
                    6          7          8          9         10
     6  H    0.000000
     7  H    1.765226   0.000000
     8  C    2.178424   2.180019   0.000000
     9  H    3.101209   2.567715   1.119087   0.000000
    10  O    2.675854   2.537878   1.416415   2.062309   0.000000
    11  C    2.738257   3.487647   1.538598   2.184903   2.456603
    12  H    3.483690   3.451262   1.914671   2.341729   0.948590
    13  H    2.638819   3.815703   2.183913   3.099666   2.647847
    14  H    2.839319   3.686604   2.157043   2.610616   3.366892
    15  C    4.208436   4.700171   2.536046   2.678015   3.136725
    16  H    4.699481   4.863916   2.798259   2.481814   3.565515
    17  H    4.864573   5.601078   3.493713   3.710032   4.110078
    18  H    4.589876   4.973345   2.830505   3.002997   2.910207
                   11         12         13         14         15
    11  C    0.000000
    12  H    2.517805   0.000000
    13  H    1.107982   2.717435   0.000000
    14  H    1.113951   3.569461   1.771250   0.000000
    15  C    1.510996   2.726149   2.161849   2.163852   0.000000
    16  H    2.172695   3.192110   3.089220   2.534548   1.098435
    17  H    2.163893   3.685049   2.501542   2.500326   1.097592
    18  H    2.176617   2.213970   2.536670   3.095577   1.099120
                   16         17         18
    16  H    0.000000
    17  H    1.769143   0.000000
    18  H    1.769198   1.766772   0.000000
 Stoichiometry    C5H12O
 Framework group  C1[X(C5H12O)]
 Deg. of freedom    48
 Full point group                 C1      NOp   1
 RotChk:  IX=2 Diff= 1.02D-15
 Largest Abelian subgroup         C1      NOp   1
 Largest concise Abelian subgroup C1      NOp   1
                         Standard orientation:                         
 ---------------------------------------------------------------------
 Center     Atomic      Atomic             Coordinates (Angstroms)
 Number     Number       Type             X           Y           Z
 ---------------------------------------------------------------------
      1          6           0        2.121198   -0.914979    0.189326
      2          1           0        1.517846   -1.775259   -0.147598
      3          1           0        2.226092   -0.996945    1.279041
      4          1           0        3.122072   -1.014308   -0.247445
      5          6           0        1.466123    0.386387   -0.216658
      6          1           0        1.510654    0.510608   -1.317075
      7          1           0        2.029143    1.243527    0.202800
      8          6           0        0.004262    0.437529    0.254857
      9          1           0       -0.037728    0.249248    1.357192
     10          8           0       -0.448836    1.757346    0.011922
     11          6           0       -0.840288   -0.617252   -0.480980
     12          1           0       -1.384109    1.753293    0.170263
     13          1           0       -0.983839   -0.321042   -1.538939
     14          1           0       -0.252602   -1.563138   -0.509464
     15          6           0       -2.176425   -0.855146    0.183288
     16          1           0       -2.060682   -1.182426    1.225425
     17          1           0       -2.746372   -1.632148   -0.342198
     18          1           0       -2.799001    0.050590    0.193623
 ---------------------------------------------------------------------
 Rotational constants (GHZ):           4.6720291           2.4141276           1.7538158
 Leave Link  202 at Wed Sep  7 15:34:45 2022, MaxMem=   131072000 cpu:               0.0 elap:               0.0
 (Enter /opt/g16/l601.exe)
 Copying SCF densities to generalized density rwf, IOpCl= 0 IROHF=0.

 **********************************************************************

            Population analysis using the SCF density.

 **********************************************************************

 Orbital symmetries:
       Occupied  (A) (A) (A) (A) (A) (A) (A) (A) (A) (A) (A) (A)
                 (A) (A) (A) (A) (A) (A) (A)
       Virtual   (A) (A) (A) (A) (A) (A) (A) (A) (A) (A) (A) (A)
                 (A) (A) (A) (A) (A)
 The electronic state is 1-A.
 Alpha  occ. eigenvalues --   -1.48813  -1.26191  -1.19653  -0.93584  -0.82943
 Alpha  occ. eigenvalues --   -0.74487  -0.64718  -0.61276  -0.58735  -0.55704
 Alpha  occ. eigenvalues --   -0.53070  -0.51098  -0.49601  -0.48761  -0.47705
 Alpha  occ. eigenvalues --   -0.44363  -0.43969  -0.42571  -0.40113
 Alpha virt. eigenvalues --    0.11615   0.12647   0.13071   0.13454   0.13607
 Alpha virt. eigenvalues --    0.14647   0.14721   0.15276   0.15381   0.15724
 Alpha virt. eigenvalues --    0.16727   0.16973   0.17437   0.17845   0.18506
 Alpha virt. eigenvalues --    0.18577   0.21235
          Condensed to atoms (all electrons):
               1          2          3          4          5          6
     1  C    4.114776   0.000000   0.000000   0.000000   0.000000   0.000000
     2  H    0.000000   0.958313   0.000000   0.000000   0.000000   0.000000
     3  H    0.000000   0.000000   0.961275   0.000000   0.000000   0.000000
     4  H    0.000000   0.000000   0.000000   0.958735   0.000000   0.000000
     5  C    0.000000   0.000000   0.000000   0.000000   4.111972   0.000000
     6  H    0.000000   0.000000   0.000000   0.000000   0.000000   0.941535
     7  H    0.000000   0.000000   0.000000   0.000000   0.000000   0.000000
     8  C    0.000000   0.000000   0.000000   0.000000   0.000000   0.000000
     9  H    0.000000   0.000000   0.000000   0.000000   0.000000   0.000000
    10  O    0.000000   0.000000   0.000000   0.000000   0.000000   0.000000
    11  C    0.000000   0.000000   0.000000   0.000000   0.000000   0.000000
    12  H    0.000000   0.000000   0.000000   0.000000   0.000000   0.000000
    13  H    0.000000   0.000000   0.000000   0.000000   0.000000   0.000000
    14  H    0.000000   0.000000   0.000000   0.000000   0.000000   0.000000
    15  C    0.000000   0.000000   0.000000   0.000000   0.000000   0.000000
    16  H    0.000000   0.000000   0.000000   0.000000   0.000000   0.000000
    17  H    0.000000   0.000000   0.000000   0.000000   0.000000   0.000000
    18  H    0.000000   0.000000   0.000000   0.000000   0.000000   0.000000
               7          8          9         10         11         12
     1  C    0.000000   0.000000   0.000000   0.000000   0.000000   0.000000
     2  H    0.000000   0.000000   0.000000   0.000000   0.000000   0.000000
     3  H    0.000000   0.000000   0.000000   0.000000   0.000000   0.000000
     4  H    0.000000   0.000000   0.000000   0.000000   0.000000   0.000000
     5  C    0.000000   0.000000   0.000000   0.000000   0.000000   0.000000
     6  H    0.000000   0.000000   0.000000   0.000000   0.000000   0.000000
     7  H    0.935956   0.000000   0.000000   0.000000   0.000000   0.000000
     8  C    0.000000   3.920827   0.000000   0.000000   0.000000   0.000000
     9  H    0.000000   0.000000   0.956524   0.000000   0.000000   0.000000
    10  O    0.000000   0.000000   0.000000   6.313596   0.000000   0.000000
    11  C    0.000000   0.000000   0.000000   0.000000   4.156071   0.000000
    12  H    0.000000   0.000000   0.000000   0.000000   0.000000   0.811761
    13  H    0.000000   0.000000   0.000000   0.000000   0.000000   0.000000
    14  H    0.000000   0.000000   0.000000   0.000000   0.000000   0.000000
    15  C    0.000000   0.000000   0.000000   0.000000   0.000000   0.000000
    16  H    0.000000   0.000000   0.000000   0.000000   0.000000   0.000000
    17  H    0.000000   0.000000   0.000000   0.000000   0.000000   0.000000
    18  H    0.000000   0.000000   0.000000   0.000000   0.000000   0.000000
              13         14         15         16         17         18
     1  C    0.000000   0.000000   0.000000   0.000000   0.000000   0.000000
     2  H    0.000000   0.000000   0.000000   0.000000   0.000000   0.000000
     3  H    0.000000   0.000000   0.000000   0.000000   0.000000   0.000000
     4  H    0.000000   0.000000   0.000000   0.000000   0.000000   0.000000
     5  C    0.000000   0.000000   0.000000   0.000000   0.000000   0.000000
     6  H    0.000000   0.000000   0.000000   0.000000   0.000000   0.000000
     7  H    0.000000   0.000000   0.000000   0.000000   0.000000   0.000000
     8  C    0.000000   0.000000   0.000000   0.000000   0.000000   0.000000
     9  H    0.000000   0.000000   0.000000   0.000000   0.000000   0.000000
    10  O    0.000000   0.000000   0.000000   0.000000   0.000000   0.000000
    11  C    0.000000   0.000000   0.000000   0.000000   0.000000   0.000000
    12  H    0.000000   0.000000   0.000000   0.000000   0.000000   0.000000
    13  H    0.935044   0.000000   0.000000   0.000000   0.000000   0.000000
    14  H    0.000000   0.931198   0.000000   0.000000   0.000000   0.000000
    15  C    0.000000   0.000000   4.106910   0.000000   0.000000   0.000000
    16  H    0.000000   0.000000   0.000000   0.960033   0.000000   0.000000
    17  H    0.000000   0.000000   0.000000   0.000000   0.958268   0.000000
    18  H    0.000000   0.000000   0.000000   0.000000   0.000000   0.967207
 Mulliken charges:
               1
     1  C   -0.114776
     2  H    0.041687
     3  H    0.038725
     4  H    0.041265
     5  C   -0.111972
     6  H    0.058465
     7  H    0.064044
     8  C    0.079173
     9  H    0.043476
    10  O   -0.313596
    11  C   -0.156071
    12  H    0.188239
    13  H    0.064956
    14  H    0.068802
    15  C   -0.106910
    16  H    0.039967
    17  H    0.041732
    18  H    0.032793
 Sum of Mulliken charges =   0.00000
 Mulliken charges with hydrogens summed into heavy atoms:
               1
     1  C    0.006901
     5  C    0.010536
     8  C    0.122649
    10  O   -0.125356
    11  C   -0.022313
    15  C    0.007582
 Charge=              0.0000 electrons
 Dipole moment (field-independent basis, Debye):
    X=             -0.7653    Y=             -1.3388    Z=              0.3211  Tot=              1.5752
 N-N= 1.705304639768D+02 E-N=-2.554514132216D+02  KE=-5.969943483200D+01
 Leave Link  601 at Wed Sep  7 15:34:45 2022, MaxMem=   131072000 cpu:               0.0 elap:               0.0
 (Enter /opt/g16/l9999.exe)
 1\1\GINC-TOTEM2\FOpt\RPM3\ZDO\C5H12O1\JRAMOS\07-Sep-2022\0\\#p opt pm3
 \\Conformer number 012. Energy MM = 0.000 kcal/mol\\0,1\C,5.8978437801
 ,14.8722048059,10.5256687923\H,5.8456978231,14.4688928232,11.551462555
 9\H,5.1947772659,14.2942187744,9.9118059918\H,5.5388269413,15.90794550
 9,10.5527074768\C,7.3106216693,14.7892197937,9.9921206361\H,7.96733539
 86,15.4978430338,10.535178482\H,7.337205863,15.1110831685,8.9322513749
 \C,7.8649107015,13.3615948243,10.1210749524\H,7.1643173265,12.64435235
 57,9.6239964221\O,9.093208094,13.343792628,9.4159507864\C,8.0327274694
 ,12.9764629465,11.6012081686\H,9.5021669216,12.510298172,9.6105349905\
 H,8.8777903797,13.5367373429,12.0479576675\H,7.1228975773,13.317493476
 9,12.1459962731\C,8.227829506,11.4905894627,11.7941431951\H,7.38607790
 83,10.913170859,11.3884315259\H,8.3146345754,11.2382373862,12.85879884
 45\H,9.1401307991,11.1268626373,11.3007118642\\Version=ES64L-G16RevA.0
 3\State=1-A\HF=-0.1184835\RMSD=3.694e-09\RMSF=8.895e-06\Dipole=-0.2496
 433,-0.3909864,0.4109478\PG=C01 [X(C5H12O1)]\\@


 IF AT FIRST YOU DON'T SUCCEED, TRY LOOKING IN 
 THE WASTEBASKET FOR THE DIRECTIONS.
 Job cpu time:       0 days  0 hours  0 minutes  6.3 seconds.
 Elapsed time:       0 days  0 hours  0 minutes 10.8 seconds.
 File lengths (MBytes):  RWF=      6 Int=      0 D2E=      0 Chk=      2 Scr=      1
 Normal termination of Gaussian 16 at Wed Sep  7 15:34:45 2022.
