 Entering Gaussian System, Link 0=/opt/g16/g16
 Input=MD_extract_020_gaussian.com
 Output=MD_extract_020_gaussian.log
 Initial command:
 /opt/g16/l1.exe "/tmp/Gau-318190.inp" -scrdir="/tmp/"
 Entering Link 1 = /opt/g16/l1.exe PID=    318192.
  
 Copyright (c) 1988,1990,1992,1993,1995,1998,2003,2009,2016,
            Gaussian, Inc.  All Rights Reserved.
  
 This is part of the Gaussian(R) 16 program.  It is based on
 the Gaussian(R) 09 system (copyright 2009, Gaussian, Inc.),
 the Gaussian(R) 03 system (copyright 2003, Gaussian, Inc.),
 the Gaussian(R) 98 system (copyright 1998, Gaussian, Inc.),
 the Gaussian(R) 94 system (copyright 1995, Gaussian, Inc.),
 the Gaussian 92(TM) system (copyright 1992, Gaussian, Inc.),
 the Gaussian 90(TM) system (copyright 1990, Gaussian, Inc.),
 the Gaussian 88(TM) system (copyright 1988, Gaussian, Inc.),
 the Gaussian 86(TM) system (copyright 1986, Carnegie Mellon
 University), and the Gaussian 82(TM) system (copyright 1983,
 Carnegie Mellon University). Gaussian is a federally registered
 trademark of Gaussian, Inc.
  
 This software contains proprietary and confidential information,
 including trade secrets, belonging to Gaussian, Inc.
  
 This software is provided under written license and may be
 used, copied, transmitted, or stored only in accord with that
 written license.
  
 The following legend is applicable only to US Government
 contracts under FAR:
  
                    RESTRICTED RIGHTS LEGEND
  
 Use, reproduction and disclosure by the US Government is
 subject to restrictions as set forth in subparagraphs (a)
 and (c) of the Commercial Computer Software - Restricted
 Rights clause in FAR 52.227-19.
  
 Gaussian, Inc.
 340 Quinnipiac St., Bldg. 40, Wallingford CT 06492
  
  
 ---------------------------------------------------------------
 Warning -- This program may not be used in any manner that
 competes with the business of Gaussian, Inc. or will provide
 assistance to any competitor of Gaussian, Inc.  The licensee
 of this program is prohibited from giving any competitor of
 Gaussian, Inc. access to this program.  By using this program,
 the user acknowledges that Gaussian, Inc. is engaged in the
 business of creating and licensing software in the field of
 computational chemistry and represents and warrants to the
 licensee that it is not a competitor of Gaussian, Inc. and that
 it will not use this program in any manner prohibited above.
 ---------------------------------------------------------------
  

 Cite this work as:
 Gaussian 16, Revision A.03,
 M. J. Frisch, G. W. Trucks, H. B. Schlegel, G. E. Scuseria, 
 M. A. Robb, J. R. Cheeseman, G. Scalmani, V. Barone, 
 G. A. Petersson, H. Nakatsuji, X. Li, M. Caricato, A. V. Marenich, 
 J. Bloino, B. G. Janesko, R. Gomperts, B. Mennucci, H. P. Hratchian, 
 J. V. Ortiz, A. F. Izmaylov, J. L. Sonnenberg, D. Williams-Young, 
 F. Ding, F. Lipparini, F. Egidi, J. Goings, B. Peng, A. Petrone, 
 T. Henderson, D. Ranasinghe, V. G. Zakrzewski, J. Gao, N. Rega, 
 G. Zheng, W. Liang, M. Hada, M. Ehara, K. Toyota, R. Fukuda, 
 J. Hasegawa, M. Ishida, T. Nakajima, Y. Honda, O. Kitao, H. Nakai, 
 T. Vreven, K. Throssell, J. A. Montgomery, Jr., J. E. Peralta, 
 F. Ogliaro, M. J. Bearpark, J. J. Heyd, E. N. Brothers, K. N. Kudin, 
 V. N. Staroverov, T. A. Keith, R. Kobayashi, J. Normand, 
 K. Raghavachari, A. P. Rendell, J. C. Burant, S. S. Iyengar, 
 J. Tomasi, M. Cossi, J. M. Millam, M. Klene, C. Adamo, R. Cammi, 
 J. W. Ochterski, R. L. Martin, K. Morokuma, O. Farkas, 
 J. B. Foresman, and D. J. Fox, Gaussian, Inc., Wallingford CT, 2016.
 
 ******************************************
 Gaussian 16:  ES64L-G16RevA.03 25-Dec-2016
                 7-Sep-2022 
 ******************************************
 %chk=MD_extract_020_gaussian.chk
 %nproc=1
 Will use up to    1 processors via shared memory.
 %mem=1000Mb
 ----------
 #p opt pm3
 ----------
 1/18=20,19=15,26=1,38=1/1,3;
 2/9=110,12=2,17=6,18=5,40=1/2;
 3/5=2,25=1,41=800000,71=1/1,2,3;
 4/35=1/1;
 5/5=2,35=1,38=5/2;
 6/7=2,8=2,9=2,10=2,28=1/1;
 7//1,2,3,16;
 1/18=20,19=15,26=1/3(2);
 2/9=110/2;
 99//99;
 2/9=110/2;
 3/5=2,25=1,41=800000,71=1,135=20/1,2,3;
 4/5=5,16=3,35=1/1;
 5/5=2,35=1,38=5/2;
 7//1,2,3,16;
 1/18=20,19=15,26=1/3(-5);
 2/9=110/2;
 6/7=2,8=2,9=2,10=2,19=2,28=1/1;
 99/9=1/99;
 Leave Link    1 at Wed Sep  7 15:36:15 2022, MaxMem=   131072000 cpu:               0.0 elap:               5.7
 (Enter /opt/g16/l101.exe)
 ------------------------------------------------
 Conformer number 020. Energy MM = 0.000 kcal/mol
 ------------------------------------------------
 Symbolic Z-matrix:
 Charge =  0 Multiplicity = 1
 C                     9.063     8.714     3.389 
 H                     9.786     8.609     2.573 
 H                     9.148     7.741     3.953 
 H                     9.327     9.42      4.177 
 C                     7.696     9.172     2.875 
 H                     6.927     8.908     3.656 
 H                     7.393     8.586     2.025 
 C                     7.747     10.587    2.598 
 H                     6.736     10.976    2.319 
 O                     8.259     11.306    3.687 
 C                     8.645     10.987    1.466 
 H                     7.608     11.554    4.384 
 H                     9.683     10.756    1.75 
 H                     8.464     10.452    0.529 
 C                     8.39      12.537    1.159 
 H                     7.356     12.664    0.934 
 H                     8.988     12.831    0.235 
 H                     8.635     13.217    1.925 
 
 ITRead=  0  0  0  0  0  0  0  0  0  0  0  0  0  0  0  0  0  0
 MicOpt= -1 -1 -1 -1 -1 -1 -1 -1 -1 -1 -1 -1 -1 -1 -1 -1 -1 -1
 NAtoms=     18 NQM=       18 NQMF=       0 NMMI=      0 NMMIF=      0
                NMic=       0 NMicF=      0.
                    Isotopes and Nuclear Properties:
 (Nuclear quadrupole moments (NQMom) in fm**2, nuclear magnetic moments (NMagM)
  in nuclear magnetons)

  Atom         1           2           3           4           5           6           7           8           9          10
 IAtWgt=          12           1           1           1          12           1           1          12           1          16
 AtmWgt=  12.0000000   1.0078250   1.0078250   1.0078250  12.0000000   1.0078250   1.0078250  12.0000000   1.0078250  15.9949146
 NucSpn=           0           1           1           1           0           1           1           0           1           0
 AtZEff=  -0.0000000  -0.0000000  -0.0000000  -0.0000000  -0.0000000  -0.0000000  -0.0000000  -0.0000000  -0.0000000  -0.0000000
 NQMom=    0.0000000   0.0000000   0.0000000   0.0000000   0.0000000   0.0000000   0.0000000   0.0000000   0.0000000   0.0000000
 NMagM=    0.0000000   2.7928460   2.7928460   2.7928460   0.0000000   2.7928460   2.7928460   0.0000000   2.7928460   0.0000000
 AtZNuc=   6.0000000   1.0000000   1.0000000   1.0000000   6.0000000   1.0000000   1.0000000   6.0000000   1.0000000   8.0000000

  Atom        11          12          13          14          15          16          17          18
 IAtWgt=          12           1           1           1          12           1           1           1
 AtmWgt=  12.0000000   1.0078250   1.0078250   1.0078250  12.0000000   1.0078250   1.0078250   1.0078250
 NucSpn=           0           1           1           1           0           1           1           1
 AtZEff=  -0.0000000  -0.0000000  -0.0000000  -0.0000000  -0.0000000  -0.0000000  -0.0000000  -0.0000000
 NQMom=    0.0000000   0.0000000   0.0000000   0.0000000   0.0000000   0.0000000   0.0000000   0.0000000
 NMagM=    0.0000000   2.7928460   2.7928460   2.7928460   0.0000000   2.7928460   2.7928460   2.7928460
 AtZNuc=   6.0000000   1.0000000   1.0000000   1.0000000   6.0000000   1.0000000   1.0000000   1.0000000
 Leave Link  101 at Wed Sep  7 15:36:15 2022, MaxMem=   131072000 cpu:               0.1 elap:               0.1
 (Enter /opt/g16/l103.exe)

 GradGradGradGradGradGradGradGradGradGradGradGradGradGradGradGradGradGrad
 Berny optimization.
 Initialization pass.
                           ----------------------------
                           !    Initial Parameters    !
                           ! (Angstroms and Degrees)  !
 --------------------------                            --------------------------
 ! Name  Definition              Value          Derivative Info.                !
 --------------------------------------------------------------------------------
 ! R1    R(1,2)                  1.0953         estimate D2E/DX2                !
 ! R2    R(1,3)                  1.1279         estimate D2E/DX2                !
 ! R3    R(1,4)                  1.0904         estimate D2E/DX2                !
 ! R4    R(1,5)                  1.5306         estimate D2E/DX2                !
 ! R5    R(5,6)                  1.1274         estimate D2E/DX2                !
 ! R6    R(5,7)                  1.076          estimate D2E/DX2                !
 ! R7    R(5,8)                  1.4428         estimate D2E/DX2                !
 ! R8    R(8,9)                  1.1186         estimate D2E/DX2                !
 ! R9    R(8,10)                 1.4018         estimate D2E/DX2                !
 ! R10   R(8,11)                 1.4993         estimate D2E/DX2                !
 ! R11   R(10,12)                0.9855         estimate D2E/DX2                !
 ! R12   R(11,13)                1.1007         estimate D2E/DX2                !
 ! R13   R(11,14)                1.0941         estimate D2E/DX2                !
 ! R14   R(11,15)                1.6006         estimate D2E/DX2                !
 ! R15   R(15,16)                1.0658         estimate D2E/DX2                !
 ! R16   R(15,17)                1.1392         estimate D2E/DX2                !
 ! R17   R(15,18)                1.0532         estimate D2E/DX2                !
 ! A1    A(2,1,3)              103.8929         estimate D2E/DX2                !
 ! A2    A(2,1,4)              116.1445         estimate D2E/DX2                !
 ! A3    A(2,1,5)              111.5959         estimate D2E/DX2                !
 ! A4    A(3,1,4)              100.3078         estimate D2E/DX2                !
 ! A5    A(3,1,5)              119.5639         estimate D2E/DX2                !
 ! A6    A(4,1,5)              105.3771         estimate D2E/DX2                !
 ! A7    A(1,5,6)              107.8482         estimate D2E/DX2                !
 ! A8    A(1,5,7)              110.7221         estimate D2E/DX2                !
 ! A9    A(1,5,8)              109.0493         estimate D2E/DX2                !
 ! A10   A(6,5,7)              103.1583         estimate D2E/DX2                !
 ! A11   A(6,5,8)              112.7541         estimate D2E/DX2                !
 ! A12   A(7,5,8)              113.1058         estimate D2E/DX2                !
 ! A13   A(5,8,9)              110.9161         estimate D2E/DX2                !
 ! A14   A(5,8,10)             111.5187         estimate D2E/DX2                !
 ! A15   A(5,8,11)             115.3277         estimate D2E/DX2                !
 ! A16   A(9,8,10)             110.2126         estimate D2E/DX2                !
 ! A17   A(9,8,11)             105.0843         estimate D2E/DX2                !
 ! A18   A(10,8,11)            103.3527         estimate D2E/DX2                !
 ! A19   A(8,10,12)            115.9293         estimate D2E/DX2                !
 ! A20   A(8,11,13)            108.3031         estimate D2E/DX2                !
 ! A21   A(8,11,14)            114.6509         estimate D2E/DX2                !
 ! A22   A(8,11,15)            107.9246         estimate D2E/DX2                !
 ! A23   A(13,11,14)           105.9249         estimate D2E/DX2                !
 ! A24   A(13,11,15)           113.7649         estimate D2E/DX2                !
 ! A25   A(14,11,15)           106.4351         estimate D2E/DX2                !
 ! A26   A(11,15,16)           108.0868         estimate D2E/DX2                !
 ! A27   A(11,15,17)           108.7756         estimate D2E/DX2                !
 ! A28   A(11,15,18)           116.6605         estimate D2E/DX2                !
 ! A29   A(16,15,17)           107.8956         estimate D2E/DX2                !
 ! A30   A(16,15,18)           107.5957         estimate D2E/DX2                !
 ! A31   A(17,15,18)           107.5284         estimate D2E/DX2                !
 ! D1    D(2,1,5,6)            159.895          estimate D2E/DX2                !
 ! D2    D(2,1,5,7)             47.7157         estimate D2E/DX2                !
 ! D3    D(2,1,5,8)            -77.3495         estimate D2E/DX2                !
 ! D4    D(3,1,5,6)             38.4668         estimate D2E/DX2                !
 ! D5    D(3,1,5,7)            -73.7125         estimate D2E/DX2                !
 ! D6    D(3,1,5,8)            161.2223         estimate D2E/DX2                !
 ! D7    D(4,1,5,6)            -73.2092         estimate D2E/DX2                !
 ! D8    D(4,1,5,7)            174.6115         estimate D2E/DX2                !
 ! D9    D(4,1,5,8)             49.5463         estimate D2E/DX2                !
 ! D10   D(1,5,8,9)           -174.2541         estimate D2E/DX2                !
 ! D11   D(1,5,8,10)           -51.0049         estimate D2E/DX2                !
 ! D12   D(1,5,8,11)            66.4636         estimate D2E/DX2                !
 ! D13   D(6,5,8,9)            -54.4894         estimate D2E/DX2                !
 ! D14   D(6,5,8,10)            68.7598         estimate D2E/DX2                !
 ! D15   D(6,5,8,11)          -173.7716         estimate D2E/DX2                !
 ! D16   D(7,5,8,9)             62.0832         estimate D2E/DX2                !
 ! D17   D(7,5,8,10)          -174.6676         estimate D2E/DX2                !
 ! D18   D(7,5,8,11)           -57.1991         estimate D2E/DX2                !
 ! D19   D(5,8,10,12)          -85.0139         estimate D2E/DX2                !
 ! D20   D(9,8,10,12)           38.6349         estimate D2E/DX2                !
 ! D21   D(11,8,10,12)         150.4996         estimate D2E/DX2                !
 ! D22   D(5,8,11,13)          -65.462          estimate D2E/DX2                !
 ! D23   D(5,8,11,14)           52.5576         estimate D2E/DX2                !
 ! D24   D(5,8,11,15)          170.9575         estimate D2E/DX2                !
 ! D25   D(9,8,11,13)          172.0837         estimate D2E/DX2                !
 ! D26   D(9,8,11,14)          -69.8966         estimate D2E/DX2                !
 ! D27   D(9,8,11,15)           48.5032         estimate D2E/DX2                !
 ! D28   D(10,8,11,13)          56.5049         estimate D2E/DX2                !
 ! D29   D(10,8,11,14)         174.5245         estimate D2E/DX2                !
 ! D30   D(10,8,11,15)         -67.0756         estimate D2E/DX2                !
 ! D31   D(8,11,15,16)         -57.5382         estimate D2E/DX2                !
 ! D32   D(8,11,15,17)        -174.4393         estimate D2E/DX2                !
 ! D33   D(8,11,15,18)          63.7822         estimate D2E/DX2                !
 ! D34   D(13,11,15,16)       -177.7418         estimate D2E/DX2                !
 ! D35   D(13,11,15,17)         65.3571         estimate D2E/DX2                !
 ! D36   D(13,11,15,18)        -56.4214         estimate D2E/DX2                !
 ! D37   D(14,11,15,16)         65.9975         estimate D2E/DX2                !
 ! D38   D(14,11,15,17)        -50.9036         estimate D2E/DX2                !
 ! D39   D(14,11,15,18)       -172.6821         estimate D2E/DX2                !
 --------------------------------------------------------------------------------
 Trust Radius=3.00D-01 FncErr=1.00D-07 GrdErr=1.00D-07 EigMax=2.50D+02 EigMin=1.00D-04
 Number of steps in this run=     97 maximum allowed number of steps=    108.
 GradGradGradGradGradGradGradGradGradGradGradGradGradGradGradGradGradGrad

 Leave Link  103 at Wed Sep  7 15:36:15 2022, MaxMem=   131072000 cpu:               0.0 elap:               0.0
 (Enter /opt/g16/l202.exe)
                          Input orientation:                          
 ---------------------------------------------------------------------
 Center     Atomic      Atomic             Coordinates (Angstroms)
 Number     Number       Type             X           Y           Z
 ---------------------------------------------------------------------
      1          6           0        9.063000    8.714000    3.389000
      2          1           0        9.786000    8.609000    2.573000
      3          1           0        9.148000    7.741000    3.953000
      4          1           0        9.327000    9.420000    4.177000
      5          6           0        7.696000    9.172000    2.875000
      6          1           0        6.927000    8.908000    3.656000
      7          1           0        7.393000    8.586000    2.025000
      8          6           0        7.747000   10.587000    2.598000
      9          1           0        6.736000   10.976000    2.319000
     10          8           0        8.259000   11.306000    3.687000
     11          6           0        8.645000   10.987000    1.466000
     12          1           0        7.608000   11.554000    4.384000
     13          1           0        9.683000   10.756000    1.750000
     14          1           0        8.464000   10.452000    0.529000
     15          6           0        8.390000   12.537000    1.159000
     16          1           0        7.356000   12.664000    0.934000
     17          1           0        8.988000   12.831000    0.235000
     18          1           0        8.635000   13.217000    1.925000
 ---------------------------------------------------------------------
                    Distance matrix (angstroms):
                    1          2          3          4          5
     1  C    0.000000
     2  H    1.095267   0.000000
     3  H    1.127852   1.750676   0.000000
     4  H    1.090448   1.855052   1.703308   0.000000
     5  C    1.530571   2.185469   2.306111   2.101635   0.000000
     6  H    2.161347   3.071835   2.526448   2.508702   1.127394
     7  H    2.160042   2.455052   2.740663   3.011149   1.075967
     8  C    2.421914   2.840885   3.449426   2.520224   1.442760
     9  H    3.417085   3.869070   4.353496   3.547757   2.117818
    10  O    2.730144   3.293408   3.683789   2.222098   2.351652
    11  C    3.006523   2.860457   4.120036   3.204705   2.485982
    12  H    3.342551   4.086127   4.134771   2.748048   2.821125
    13  H    2.690815   2.301640   3.772222   2.793199   2.779002
    14  H    3.399860   3.053239   4.420538   3.888148   2.780637
    15  C    4.476735   4.401976   5.602019   4.438691   3.840510
    16  H    4.954127   5.003423   6.046615   4.992537   4.009632
    17  H    5.186813   4.891659   6.305333   5.223907   4.693309
    18  H    4.754313   4.793576   5.861956   4.468509   4.259841
                    6          7          8          9         10
     6  H    0.000000
     7  H    1.726558   0.000000
     8  C    2.147279   2.111314   0.000000
     9  H    2.469954   2.496034   1.118608   0.000000
    10  O    2.743281   3.303120   1.401794   2.073609   0.000000
    11  C    3.474171   2.764921   1.499276   2.090935   2.276752
    12  H    2.827554   3.797385   2.035732   2.314885   0.985451
    13  H    3.826680   3.166800   2.120321   3.009480   2.466221
    14  H    3.811094   2.620499   2.193872   2.542570   3.277851
    15  C    4.641661   4.165857   2.507323   2.553045   2.814837
    16  H    4.658418   4.221580   2.689927   2.269795   3.199778
    17  H    5.598294   4.875259   3.487031   3.585469   3.843614
    18  H    4.947839   4.795699   2.856287   2.963700   2.626393
                   11         12         13         14         15
    11  C    0.000000
    12  H    3.148267   0.000000
    13  H    1.100664   3.446793   0.000000
    14  H    1.094054   4.099776   1.751918   0.000000
    15  C    1.600554   3.460988   2.278835   2.179358   0.000000
    16  H    2.181026   3.632919   3.117892   2.506917   1.065791
    17  H    2.243512   4.555143   2.661555   2.453702   1.139217
    18  H    2.276770   3.141175   2.680569   3.102142   1.053177
                   16         17         18
    16  H    0.000000
    17  H    1.783231   0.000000
    18  H    1.709892   1.769097   0.000000
 Stoichiometry    C5H12O
 Framework group  C1[X(C5H12O)]
 Deg. of freedom    48
 Full point group                 C1      NOp   1
 Largest Abelian subgroup         C1      NOp   1
 Largest concise Abelian subgroup C1      NOp   1
                         Standard orientation:                         
 ---------------------------------------------------------------------
 Center     Atomic      Atomic             Coordinates (Angstroms)
 Number     Number       Type             X           Y           Z
 ---------------------------------------------------------------------
      1          6           0        2.047069   -0.413740   -0.593799
      2          1           0        1.741185   -1.349966   -1.072887
      3          1           0        3.173762   -0.443945   -0.635034
      4          1           0        1.855589    0.499602   -1.157908
      5          6           0        1.345717   -0.214187    0.751910
      6          1           0        1.948398    0.528364    1.348911
      7          1           0        1.401197   -1.109185    1.346558
      8          6           0       -0.007874    0.226298    0.516709
      9          1           0       -0.517679    0.481579    1.479109
     10          8           0       -0.047687    1.321183   -0.357744
     11          6           0       -0.903349   -0.777885   -0.144782
     12          1           0        0.076801    2.207225    0.055229
     13          1           0       -0.525523   -0.960620   -1.162287
     14          1           0       -0.932327   -1.755850    0.344809
     15          6           0       -2.398051   -0.206897   -0.104633
     16          1           0       -2.656275   -0.026953    0.913626
     17          1           0       -3.105528   -1.002573   -0.509839
     18          1           0       -2.579173    0.681325   -0.640764
 ---------------------------------------------------------------------
 Rotational constants (GHZ):           6.1817558           2.2301282           2.0073922
 Leave Link  202 at Wed Sep  7 15:36:15 2022, MaxMem=   131072000 cpu:               0.0 elap:               0.0
 (Enter /opt/g16/l301.exe)
 Standard basis: VSTO-6G (5D, 7F)
 Ernie: Thresh=  0.10000D-02 Tol=  0.10000D-05 Strict=F.
  NNHCO=     0 NNPyr=     0 NCTC=     0               EPep=         0.000000000
    EC=       130.894086876  ECS=         2.253298053   EG=         0.565099052
   EHC=         0.000000000  EAt=       -36.836480110  AtH=         2.452923921
 EPDDG=         0.000000000  ECC=       133.712483980 EAtT=        39.289404030
 There are    36 symmetry adapted cartesian basis functions of A   symmetry.
 There are    36 symmetry adapted basis functions of A   symmetry.
    36 basis functions,   216 primitive gaussians,    36 cartesian basis functions
    19 alpha electrons       19 beta electrons
       nuclear repulsion energy       173.0018880106 Hartrees.
 IExCor=    0 DFT=F Ex=HF Corr=None ExCW=0 ScaHFX=  1.000000
 ScaDFX=  1.000000  1.000000  1.000000  1.000000 ScalE2=  1.000000  1.000000
 IRadAn=      5 IRanWt=     -1 IRanGd=            0 ICorTp=0 IEmpDi=  4
 Integral buffers will be    131072 words long.
 Regular integral format.
 Two-electron integral symmetry is turned off.
 Leave Link  301 at Wed Sep  7 15:36:15 2022, MaxMem=   131072000 cpu:               0.0 elap:               0.0
 (Enter /opt/g16/l302.exe)
 Do NDO integrals.
 NPDir=0 NMtPBC=     1 NCelOv=     1 NCel=       1 NClECP=     1 NCelD=      1
         NCelK=      1 NCelE2=     1 NClLst=     1 CellRange=     0.0.
 One-electron integrals computed using PRISM.
 NBasis=    36 RedAO= F EigKep=  0.00D+00  NBF=    36
 NBsUse=    36 1.00D-04 EigRej=  0.00D+00 NBFU=    36
 Leave Link  302 at Wed Sep  7 15:36:15 2022, MaxMem=   131072000 cpu:               0.0 elap:               0.0
 (Enter /opt/g16/l303.exe)
 DipDrv:  MaxL=1.
 Leave Link  303 at Wed Sep  7 15:36:15 2022, MaxMem=   131072000 cpu:               0.0 elap:               0.0
 (Enter /opt/g16/l401.exe)
 Simple Huckel Guess.
 JPrj=0 DoOrth=F DoCkMO=F.
 Leave Link  401 at Wed Sep  7 15:36:15 2022, MaxMem=   131072000 cpu:               0.0 elap:               0.0
 (Enter /opt/g16/l502.exe)
 Keep J ints in memory in canonical form, NReq=862161.
 FoFCou: FMM=F IPFlag=           0 FMFlag=           0 FMFlg1=           0
         NFxFlg=           0 DoJE=F BraDBF=F KetDBF=F FulRan=T
         wScrn=  0.000000 ICntrl=       600 IOpCl=  2 I1Cent=           0 NGrid=           0
         NMat0=    1 NMatS0=     72 NMatT0=    0 NMatD0=    1 NMtDS0=    0 NMtDT0=    0
 Symmetry not used in FoFCou.
 Two-electron integral symmetry not used.
 Closed shell SCF:
 Using DIIS extrapolation, IDIIS=  1040.
 Overlap will be assumed to be unity.
 NGot=   131072000 LenX=   131006778 LenY=   131005041
 Requested convergence on RMS density matrix=1.00D-08 within 128 cycles.
 Requested convergence on MAX density matrix=1.00D-06.
 Requested convergence on             energy=1.00D-06.
 No special actions if energy rises.

 Cycle   1  Pass 1  IDiag  1:
 E= 0.195729068138434    
 DIIS: error= 7.14D-02 at cycle   1 NSaved=   1.
 NSaved= 1 IEnMin= 1 EnMin= 0.195729068138434     IErMin= 1 ErrMin= 7.14D-02
 ErrMax= 7.14D-02  0.00D+00 EMaxC= 1.00D-01 BMatC= 1.07D-01 BMatP= 1.07D-01
 IDIUse=3 WtCom= 2.86D-01 WtEn= 7.14D-01
 Coeff-Com:  0.100D+01
 Coeff-En:   0.100D+01
 Coeff:      0.100D+01
 GapD=    2.000 DampG=2.000 DampE=0.500 DampFc=1.0000 IDamp=-1.
 RMSDP=1.25D-02 MaxDP=1.52D-01              OVMax= 0.00D+00

 Cycle   2  Pass 1  IDiag  1:
 E=-0.586987465031825E-01 Delta-E=       -0.254427814642 Rises=F Damp=F
 DIIS: error= 1.70D-02 at cycle   2 NSaved=   2.
 NSaved= 2 IEnMin= 2 EnMin=-0.586987465031825E-01 IErMin= 2 ErrMin= 1.70D-02
 ErrMax= 1.70D-02  0.00D+00 EMaxC= 1.00D-01 BMatC= 7.06D-03 BMatP= 1.07D-01
 IDIUse=3 WtCom= 8.30D-01 WtEn= 1.70D-01
 Coeff-Com: -0.305D+00 0.131D+01
 Coeff-En:   0.000D+00 0.100D+01
 Coeff:     -0.254D+00 0.125D+01
 RMSDP=4.70D-03 MaxDP=6.48D-02 DE=-2.54D-01 OVMax= 0.00D+00

 Cycle   3  Pass 1  IDiag  3:
 E=-0.811547554165486E-01 Delta-E=       -0.022456008913 Rises=F Damp=F
 DIIS: error= 4.77D-03 at cycle   3 NSaved=   3.
 NSaved= 3 IEnMin= 3 EnMin=-0.811547554165486E-01 IErMin= 3 ErrMin= 4.77D-03
 ErrMax= 4.77D-03  0.00D+00 EMaxC= 1.00D-01 BMatC= 2.68D-04 BMatP= 7.06D-03
 IDIUse=3 WtCom= 9.52D-01 WtEn= 4.77D-02
 Coeff-Com:  0.153D+00-0.759D+00 0.161D+01
 Coeff-En:   0.000D+00 0.000D+00 0.100D+01
 Coeff:      0.146D+00-0.722D+00 0.158D+01
 Gap=     0.519 Goal=   None    Shift=    0.000
 RMSDP=1.57D-03 MaxDP=2.98D-02 DE=-2.25D-02 OVMax= 1.36D-02

 Cycle   4  Pass 1  IDiag  3:
 E=-0.826847737719163E-01 Delta-E=       -0.001530018355 Rises=F Damp=F
 DIIS: error= 1.01D-03 at cycle   4 NSaved=   4.
 NSaved= 4 IEnMin= 4 EnMin=-0.826847737719163E-01 IErMin= 4 ErrMin= 1.01D-03
 ErrMax= 1.01D-03  0.00D+00 EMaxC= 1.00D-01 BMatC= 1.22D-05 BMatP= 2.68D-04
 IDIUse=3 WtCom= 9.90D-01 WtEn= 1.01D-02
 Coeff-Com: -0.341D-01 0.190D+00-0.602D+00 0.145D+01
 Coeff-En:   0.000D+00 0.000D+00 0.000D+00 0.100D+01
 Coeff:     -0.338D-01 0.188D+00-0.596D+00 0.144D+01
 Gap=     0.522 Goal=   None    Shift=    0.000
 RMSDP=3.97D-04 MaxDP=7.20D-03 DE=-1.53D-03 OVMax= 3.52D-03

 Cycle   5  Pass 1  IDiag  3:
 E=-0.827618219148292E-01 Delta-E=       -0.000077048143 Rises=F Damp=F
 DIIS: error= 1.14D-04 at cycle   5 NSaved=   5.
 NSaved= 5 IEnMin= 5 EnMin=-0.827618219148292E-01 IErMin= 5 ErrMin= 1.14D-04
 ErrMax= 1.14D-04  0.00D+00 EMaxC= 1.00D-01 BMatC= 3.69D-07 BMatP= 1.22D-05
 IDIUse=3 WtCom= 9.99D-01 WtEn= 1.14D-03
 Coeff-Com:  0.308D-02-0.212D-01 0.990D-01-0.390D+00 0.131D+01
 Coeff-En:   0.000D+00 0.000D+00 0.000D+00 0.000D+00 0.100D+01
 Coeff:      0.308D-02-0.212D-01 0.989D-01-0.389D+00 0.131D+01
 Gap=     0.522 Goal=   None    Shift=    0.000
 RMSDP=5.91D-05 MaxDP=6.67D-04 DE=-7.70D-05 OVMax= 4.95D-04

 Cycle   6  Pass 1  IDiag  3:
 E=-0.827639274741330E-01 Delta-E=       -0.000002105559 Rises=F Damp=F
 DIIS: error= 3.16D-05 at cycle   6 NSaved=   6.
 NSaved= 6 IEnMin= 6 EnMin=-0.827639274741330E-01 IErMin= 6 ErrMin= 3.16D-05
 ErrMax= 3.16D-05  0.00D+00 EMaxC= 1.00D-01 BMatC= 3.12D-08 BMatP= 3.69D-07
 IDIUse=1 WtCom= 1.00D+00 WtEn= 0.00D+00
 Coeff-Com: -0.526D-03 0.509D-02-0.320D-01 0.153D+00-0.713D+00 0.159D+01
 Coeff:     -0.526D-03 0.509D-02-0.320D-01 0.153D+00-0.713D+00 0.159D+01
 Gap=     0.522 Goal=   None    Shift=    0.000
 RMSDP=1.89D-05 MaxDP=2.17D-04 DE=-2.11D-06 OVMax= 1.41D-04

 Cycle   7  Pass 1  IDiag  3:
 E=-0.827641225983200E-01 Delta-E=       -0.000000195124 Rises=F Damp=F
 DIIS: error= 6.93D-06 at cycle   7 NSaved=   7.
 NSaved= 7 IEnMin= 7 EnMin=-0.827641225983200E-01 IErMin= 7 ErrMin= 6.93D-06
 ErrMax= 6.93D-06  0.00D+00 EMaxC= 1.00D-01 BMatC= 2.08D-09 BMatP= 3.12D-08
 IDIUse=1 WtCom= 1.00D+00 WtEn= 0.00D+00
 Coeff-Com:  0.181D-03-0.199D-02 0.135D-01-0.667D-01 0.334D+00-0.926D+00
 Coeff-Com:  0.165D+01
 Coeff:      0.181D-03-0.199D-02 0.135D-01-0.667D-01 0.334D+00-0.926D+00
 Coeff:      0.165D+01
 Gap=     0.522 Goal=   None    Shift=    0.000
 RMSDP=5.30D-06 MaxDP=5.64D-05 DE=-1.95D-07 OVMax= 2.97D-05

 Cycle   8  Pass 1  IDiag  3:
 E=-0.827641358206108E-01 Delta-E=       -0.000000013222 Rises=F Damp=F
 DIIS: error= 1.21D-06 at cycle   8 NSaved=   8.
 NSaved= 8 IEnMin= 8 EnMin=-0.827641358206108E-01 IErMin= 8 ErrMin= 1.21D-06
 ErrMax= 1.21D-06  0.00D+00 EMaxC= 1.00D-01 BMatC= 8.25D-11 BMatP= 2.08D-09
 IDIUse=1 WtCom= 1.00D+00 WtEn= 0.00D+00
 Coeff-Com: -0.781D-04 0.874D-03-0.592D-02 0.292D-01-0.148D+00 0.428D+00
 Coeff-Com: -0.887D+00 0.158D+01
 Coeff:     -0.781D-04 0.874D-03-0.592D-02 0.292D-01-0.148D+00 0.428D+00
 Coeff:     -0.887D+00 0.158D+01
 Gap=     0.522 Goal=   None    Shift=    0.000
 RMSDP=1.01D-06 MaxDP=9.60D-06 DE=-1.32D-08 OVMax= 7.31D-06

 Cycle   9  Pass 1  IDiag  3:
 E=-0.827641363369480E-01 Delta-E=       -0.000000000516 Rises=F Damp=F
 DIIS: error= 2.08D-07 at cycle   9 NSaved=   9.
 NSaved= 9 IEnMin= 9 EnMin=-0.827641363369480E-01 IErMin= 9 ErrMin= 2.08D-07
 ErrMax= 2.08D-07  0.00D+00 EMaxC= 1.00D-01 BMatC= 4.15D-12 BMatP= 8.25D-11
 IDIUse=1 WtCom= 1.00D+00 WtEn= 0.00D+00
 Coeff-Com:  0.277D-04-0.349D-03 0.249D-02-0.125D-01 0.641D-01-0.189D+00
 Coeff-Com:  0.406D+00-0.869D+00 0.160D+01
 Coeff:      0.277D-04-0.349D-03 0.249D-02-0.125D-01 0.641D-01-0.189D+00
 Coeff:      0.406D+00-0.869D+00 0.160D+01
 Gap=     0.522 Goal=   None    Shift=    0.000
 RMSDP=2.24D-07 MaxDP=1.94D-06 DE=-5.16D-10 OVMax= 1.48D-06

 Cycle  10  Pass 1  IDiag  3:
 E=-0.827641363624991E-01 Delta-E=       -0.000000000026 Rises=F Damp=F
 DIIS: error= 6.39D-08 at cycle  10 NSaved=  10.
 NSaved=10 IEnMin=10 EnMin=-0.827641363624991E-01 IErMin=10 ErrMin= 6.39D-08
 ErrMax= 6.39D-08  0.00D+00 EMaxC= 1.00D-01 BMatC= 2.10D-13 BMatP= 4.15D-12
 IDIUse=1 WtCom= 1.00D+00 WtEn= 0.00D+00
 Coeff-Com: -0.975D-05 0.131D-03-0.954D-03 0.483D-02-0.250D-01 0.741D-01
 Coeff-Com: -0.161D+00 0.360D+00-0.808D+00 0.156D+01
 Coeff:     -0.975D-05 0.131D-03-0.954D-03 0.483D-02-0.250D-01 0.741D-01
 Coeff:     -0.161D+00 0.360D+00-0.808D+00 0.156D+01
 Gap=     0.522 Goal=   None    Shift=    0.000
 RMSDP=5.03D-08 MaxDP=4.47D-07 DE=-2.56D-11 OVMax= 2.37D-07

 Cycle  11  Pass 1  IDiag  3:
 E=-0.827641363639771E-01 Delta-E=       -0.000000000001 Rises=F Damp=F
 DIIS: error= 1.62D-08 at cycle  11 NSaved=  11.
 NSaved=11 IEnMin=11 EnMin=-0.827641363639771E-01 IErMin=11 ErrMin= 1.62D-08
 ErrMax= 1.62D-08  0.00D+00 EMaxC= 1.00D-01 BMatC= 1.21D-14 BMatP= 2.10D-13
 IDIUse=1 WtCom= 1.00D+00 WtEn= 0.00D+00
 Coeff-Com:  0.259D-05-0.337D-04 0.242D-03-0.122D-02 0.632D-02-0.188D-01
 Coeff-Com:  0.411D-01-0.934D-01 0.225D+00-0.618D+00 0.146D+01
 Coeff:      0.259D-05-0.337D-04 0.242D-03-0.122D-02 0.632D-02-0.188D-01
 Coeff:      0.411D-01-0.934D-01 0.225D+00-0.618D+00 0.146D+01
 Gap=     0.522 Goal=   None    Shift=    0.000
 RMSDP=1.21D-08 MaxDP=1.19D-07 DE=-1.48D-12 OVMax= 5.99D-08

 Cycle  12  Pass 1  IDiag  3:
 E=-0.827641363638350E-01 Delta-E=        0.000000000000 Rises=F Damp=F
 DIIS: error= 3.36D-09 at cycle  12 NSaved=  12.
 NSaved=12 IEnMin=11 EnMin=-0.827641363639771E-01 IErMin=12 ErrMin= 3.36D-09
 ErrMax= 3.36D-09  0.00D+00 EMaxC= 1.00D-01 BMatC= 6.87D-16 BMatP= 1.21D-14
 IDIUse=1 WtCom= 1.00D+00 WtEn= 0.00D+00
 Coeff-Com: -0.521D-06 0.658D-05-0.462D-04 0.232D-03-0.120D-02 0.360D-02
 Coeff-Com: -0.791D-02 0.181D-01-0.462D-01 0.164D+00-0.615D+00 0.148D+01
 Coeff:     -0.521D-06 0.658D-05-0.462D-04 0.232D-03-0.120D-02 0.360D-02
 Coeff:     -0.791D-02 0.181D-01-0.462D-01 0.164D+00-0.615D+00 0.148D+01
 Gap=     0.522 Goal=   None    Shift=    0.000
 RMSDP=2.90D-09 MaxDP=2.59D-08 DE= 1.42D-13 OVMax= 1.46D-08

 Cycle  13  Pass 2  IDiag  1:
 SCF Done:  E(RPM3) = -0.827641363638E-01 A.U. after   13 cycles
            NFock= 12  Conv=0.29D-08     -V/T= 0.9986
 KE=-5.968799554737D+01 PE=-2.604923931386D+02 EE= 1.470957365389D+02
 Leave Link  502 at Wed Sep  7 15:36:15 2022, MaxMem=   131072000 cpu:               0.0 elap:               0.0
 (Enter /opt/g16/l601.exe)
 Copying SCF densities to generalized density rwf, IOpCl= 0 IROHF=0.

 **********************************************************************

            Population analysis using the SCF density.

 **********************************************************************

 Orbital symmetries:
       Occupied  (A) (A) (A) (A) (A) (A) (A) (A) (A) (A) (A) (A)
                 (A) (A) (A) (A) (A) (A) (A)
       Virtual   (A) (A) (A) (A) (A) (A) (A) (A) (A) (A) (A) (A)
                 (A) (A) (A) (A) (A)
 The electronic state is 1-A.
 Alpha  occ. eigenvalues --   -1.50212  -1.23394  -1.18426  -0.94693  -0.84429
 Alpha  occ. eigenvalues --   -0.73695  -0.66214  -0.60492  -0.58654  -0.54029
 Alpha  occ. eigenvalues --   -0.53386  -0.51643  -0.47317  -0.47068  -0.45227
 Alpha  occ. eigenvalues --   -0.44480  -0.43760  -0.41704  -0.40623
 Alpha virt. eigenvalues --    0.11478   0.12433   0.12537   0.14039   0.14492
 Alpha virt. eigenvalues --    0.15178   0.15290   0.15953   0.16220   0.16656
 Alpha virt. eigenvalues --    0.17150   0.17561   0.18355   0.18688   0.19055
 Alpha virt. eigenvalues --    0.19450   0.22026
          Condensed to atoms (all electrons):
               1          2          3          4          5          6
     1  C    4.131633   0.000000   0.000000   0.000000   0.000000   0.000000
     2  H    0.000000   0.953068   0.000000   0.000000   0.000000   0.000000
     3  H    0.000000   0.000000   0.967431   0.000000   0.000000   0.000000
     4  H    0.000000   0.000000   0.000000   0.939392   0.000000   0.000000
     5  C    0.000000   0.000000   0.000000   0.000000   4.124919   0.000000
     6  H    0.000000   0.000000   0.000000   0.000000   0.000000   0.951568
     7  H    0.000000   0.000000   0.000000   0.000000   0.000000   0.000000
     8  C    0.000000   0.000000   0.000000   0.000000   0.000000   0.000000
     9  H    0.000000   0.000000   0.000000   0.000000   0.000000   0.000000
    10  O    0.000000   0.000000   0.000000   0.000000   0.000000   0.000000
    11  C    0.000000   0.000000   0.000000   0.000000   0.000000   0.000000
    12  H    0.000000   0.000000   0.000000   0.000000   0.000000   0.000000
    13  H    0.000000   0.000000   0.000000   0.000000   0.000000   0.000000
    14  H    0.000000   0.000000   0.000000   0.000000   0.000000   0.000000
    15  C    0.000000   0.000000   0.000000   0.000000   0.000000   0.000000
    16  H    0.000000   0.000000   0.000000   0.000000   0.000000   0.000000
    17  H    0.000000   0.000000   0.000000   0.000000   0.000000   0.000000
    18  H    0.000000   0.000000   0.000000   0.000000   0.000000   0.000000
               7          8          9         10         11         12
     1  C    0.000000   0.000000   0.000000   0.000000   0.000000   0.000000
     2  H    0.000000   0.000000   0.000000   0.000000   0.000000   0.000000
     3  H    0.000000   0.000000   0.000000   0.000000   0.000000   0.000000
     4  H    0.000000   0.000000   0.000000   0.000000   0.000000   0.000000
     5  C    0.000000   0.000000   0.000000   0.000000   0.000000   0.000000
     6  H    0.000000   0.000000   0.000000   0.000000   0.000000   0.000000
     7  H    0.943446   0.000000   0.000000   0.000000   0.000000   0.000000
     8  C    0.000000   3.901009   0.000000   0.000000   0.000000   0.000000
     9  H    0.000000   0.000000   0.966561   0.000000   0.000000   0.000000
    10  O    0.000000   0.000000   0.000000   6.323298   0.000000   0.000000
    11  C    0.000000   0.000000   0.000000   0.000000   4.116584   0.000000
    12  H    0.000000   0.000000   0.000000   0.000000   0.000000   0.813049
    13  H    0.000000   0.000000   0.000000   0.000000   0.000000   0.000000
    14  H    0.000000   0.000000   0.000000   0.000000   0.000000   0.000000
    15  C    0.000000   0.000000   0.000000   0.000000   0.000000   0.000000
    16  H    0.000000   0.000000   0.000000   0.000000   0.000000   0.000000
    17  H    0.000000   0.000000   0.000000   0.000000   0.000000   0.000000
    18  H    0.000000   0.000000   0.000000   0.000000   0.000000   0.000000
              13         14         15         16         17         18
     1  C    0.000000   0.000000   0.000000   0.000000   0.000000   0.000000
     2  H    0.000000   0.000000   0.000000   0.000000   0.000000   0.000000
     3  H    0.000000   0.000000   0.000000   0.000000   0.000000   0.000000
     4  H    0.000000   0.000000   0.000000   0.000000   0.000000   0.000000
     5  C    0.000000   0.000000   0.000000   0.000000   0.000000   0.000000
     6  H    0.000000   0.000000   0.000000   0.000000   0.000000   0.000000
     7  H    0.000000   0.000000   0.000000   0.000000   0.000000   0.000000
     8  C    0.000000   0.000000   0.000000   0.000000   0.000000   0.000000
     9  H    0.000000   0.000000   0.000000   0.000000   0.000000   0.000000
    10  O    0.000000   0.000000   0.000000   0.000000   0.000000   0.000000
    11  C    0.000000   0.000000   0.000000   0.000000   0.000000   0.000000
    12  H    0.000000   0.000000   0.000000   0.000000   0.000000   0.000000
    13  H    0.931732   0.000000   0.000000   0.000000   0.000000   0.000000
    14  H    0.000000   0.945714   0.000000   0.000000   0.000000   0.000000
    15  C    0.000000   0.000000   4.096733   0.000000   0.000000   0.000000
    16  H    0.000000   0.000000   0.000000   0.972503   0.000000   0.000000
    17  H    0.000000   0.000000   0.000000   0.000000   0.970071   0.000000
    18  H    0.000000   0.000000   0.000000   0.000000   0.000000   0.951288
 Mulliken charges:
               1
     1  C   -0.131633
     2  H    0.046932
     3  H    0.032569
     4  H    0.060608
     5  C   -0.124919
     6  H    0.048432
     7  H    0.056554
     8  C    0.098991
     9  H    0.033439
    10  O   -0.323298
    11  C   -0.116584
    12  H    0.186951
    13  H    0.068268
    14  H    0.054286
    15  C   -0.096733
    16  H    0.027497
    17  H    0.029929
    18  H    0.048712
 Sum of Mulliken charges =   0.00000
 Mulliken charges with hydrogens summed into heavy atoms:
               1
     1  C    0.008475
     5  C   -0.019933
     8  C    0.132430
    10  O   -0.136347
    11  C    0.005970
    15  C    0.009405
 Charge=              0.0000 electrons
 Dipole moment (field-independent basis, Debye):
    X=              0.1857    Y=              0.2100    Z=              1.2822  Tot=              1.3125
 N-N= 1.730018880106D+02 E-N=-2.604923932017D+02  KE=-5.968799554737D+01
 Leave Link  601 at Wed Sep  7 15:36:15 2022, MaxMem=   131072000 cpu:               0.0 elap:               0.0
 (Enter /opt/g16/l701.exe)
 ... and contract with generalized density number  0.
 Compute integral first derivatives.
 Leave Link  701 at Wed Sep  7 15:36:15 2022, MaxMem=   131072000 cpu:               0.0 elap:               0.0
 (Enter /opt/g16/l702.exe)
 L702 exits ... SP integral derivatives will be done elsewhere.
 Leave Link  702 at Wed Sep  7 15:36:15 2022, MaxMem=   131072000 cpu:               0.0 elap:               0.0
 (Enter /opt/g16/l703.exe)
 Integral derivatives from FoFJK, PRISM(SPDF).
 Compute integral first derivatives, UseDBF=F ICtDFT=           0.
 Calling FoFJK, ICntrl=      2127 FMM=F ISym2X=0 I1Cent= 0 IOpClX= 0 NMat=1 NMatS=1 NMatT=0.
 FoFJK:  IHMeth= 9 ICntrl=    2127 DoSepK=F KAlg= 0 I1Cent=           0 FoldK=F
 IRaf=         0 NMat=       1 IRICut=       1 DoRegI=T DoRafI=F ISym2E= 0 IDoP0=3 IntGTp=3.
 FoFCou: FMM=F IPFlag=           0 FMFlag=      100000 FMFlg1=         800
         NFxFlg=           0 DoJE=F BraDBF=F KetDBF=F FulRan=T
         wScrn=  0.000000 ICntrl=      2127 IOpCl=  0 I1Cent=           0 NGrid=           0
         NMat0=    1 NMatS0=      1 NMatT0=    0 NMatD0=    1 NMtDS0=    0 NMtDT0=    0
 Symmetry not used in FoFCou.
 Leave Link  703 at Wed Sep  7 15:36:15 2022, MaxMem=   131072000 cpu:               0.0 elap:               0.0
 (Enter /opt/g16/l716.exe)
 Dipole        = 7.30752312D-02 8.26039215D-02 5.04474868D-01
 ***** Axes restored to original set *****
 -------------------------------------------------------------------
 Center     Atomic                   Forces (Hartrees/Bohr)
 Number     Number              X              Y              Z
 -------------------------------------------------------------------
      1        6          -0.004992365   -0.023852110    0.012507973
      2        1           0.002997053    0.006777990    0.002396261
      3        1          -0.013621838    0.008045406   -0.013684853
      4        1           0.014991389    0.006320219   -0.000551767
      5        6           0.007852325   -0.074524673    0.040311820
      6        1           0.004663777    0.005375683   -0.004520482
      7        1          -0.004385462   -0.009217657   -0.019357584
      8        6          -0.030246330    0.061388239   -0.009186684
      9        1          -0.005417558   -0.002015992    0.004297278
     10        8          -0.008523744    0.028924833    0.049007238
     11        6           0.008513540    0.049816454   -0.019979844
     12        1           0.015150362   -0.017344705   -0.033652493
     13        1           0.006918965    0.006014790   -0.003287629
     14        1          -0.004258704   -0.007359325   -0.003292878
     15        6           0.032445510   -0.049875965   -0.038096400
     16        1          -0.021418990    0.003972330   -0.007274778
     17        1          -0.012065786   -0.005709850    0.019524393
     18        1           0.011397855    0.013264333    0.024840430
 -------------------------------------------------------------------
 Cartesian Forces:  Max     0.074524673 RMS     0.023265940
 Leave Link  716 at Wed Sep  7 15:36:15 2022, MaxMem=   131072000 cpu:               0.0 elap:               0.0
 (Enter /opt/g16/l103.exe)

 GradGradGradGradGradGradGradGradGradGradGradGradGradGradGradGradGradGrad
 Berny optimization.
 FormGI is forming the generalized inverse of G from B-inverse, IUseBI=4.
 Internal  Forces:  Max     0.082533267 RMS     0.014626213
 Search for a local minimum.
 Step number   1 out of a maximum of   97
 All quantities printed in internal units (Hartrees-Bohrs-Radians)
 RMS Force = .14626D-01 SwitMx=.10000D-02 MixMth= 1
 Mixed Optimization -- RFO/linear search
 Second derivative matrix not updated -- first step.
 ITU=  0
     Eigenvalues ---    0.00230   0.00362   0.00776   0.01523   0.01668
     Eigenvalues ---    0.04018   0.04146   0.04721   0.04760   0.04906
     Eigenvalues ---    0.04986   0.05243   0.05370   0.05726   0.05828
     Eigenvalues ---    0.07670   0.08080   0.08201   0.11653   0.12028
     Eigenvalues ---    0.16000   0.16000   0.16000   0.16000   0.16000
     Eigenvalues ---    0.16000   0.16000   0.17101   0.19761   0.21684
     Eigenvalues ---    0.21711   0.23763   0.29371   0.29692   0.30781
     Eigenvalues ---    0.30826   0.31705   0.32453   0.33609   0.34211
     Eigenvalues ---    0.34348   0.34761   0.36486   0.37767   0.39209
     Eigenvalues ---    0.39440   0.45325   0.50340
 RFO step:  Lambda=-5.43059716D-02 EMin= 2.30000000D-03
 Linear search not attempted -- first point.
 Maximum step size (   0.300) exceeded in Quadratic search.
    -- Step size scaled by   0.744
 Iteration  1 RMS(Cart)=  0.08968961 RMS(Int)=  0.00370580
 Iteration  2 RMS(Cart)=  0.00383930 RMS(Int)=  0.00041176
 Iteration  3 RMS(Cart)=  0.00001100 RMS(Int)=  0.00041163
 Iteration  4 RMS(Cart)=  0.00000000 RMS(Int)=  0.00041163
 ITry= 1 IFail=0 DXMaxC= 3.00D-01 DCOld= 1.00D+10 DXMaxT= 3.00D-01 DXLimC= 3.00D+00 Rises=F
 Variable       Old X    -DE/DX   Delta X   Delta X   Delta X     New X
                                 (Linear)    (Quad)   (Total)
    R1        2.06975  -0.00046   0.00000  -0.00086  -0.00086   2.06890
    R2        2.13133  -0.01481   0.00000  -0.03045  -0.03045   2.10088
    R3        2.06065   0.00732   0.00000   0.01356   0.01356   2.07421
    R4        2.89236   0.00048   0.00000   0.00102   0.00102   2.89338
    R5        2.13047  -0.00757   0.00000  -0.01555  -0.01555   2.11492
    R6        2.03328   0.02155   0.00000   0.03827   0.03827   2.07155
    R7        2.72642   0.08253   0.00000   0.13765   0.13765   2.86407
    R8        2.11386   0.00312   0.00000   0.00626   0.00626   2.12012
    R9        2.64901   0.02029   0.00000   0.02976   0.02976   2.67877
   R10        2.83322   0.03641   0.00000   0.07156   0.07156   2.90478
   R11        1.86223  -0.03818   0.00000  -0.05096  -0.05096   1.81127
   R12        2.07995   0.00441   0.00000   0.00842   0.00842   2.08837
   R13        2.06746   0.00712   0.00000   0.01333   0.01333   2.08080
   R14        3.02461  -0.03860   0.00000  -0.09842  -0.09842   2.92618
   R15        2.01405   0.02279   0.00000   0.03928   0.03928   2.05333
   R16        2.15281  -0.02364   0.00000  -0.05012  -0.05012   2.10269
   R17        1.99022   0.02928   0.00000   0.04859   0.04859   2.03880
    A1        1.81327   0.00808   0.00000   0.02004   0.01913   1.83241
    A2        2.02710  -0.01218   0.00000  -0.04651  -0.04671   1.98039
    A3        1.94772   0.00258   0.00000   0.00164   0.00100   1.94872
    A4        1.75070   0.00520   0.00000   0.03233   0.03415   1.78485
    A5        2.08678  -0.02226   0.00000  -0.07607  -0.07571   2.01107
    A6        1.83918   0.01617   0.00000   0.06195   0.06281   1.90199
    A7        1.88231  -0.00730   0.00000  -0.00973  -0.00966   1.87265
    A8        1.93247  -0.01062   0.00000  -0.02872  -0.02807   1.90439
    A9        1.90327   0.02987   0.00000   0.08441   0.08472   1.98799
   A10        1.80045   0.00661   0.00000   0.01135   0.01052   1.81097
   A11        1.96793  -0.00973   0.00000  -0.02674  -0.02755   1.94038
   A12        1.97407  -0.01100   0.00000  -0.03615  -0.03606   1.93801
   A13        1.93585  -0.00229   0.00000  -0.02432  -0.02429   1.91156
   A14        1.94637   0.00261   0.00000   0.01262   0.01279   1.95915
   A15        2.01285  -0.00928   0.00000  -0.02211  -0.02234   1.99051
   A16        1.92357  -0.00451   0.00000  -0.01976  -0.02018   1.90340
   A17        1.83407   0.00522   0.00000   0.01976   0.01946   1.85353
   A18        1.80385   0.00883   0.00000   0.03685   0.03685   1.84070
   A19        2.02335  -0.02653   0.00000  -0.09217  -0.09217   1.93117
   A20        1.89025   0.00193   0.00000   0.02039   0.02089   1.91113
   A21        2.00104  -0.00973   0.00000  -0.03580  -0.03582   1.96522
   A22        1.88364   0.01553   0.00000   0.04488   0.04500   1.92864
   A23        1.84874   0.00294   0.00000   0.00267   0.00260   1.85134
   A24        1.98557  -0.01104   0.00000  -0.03958  -0.04018   1.94539
   A25        1.85764  -0.00087   0.00000   0.00291   0.00323   1.86087
   A26        1.88647   0.00498   0.00000   0.02059   0.02068   1.90715
   A27        1.89849   0.00167   0.00000   0.00399   0.00378   1.90227
   A28        2.03611  -0.01157   0.00000  -0.04186  -0.04186   1.99424
   A29        1.88313  -0.00168   0.00000  -0.00217  -0.00229   1.88084
   A30        1.87790   0.00401   0.00000   0.01665   0.01690   1.89480
   A31        1.87673   0.00305   0.00000   0.00486   0.00460   1.88132
    D1        2.79069  -0.00135   0.00000  -0.00715  -0.00715   2.78354
    D2        0.83280   0.00011   0.00000  -0.00089  -0.00076   0.83204
    D3       -1.35000   0.00035   0.00000   0.00532   0.00571  -1.34429
    D4        0.67137   0.00299   0.00000   0.02483   0.02395   0.69532
    D5       -1.28653   0.00446   0.00000   0.03110   0.03034  -1.25619
    D6        2.81386   0.00469   0.00000   0.03731   0.03681   2.85067
    D7       -1.27774  -0.00360   0.00000  -0.02089  -0.02053  -1.29827
    D8        3.04755  -0.00214   0.00000  -0.01463  -0.01414   3.03341
    D9        0.86475  -0.00190   0.00000  -0.00842  -0.00767   0.85708
   D10       -3.04131  -0.00060   0.00000  -0.00706  -0.00692  -3.04823
   D11       -0.89020  -0.00621   0.00000  -0.04111  -0.04111  -0.93132
   D12        1.16001   0.00083   0.00000   0.00101   0.00080   1.16081
   D13       -0.95102   0.00434   0.00000   0.02111   0.02093  -0.93009
   D14        1.20009  -0.00127   0.00000  -0.01294  -0.01326   1.18682
   D15       -3.03289   0.00577   0.00000   0.02917   0.02865  -3.00423
   D16        1.08356  -0.00136   0.00000  -0.00735  -0.00683   1.07672
   D17       -3.04852  -0.00697   0.00000  -0.04141  -0.04103  -3.08955
   D18       -0.99831   0.00007   0.00000   0.00071   0.00089  -0.99742
   D19       -1.48377   0.00096   0.00000   0.02274   0.02295  -1.46082
   D20        0.67431  -0.00339   0.00000  -0.01383  -0.01354   0.66076
   D21        2.62671   0.00508   0.00000   0.01883   0.01834   2.64505
   D22       -1.14253  -0.00405   0.00000  -0.02646  -0.02618  -1.16871
   D23        0.91730  -0.00503   0.00000  -0.03106  -0.03097   0.88634
   D24        2.98377  -0.00130   0.00000  -0.01818  -0.01866   2.96511
   D25        3.00343   0.00079   0.00000   0.00364   0.00421   3.00764
   D26       -1.21993  -0.00018   0.00000  -0.00096  -0.00057  -1.22050
   D27        0.84654   0.00355   0.00000   0.01192   0.01173   0.85827
   D28        0.98620   0.00010   0.00000   0.00258   0.00267   0.98887
   D29        3.04603  -0.00088   0.00000  -0.00202  -0.00211   3.04391
   D30       -1.17069   0.00286   0.00000   0.01086   0.01019  -1.16050
   D31       -1.00423   0.00321   0.00000   0.01474   0.01447  -0.98976
   D32       -3.04454   0.00158   0.00000   0.00390   0.00356  -3.04098
   D33        1.11321   0.00443   0.00000   0.02401   0.02350   1.13671
   D34       -3.10218  -0.00309   0.00000  -0.01734  -0.01692  -3.11910
   D35        1.14070  -0.00472   0.00000  -0.02818  -0.02783   1.11287
   D36       -0.98474  -0.00187   0.00000  -0.00807  -0.00789  -0.99263
   D37        1.15187  -0.00009   0.00000  -0.00083  -0.00068   1.15120
   D38       -0.88844  -0.00172   0.00000  -0.01168  -0.01159  -0.90002
   D39       -3.01387   0.00113   0.00000   0.00844   0.00836  -3.00551
         Item               Value     Threshold  Converged?
 Maximum Force            0.082533     0.000450     NO 
 RMS     Force            0.014626     0.000300     NO 
 Maximum Displacement     0.299933     0.001800     NO 
 RMS     Displacement     0.088824     0.001200     NO 
 Predicted change in Energy=-2.817378D-02
 Lowest energy point so far.  Saving SCF results.
 GradGradGradGradGradGradGradGradGradGradGradGradGradGradGradGradGradGrad

 Leave Link  103 at Wed Sep  7 15:36:15 2022, MaxMem=   131072000 cpu:               0.0 elap:               0.0
 (Enter /opt/g16/l202.exe)
                          Input orientation:                          
 ---------------------------------------------------------------------
 Center     Atomic      Atomic             Coordinates (Angstroms)
 Number     Number       Type             X           Y           Z
 ---------------------------------------------------------------------
      1          6           0        9.087509    8.623996    3.416048
      2          1           0        9.809030    8.517878    2.599493
      3          1           0        9.047552    7.622210    3.896453
      4          1           0        9.444938    9.261282    4.235129
      5          6           0        7.743981    9.162157    2.916437
      6          1           0        6.972666    8.893487    3.681567
      7          1           0        7.438542    8.596519    2.028486
      8          6           0        7.744124   10.652145    2.638985
      9          1           0        6.705968   10.984116    2.373024
     10          8           0        8.200401   11.404997    3.750044
     11          6           0        8.642362   11.070374    1.463802
     12          1           0        7.486287   11.558159    4.370747
     13          1           0        9.700907   10.893589    1.727461
     14          1           0        8.451883   10.479417    0.554445
     15          6           0        8.391429   12.551913    1.089854
     16          1           0        7.338546   12.690338    0.859807
     17          1           0        8.974143   12.798029    0.174450
     18          1           0        8.670731   13.256394    1.857769
 ---------------------------------------------------------------------
                    Distance matrix (angstroms):
                    1          2          3          4          5
     1  C    0.000000
     2  H    1.094813   0.000000
     3  H    1.111738   1.750479   0.000000
     4  H    1.097626   1.833172   1.720225   0.000000
     5  C    1.531110   2.186316   2.243027   2.154537   0.000000
     6  H    2.148415   3.058910   2.442842   2.560046   1.119167
     7  H    2.155268   2.439559   2.650943   3.055619   1.096219
     8  C    2.553800   2.969931   3.529966   2.715684   1.515599
     9  H    3.511381   3.970215   4.371071   3.733302   2.166171
    10  O    2.938108   3.499558   3.879250   2.525805   2.435888
    11  C    3.161358   3.027564   4.239317   3.405466   2.560963
    12  H    3.476302   4.216134   4.260775   3.021647   2.814649
    13  H    2.894586   2.533008   3.979110   3.003055   2.870728
    14  H    3.469205   3.141927   4.437057   4.002180   2.795587
    15  C    4.617817   4.534538   5.710470   4.672353   3.904617
    16  H    5.111592   5.151623   6.150434   5.252438   4.103920
    17  H    5.286148   4.989746   6.375563   5.405492   4.717134
    18  H    4.905206   4.929443   6.003521   4.712977   4.329252
                    6          7          8          9         10
     6  H    0.000000
     7  H    1.742959   0.000000
     8  C    2.185178   2.166030   0.000000
     9  H    2.480754   2.521108   1.121921   0.000000
    10  O    2.796374   3.381085   1.417542   2.075248   0.000000
    11  C    3.527776   2.808560   1.537141   2.140969   2.352489
    12  H    2.799867   3.776213   1.971381   2.220207   0.958484
    13  H    3.906691   3.238123   2.172135   3.065062   2.569805
    14  H    3.805542   2.597107   2.208182   2.571025   3.336434
    15  C    4.702546   4.175423   2.535336   2.635391   2.903190
    16  H    4.744710   4.258540   2.735727   2.366680   3.278470
    17  H    5.617048   4.842335   3.491661   3.642613   3.914599
    18  H    5.024403   4.823056   2.872458   3.047791   2.688789
                   11         12         13         14         15
    11  C    0.000000
    12  H    3.166193   0.000000
    13  H    1.105119   3.511860   0.000000
    14  H    1.101110   4.081694   1.762829   0.000000
    15  C    1.548470   3.545573   2.207106   2.141391   0.000000
    16  H    2.165417   3.691932   3.092230   2.494180   1.086575
    17  H    2.181123   4.621678   2.562601   2.406888   1.112697
    18  H    2.221418   3.256067   2.580910   3.075411   1.078887
                   16         17         18
    16  H    0.000000
    17  H    1.776651   0.000000
    18  H    1.758143   1.770797   0.000000
 Stoichiometry    C5H12O
 Framework group  C1[X(C5H12O)]
 Deg. of freedom    48
 Full point group                 C1      NOp   1
 RotChk:  IX=0 Diff= 6.83D-02
 Largest Abelian subgroup         C1      NOp   1
 Largest concise Abelian subgroup C1      NOp   1
                         Standard orientation:                         
 ---------------------------------------------------------------------
 Center     Atomic      Atomic             Coordinates (Angstroms)
 Number     Number       Type             X           Y           Z
 ---------------------------------------------------------------------
      1          6           0        2.157035   -0.480840   -0.560802
      2          1           0        1.859973   -1.440499   -0.996030
      3          1           0        3.260691   -0.547153   -0.444581
      4          1           0        2.045689    0.365329   -1.251007
      5          6           0        1.382396   -0.179705    0.725103
      6          1           0        1.972361    0.578595    1.299086
      7          1           0        1.399198   -1.065893    1.370150
      8          6           0       -0.037523    0.295143    0.489751
      9          1           0       -0.502599    0.586230    1.468363
     10          8           0       -0.094069    1.400113   -0.396403
     11          6           0       -0.960596   -0.769911   -0.123764
     12          1           0        0.062549    2.219810    0.075040
     13          1           0       -0.628907   -0.996772   -1.153232
     14          1           0       -0.928181   -1.724389    0.424290
     15          6           0       -2.433398   -0.292626   -0.095259
     16          1           0       -2.714719   -0.058342    0.927782
     17          1           0       -3.089074   -1.120107   -0.446628
     18          1           0       -2.631913    0.569924   -0.712185
 ---------------------------------------------------------------------
 Rotational constants (GHZ):           5.8799739           2.1215807           1.8746262
 Leave Link  202 at Wed Sep  7 15:36:15 2022, MaxMem=   131072000 cpu:               0.0 elap:               0.0
 (Enter /opt/g16/l301.exe)
 Standard basis: VSTO-6G (5D, 7F)
 Ernie: Thresh=  0.10000D-02 Tol=  0.10000D-05 Strict=F.
  NNHCO=     0 NNPyr=     0 NCTC=     0               EPep=         0.000000000
    EC=       128.770491809  ECS=         2.190882716   EG=         0.560967151
   EHC=         0.000000000  EAt=       -36.836480110  AtH=         2.452923921
 EPDDG=         0.000000000  ECC=       131.522341677 EAtT=        39.289404030
 There are    36 symmetry adapted cartesian basis functions of A   symmetry.
 There are    36 symmetry adapted basis functions of A   symmetry.
    36 basis functions,   216 primitive gaussians,    36 cartesian basis functions
    19 alpha electrons       19 beta electrons
       nuclear repulsion energy       170.8117457074 Hartrees.
 IExCor=    0 DFT=F Ex=HF Corr=None ExCW=0 ScaHFX=  1.000000
 ScaDFX=  1.000000  1.000000  1.000000  1.000000 ScalE2=  1.000000  1.000000
 IRadAn=      5 IRanWt=     -1 IRanGd=            0 ICorTp=0 IEmpDi=  4
 Integral buffers will be    131072 words long.
 Regular integral format.
 Two-electron integral symmetry is turned off.
 Leave Link  301 at Wed Sep  7 15:36:15 2022, MaxMem=   131072000 cpu:               0.0 elap:               0.0
 (Enter /opt/g16/l302.exe)
 Do NDO integrals.
 NPDir=0 NMtPBC=     1 NCelOv=     1 NCel=       1 NClECP=     1 NCelD=      1
         NCelK=      1 NCelE2=     1 NClLst=     1 CellRange=     0.0.
 One-electron integrals computed using PRISM.
 NBasis=    36 RedAO= F EigKep=  0.00D+00  NBF=    36
 NBsUse=    36 1.00D-04 EigRej=  0.00D+00 NBFU=    36
 Leave Link  302 at Wed Sep  7 15:36:15 2022, MaxMem=   131072000 cpu:               0.0 elap:               0.0
 (Enter /opt/g16/l303.exe)
 DipDrv:  MaxL=1.
 Leave Link  303 at Wed Sep  7 15:36:15 2022, MaxMem=   131072000 cpu:               0.0 elap:               0.0
 (Enter /opt/g16/l401.exe)
 Initial guess from the checkpoint file:  "MD_extract_020_gaussian.chk"
 B after Tr=    -0.000000   -0.000000    0.000000
         Rot=    0.999769    0.020938    0.002431   -0.004090 Ang=   2.46 deg.
 Guess basis will be translated and rotated to current coordinates.
 JPrj=0 DoOrth=T DoCkMO=T.
 Leave Link  401 at Wed Sep  7 15:36:15 2022, MaxMem=   131072000 cpu:               0.0 elap:               0.0
 (Enter /opt/g16/l502.exe)
 Keep J ints in memory in canonical form, NReq=862161.
 FoFCou: FMM=F IPFlag=           0 FMFlag=           0 FMFlg1=           0
         NFxFlg=           0 DoJE=F BraDBF=F KetDBF=F FulRan=T
         wScrn=  0.000000 ICntrl=       600 IOpCl=  2 I1Cent=           0 NGrid=           0
         NMat0=    1 NMatS0=     72 NMatT0=    0 NMatD0=    1 NMtDS0=    0 NMtDT0=    0
 Symmetry not used in FoFCou.
 Two-electron integral symmetry not used.
 Closed shell SCF:
 Using DIIS extrapolation, IDIIS=  1040.
 Overlap will be assumed to be unity.
 NGot=   131072000 LenX=   131006778 LenY=   131005041
 Requested convergence on RMS density matrix=1.00D-08 within 128 cycles.
 Requested convergence on MAX density matrix=1.00D-06.
 Requested convergence on             energy=1.00D-06.
 No special actions if energy rises.

 Cycle   1  Pass 1  IDiag  1:
 E=-0.939903881926796E-01
 DIIS: error= 9.20D-03 at cycle   1 NSaved=   1.
 NSaved= 1 IEnMin= 1 EnMin=-0.939903881926796E-01 IErMin= 1 ErrMin= 9.20D-03
 ErrMax= 9.20D-03  0.00D+00 EMaxC= 1.00D-01 BMatC= 3.47D-03 BMatP= 3.47D-03
 IDIUse=3 WtCom= 9.08D-01 WtEn= 9.20D-02
 Coeff-Com:  0.100D+01
 Coeff-En:   0.100D+01
 Coeff:      0.100D+01
 GapD=    2.000 DampG=2.000 DampE=1.000 DampFc=2.0000 IDamp=-1.
 RMSDP=2.90D-03 MaxDP=2.33D-02              OVMax= 0.00D+00

 Cycle   2  Pass 1  IDiag  3:
 E=-0.105644609474837     Delta-E=       -0.011654221282 Rises=F Damp=F
 DIIS: error= 4.09D-03 at cycle   2 NSaved=   2.
 NSaved= 2 IEnMin= 2 EnMin=-0.105644609474837     IErMin= 2 ErrMin= 4.09D-03
 ErrMax= 4.09D-03  0.00D+00 EMaxC= 1.00D-01 BMatC= 5.05D-04 BMatP= 3.47D-03
 IDIUse=3 WtCom= 9.59D-01 WtEn= 4.09D-02
 Coeff-Com: -0.523D+00 0.152D+01
 Coeff-En:   0.000D+00 0.100D+01
 Coeff:     -0.502D+00 0.150D+01
 Gap=     0.524 Goal=   None    Shift=    0.000
 RMSDP=1.83D-03 MaxDP=1.58D-02 DE=-1.17D-02 OVMax= 9.36D-03

 Cycle   3  Pass 1  IDiag  3:
 E=-0.108019242712174     Delta-E=       -0.002374633237 Rises=F Damp=F
 DIIS: error= 7.24D-04 at cycle   3 NSaved=   3.
 NSaved= 3 IEnMin= 3 EnMin=-0.108019242712174     IErMin= 3 ErrMin= 7.24D-04
 ErrMax= 7.24D-04  0.00D+00 EMaxC= 1.00D-01 BMatC= 1.67D-05 BMatP= 5.05D-04
 IDIUse=3 WtCom= 9.93D-01 WtEn= 7.24D-03
 Coeff-Com:  0.196D+00-0.688D+00 0.149D+01
 Coeff-En:   0.000D+00 0.000D+00 0.100D+01
 Coeff:      0.194D+00-0.683D+00 0.149D+01
 Gap=     0.524 Goal=   None    Shift=    0.000
 RMSDP=4.12D-04 MaxDP=3.40D-03 DE=-2.37D-03 OVMax= 2.72D-03

 Cycle   4  Pass 1  IDiag  3:
 E=-0.108111979600636     Delta-E=       -0.000092736888 Rises=F Damp=F
 DIIS: error= 1.85D-04 at cycle   4 NSaved=   4.
 NSaved= 4 IEnMin= 4 EnMin=-0.108111979600636     IErMin= 4 ErrMin= 1.85D-04
 ErrMax= 1.85D-04  0.00D+00 EMaxC= 1.00D-01 BMatC= 5.42D-07 BMatP= 1.67D-05
 IDIUse=3 WtCom= 9.98D-01 WtEn= 1.85D-03
 Coeff-Com: -0.842D-01 0.304D+00-0.743D+00 0.152D+01
 Coeff-En:   0.000D+00 0.000D+00 0.000D+00 0.100D+01
 Coeff:     -0.840D-01 0.303D+00-0.742D+00 0.152D+01
 Gap=     0.524 Goal=   None    Shift=    0.000
 RMSDP=7.86D-05 MaxDP=1.04D-03 DE=-9.27D-05 OVMax= 9.45D-04

 Cycle   5  Pass 1  IDiag  3:
 E=-0.108115684921501     Delta-E=       -0.000003705321 Rises=F Damp=F
 DIIS: error= 7.07D-05 at cycle   5 NSaved=   5.
 NSaved= 5 IEnMin= 5 EnMin=-0.108115684921501     IErMin= 5 ErrMin= 7.07D-05
 ErrMax= 7.07D-05  0.00D+00 EMaxC= 1.00D-01 BMatC= 6.40D-08 BMatP= 5.42D-07
 IDIUse=1 WtCom= 1.00D+00 WtEn= 0.00D+00
 Coeff-Com:  0.516D-01-0.188D+00 0.474D+00-0.122D+01 0.188D+01
 Coeff:      0.516D-01-0.188D+00 0.474D+00-0.122D+01 0.188D+01
 Gap=     0.524 Goal=   None    Shift=    0.000
 RMSDP=3.78D-05 MaxDP=5.33D-04 DE=-3.71D-06 OVMax= 5.38D-04

 Cycle   6  Pass 1  IDiag  3:
 E=-0.108116237289778     Delta-E=       -0.000000552368 Rises=F Damp=F
 DIIS: error= 1.16D-05 at cycle   6 NSaved=   6.
 NSaved= 6 IEnMin= 6 EnMin=-0.108116237289778     IErMin= 6 ErrMin= 1.16D-05
 ErrMax= 1.16D-05  0.00D+00 EMaxC= 1.00D-01 BMatC= 2.97D-09 BMatP= 6.40D-08
 IDIUse=1 WtCom= 1.00D+00 WtEn= 0.00D+00
 Coeff-Com: -0.173D-01 0.629D-01-0.160D+00 0.438D+00-0.832D+00 0.151D+01
 Coeff:     -0.173D-01 0.629D-01-0.160D+00 0.438D+00-0.832D+00 0.151D+01
 Gap=     0.524 Goal=   None    Shift=    0.000
 RMSDP=7.54D-06 MaxDP=9.65D-05 DE=-5.52D-07 OVMax= 1.10D-04

 Cycle   7  Pass 1  IDiag  3:
 E=-0.108116259885350     Delta-E=       -0.000000022596 Rises=F Damp=F
 DIIS: error= 1.89D-06 at cycle   7 NSaved=   7.
 NSaved= 7 IEnMin= 7 EnMin=-0.108116259885350     IErMin= 7 ErrMin= 1.89D-06
 ErrMax= 1.89D-06  0.00D+00 EMaxC= 1.00D-01 BMatC= 1.48D-10 BMatP= 2.97D-09
 IDIUse=1 WtCom= 1.00D+00 WtEn= 0.00D+00
 Coeff-Com:  0.276D-02-0.100D-01 0.258D-01-0.743D-01 0.165D+00-0.486D+00
 Coeff-Com:  0.138D+01
 Coeff:      0.276D-02-0.100D-01 0.258D-01-0.743D-01 0.165D+00-0.486D+00
 Coeff:      0.138D+01
 Gap=     0.524 Goal=   None    Shift=    0.000
 RMSDP=1.36D-06 MaxDP=1.31D-05 DE=-2.26D-08 OVMax= 1.78D-05

 Cycle   8  Pass 1  IDiag  3:
 E=-0.108116260817781     Delta-E=       -0.000000000932 Rises=F Damp=F
 DIIS: error= 3.51D-07 at cycle   8 NSaved=   8.
 NSaved= 8 IEnMin= 8 EnMin=-0.108116260817781     IErMin= 8 ErrMin= 3.51D-07
 ErrMax= 3.51D-07  0.00D+00 EMaxC= 1.00D-01 BMatC= 8.53D-12 BMatP= 1.48D-10
 IDIUse=1 WtCom= 1.00D+00 WtEn= 0.00D+00
 Coeff-Com: -0.514D-03 0.186D-02-0.483D-02 0.148D-01-0.364D-01 0.136D+00
 Coeff-Com: -0.577D+00 0.147D+01
 Coeff:     -0.514D-03 0.186D-02-0.483D-02 0.148D-01-0.364D-01 0.136D+00
 Coeff:     -0.577D+00 0.147D+01
 Gap=     0.524 Goal=   None    Shift=    0.000
 RMSDP=3.18D-07 MaxDP=2.26D-06 DE=-9.32D-10 OVMax= 3.44D-06

 Cycle   9  Pass 1  IDiag  3:
 E=-0.108116260868968     Delta-E=       -0.000000000051 Rises=F Damp=F
 DIIS: error= 9.55D-08 at cycle   9 NSaved=   9.
 NSaved= 9 IEnMin= 9 EnMin=-0.108116260868968     IErMin= 9 ErrMin= 9.55D-08
 ErrMax= 9.55D-08  0.00D+00 EMaxC= 1.00D-01 BMatC= 3.59D-13 BMatP= 8.53D-12
 IDIUse=1 WtCom= 1.00D+00 WtEn= 0.00D+00
 Coeff-Com:  0.106D-03-0.383D-03 0.101D-02-0.338D-02 0.951D-02-0.421D-01
 Coeff-Com:  0.203D+00-0.651D+00 0.148D+01
 Coeff:      0.106D-03-0.383D-03 0.101D-02-0.338D-02 0.951D-02-0.421D-01
 Coeff:      0.203D+00-0.651D+00 0.148D+01
 Gap=     0.524 Goal=   None    Shift=    0.000
 RMSDP=6.36D-08 MaxDP=5.67D-07 DE=-5.12D-11 OVMax= 6.03D-07

 Cycle  10  Pass 1  IDiag  3:
 E=-0.108116260870986     Delta-E=       -0.000000000002 Rises=F Damp=F
 DIIS: error= 2.43D-08 at cycle  10 NSaved=  10.
 NSaved=10 IEnMin=10 EnMin=-0.108116260870986     IErMin=10 ErrMin= 2.43D-08
 ErrMax= 2.43D-08  0.00D+00 EMaxC= 1.00D-01 BMatC= 2.23D-14 BMatP= 3.59D-13
 IDIUse=1 WtCom= 1.00D+00 WtEn= 0.00D+00
 Coeff-Com: -0.255D-04 0.922D-04-0.251D-03 0.967D-03-0.320D-02 0.164D-01
 Coeff-Com: -0.836D-01 0.285D+00-0.816D+00 0.160D+01
 Coeff:     -0.255D-04 0.922D-04-0.251D-03 0.967D-03-0.320D-02 0.164D-01
 Coeff:     -0.836D-01 0.285D+00-0.816D+00 0.160D+01
 Gap=     0.524 Goal=   None    Shift=    0.000
 RMSDP=1.70D-08 MaxDP=1.44D-07 DE=-2.02D-12 OVMax= 1.59D-07

 Cycle  11  Pass 1  IDiag  3:
 E=-0.108116260871242     Delta-E=       -0.000000000000 Rises=F Damp=F
 DIIS: error= 5.33D-09 at cycle  11 NSaved=  11.
 NSaved=11 IEnMin=11 EnMin=-0.108116260871242     IErMin=11 ErrMin= 5.33D-09
 ErrMax= 5.33D-09  0.00D+00 EMaxC= 1.00D-01 BMatC= 1.15D-15 BMatP= 2.23D-14
 IDIUse=1 WtCom= 1.00D+00 WtEn= 0.00D+00
 Coeff-Com:  0.562D-05-0.204D-04 0.587D-04-0.268D-03 0.101D-02-0.564D-02
 Coeff-Com:  0.295D-01-0.103D+00 0.314D+00-0.773D+00 0.154D+01
 Coeff:      0.562D-05-0.204D-04 0.587D-04-0.268D-03 0.101D-02-0.564D-02
 Coeff:      0.295D-01-0.103D+00 0.314D+00-0.773D+00 0.154D+01
 Gap=     0.524 Goal=   None    Shift=    0.000
 RMSDP=3.87D-09 MaxDP=3.47D-08 DE=-2.56D-13 OVMax= 4.16D-08

 Cycle  12  Pass 2  IDiag  1:
 SCF Done:  E(RPM3) = -0.108116260871     A.U. after   12 cycles
            NFock= 11  Conv=0.39D-08     -V/T= 0.9982
 KE=-5.962259842877D+01 PE=-2.562646036473D+02 EE= 1.449673401078D+02
 Leave Link  502 at Wed Sep  7 15:36:15 2022, MaxMem=   131072000 cpu:               0.0 elap:               0.0
 (Enter /opt/g16/l701.exe)
 ... and contract with generalized density number  0.
 Compute integral first derivatives.
 Leave Link  701 at Wed Sep  7 15:36:15 2022, MaxMem=   131072000 cpu:               0.0 elap:               0.0
 (Enter /opt/g16/l702.exe)
 L702 exits ... SP integral derivatives will be done elsewhere.
 Leave Link  702 at Wed Sep  7 15:36:16 2022, MaxMem=   131072000 cpu:               0.0 elap:               0.0
 (Enter /opt/g16/l703.exe)
 Integral derivatives from FoFJK, PRISM(SPDF).
 Compute integral first derivatives, UseDBF=F ICtDFT=           0.
 Calling FoFJK, ICntrl=      2127 FMM=F ISym2X=0 I1Cent= 0 IOpClX= 0 NMat=1 NMatS=1 NMatT=0.
 FoFJK:  IHMeth= 9 ICntrl=    2127 DoSepK=F KAlg= 0 I1Cent=           0 FoldK=F
 IRaf=         0 NMat=       1 IRICut=       1 DoRegI=T DoRafI=F ISym2E= 0 IDoP0=3 IntGTp=3.
 FoFCou: FMM=F IPFlag=           0 FMFlag=      100000 FMFlg1=         800
         NFxFlg=           0 DoJE=F BraDBF=F KetDBF=F FulRan=T
         wScrn=  0.000000 ICntrl=      2127 IOpCl=  0 I1Cent=           0 NGrid=           0
         NMat0=    1 NMatS0=      1 NMatT0=    0 NMatD0=    1 NMtDS0=    0 NMtDT0=    0
 Symmetry not used in FoFCou.
 Leave Link  703 at Wed Sep  7 15:36:16 2022, MaxMem=   131072000 cpu:               0.0 elap:               0.0
 (Enter /opt/g16/l716.exe)
 Dipole        = 9.84151911D-02 3.76330868D-02 5.30756074D-01
 ***** Axes restored to original set *****
 -------------------------------------------------------------------
 Center     Atomic                   Forces (Hartrees/Bohr)
 Number     Number              X              Y              Z
 -------------------------------------------------------------------
      1        6          -0.009918067   -0.004136793    0.006104103
      2        1           0.002922430    0.006028392    0.001678214
      3        1          -0.007445228    0.003677210   -0.007163626
      4        1           0.007366648    0.003573771   -0.004870645
      5        6           0.008142536   -0.021299674    0.016714146
      6        1           0.002539084    0.005438980   -0.002895958
      7        1          -0.001429042   -0.000610601   -0.008118903
      8        6          -0.005969676    0.016621225   -0.004631275
      9        1          -0.000766003   -0.003162876    0.002723122
     10        8          -0.003675807    0.003613230    0.011546422
     11        6          -0.000868661    0.020383952   -0.000201764
     12        1           0.005747184   -0.007447818   -0.012330996
     13        1           0.001806678    0.001635715   -0.000681241
     14        1          -0.002595527   -0.006567347    0.000987744
     15        6           0.012210152   -0.026004192   -0.013902426
     16        1          -0.006749916    0.003590216   -0.001954685
     17        1          -0.004840420   -0.000133420    0.007824115
     18        1           0.003523634    0.004800029    0.009173654
 -------------------------------------------------------------------
 Cartesian Forces:  Max     0.026004192 RMS     0.008426189
 Leave Link  716 at Wed Sep  7 15:36:16 2022, MaxMem=   131072000 cpu:               0.0 elap:               0.0
 (Enter /opt/g16/l103.exe)

 GradGradGradGradGradGradGradGradGradGradGradGradGradGradGradGradGradGrad
 Berny optimization.
 Using GEDIIS/GDIIS optimizer.
 FormGI is forming the generalized inverse of G from B-inverse, IUseBI=4.
 Internal  Forces:  Max     0.017927164 RMS     0.004783579
 Search for a local minimum.
 Step number   2 out of a maximum of   97
 All quantities printed in internal units (Hartrees-Bohrs-Radians)
 RMS Force = .47836D-02 SwitMx=.10000D-02 MixMth= 1
 Mixed Optimization -- RFO/linear search
 Update second derivatives using D2CorX and points    1    2
 DE= -2.54D-02 DEPred=-2.82D-02 R= 9.00D-01
 TightC=F SS=  1.41D+00  RLast= 3.23D-01 DXNew= 5.0454D-01 9.6787D-01
 Trust test= 9.00D-01 RLast= 3.23D-01 DXMaxT set to 5.05D-01
 ITU=  1  0
 Use linear search instead of GDIIS.
     Eigenvalues ---    0.00230   0.00362   0.00776   0.01524   0.01667
     Eigenvalues ---    0.03783   0.03806   0.04837   0.04960   0.05140
     Eigenvalues ---    0.05145   0.05203   0.05397   0.05500   0.05743
     Eigenvalues ---    0.07784   0.08098   0.08860   0.11825   0.12565
     Eigenvalues ---    0.14738   0.16000   0.16000   0.16000   0.16000
     Eigenvalues ---    0.16000   0.16100   0.17181   0.19660   0.21672
     Eigenvalues ---    0.22838   0.23341   0.28962   0.29803   0.30687
     Eigenvalues ---    0.30817   0.31711   0.33453   0.33638   0.34211
     Eigenvalues ---    0.34329   0.34796   0.36395   0.37660   0.39186
     Eigenvalues ---    0.44209   0.49387   0.52701
 RFO step:  Lambda=-1.00751889D-02 EMin= 2.29998778D-03
 Quartic linear search produced a step of  0.41464.
 Iteration  1 RMS(Cart)=  0.08291319 RMS(Int)=  0.00358213
 Iteration  2 RMS(Cart)=  0.00419245 RMS(Int)=  0.00073141
 Iteration  3 RMS(Cart)=  0.00000750 RMS(Int)=  0.00073138
 Iteration  4 RMS(Cart)=  0.00000001 RMS(Int)=  0.00073138
 ITry= 1 IFail=0 DXMaxC= 2.71D-01 DCOld= 1.00D+10 DXMaxT= 5.05D-01 DXLimC= 3.00D+00 Rises=F
 Variable       Old X    -DE/DX   Delta X   Delta X   Delta X     New X
                                 (Linear)    (Quad)   (Total)
    R1        2.06890   0.00009  -0.00036   0.00069   0.00033   2.06923
    R2        2.10088  -0.00614  -0.01263  -0.01525  -0.02788   2.07301
    R3        2.07421   0.00084   0.00562  -0.00191   0.00371   2.07792
    R4        2.89338  -0.01081   0.00042  -0.05026  -0.04984   2.84354
    R5        2.11492  -0.00504  -0.00645  -0.01613  -0.02258   2.09234
    R6        2.07155   0.00729   0.01587   0.01264   0.02851   2.10007
    R7        2.86407   0.00747   0.05707  -0.02615   0.03092   2.89499
    R8        2.12012  -0.00087   0.00260  -0.00616  -0.00357   2.11656
    R9        2.67877  -0.00198   0.01234  -0.01715  -0.00481   2.67396
   R10        2.90478  -0.00012   0.02967  -0.02815   0.00152   2.90629
   R11        1.81127  -0.01346  -0.02113  -0.01780  -0.03893   1.77234
   R12        2.08837   0.00131   0.00349   0.00205   0.00554   2.09391
   R13        2.08080   0.00316   0.00553   0.00740   0.01293   2.09372
   R14        2.92618  -0.01793  -0.04081  -0.06196  -0.10277   2.82341
   R15        2.05333   0.00741   0.01629   0.01185   0.02813   2.08146
   R16        2.10269  -0.00900  -0.02078  -0.02155  -0.04233   2.06037
   R17        2.03880   0.01058   0.02015   0.01824   0.03838   2.07718
    A1        1.83241   0.00521   0.00793   0.03129   0.03783   1.87024
    A2        1.98039  -0.00712  -0.01937  -0.06644  -0.08557   1.89482
    A3        1.94872   0.00122   0.00042  -0.00796  -0.00813   1.94059
    A4        1.78485   0.00577   0.01416   0.06775   0.08418   1.86903
    A5        2.01107  -0.01195  -0.03139  -0.05242  -0.08332   1.92775
    A6        1.90199   0.00634   0.02604   0.02851   0.05586   1.95785
    A7        1.87265   0.00228  -0.00400   0.03981   0.03574   1.90839
    A8        1.90439   0.00072  -0.01164   0.01960   0.00771   1.91210
    A9        1.98799   0.00076   0.03513  -0.03525   0.00004   1.98803
   A10        1.81097   0.00161   0.00436   0.02917   0.03213   1.84310
   A11        1.94038  -0.00255  -0.01142  -0.01804  -0.02986   1.91051
   A12        1.93801  -0.00256  -0.01495  -0.02685  -0.04191   1.89609
   A13        1.91156  -0.00007  -0.01007  -0.01180  -0.02094   1.89062
   A14        1.95915  -0.00108   0.00530  -0.02696  -0.02099   1.93816
   A15        1.99051  -0.00759  -0.00926  -0.04655  -0.05542   1.93508
   A16        1.90340  -0.00106  -0.00837   0.01653   0.00581   1.90920
   A17        1.85353   0.00420   0.00807   0.04785   0.05457   1.90810
   A18        1.84070   0.00614   0.01528   0.02805   0.04181   1.88250
   A19        1.93117  -0.01360  -0.03822  -0.07269  -0.11091   1.82027
   A20        1.91113   0.00048   0.00866  -0.00031   0.00849   1.91962
   A21        1.96522  -0.00650  -0.01485  -0.05371  -0.06930   1.89592
   A22        1.92864   0.00595   0.01866   0.02135   0.04017   1.96881
   A23        1.85134   0.00113   0.00108   0.00023   0.00106   1.85240
   A24        1.94539  -0.00411  -0.01666  -0.01107  -0.02802   1.91737
   A25        1.86087   0.00268   0.00134   0.04249   0.04503   1.90589
   A26        1.90715   0.00452   0.00857   0.03233   0.04060   1.94775
   A27        1.90227   0.00294   0.00157   0.02478   0.02573   1.92800
   A28        1.99424  -0.00556  -0.01736  -0.03443  -0.05143   1.94282
   A29        1.88084  -0.00211  -0.00095  -0.00243  -0.00460   1.87624
   A30        1.89480  -0.00007   0.00701  -0.01246  -0.00484   1.88995
   A31        1.88132   0.00031   0.00191  -0.00702  -0.00507   1.87625
    D1        2.78354   0.00270  -0.00296   0.07291   0.07048   2.85403
    D2        0.83204  -0.00064  -0.00031   0.00997   0.00983   0.84186
    D3       -1.34429   0.00162   0.00237   0.05566   0.05861  -1.28568
    D4        0.69532   0.00353   0.00993   0.07566   0.08473   0.78005
    D5       -1.25619   0.00020   0.01258   0.01272   0.02407  -1.23212
    D6        2.85067   0.00245   0.01526   0.05841   0.07286   2.92353
    D7       -1.29827  -0.00091  -0.00851   0.00254  -0.00533  -1.30360
    D8        3.03341  -0.00425  -0.00586  -0.06040  -0.06599   2.96742
    D9        0.85708  -0.00199  -0.00318  -0.01471  -0.01720   0.83988
   D10       -3.04823  -0.00016  -0.00287  -0.01230  -0.01467  -3.06289
   D11       -0.93132  -0.00227  -0.01705  -0.01742  -0.03467  -0.96598
   D12        1.16081  -0.00052   0.00033  -0.03464  -0.03421   1.12660
   D13       -0.93009   0.00145   0.00868   0.00078   0.00951  -0.92058
   D14        1.18682  -0.00066  -0.00550  -0.00434  -0.01049   1.17633
   D15       -3.00423   0.00109   0.01188  -0.02157  -0.01004  -3.01427
   D16        1.07672   0.00033  -0.00283   0.00949   0.00721   1.08393
   D17       -3.08955  -0.00178  -0.01701   0.00437  -0.01279  -3.10234
   D18       -0.99742  -0.00003   0.00037  -0.01285  -0.01234  -1.00976
   D19       -1.46082  -0.00046   0.00952   0.03256   0.04181  -1.41902
   D20        0.66076  -0.00199  -0.00562   0.01138   0.00606   0.66682
   D21        2.64505   0.00543   0.00760   0.08794   0.09551   2.74056
   D22       -1.16871   0.00019  -0.01086   0.00826  -0.00262  -1.17133
   D23        0.88634  -0.00210  -0.01284  -0.02491  -0.03722   0.84912
   D24        2.96511   0.00108  -0.00774   0.00816  -0.00045   2.96466
   D25        3.00764   0.00196   0.00175   0.01799   0.02098   3.02862
   D26       -1.22050  -0.00033  -0.00024  -0.01517  -0.01362  -1.23411
   D27        0.85827   0.00284   0.00487   0.01790   0.02316   0.88143
   D28        0.98887  -0.00152   0.00111  -0.03487  -0.03468   0.95418
   D29        3.04391  -0.00381  -0.00088  -0.06804  -0.06928   2.97463
   D30       -1.16050  -0.00063   0.00423  -0.03497  -0.03251  -1.19301
   D31       -0.98976   0.00218   0.00600   0.01416   0.02000  -0.96976
   D32       -3.04098   0.00045   0.00148  -0.01557  -0.01507  -3.05605
   D33        1.13671   0.00162   0.00975  -0.00163   0.00733   1.14404
   D34       -3.11910   0.00025  -0.00702   0.00727   0.00089  -3.11821
   D35        1.11287  -0.00149  -0.01154  -0.02246  -0.03418   1.07869
[...]
 ! A10   A(6,5,7)              105.3814         -DE/DX =    0.0                 !
 ! A11   A(6,5,8)              109.2564         -DE/DX =    0.0                 !
 ! A12   A(7,5,8)              108.5539         -DE/DX =    0.0                 !
 ! A13   A(5,8,9)              108.1387         -DE/DX =    0.0                 !
 ! A14   A(5,8,10)             112.6534         -DE/DX =    0.0                 !
 ! A15   A(5,8,11)             111.8937         -DE/DX =    0.0                 !
 ! A16   A(9,8,10)             107.76           -DE/DX =    0.0                 !
 ! A17   A(9,8,11)             109.1341         -DE/DX =    0.0                 !
 ! A18   A(10,8,11)            107.1431         -DE/DX =    0.0                 !
 ! A19   A(8,10,12)            106.7038         -DE/DX =    0.0                 !
 ! A20   A(8,11,13)            110.2453         -DE/DX =    0.0                 !
 ! A21   A(8,11,14)            108.8604         -DE/DX =    0.0                 !
 ! A22   A(8,11,15)            112.1331         -DE/DX =    0.0                 !
 ! A23   A(13,11,14)           105.7074         -DE/DX =    0.0                 !
 ! A24   A(13,11,15)           109.892          -DE/DX =    0.0                 !
 ! A25   A(14,11,15)           109.7953         -DE/DX =    0.0                 !
 ! A26   A(11,15,16)           111.7934         -DE/DX =    0.0                 !
 ! A27   A(11,15,17)           111.0526         -DE/DX =    0.0                 !
 ! A28   A(11,15,18)           111.6962         -DE/DX =    0.0                 !
 ! A29   A(16,15,17)           107.3462         -DE/DX =    0.0                 !
 ! A30   A(16,15,18)           107.3097         -DE/DX =    0.0                 !
 ! A31   A(17,15,18)           107.4036         -DE/DX =    0.0                 !
 ! D1    D(2,1,5,6)            175.5398         -DE/DX =    0.0                 !
 ! D2    D(2,1,5,7)             60.3036         -DE/DX =    0.0                 !
 ! D3    D(2,1,5,8)            -61.7642         -DE/DX =    0.0                 !
 ! D4    D(3,1,5,6)             55.6456         -DE/DX =    0.0                 !
 ! D5    D(3,1,5,7)            -59.5906         -DE/DX =    0.0                 !
 ! D6    D(3,1,5,8)            178.3415         -DE/DX =    0.0                 !
 ! D7    D(4,1,5,6)            -64.3909         -DE/DX =    0.0                 !
 ! D8    D(4,1,5,7)           -179.6271         -DE/DX =    0.0                 !
 ! D9    D(4,1,5,8)             58.305          -DE/DX =    0.0                 !
 ! D10   D(1,5,8,9)           -176.8533         -DE/DX =    0.0                 !
 ! D11   D(1,5,8,10)           -57.8711         -DE/DX =    0.0                 !
 ! D12   D(1,5,8,11)            62.9226         -DE/DX =    0.0                 !
 ! D13   D(6,5,8,9)            -54.0524         -DE/DX =    0.0                 !
 ! D14   D(6,5,8,10)            64.9299         -DE/DX =    0.0                 !
 ! D15   D(6,5,8,11)          -174.2764         -DE/DX =    0.0                 !
 ! D16   D(7,5,8,9)             60.38           -DE/DX =    0.0                 !
 ! D17   D(7,5,8,10)           179.3623         -DE/DX =    0.0                 !
 ! D18   D(7,5,8,11)           -59.844          -DE/DX =    0.0                 !
 ! D19   D(5,8,10,12)          -46.9946         -DE/DX =    0.0                 !
 ! D20   D(9,8,10,12)           72.2082         -DE/DX =    0.0                 !
 ! D21   D(11,8,10,12)        -170.4703         -DE/DX =    0.0                 !
 ! D22   D(5,8,11,13)          -77.0172         -DE/DX =    0.0                 !
 ! D23   D(5,8,11,14)           38.5084         -DE/DX =    0.0                 !
 ! D24   D(5,8,11,15)          160.196          -DE/DX =    0.0                 !
 ! D25   D(9,8,11,13)          163.3418         -DE/DX =    0.0                 !
 ! D26   D(9,8,11,14)          -81.1326         -DE/DX =    0.0                 !
 ! D27   D(9,8,11,15)           40.5549         -DE/DX =    0.0                 !
 ! D28   D(10,8,11,13)          46.9249         -DE/DX =    0.0                 !
 ! D29   D(10,8,11,14)         162.4505         -DE/DX =    0.0                 !
 ! D30   D(10,8,11,15)         -75.8619         -DE/DX =    0.0                 !
 ! D31   D(8,11,15,16)         -59.8747         -DE/DX =    0.0                 !
 ! D32   D(8,11,15,17)        -179.7401         -DE/DX =    0.0                 !
 ! D33   D(8,11,15,18)          60.3871         -DE/DX =    0.0                 !
 ! D34   D(13,11,15,16)        177.1388         -DE/DX =    0.0                 !
 ! D35   D(13,11,15,17)         57.2735         -DE/DX =    0.0                 !
 ! D36   D(13,11,15,18)        -62.5993         -DE/DX =    0.0                 !
 ! D37   D(14,11,15,16)         61.276          -DE/DX =    0.0                 !
 ! D38   D(14,11,15,17)        -58.5894         -DE/DX =    0.0                 !
 ! D39   D(14,11,15,18)       -178.4621         -DE/DX =    0.0                 !
 --------------------------------------------------------------------------------
 Lowest energy point so far.  Saving SCF results.
 Largest change from initial coordinates is atom    3       0.189 Angstoms.
 GradGradGradGradGradGradGradGradGradGradGradGradGradGradGradGradGradGrad

 Leave Link  103 at Wed Sep  7 15:36:20 2022, MaxMem=   131072000 cpu:               0.0 elap:               0.0
 (Enter /opt/g16/l202.exe)
                          Input orientation:                          
 ---------------------------------------------------------------------
 Center     Atomic      Atomic             Coordinates (Angstroms)
 Number     Number       Type             X           Y           Z
 ---------------------------------------------------------------------
      1          6           0        9.044767    8.647597    3.377936
      2          1           0        9.811202    8.781561    2.602348
      3          1           0        8.962916    7.571229    3.576471
      4          1           0        9.421476    9.123976    4.293008
      5          6           0        7.714682    9.225591    2.952678
      6          1           0        6.950330    9.000291    3.724454
      7          1           0        7.361596    8.718958    2.032628
      8          6           0        7.744586   10.743398    2.695476
      9          1           0        6.704879   11.075054    2.444975
     10          8           0        8.172258   11.480161    3.827095
     11          6           0        8.682944   11.109425    1.535839
     12          1           0        7.690436   11.142307    4.570167
     13          1           0        9.739555   11.070414    1.870237
     14          1           0        8.590376   10.339972    0.743500
     15          6           0        8.374736   12.474410    0.962655
     16          1           0        7.348600   12.531693    0.574956
     17          1           0        9.051899   12.715834    0.133226
     18          1           0        8.483761   13.265128    1.716350
 ---------------------------------------------------------------------
                    Distance matrix (angstroms):
                    1          2          3          4          5
     1  C    0.000000
     2  H    1.098593   0.000000
     3  H    1.097581   1.770144   0.000000
     4  H    1.098274   1.768464   1.770516   0.000000
     5  C    1.511306   2.171472   2.164283   2.172546   0.000000
     6  H    2.152007   3.080836   2.472776   2.538724   1.109339
     7  H    2.155924   2.515764   2.502990   3.084877   1.108079
     8  C    2.559024   2.851031   3.510433   2.826057   1.539736
     9  H    3.498290   3.864469   4.319237   3.821235   2.167482
    10  O    2.997738   3.386530   3.995961   2.707255   2.461111
    11  C    3.095938   2.798099   4.094068   3.476984   2.548292
    12  H    3.078832   3.734043   3.919086   2.673383   2.508118
    13  H    2.936993   2.404157   3.969723   3.124039   2.945363
    14  H    3.163994   2.715581   3.978750   3.842966   2.624720
    15  C    4.574606   4.288259   5.587412   4.838629   3.866612
    16  H    5.081326   4.923232   6.018414   5.452822   4.088751
    17  H    5.203724   4.706549   6.191188   5.508341   4.681800
    18  H    4.939351   4.759146   6.009170   4.966651   4.293932
                    6          7          8          9         10
     6  H    0.000000
     7  H    1.763679   0.000000
     8  C    2.174411   2.164349   0.000000
     9  H    2.449889   2.480422   1.119704   0.000000
    10  O    2.766478   3.391390   1.416433   2.056105   0.000000
    11  C    3.498633   2.776165   1.535984   2.177257   2.376572
    12  H    2.418930   3.524182   1.917426   2.343562   0.947868
    13  H    3.937424   3.348194   2.183543   3.088625   2.540395
    14  H    3.656581   2.408202   2.165254   2.643948   3.314123
    15  C    4.661113   4.034193   2.529063   2.635127   3.038839
    16  H    4.748553   4.081901   2.802037   2.456246   3.515756
    17  H    5.578420   4.737074   3.487793   3.680333   3.993159
    18  H    4.957089   4.693287   2.804316   2.914059   2.781795
                   11         12         13         14         15
    11  C    0.000000
    12  H    3.192694   0.000000
    13  H    1.108950   3.390233   0.000000
    14  H    1.108345   4.012108   1.767397   0.000000
    15  C    1.512189   3.906009   2.158156   2.156468   0.000000
    16  H    2.174078   4.243696   3.087030   2.524689   1.098430
    17  H    2.164255   4.900613   2.489474   2.496028   1.097629
    18  H    2.172398   3.644174   2.533272   3.084532   1.097806
                   16         17         18
    16  H    0.000000
    17  H    1.769255   0.000000
    18  H    1.768983   1.769403   0.000000
 Stoichiometry    C5H12O
 Framework group  C1[X(C5H12O)]
 Deg. of freedom    48
 Full point group                 C1      NOp   1
 RotChk:  IX=0 Diff= 9.22D-16
 Largest Abelian subgroup         C1      NOp   1
 Largest concise Abelian subgroup C1      NOp   1
                         Standard orientation:                         
 ---------------------------------------------------------------------
 Center     Atomic      Atomic             Coordinates (Angstroms)
 Number     Number       Type             X           Y           Z
 ---------------------------------------------------------------------
      1          6           0        2.109501   -0.594164   -0.514583
      2          1           0        1.597068   -1.403632   -1.052244
      3          1           0        3.117433   -0.950996   -0.266738
      4          1           0        2.219535    0.243513   -1.216291
      5          6           0        1.354799   -0.186655    0.729767
      6          1           0        1.941771    0.573059    1.285581
      7          1           0        1.268098   -1.051585    1.416949
      8          6           0       -0.056596    0.363755    0.454448
      9          1           0       -0.501212    0.686767    1.430007
     10          8           0       -0.045390    1.487081   -0.408278
     11          6           0       -0.967709   -0.692218   -0.189013
     12          1           0        0.628496    2.070921   -0.086622
     13          1           0       -0.722196   -0.806976   -1.264339
     14          1           0       -0.756999   -1.677095    0.273638
     15          6           0       -2.432928   -0.354212   -0.029009
     16          1           0       -2.721901   -0.282944    1.028329
     17          1           0       -3.067347   -1.121810   -0.490629
     18          1           0       -2.682031    0.605098   -0.501080
 ---------------------------------------------------------------------
 Rotational constants (GHZ):           5.6155936           2.1671942           1.8735300
 Leave Link  202 at Wed Sep  7 15:36:20 2022, MaxMem=   131072000 cpu:               0.0 elap:               0.0
 (Enter /opt/g16/l601.exe)
 Copying SCF densities to generalized density rwf, IOpCl= 0 IROHF=0.

 **********************************************************************

            Population analysis using the SCF density.

 **********************************************************************

 Orbital symmetries:
       Occupied  (A) (A) (A) (A) (A) (A) (A) (A) (A) (A) (A) (A)
                 (A) (A) (A) (A) (A) (A) (A)
       Virtual   (A) (A) (A) (A) (A) (A) (A) (A) (A) (A) (A) (A)
                 (A) (A) (A) (A) (A)
 The electronic state is 1-A.
 Alpha  occ. eigenvalues --   -1.48297  -1.25031  -1.19884  -0.94449  -0.83179
 Alpha  occ. eigenvalues --   -0.73603  -0.64070  -0.60945  -0.58620  -0.54340
 Alpha  occ. eigenvalues --   -0.53820  -0.51651  -0.49271  -0.48436  -0.47062
 Alpha  occ. eigenvalues --   -0.44263  -0.43566  -0.42375  -0.40160
 Alpha virt. eigenvalues --    0.11672   0.12589   0.13039   0.13809   0.14197
 Alpha virt. eigenvalues --    0.14730   0.14995   0.15430   0.15955   0.16187
 Alpha virt. eigenvalues --    0.17078   0.17384   0.17619   0.18414   0.18528
 Alpha virt. eigenvalues --    0.18832   0.21205
          Condensed to atoms (all electrons):
               1          2          3          4          5          6
     1  C    4.110124   0.000000   0.000000   0.000000   0.000000   0.000000
     2  H    0.000000   0.956060   0.000000   0.000000   0.000000   0.000000
     3  H    0.000000   0.000000   0.962735   0.000000   0.000000   0.000000
     4  H    0.000000   0.000000   0.000000   0.954380   0.000000   0.000000
     5  C    0.000000   0.000000   0.000000   0.000000   4.135458   0.000000
     6  H    0.000000   0.000000   0.000000   0.000000   0.000000   0.954074
     7  H    0.000000   0.000000   0.000000   0.000000   0.000000   0.000000
     8  C    0.000000   0.000000   0.000000   0.000000   0.000000   0.000000
     9  H    0.000000   0.000000   0.000000   0.000000   0.000000   0.000000
    10  O    0.000000   0.000000   0.000000   0.000000   0.000000   0.000000
    11  C    0.000000   0.000000   0.000000   0.000000   0.000000   0.000000
    12  H    0.000000   0.000000   0.000000   0.000000   0.000000   0.000000
    13  H    0.000000   0.000000   0.000000   0.000000   0.000000   0.000000
    14  H    0.000000   0.000000   0.000000   0.000000   0.000000   0.000000
    15  C    0.000000   0.000000   0.000000   0.000000   0.000000   0.000000
    16  H    0.000000   0.000000   0.000000   0.000000   0.000000   0.000000
    17  H    0.000000   0.000000   0.000000   0.000000   0.000000   0.000000
    18  H    0.000000   0.000000   0.000000   0.000000   0.000000   0.000000
               7          8          9         10         11         12
     1  C    0.000000   0.000000   0.000000   0.000000   0.000000   0.000000
     2  H    0.000000   0.000000   0.000000   0.000000   0.000000   0.000000
     3  H    0.000000   0.000000   0.000000   0.000000   0.000000   0.000000
     4  H    0.000000   0.000000   0.000000   0.000000   0.000000   0.000000
     5  C    0.000000   0.000000   0.000000   0.000000   0.000000   0.000000
     6  H    0.000000   0.000000   0.000000   0.000000   0.000000   0.000000
     7  H    0.942773   0.000000   0.000000   0.000000   0.000000   0.000000
     8  C    0.000000   3.920370   0.000000   0.000000   0.000000   0.000000
     9  H    0.000000   0.000000   0.960339   0.000000   0.000000   0.000000
    10  O    0.000000   0.000000   0.000000   6.309113   0.000000   0.000000
    11  C    0.000000   0.000000   0.000000   0.000000   4.107124   0.000000
    12  H    0.000000   0.000000   0.000000   0.000000   0.000000   0.814795
    13  H    0.000000   0.000000   0.000000   0.000000   0.000000   0.000000
    14  H    0.000000   0.000000   0.000000   0.000000   0.000000   0.000000
    15  C    0.000000   0.000000   0.000000   0.000000   0.000000   0.000000
    16  H    0.000000   0.000000   0.000000   0.000000   0.000000   0.000000
    17  H    0.000000   0.000000   0.000000   0.000000   0.000000   0.000000
    18  H    0.000000   0.000000   0.000000   0.000000   0.000000   0.000000
              13         14         15         16         17         18
     1  C    0.000000   0.000000   0.000000   0.000000   0.000000   0.000000
     2  H    0.000000   0.000000   0.000000   0.000000   0.000000   0.000000
     3  H    0.000000   0.000000   0.000000   0.000000   0.000000   0.000000
     4  H    0.000000   0.000000   0.000000   0.000000   0.000000   0.000000
     5  C    0.000000   0.000000   0.000000   0.000000   0.000000   0.000000
     6  H    0.000000   0.000000   0.000000   0.000000   0.000000   0.000000
     7  H    0.000000   0.000000   0.000000   0.000000   0.000000   0.000000
     8  C    0.000000   0.000000   0.000000   0.000000   0.000000   0.000000
     9  H    0.000000   0.000000   0.000000   0.000000   0.000000   0.000000
    10  O    0.000000   0.000000   0.000000   0.000000   0.000000   0.000000
    11  C    0.000000   0.000000   0.000000   0.000000   0.000000   0.000000
    12  H    0.000000   0.000000   0.000000   0.000000   0.000000   0.000000
    13  H    0.935068   0.000000   0.000000   0.000000   0.000000   0.000000
    14  H    0.000000   0.949479   0.000000   0.000000   0.000000   0.000000
    15  C    0.000000   0.000000   4.107192   0.000000   0.000000   0.000000
    16  H    0.000000   0.000000   0.000000   0.966060   0.000000   0.000000
    17  H    0.000000   0.000000   0.000000   0.000000   0.964556   0.000000
    18  H    0.000000   0.000000   0.000000   0.000000   0.000000   0.950300
 Mulliken charges:
               1
     1  C   -0.110124
     2  H    0.043940
     3  H    0.037265
     4  H    0.045620
     5  C   -0.135458
     6  H    0.045926
     7  H    0.057227
     8  C    0.079630
     9  H    0.039661
    10  O   -0.309113
    11  C   -0.107124
    12  H    0.185205
    13  H    0.064932
    14  H    0.050521
    15  C   -0.107192
    16  H    0.033940
    17  H    0.035444
    18  H    0.049700
 Sum of Mulliken charges =  -0.00000
 Mulliken charges with hydrogens summed into heavy atoms:
               1
     1  C    0.016702
     5  C   -0.032305
     8  C    0.119290
    10  O   -0.123908
    11  C    0.008328
    15  C    0.011893
 Charge=             -0.0000 electrons
 Dipole moment (field-independent basis, Debye):
    X=              0.9134    Y=             -0.3165    Z=              1.0868  Tot=              1.4545
 N-N= 1.709817055304D+02 E-N=-2.564766413638D+02  KE=-5.965788758829D+01
 Leave Link  601 at Wed Sep  7 15:36:20 2022, MaxMem=   131072000 cpu:               0.0 elap:               0.0
 (Enter /opt/g16/l9999.exe)
 1\1\GINC-TOTEM2\FOpt\RPM3\ZDO\C5H12O1\JRAMOS\07-Sep-2022\0\\#p opt pm3
 \\Conformer number 020. Energy MM = 0.000 kcal/mol\\0,1\C,9.0447666487
 ,8.6475972059,3.377935691\H,9.8112020995,8.7815609388,2.602348216\H,8.
 9629160109,7.5712288883,3.5764712455\H,9.4214764041,9.1239759054,4.293
 0084239\C,7.714682239,9.2255910902,2.9526783076\H,6.9503299525,9.00029
 05723,3.7244538581\H,7.3615960097,8.7189584236,2.0326280757\C,7.744586
 2228,10.7433983629,2.6954764435\H,6.7048790827,11.0750539703,2.4449752
 524\O,8.1722581832,11.4801611883,3.827094654\C,8.6829435592,11.1094252
 43,1.5358394513\H,7.6904363286,11.1423072526,4.570166676\H,9.739554778
 1,11.0704141672,1.8702366924\H,8.5903762284,10.3399724266,0.7434998794
 \C,8.3747360307,12.4744100495,0.9626551831\H,7.3485996683,12.531692621
 8,0.574955865\H,9.0518994855,12.7158335913,0.1332258509\H,8.4837610682
 ,13.2651281022,1.7163502342\\Version=ES64L-G16RevA.03\State=1-A\HF=-0.
 1157758\RMSD=4.149e-09\RMSF=5.007e-06\Dipole=-0.3487978,-0.4532366,-0.
 0191168\PG=C01 [X(C5H12O1)]\\@


 ART, GLORY, FREEDOM FAIL, BUT NATURE STILL IS FAIR.

                                           -- BYRON
 Job cpu time:       0 days  0 hours  0 minutes  4.9 seconds.
 Elapsed time:       0 days  0 hours  0 minutes  9.6 seconds.
 File lengths (MBytes):  RWF=      6 Int=      0 D2E=      0 Chk=      2 Scr=      1
 Normal termination of Gaussian 16 at Wed Sep  7 15:36:20 2022.
