 Entering Gaussian System, Link 0=/opt/g16/g16
 Input=MD_extract_019_gaussian.com
 Output=MD_extract_019_gaussian.log
 Initial command:
 /opt/g16/l1.exe "/tmp/Gau-318144.inp" -scrdir="/tmp/"
 Entering Link 1 = /opt/g16/l1.exe PID=    318146.
  
 Copyright (c) 1988,1990,1992,1993,1995,1998,2003,2009,2016,
            Gaussian, Inc.  All Rights Reserved.
  
 This is part of the Gaussian(R) 16 program.  It is based on
 the Gaussian(R) 09 system (copyright 2009, Gaussian, Inc.),
 the Gaussian(R) 03 system (copyright 2003, Gaussian, Inc.),
 the Gaussian(R) 98 system (copyright 1998, Gaussian, Inc.),
 the Gaussian(R) 94 system (copyright 1995, Gaussian, Inc.),
 the Gaussian 92(TM) system (copyright 1992, Gaussian, Inc.),
 the Gaussian 90(TM) system (copyright 1990, Gaussian, Inc.),
 the Gaussian 88(TM) system (copyright 1988, Gaussian, Inc.),
 the Gaussian 86(TM) system (copyright 1986, Carnegie Mellon
 University), and the Gaussian 82(TM) system (copyright 1983,
 Carnegie Mellon University). Gaussian is a federally registered
 trademark of Gaussian, Inc.
  
 This software contains proprietary and confidential information,
 including trade secrets, belonging to Gaussian, Inc.
  
 This software is provided under written license and may be
 used, copied, transmitted, or stored only in accord with that
 written license.
  
 The following legend is applicable only to US Government
 contracts under FAR:
  
                    RESTRICTED RIGHTS LEGEND
  
 Use, reproduction and disclosure by the US Government is
 subject to restrictions as set forth in subparagraphs (a)
 and (c) of the Commercial Computer Software - Restricted
 Rights clause in FAR 52.227-19.
  
 Gaussian, Inc.
 340 Quinnipiac St., Bldg. 40, Wallingford CT 06492
  
  
 ---------------------------------------------------------------
 Warning -- This program may not be used in any manner that
 competes with the business of Gaussian, Inc. or will provide
 assistance to any competitor of Gaussian, Inc.  The licensee
 of this program is prohibited from giving any competitor of
 Gaussian, Inc. access to this program.  By using this program,
 the user acknowledges that Gaussian, Inc. is engaged in the
 business of creating and licensing software in the field of
 computational chemistry and represents and warrants to the
 licensee that it is not a competitor of Gaussian, Inc. and that
 it will not use this program in any manner prohibited above.
 ---------------------------------------------------------------
  

 Cite this work as:
 Gaussian 16, Revision A.03,
 M. J. Frisch, G. W. Trucks, H. B. Schlegel, G. E. Scuseria, 
 M. A. Robb, J. R. Cheeseman, G. Scalmani, V. Barone, 
 G. A. Petersson, H. Nakatsuji, X. Li, M. Caricato, A. V. Marenich, 
 J. Bloino, B. G. Janesko, R. Gomperts, B. Mennucci, H. P. Hratchian, 
 J. V. Ortiz, A. F. Izmaylov, J. L. Sonnenberg, D. Williams-Young, 
 F. Ding, F. Lipparini, F. Egidi, J. Goings, B. Peng, A. Petrone, 
 T. Henderson, D. Ranasinghe, V. G. Zakrzewski, J. Gao, N. Rega, 
 G. Zheng, W. Liang, M. Hada, M. Ehara, K. Toyota, R. Fukuda, 
 J. Hasegawa, M. Ishida, T. Nakajima, Y. Honda, O. Kitao, H. Nakai, 
 T. Vreven, K. Throssell, J. A. Montgomery, Jr., J. E. Peralta, 
 F. Ogliaro, M. J. Bearpark, J. J. Heyd, E. N. Brothers, K. N. Kudin, 
 V. N. Staroverov, T. A. Keith, R. Kobayashi, J. Normand, 
 K. Raghavachari, A. P. Rendell, J. C. Burant, S. S. Iyengar, 
 J. Tomasi, M. Cossi, J. M. Millam, M. Klene, C. Adamo, R. Cammi, 
 J. W. Ochterski, R. L. Martin, K. Morokuma, O. Farkas, 
 J. B. Foresman, and D. J. Fox, Gaussian, Inc., Wallingford CT, 2016.
 
 ******************************************
 Gaussian 16:  ES64L-G16RevA.03 25-Dec-2016
                 7-Sep-2022 
 ******************************************
 %chk=MD_extract_019_gaussian.chk
 %nproc=1
 Will use up to    1 processors via shared memory.
 %mem=1000Mb
 ----------
 #p opt pm3
 ----------
 1/18=20,19=15,26=1,38=1/1,3;
 2/9=110,12=2,17=6,18=5,40=1/2;
 3/5=2,25=1,41=800000,71=1/1,2,3;
 4/35=1/1;
 5/5=2,35=1,38=5/2;
 6/7=2,8=2,9=2,10=2,28=1/1;
 7//1,2,3,16;
 1/18=20,19=15,26=1/3(2);
 2/9=110/2;
 99//99;
 2/9=110/2;
 3/5=2,25=1,41=800000,71=1,135=20/1,2,3;
 4/5=5,16=3,35=1/1;
 5/5=2,35=1,38=5/2;
 7//1,2,3,16;
 1/18=20,19=15,26=1/3(-5);
 2/9=110/2;
 6/7=2,8=2,9=2,10=2,19=2,28=1/1;
 99/9=1/99;
 Leave Link    1 at Wed Sep  7 15:36:04 2022, MaxMem=   131072000 cpu:               0.0 elap:              27.2
 (Enter /opt/g16/l101.exe)
 ------------------------------------------------
 Conformer number 019. Energy MM = 0.000 kcal/mol
 ------------------------------------------------
 Symbolic Z-matrix:
 Charge =  0 Multiplicity = 1
 C                     4.887     11.704    7.948 
 H                     4.505     12.693    8.217 
 H                     5.867     11.704    8.329 
 H                     4.267     10.977    8.499 
 C                     4.76      11.514    6.411 
 H                     3.699     11.645    6.273 
 H                     5.109     10.534    5.998 
 C                     5.49      12.476    5.617 
 H                     5.403     13.47     5.963 
 O                     6.888     12.133    5.596 
 C                     4.981     12.263    4.288 
 H                     7.205     12.067    6.5 
 H                     5.338     11.261    4.02 
 H                     3.866     12.062    4.191 
 C                     5.451     13.235    3.198 
 H                     5.133     14.28     3.442 
 H                     4.946     13.01     2.254 
 H                     6.554     13.141    3.079 
 
 ITRead=  0  0  0  0  0  0  0  0  0  0  0  0  0  0  0  0  0  0
 MicOpt= -1 -1 -1 -1 -1 -1 -1 -1 -1 -1 -1 -1 -1 -1 -1 -1 -1 -1
 NAtoms=     18 NQM=       18 NQMF=       0 NMMI=      0 NMMIF=      0
                NMic=       0 NMicF=      0.
                    Isotopes and Nuclear Properties:
 (Nuclear quadrupole moments (NQMom) in fm**2, nuclear magnetic moments (NMagM)
  in nuclear magnetons)

  Atom         1           2           3           4           5           6           7           8           9          10
 IAtWgt=          12           1           1           1          12           1           1          12           1          16
 AtmWgt=  12.0000000   1.0078250   1.0078250   1.0078250  12.0000000   1.0078250   1.0078250  12.0000000   1.0078250  15.9949146
 NucSpn=           0           1           1           1           0           1           1           0           1           0
 AtZEff=  -0.0000000  -0.0000000  -0.0000000  -0.0000000  -0.0000000  -0.0000000  -0.0000000  -0.0000000  -0.0000000  -0.0000000
 NQMom=    0.0000000   0.0000000   0.0000000   0.0000000   0.0000000   0.0000000   0.0000000   0.0000000   0.0000000   0.0000000
 NMagM=    0.0000000   2.7928460   2.7928460   2.7928460   0.0000000   2.7928460   2.7928460   0.0000000   2.7928460   0.0000000
 AtZNuc=   6.0000000   1.0000000   1.0000000   1.0000000   6.0000000   1.0000000   1.0000000   6.0000000   1.0000000   8.0000000

  Atom        11          12          13          14          15          16          17          18
 IAtWgt=          12           1           1           1          12           1           1           1
 AtmWgt=  12.0000000   1.0078250   1.0078250   1.0078250  12.0000000   1.0078250   1.0078250   1.0078250
 NucSpn=           0           1           1           1           0           1           1           1
 AtZEff=  -0.0000000  -0.0000000  -0.0000000  -0.0000000  -0.0000000  -0.0000000  -0.0000000  -0.0000000
 NQMom=    0.0000000   0.0000000   0.0000000   0.0000000   0.0000000   0.0000000   0.0000000   0.0000000
 NMagM=    0.0000000   2.7928460   2.7928460   2.7928460   0.0000000   2.7928460   2.7928460   2.7928460
 AtZNuc=   6.0000000   1.0000000   1.0000000   1.0000000   6.0000000   1.0000000   1.0000000   1.0000000
 Leave Link  101 at Wed Sep  7 15:36:04 2022, MaxMem=   131072000 cpu:               0.1 elap:               0.1
 (Enter /opt/g16/l103.exe)

 GradGradGradGradGradGradGradGradGradGradGradGradGradGradGradGradGradGrad
 Berny optimization.
 Initialization pass.
                           ----------------------------
                           !    Initial Parameters    !
                           ! (Angstroms and Degrees)  !
 --------------------------                            --------------------------
 ! Name  Definition              Value          Derivative Info.                !
 --------------------------------------------------------------------------------
 ! R1    R(1,2)                  1.0938         estimate D2E/DX2                !
 ! R2    R(1,3)                  1.0515         estimate D2E/DX2                !
 ! R3    R(1,4)                  1.103          estimate D2E/DX2                !
 ! R4    R(1,5)                  1.5539         estimate D2E/DX2                !
 ! R5    R(5,6)                  1.0779         estimate D2E/DX2                !
 ! R6    R(5,7)                  1.1193         estimate D2E/DX2                !
 ! R7    R(5,8)                  1.4453         estimate D2E/DX2                !
 ! R8    R(8,9)                  1.0561         estimate D2E/DX2                !
 ! R9    R(8,10)                 1.4396         estimate D2E/DX2                !
 ! R10   R(8,11)                 1.439          estimate D2E/DX2                !
 ! R11   R(10,12)                0.9602         estimate D2E/DX2                !
 ! R12   R(11,13)                1.0969         estimate D2E/DX2                !
 ! R13   R(11,14)                1.1371         estimate D2E/DX2                !
 ! R14   R(11,15)                1.5342         estimate D2E/DX2                !
 ! R15   R(15,16)                1.1192         estimate D2E/DX2                !
 ! R16   R(15,17)                1.094          estimate D2E/DX2                !
 ! R17   R(15,18)                1.1134         estimate D2E/DX2                !
 ! A1    A(2,1,3)              103.6737         estimate D2E/DX2                !
 ! A2    A(2,1,4)              106.0696         estimate D2E/DX2                !
 ! A3    A(2,1,5)              108.982          estimate D2E/DX2                !
 ! A4    A(3,1,4)              110.0537         estimate D2E/DX2                !
 ! A5    A(3,1,5)              115.7592         estimate D2E/DX2                !
 ! A6    A(4,1,5)              111.5673         estimate D2E/DX2                !
 ! A7    A(1,5,6)              101.0823         estimate D2E/DX2                !
 ! A8    A(1,5,7)              116.5227         estimate D2E/DX2                !
 ! A9    A(1,5,8)              114.8812         estimate D2E/DX2                !
 ! A10   A(6,5,7)              111.4742         estimate D2E/DX2                !
 ! A11   A(6,5,8)              110.2392         estimate D2E/DX2                !
 ! A12   A(7,5,8)              102.8611         estimate D2E/DX2                !
 ! A13   A(5,8,9)              113.8843         estimate D2E/DX2                !
 ! A14   A(5,8,10)             109.8721         estimate D2E/DX2                !
 ! A15   A(5,8,11)             103.3088         estimate D2E/DX2                !
 ! A16   A(9,8,10)             108.0007         estimate D2E/DX2                !
 ! A17   A(9,8,11)             114.3784         estimate D2E/DX2                !
 ! A18   A(10,8,11)            107.1429         estimate D2E/DX2                !
 ! A19   A(8,10,12)            108.8581         estimate D2E/DX2                !
 ! A20   A(8,11,13)            104.2251         estimate D2E/DX2                !
 ! A21   A(8,11,14)            116.8585         estimate D2E/DX2                !
 ! A22   A(8,11,15)            117.002          estimate D2E/DX2                !
 ! A23   A(13,11,14)            97.8636         estimate D2E/DX2                !
 ! A24   A(13,11,15)           107.7846         estimate D2E/DX2                !
 ! A25   A(14,11,15)           110.5958         estimate D2E/DX2                !
 ! A26   A(11,15,16)           110.4632         estimate D2E/DX2                !
 ! A27   A(11,15,17)           109.9589         estimate D2E/DX2                !
 ! A28   A(11,15,18)           109.0225         estimate D2E/DX2                !
 ! A29   A(16,15,17)           104.4179         estimate D2E/DX2                !
 ! A30   A(16,15,18)           112.5571         estimate D2E/DX2                !
 ! A31   A(17,15,18)           110.3481         estimate D2E/DX2                !
 ! D1    D(2,1,5,6)            -58.514          estimate D2E/DX2                !
 ! D2    D(2,1,5,7)           -179.4893         estimate D2E/DX2                !
 ! D3    D(2,1,5,8)             60.1338         estimate D2E/DX2                !
 ! D4    D(3,1,5,6)           -174.8446         estimate D2E/DX2                !
 ! D5    D(3,1,5,7)             64.1801         estimate D2E/DX2                !
 ! D6    D(3,1,5,8)            -56.1968         estimate D2E/DX2                !
 ! D7    D(4,1,5,6)             58.2761         estimate D2E/DX2                !
 ! D8    D(4,1,5,7)            -62.6993         estimate D2E/DX2                !
 ! D9    D(4,1,5,8)            176.9238         estimate D2E/DX2                !
 ! D10   D(1,5,8,9)            -43.3924         estimate D2E/DX2                !
 ! D11   D(1,5,8,10)            77.901          estimate D2E/DX2                !
 ! D12   D(1,5,8,11)          -168.0468         estimate D2E/DX2                !
 ! D13   D(6,5,8,9)             69.9877         estimate D2E/DX2                !
 ! D14   D(6,5,8,10)          -168.7189         estimate D2E/DX2                !
 ! D15   D(6,5,8,11)           -54.6667         estimate D2E/DX2                !
 ! D16   D(7,5,8,9)           -171.0395         estimate D2E/DX2                !
 ! D17   D(7,5,8,10)           -49.7461         estimate D2E/DX2                !
 ! D18   D(7,5,8,11)            64.3061         estimate D2E/DX2                !
 ! D19   D(5,8,10,12)          -55.344          estimate D2E/DX2                !
 ! D20   D(9,8,10,12)           69.4152         estimate D2E/DX2                !
 ! D21   D(11,8,10,12)        -166.9146         estimate D2E/DX2                !
 ! D22   D(5,8,11,13)          -67.1717         estimate D2E/DX2                !
 ! D23   D(5,8,11,14)           39.4822         estimate D2E/DX2                !
 ! D24   D(5,8,11,15)          173.9578         estimate D2E/DX2                !
 ! D25   D(9,8,11,13)          168.496          estimate D2E/DX2                !
 ! D26   D(9,8,11,14)          -84.85           estimate D2E/DX2                !
 ! D27   D(9,8,11,15)           49.6255         estimate D2E/DX2                !
 ! D28   D(10,8,11,13)          48.8371         estimate D2E/DX2                !
 ! D29   D(10,8,11,14)         155.491          estimate D2E/DX2                !
 ! D30   D(10,8,11,15)         -70.0334         estimate D2E/DX2                !
 ! D31   D(8,11,15,16)         -61.5423         estimate D2E/DX2                !
 ! D32   D(8,11,15,17)        -176.2671         estimate D2E/DX2                !
 ! D33   D(8,11,15,18)          62.6341         estimate D2E/DX2                !
 ! D34   D(13,11,15,16)       -178.4846         estimate D2E/DX2                !
 ! D35   D(13,11,15,17)         66.7907         estimate D2E/DX2                !
 ! D36   D(13,11,15,18)        -54.3082         estimate D2E/DX2                !
 ! D37   D(14,11,15,16)         75.6109         estimate D2E/DX2                !
 ! D38   D(14,11,15,17)        -39.1138         estimate D2E/DX2                !
 ! D39   D(14,11,15,18)       -160.2127         estimate D2E/DX2                !
 --------------------------------------------------------------------------------
 Trust Radius=3.00D-01 FncErr=1.00D-07 GrdErr=1.00D-07 EigMax=2.50D+02 EigMin=1.00D-04
 Number of steps in this run=     97 maximum allowed number of steps=    108.
 GradGradGradGradGradGradGradGradGradGradGradGradGradGradGradGradGradGrad

 Leave Link  103 at Wed Sep  7 15:36:04 2022, MaxMem=   131072000 cpu:               0.0 elap:               0.0
 (Enter /opt/g16/l202.exe)
                          Input orientation:                          
 ---------------------------------------------------------------------
 Center     Atomic      Atomic             Coordinates (Angstroms)
 Number     Number       Type             X           Y           Z
 ---------------------------------------------------------------------
      1          6           0        4.887000   11.704000    7.948000
      2          1           0        4.505000   12.693000    8.217000
      3          1           0        5.867000   11.704000    8.329000
      4          1           0        4.267000   10.977000    8.499000
      5          6           0        4.760000   11.514000    6.411000
      6          1           0        3.699000   11.645000    6.273000
      7          1           0        5.109000   10.534000    5.998000
      8          6           0        5.490000   12.476000    5.617000
      9          1           0        5.403000   13.470000    5.963000
     10          8           0        6.888000   12.133000    5.596000
     11          6           0        4.981000   12.263000    4.288000
     12          1           0        7.205000   12.067000    6.500000
     13          1           0        5.338000   11.261000    4.020000
     14          1           0        3.866000   12.062000    4.191000
     15          6           0        5.451000   13.235000    3.198000
     16          1           0        5.133000   14.280000    3.442000
     17          1           0        4.946000   13.010000    2.254000
     18          1           0        6.554000   13.141000    3.079000
 ---------------------------------------------------------------------
                    Distance matrix (angstroms):
                    1          2          3          4          5
     1  C    0.000000
     2  H    1.093803   0.000000
     3  H    1.051457   1.686923   0.000000
     4  H    1.102964   1.755228   1.765624   0.000000
     5  C    1.553898   2.171797   2.222672   2.211597   0.000000
     6  H    2.054373   2.350973   2.988451   2.392472   1.077927
     7  H    2.284882   3.154371   2.716068   2.675858   1.119272
     8  C    2.528469   2.788784   2.844830   3.471117   1.445261
     9  H    2.706518   2.547675   2.988647   3.733208   2.107152
    10  O    3.117683   3.586353   2.948859   4.078405   2.361307
    11  C    3.703636   3.981020   4.174585   4.460506   2.262072
    12  H    2.757099   3.260363   2.295050   3.716981   2.508337
    13  H    3.978547   4.512131   4.363894   4.614015   2.472847
    14  H    3.909687   4.124943   4.610337   4.460593   2.455186
    15  C    5.022405   5.136053   5.370678   5.882263   3.709810
    16  H    5.196184   5.070856   5.572908   6.101886   4.074904
    17  H    5.842153   5.987682   6.281680   6.602587   4.421907
    18  H    5.343315   5.549608   5.486295   6.268147   4.119198
                    6          7          8          9         10
     6  H    0.000000
     7  H    1.816052   0.000000
     8  C    2.080523   2.015362   0.000000
     9  H    2.516017   2.950891   1.056088   0.000000
    10  O    3.296391   2.425540   1.439616   2.031621   0.000000
    11  C    2.442473   2.435144   1.438990   2.107263   2.316120
    12  H    3.538594   2.644865   1.971851   2.346057   0.960240
    13  H    2.812434   2.119777   2.012396   2.942644   2.376270
    14  H    2.129907   2.673029   2.200511   2.735839   3.333399
    15  C    3.879849   3.905428   2.535579   2.775384   3.004959
    16  H    4.124820   4.535000   2.848243   2.661661   3.511317
    17  H    4.423867   4.491623   3.448313   3.765253   3.963516
    18  H    4.537695   4.171934   2.831213   3.122579   2.731833
                   11         12         13         14         15
    11  C    0.000000
    12  H    3.142855   0.000000
    13  H    1.096940   3.207137   0.000000
    14  H    1.137117   4.059609   1.684525   0.000000
    15  C    1.534205   3.917135   2.141291   2.207760   0.000000
    16  H    2.192512   4.306033   3.080661   2.661919   1.119234
    17  H    2.167116   4.901107   2.516232   2.411861   1.093977
    18  H    2.169538   3.644245   2.428690   3.102600   1.113376
                   16         17         18
    16  H    0.000000
    17  H    1.749061   0.000000
    18  H    1.856968   1.812029   0.000000
 Stoichiometry    C5H12O
 Framework group  C1[X(C5H12O)]
 Deg. of freedom    48
 Full point group                 C1      NOp   1
 Largest Abelian subgroup         C1      NOp   1
 Largest concise Abelian subgroup C1      NOp   1
                         Standard orientation:                         
 ---------------------------------------------------------------------
 Center     Atomic      Atomic             Coordinates (Angstroms)
 Number     Number       Type             X           Y           Z
 ---------------------------------------------------------------------
      1          6           0        2.505892   -0.228991    0.269836
      2          1           0        2.503065   -0.488612    1.332377
      3          1           0        2.764093    0.790252    0.263696
      4          1           0        3.312179   -0.826165   -0.188220
      5          6           0        1.119742   -0.578166   -0.339478
      6          1           0        1.060896   -1.633726   -0.129108
      7          1           0        0.986845   -0.369895   -1.431142
      8          6           0        0.000818    0.113980    0.258621
      9          1           0        0.038488    0.156477    1.313181
     10          8           0       -0.062561    1.463362   -0.239018
     11          6           0       -1.141161   -0.586087   -0.267194
     12          1           0        0.780812    1.893399   -0.078235
     13          1           0       -1.130846   -0.352081   -1.338834
     14          1           0       -1.055481   -1.716644   -0.353992
     15          6           0       -2.516336   -0.189934    0.285744
     16          1           0       -2.566444   -0.385156    1.386681
     17          1           0       -3.290232   -0.834886   -0.140763
     18          1           0       -2.716620    0.875320    0.031329
 ---------------------------------------------------------------------
 Rotational constants (GHZ):           7.0524243           2.0002506           1.7215778
 Leave Link  202 at Wed Sep  7 15:36:04 2022, MaxMem=   131072000 cpu:               0.0 elap:               0.0
 (Enter /opt/g16/l301.exe)
 Standard basis: VSTO-6G (5D, 7F)
 Ernie: Thresh=  0.10000D-02 Tol=  0.10000D-05 Strict=F.
  NNHCO=     0 NNPyr=     0 NCTC=     0               EPep=         0.000000000
    EC=       129.352679580  ECS=         2.300069012   EG=         0.570709247
   EHC=         0.000000000  EAt=       -36.836480110  AtH=         2.452923921
 EPDDG=         0.000000000  ECC=       132.223457838 EAtT=        39.289404030
 There are    36 symmetry adapted cartesian basis functions of A   symmetry.
 There are    36 symmetry adapted basis functions of A   symmetry.
    36 basis functions,   216 primitive gaussians,    36 cartesian basis functions
    19 alpha electrons       19 beta electrons
       nuclear repulsion energy       171.5128618688 Hartrees.
 IExCor=    0 DFT=F Ex=HF Corr=None ExCW=0 ScaHFX=  1.000000
 ScaDFX=  1.000000  1.000000  1.000000  1.000000 ScalE2=  1.000000  1.000000
 IRadAn=      5 IRanWt=     -1 IRanGd=            0 ICorTp=0 IEmpDi=  4
 Integral buffers will be    131072 words long.
 Regular integral format.
 Two-electron integral symmetry is turned off.
 Leave Link  301 at Wed Sep  7 15:36:04 2022, MaxMem=   131072000 cpu:               0.0 elap:               0.0
 (Enter /opt/g16/l302.exe)
 Do NDO integrals.
 NPDir=0 NMtPBC=     1 NCelOv=     1 NCel=       1 NClECP=     1 NCelD=      1
         NCelK=      1 NCelE2=     1 NClLst=     1 CellRange=     0.0.
 One-electron integrals computed using PRISM.
 NBasis=    36 RedAO= F EigKep=  0.00D+00  NBF=    36
 NBsUse=    36 1.00D-04 EigRej=  0.00D+00 NBFU=    36
 Leave Link  302 at Wed Sep  7 15:36:04 2022, MaxMem=   131072000 cpu:               0.0 elap:               0.0
 (Enter /opt/g16/l303.exe)
 DipDrv:  MaxL=1.
 Leave Link  303 at Wed Sep  7 15:36:04 2022, MaxMem=   131072000 cpu:               0.0 elap:               0.0
 (Enter /opt/g16/l401.exe)
 Simple Huckel Guess.
 JPrj=0 DoOrth=F DoCkMO=F.
 Leave Link  401 at Wed Sep  7 15:36:04 2022, MaxMem=   131072000 cpu:               0.0 elap:               0.0
 (Enter /opt/g16/l502.exe)
 Keep J ints in memory in canonical form, NReq=862161.
 FoFCou: FMM=F IPFlag=           0 FMFlag=           0 FMFlg1=           0
         NFxFlg=           0 DoJE=F BraDBF=F KetDBF=F FulRan=T
         wScrn=  0.000000 ICntrl=       600 IOpCl=  2 I1Cent=           0 NGrid=           0
         NMat0=    1 NMatS0=     72 NMatT0=    0 NMatD0=    1 NMtDS0=    0 NMtDT0=    0
 Symmetry not used in FoFCou.
 Two-electron integral symmetry not used.
 Closed shell SCF:
 Using DIIS extrapolation, IDIIS=  1040.
 Overlap will be assumed to be unity.
 NGot=   131072000 LenX=   131006778 LenY=   131005041
 Requested convergence on RMS density matrix=1.00D-08 within 128 cycles.
 Requested convergence on MAX density matrix=1.00D-06.
 Requested convergence on             energy=1.00D-06.
 No special actions if energy rises.

 Cycle   1  Pass 1  IDiag  1:
 E= 0.204424920372958    
 DIIS: error= 7.21D-02 at cycle   1 NSaved=   1.
 NSaved= 1 IEnMin= 1 EnMin= 0.204424920372958     IErMin= 1 ErrMin= 7.21D-02
 ErrMax= 7.21D-02  0.00D+00 EMaxC= 1.00D-01 BMatC= 1.08D-01 BMatP= 1.08D-01
 IDIUse=3 WtCom= 2.79D-01 WtEn= 7.21D-01
 Coeff-Com:  0.100D+01
 Coeff-En:   0.100D+01
 Coeff:      0.100D+01
 GapD=    2.000 DampG=2.000 DampE=0.500 DampFc=1.0000 IDamp=-1.
 RMSDP=1.27D-02 MaxDP=1.50D-01              OVMax= 0.00D+00

 Cycle   2  Pass 1  IDiag  1:
 E=-0.550474259954399E-01 Delta-E=       -0.259472346368 Rises=F Damp=F
 DIIS: error= 1.44D-02 at cycle   2 NSaved=   2.
 NSaved= 2 IEnMin= 2 EnMin=-0.550474259954399E-01 IErMin= 2 ErrMin= 1.44D-02
 ErrMax= 1.44D-02  0.00D+00 EMaxC= 1.00D-01 BMatC= 7.12D-03 BMatP= 1.08D-01
 IDIUse=3 WtCom= 8.56D-01 WtEn= 1.44D-01
 Coeff-Com: -0.306D+00 0.131D+01
 Coeff-En:   0.000D+00 0.100D+01
 Coeff:     -0.262D+00 0.126D+01
 RMSDP=4.69D-03 MaxDP=4.26D-02 DE=-2.59D-01 OVMax= 0.00D+00

 Cycle   3  Pass 1  IDiag  3:
 E=-0.772770519373296E-01 Delta-E=       -0.022229625942 Rises=F Damp=F
 DIIS: error= 3.47D-03 at cycle   3 NSaved=   3.
 NSaved= 3 IEnMin= 3 EnMin=-0.772770519373296E-01 IErMin= 3 ErrMin= 3.47D-03
 ErrMax= 3.47D-03  0.00D+00 EMaxC= 1.00D-01 BMatC= 2.30D-04 BMatP= 7.12D-03
 IDIUse=3 WtCom= 9.65D-01 WtEn= 3.47D-02
 Coeff-Com:  0.146D+00-0.711D+00 0.157D+01
 Coeff-En:   0.000D+00 0.000D+00 0.100D+01
 Coeff:      0.141D+00-0.687D+00 0.155D+01
 Gap=     0.523 Goal=   None    Shift=    0.000
 RMSDP=1.38D-03 MaxDP=1.80D-02 DE=-2.22D-02 OVMax= 1.05D-02

 Cycle   4  Pass 1  IDiag  3:
 E=-0.785173758715985E-01 Delta-E=       -0.001240323934 Rises=F Damp=F
 DIIS: error= 6.79D-04 at cycle   4 NSaved=   4.
 NSaved= 4 IEnMin= 4 EnMin=-0.785173758715985E-01 IErMin= 4 ErrMin= 6.79D-04
 ErrMax= 6.79D-04  0.00D+00 EMaxC= 1.00D-01 BMatC= 9.80D-06 BMatP= 2.30D-04
 IDIUse=3 WtCom= 9.93D-01 WtEn= 6.79D-03
 Coeff-Com: -0.312D-01 0.169D+00-0.560D+00 0.142D+01
 Coeff-En:   0.000D+00 0.000D+00 0.000D+00 0.100D+01
 Coeff:     -0.310D-01 0.168D+00-0.556D+00 0.142D+01
 Gap=     0.526 Goal=   None    Shift=    0.000
 RMSDP=3.34D-04 MaxDP=4.11D-03 DE=-1.24D-03 OVMax= 2.48D-03

 Cycle   5  Pass 1  IDiag  3:
 E=-0.785753509388769E-01 Delta-E=       -0.000057975067 Rises=F Damp=F
 DIIS: error= 1.13D-04 at cycle   5 NSaved=   5.
 NSaved= 5 IEnMin= 5 EnMin=-0.785753509388769E-01 IErMin= 5 ErrMin= 1.13D-04
 ErrMax= 1.13D-04  0.00D+00 EMaxC= 1.00D-01 BMatC= 2.91D-07 BMatP= 9.80D-06
 IDIUse=3 WtCom= 9.99D-01 WtEn= 1.13D-03
 Coeff-Com:  0.211D-02-0.147D-01 0.799D-01-0.358D+00 0.129D+01
 Coeff-En:   0.000D+00 0.000D+00 0.000D+00 0.000D+00 0.100D+01
 Coeff:      0.211D-02-0.147D-01 0.798D-01-0.358D+00 0.129D+01
 Gap=     0.526 Goal=   None    Shift=    0.000
 RMSDP=5.03D-05 MaxDP=5.31D-04 DE=-5.80D-05 OVMax= 3.56D-04

 Cycle   6  Pass 1  IDiag  3:
 E=-0.785769507277223E-01 Delta-E=       -0.000001599789 Rises=F Damp=F
 DIIS: error= 3.67D-05 at cycle   6 NSaved=   6.
 NSaved= 6 IEnMin= 6 EnMin=-0.785769507277223E-01 IErMin= 6 ErrMin= 3.67D-05
 ErrMax= 3.67D-05  0.00D+00 EMaxC= 1.00D-01 BMatC= 2.47D-08 BMatP= 2.91D-07
 IDIUse=1 WtCom= 1.00D+00 WtEn= 0.00D+00
 Coeff-Com: -0.399D-03 0.387D-02-0.287D-01 0.154D+00-0.744D+00 0.162D+01
 Coeff:     -0.399D-03 0.387D-02-0.287D-01 0.154D+00-0.744D+00 0.162D+01
 Gap=     0.526 Goal=   None    Shift=    0.000
 RMSDP=1.68D-05 MaxDP=2.09D-04 DE=-1.60D-06 OVMax= 1.27D-04

 Cycle   7  Pass 1  IDiag  3:
 E=-0.785771060006653E-01 Delta-E=       -0.000000155273 Rises=F Damp=F
 DIIS: error= 6.79D-06 at cycle   7 NSaved=   7.
 NSaved= 7 IEnMin= 7 EnMin=-0.785771060006653E-01 IErMin= 7 ErrMin= 6.79D-06
 ErrMax= 6.79D-06  0.00D+00 EMaxC= 1.00D-01 BMatC= 1.58D-09 BMatP= 2.47D-08
 IDIUse=1 WtCom= 1.00D+00 WtEn= 0.00D+00
 Coeff-Com:  0.166D-03-0.168D-02 0.128D-01-0.701D-01 0.362D+00-0.966D+00
 Coeff-Com:  0.166D+01
 Coeff:      0.166D-03-0.168D-02 0.128D-01-0.701D-01 0.362D+00-0.966D+00
 Coeff:      0.166D+01
 Gap=     0.526 Goal=   None    Shift=    0.000
 RMSDP=4.75D-06 MaxDP=5.18D-05 DE=-1.55D-07 OVMax= 3.67D-05

 Cycle   8  Pass 1  IDiag  3:
 E=-0.785771162874482E-01 Delta-E=       -0.000000010287 Rises=F Damp=F
 DIIS: error= 1.06D-06 at cycle   8 NSaved=   8.
 NSaved= 8 IEnMin= 8 EnMin=-0.785771162874482E-01 IErMin= 8 ErrMin= 1.06D-06
 ErrMax= 1.06D-06  0.00D+00 EMaxC= 1.00D-01 BMatC= 5.81D-11 BMatP= 1.58D-09
 IDIUse=1 WtCom= 1.00D+00 WtEn= 0.00D+00
 Coeff-Com: -0.644D-04 0.705D-03-0.565D-02 0.312D-01-0.164D+00 0.457D+00
 Coeff-Com: -0.902D+00 0.158D+01
 Coeff:     -0.644D-04 0.705D-03-0.565D-02 0.312D-01-0.164D+00 0.457D+00
 Coeff:     -0.902D+00 0.158D+01
 Gap=     0.526 Goal=   None    Shift=    0.000
 RMSDP=8.79D-07 MaxDP=6.83D-06 DE=-1.03D-08 OVMax= 7.86D-06

 Cycle   9  Pass 1  IDiag  3:
 E=-0.785771166821405E-01 Delta-E=       -0.000000000395 Rises=F Damp=F
 DIIS: error= 2.97D-07 at cycle   9 NSaved=   9.
 NSaved= 9 IEnMin= 9 EnMin=-0.785771166821405E-01 IErMin= 9 ErrMin= 2.97D-07
 ErrMax= 2.97D-07  0.00D+00 EMaxC= 1.00D-01 BMatC= 3.94D-12 BMatP= 5.81D-11
 IDIUse=1 WtCom= 1.00D+00 WtEn= 0.00D+00
 Coeff-Com:  0.215D-04-0.281D-03 0.244D-02-0.138D-01 0.742D-01-0.211D+00
 Coeff-Com:  0.431D+00-0.930D+00 0.165D+01
 Coeff:      0.215D-04-0.281D-03 0.244D-02-0.138D-01 0.742D-01-0.211D+00
 Coeff:      0.431D+00-0.930D+00 0.165D+01
 Gap=     0.526 Goal=   None    Shift=    0.000
 RMSDP=2.50D-07 MaxDP=2.07D-06 DE=-3.95D-10 OVMax= 2.95D-06

 Cycle  10  Pass 1  IDiag  3:
 E=-0.785771167107896E-01 Delta-E=       -0.000000000029 Rises=F Damp=F
 DIIS: error= 8.32D-08 at cycle  10 NSaved=  10.
 NSaved=10 IEnMin=10 EnMin=-0.785771167107896E-01 IErMin=10 ErrMin= 8.32D-08
 ErrMax= 8.32D-08  0.00D+00 EMaxC= 1.00D-01 BMatC= 2.44D-13 BMatP= 3.94D-12
 IDIUse=1 WtCom= 1.00D+00 WtEn= 0.00D+00
 Coeff-Com: -0.798D-05 0.115D-03-0.104D-02 0.596D-02-0.322D-01 0.921D-01
 Coeff-Com: -0.190D+00 0.430D+00-0.929D+00 0.162D+01
 Coeff:     -0.798D-05 0.115D-03-0.104D-02 0.596D-02-0.322D-01 0.921D-01
 Coeff:     -0.190D+00 0.430D+00-0.929D+00 0.162D+01
 Gap=     0.526 Goal=   None    Shift=    0.000
 RMSDP=6.32D-08 MaxDP=6.04D-07 DE=-2.86D-11 OVMax= 9.04D-07

 Cycle  11  Pass 1  IDiag  3:
 E=-0.785771167125517E-01 Delta-E=       -0.000000000002 Rises=F Damp=F
 DIIS: error= 2.49D-08 at cycle  11 NSaved=  11.
 NSaved=11 IEnMin=11 EnMin=-0.785771167125517E-01 IErMin=11 ErrMin= 2.49D-08
 ErrMax= 2.49D-08  0.00D+00 EMaxC= 1.00D-01 BMatC= 1.56D-14 BMatP= 2.44D-13
 IDIUse=1 WtCom= 1.00D+00 WtEn= 0.00D+00
 Coeff-Com:  0.234D-05-0.326D-04 0.292D-03-0.167D-02 0.906D-02-0.260D-01
 Coeff-Com:  0.539D-01-0.123D+00 0.286D+00-0.694D+00 0.150D+01
 Coeff:      0.234D-05-0.326D-04 0.292D-03-0.167D-02 0.906D-02-0.260D-01
 Coeff:      0.539D-01-0.123D+00 0.286D+00-0.694D+00 0.150D+01
 Gap=     0.526 Goal=   None    Shift=    0.000
 RMSDP=1.56D-08 MaxDP=1.75D-07 DE=-1.76D-12 OVMax= 2.16D-07

 Cycle  12  Pass 1  IDiag  3:
 E=-0.785771167129212E-01 Delta-E=       -0.000000000000 Rises=F Damp=F
 DIIS: error= 6.89D-09 at cycle  12 NSaved=  12.
 NSaved=12 IEnMin=12 EnMin=-0.785771167129212E-01 IErMin=12 ErrMin= 6.89D-09
 ErrMax= 6.89D-09  0.00D+00 EMaxC= 1.00D-01 BMatC= 1.14D-15 BMatP= 1.56D-14
 IDIUse=1 WtCom= 1.00D+00 WtEn= 0.00D+00
 Coeff-Com: -0.512D-06 0.684D-05-0.601D-04 0.343D-03-0.187D-02 0.538D-02
 Coeff-Com: -0.112D-01 0.251D-01-0.614D-01 0.189D+00-0.653D+00 0.151D+01
 Coeff:     -0.512D-06 0.684D-05-0.601D-04 0.343D-03-0.187D-02 0.538D-02
 Coeff:     -0.112D-01 0.251D-01-0.614D-01 0.189D+00-0.653D+00 0.151D+01
 Gap=     0.526 Goal=   None    Shift=    0.000
 RMSDP=4.15D-09 MaxDP=5.10D-08 DE=-3.69D-13 OVMax= 4.84D-08

 Cycle  13  Pass 2  IDiag  1:
 SCF Done:  E(RPM3) = -0.785771167129E-01 A.U. after   13 cycles
            NFock= 12  Conv=0.42D-08     -V/T= 0.9987
 KE=-5.976711719646D+01 PE=-2.572084835029D+02 EE= 1.453841617139D+02
 Leave Link  502 at Wed Sep  7 15:36:04 2022, MaxMem=   131072000 cpu:               0.0 elap:               0.0
 (Enter /opt/g16/l601.exe)
 Copying SCF densities to generalized density rwf, IOpCl= 0 IROHF=0.

 **********************************************************************

            Population analysis using the SCF density.

 **********************************************************************

 Orbital symmetries:
       Occupied  (A) (A) (A) (A) (A) (A) (A) (A) (A) (A) (A) (A)
                 (A) (A) (A) (A) (A) (A) (A)
       Virtual   (A) (A) (A) (A) (A) (A) (A) (A) (A) (A) (A) (A)
                 (A) (A) (A) (A) (A)
 The electronic state is 1-A.
 Alpha  occ. eigenvalues --   -1.52002  -1.24138  -1.19854  -0.97890  -0.78371
 Alpha  occ. eigenvalues --   -0.77022  -0.66667  -0.61899  -0.57241  -0.55044
 Alpha  occ. eigenvalues --   -0.53573  -0.51446  -0.49561  -0.47479  -0.46026
 Alpha  occ. eigenvalues --   -0.44780  -0.44362  -0.41861  -0.41150
 Alpha virt. eigenvalues --    0.11336   0.11878   0.13453   0.13656   0.14167
 Alpha virt. eigenvalues --    0.14704   0.15181   0.15380   0.15667   0.16087
 Alpha virt. eigenvalues --    0.16681   0.16845   0.17640   0.18384   0.18916
 Alpha virt. eigenvalues --    0.19313   0.21131
          Condensed to atoms (all electrons):
               1          2          3          4          5          6
     1  C    4.105178   0.000000   0.000000   0.000000   0.000000   0.000000
     2  H    0.000000   0.969495   0.000000   0.000000   0.000000   0.000000
     3  H    0.000000   0.000000   0.967076   0.000000   0.000000   0.000000
     4  H    0.000000   0.000000   0.000000   0.955428   0.000000   0.000000
     5  C    0.000000   0.000000   0.000000   0.000000   4.162479   0.000000
     6  H    0.000000   0.000000   0.000000   0.000000   0.000000   0.936594
     7  H    0.000000   0.000000   0.000000   0.000000   0.000000   0.000000
     8  C    0.000000   0.000000   0.000000   0.000000   0.000000   0.000000
     9  H    0.000000   0.000000   0.000000   0.000000   0.000000   0.000000
    10  O    0.000000   0.000000   0.000000   0.000000   0.000000   0.000000
    11  C    0.000000   0.000000   0.000000   0.000000   0.000000   0.000000
    12  H    0.000000   0.000000   0.000000   0.000000   0.000000   0.000000
    13  H    0.000000   0.000000   0.000000   0.000000   0.000000   0.000000
    14  H    0.000000   0.000000   0.000000   0.000000   0.000000   0.000000
    15  C    0.000000   0.000000   0.000000   0.000000   0.000000   0.000000
    16  H    0.000000   0.000000   0.000000   0.000000   0.000000   0.000000
    17  H    0.000000   0.000000   0.000000   0.000000   0.000000   0.000000
    18  H    0.000000   0.000000   0.000000   0.000000   0.000000   0.000000
               7          8          9         10         11         12
     1  C    0.000000   0.000000   0.000000   0.000000   0.000000   0.000000
     2  H    0.000000   0.000000   0.000000   0.000000   0.000000   0.000000
     3  H    0.000000   0.000000   0.000000   0.000000   0.000000   0.000000
     4  H    0.000000   0.000000   0.000000   0.000000   0.000000   0.000000
     5  C    0.000000   0.000000   0.000000   0.000000   0.000000   0.000000
     6  H    0.000000   0.000000   0.000000   0.000000   0.000000   0.000000
     7  H    0.918160   0.000000   0.000000   0.000000   0.000000   0.000000
     8  C    0.000000   3.905009   0.000000   0.000000   0.000000   0.000000
     9  H    0.000000   0.000000   0.944144   0.000000   0.000000   0.000000
    10  O    0.000000   0.000000   0.000000   6.326334   0.000000   0.000000
    11  C    0.000000   0.000000   0.000000   0.000000   4.143064   0.000000
    12  H    0.000000   0.000000   0.000000   0.000000   0.000000   0.811749
    13  H    0.000000   0.000000   0.000000   0.000000   0.000000   0.000000
    14  H    0.000000   0.000000   0.000000   0.000000   0.000000   0.000000
    15  C    0.000000   0.000000   0.000000   0.000000   0.000000   0.000000
    16  H    0.000000   0.000000   0.000000   0.000000   0.000000   0.000000
    17  H    0.000000   0.000000   0.000000   0.000000   0.000000   0.000000
    18  H    0.000000   0.000000   0.000000   0.000000   0.000000   0.000000
              13         14         15         16         17         18
     1  C    0.000000   0.000000   0.000000   0.000000   0.000000   0.000000
     2  H    0.000000   0.000000   0.000000   0.000000   0.000000   0.000000
     3  H    0.000000   0.000000   0.000000   0.000000   0.000000   0.000000
     4  H    0.000000   0.000000   0.000000   0.000000   0.000000   0.000000
     5  C    0.000000   0.000000   0.000000   0.000000   0.000000   0.000000
     6  H    0.000000   0.000000   0.000000   0.000000   0.000000   0.000000
     7  H    0.000000   0.000000   0.000000   0.000000   0.000000   0.000000
     8  C    0.000000   0.000000   0.000000   0.000000   0.000000   0.000000
     9  H    0.000000   0.000000   0.000000   0.000000   0.000000   0.000000
    10  O    0.000000   0.000000   0.000000   0.000000   0.000000   0.000000
    11  C    0.000000   0.000000   0.000000   0.000000   0.000000   0.000000
    12  H    0.000000   0.000000   0.000000   0.000000   0.000000   0.000000
    13  H    0.946063   0.000000   0.000000   0.000000   0.000000   0.000000
    14  H    0.000000   0.935722   0.000000   0.000000   0.000000   0.000000
    15  C    0.000000   0.000000   4.098093   0.000000   0.000000   0.000000
    16  H    0.000000   0.000000   0.000000   0.965586   0.000000   0.000000
    17  H    0.000000   0.000000   0.000000   0.000000   0.968124   0.000000
    18  H    0.000000   0.000000   0.000000   0.000000   0.000000   0.941702
 Mulliken charges:
               1
     1  C   -0.105178
     2  H    0.030505
     3  H    0.032924
     4  H    0.044572
     5  C   -0.162479
     6  H    0.063406
     7  H    0.081840
     8  C    0.094991
     9  H    0.055856
    10  O   -0.326334
    11  C   -0.143064
    12  H    0.188251
    13  H    0.053937
    14  H    0.064278
    15  C   -0.098093
    16  H    0.034414
    17  H    0.031876
    18  H    0.058298
 Sum of Mulliken charges =  -0.00000
 Mulliken charges with hydrogens summed into heavy atoms:
               1
     1  C    0.002823
     5  C   -0.017233
     8  C    0.150847
    10  O   -0.138083
    11  C   -0.024850
    15  C    0.026495
 Charge=             -0.0000 electrons
 Dipole moment (field-independent basis, Debye):
    X=              1.1974    Y=             -0.8285    Z=              0.4568  Tot=              1.5260
 N-N= 1.715128618688D+02 E-N=-2.572084835432D+02  KE=-5.976711719646D+01
 Leave Link  601 at Wed Sep  7 15:36:04 2022, MaxMem=   131072000 cpu:               0.0 elap:               0.0
 (Enter /opt/g16/l701.exe)
 ... and contract with generalized density number  0.
 Compute integral first derivatives.
 Leave Link  701 at Wed Sep  7 15:36:04 2022, MaxMem=   131072000 cpu:               0.0 elap:               0.0
 (Enter /opt/g16/l702.exe)
 L702 exits ... SP integral derivatives will be done elsewhere.
 Leave Link  702 at Wed Sep  7 15:36:04 2022, MaxMem=   131072000 cpu:               0.0 elap:               0.0
 (Enter /opt/g16/l703.exe)
 Integral derivatives from FoFJK, PRISM(SPDF).
 Compute integral first derivatives, UseDBF=F ICtDFT=           0.
 Calling FoFJK, ICntrl=      2127 FMM=F ISym2X=0 I1Cent= 0 IOpClX= 0 NMat=1 NMatS=1 NMatT=0.
 FoFJK:  IHMeth= 9 ICntrl=    2127 DoSepK=F KAlg= 0 I1Cent=           0 FoldK=F
 IRaf=         0 NMat=       1 IRICut=       1 DoRegI=T DoRafI=F ISym2E= 0 IDoP0=3 IntGTp=3.
 FoFCou: FMM=F IPFlag=           0 FMFlag=      100000 FMFlg1=         800
         NFxFlg=           0 DoJE=F BraDBF=F KetDBF=F FulRan=T
         wScrn=  0.000000 ICntrl=      2127 IOpCl=  0 I1Cent=           0 NGrid=           0
         NMat0=    1 NMatS0=      1 NMatT0=    0 NMatD0=    1 NMtDS0=    0 NMtDT0=    0
 Symmetry not used in FoFCou.
 Leave Link  703 at Wed Sep  7 15:36:04 2022, MaxMem=   131072000 cpu:               0.0 elap:               0.0
 (Enter /opt/g16/l716.exe)
 Dipole        = 4.71086646D-01-3.25946765D-01 1.79736194D-01
 ***** Axes restored to original set *****
 -------------------------------------------------------------------
 Center     Atomic                   Forces (Hartrees/Bohr)
 Number     Number              X              Y              Z
 -------------------------------------------------------------------
      1        6          -0.028258873   -0.002052226   -0.026708011
      2        1          -0.005750591    0.006127222    0.000720270
      3        1           0.032938882   -0.008490291    0.008174712
      4        1           0.004791913   -0.000737445   -0.003098846
      5        6          -0.017062917   -0.043934347    0.084899255
      6        1          -0.020531982   -0.005546376   -0.008794185
      7        1          -0.010160059   -0.004762630    0.016216850
      8        6           0.058003343    0.015098570    0.019466199
      9        1          -0.002713505    0.038587252    0.011940246
     10        8           0.011462237    0.006768112    0.007491975
     11        6          -0.023906659   -0.003413668   -0.105536335
     12        1          -0.008405895    0.002689743   -0.010655429
     13        1           0.006988995   -0.013186745   -0.012495485
     14        1           0.007736202    0.015437520    0.007006900
     15        6          -0.006851208    0.003827592    0.017139977
     16        1           0.010613833   -0.011193740   -0.001310679
     17        1           0.003703521   -0.002407603   -0.003167216
     18        1          -0.012597237    0.007189058   -0.001290198
 -------------------------------------------------------------------
 Cartesian Forces:  Max     0.105536335 RMS     0.024536756
 Leave Link  716 at Wed Sep  7 15:36:04 2022, MaxMem=   131072000 cpu:               0.0 elap:               0.0
 (Enter /opt/g16/l103.exe)

 GradGradGradGradGradGradGradGradGradGradGradGradGradGradGradGradGradGrad
 Berny optimization.
 FormGI is forming the generalized inverse of G from B-inverse, IUseBI=4.
 Internal  Forces:  Max     0.101008152 RMS     0.018289591
 Search for a local minimum.
 Step number   1 out of a maximum of   97
 All quantities printed in internal units (Hartrees-Bohrs-Radians)
 RMS Force = .18290D-01 SwitMx=.10000D-02 MixMth= 1
 Mixed Optimization -- RFO/linear search
 Second derivative matrix not updated -- first step.
 ITU=  0
     Eigenvalues ---    0.00230   0.00313   0.01168   0.01490   0.01573
     Eigenvalues ---    0.03158   0.03779   0.04744   0.05145   0.05207
     Eigenvalues ---    0.05361   0.05572   0.05654   0.05822   0.06691
     Eigenvalues ---    0.07053   0.08779   0.09648   0.12409   0.13281
     Eigenvalues ---    0.14944   0.16000   0.16000   0.16000   0.16000
     Eigenvalues ---    0.16000   0.16000   0.16000   0.19179   0.21703
     Eigenvalues ---    0.22027   0.27322   0.29039   0.29890   0.31638
     Eigenvalues ---    0.31642   0.32245   0.33356   0.34023   0.34357
     Eigenvalues ---    0.34377   0.36246   0.38873   0.39045   0.39638
     Eigenvalues ---    0.39676   0.39724   0.55422
 RFO step:  Lambda=-7.58521112D-02 EMin= 2.30000000D-03
 Linear search not attempted -- first point.
 Maximum step size (   0.300) exceeded in Quadratic search.
    -- Step size scaled by   0.711
 Iteration  1 RMS(Cart)=  0.10368675 RMS(Int)=  0.00316340
 Iteration  2 RMS(Cart)=  0.00410996 RMS(Int)=  0.00042349
 Iteration  3 RMS(Cart)=  0.00001239 RMS(Int)=  0.00042343
 Iteration  4 RMS(Cart)=  0.00000001 RMS(Int)=  0.00042343
 ITry= 1 IFail=0 DXMaxC= 3.85D-01 DCOld= 1.00D+10 DXMaxT= 3.00D-01 DXLimC= 3.00D+00 Rises=F
 Variable       Old X    -DE/DX   Delta X   Delta X   Delta X     New X
                                 (Linear)    (Quad)   (Total)
    R1        2.06699   0.00773   0.00000   0.01310   0.01310   2.08008
    R2        1.98697   0.03366   0.00000   0.05066   0.05066   2.03763
    R3        2.08430  -0.00376   0.00000  -0.00652  -0.00652   2.07778
    R4        2.93644  -0.02101   0.00000  -0.04281  -0.04281   2.89363
    R5        2.03699   0.02066   0.00000   0.03353   0.03353   2.07051
    R6        2.11512  -0.00498   0.00000  -0.00903  -0.00903   2.10608
    R7        2.73115   0.10101   0.00000   0.15464   0.15464   2.88579
    R8        1.99572   0.04045   0.00000   0.06171   0.06171   2.05742
    R9        2.72048   0.00076   0.00000   0.00115   0.00115   2.72163
   R10        2.71930   0.09765   0.00000   0.14682   0.14682   2.86611
   R11        1.81459  -0.01299   0.00000  -0.01467  -0.01467   1.79993
   R12        2.07292   0.01737   0.00000   0.02970   0.02970   2.10261
   R13        2.14884  -0.01091   0.00000  -0.02071  -0.02071   2.12813
   R14        2.89923  -0.01129   0.00000  -0.02192  -0.02192   2.87730
   R15        2.11505  -0.01375   0.00000  -0.02494  -0.02494   2.09011
   R16        2.06732   0.00152   0.00000   0.00258   0.00258   2.06989
   R17        2.10398  -0.01295   0.00000  -0.02312  -0.02312   2.08085
    A1        1.80945   0.00616   0.00000   0.02525   0.02538   1.83482
    A2        1.85126   0.00166   0.00000   0.00805   0.00809   1.85935
    A3        1.90209   0.00094   0.00000   0.00809   0.00817   1.91026
    A4        1.92080   0.00117   0.00000  -0.00452  -0.00495   1.91584
    A5        2.02038  -0.00706   0.00000  -0.02294  -0.02313   1.99725
    A6        1.94722  -0.00156   0.00000  -0.00840  -0.00865   1.93857
    A7        1.76422   0.00912   0.00000   0.02722   0.02731   1.79153
    A8        2.03370  -0.01223   0.00000  -0.05122  -0.05088   1.98282
    A9        2.00505  -0.00963   0.00000  -0.01905  -0.01891   1.98614
   A10        1.94559  -0.00581   0.00000  -0.02384  -0.02427   1.92132
   A11        1.92404  -0.00018   0.00000   0.00387   0.00386   1.92790
   A12        1.79526   0.01767   0.00000   0.05985   0.05957   1.85483
   A13        1.98766  -0.01357   0.00000  -0.04031  -0.03944   1.94822
   A14        1.91763  -0.00348   0.00000   0.00478   0.00366   1.92129
   A15        1.80308   0.03728   0.00000   0.11236   0.11239   1.91547
   A16        1.88497   0.00401   0.00000  -0.01178  -0.01285   1.87211
   A17        1.99628  -0.01343   0.00000  -0.04431  -0.04400   1.95228
   A18        1.87000  -0.01038   0.00000  -0.01619  -0.01853   1.85147
   A19        1.89993  -0.00853   0.00000  -0.02573  -0.02573   1.87420
   A20        1.81907   0.01059   0.00000   0.04461   0.04488   1.86395
   A21        2.03957  -0.00306   0.00000  -0.02064  -0.02126   2.01830
   A22        2.04207  -0.00777   0.00000  -0.02303  -0.02357   2.01850
   A23        1.70804   0.00257   0.00000   0.02143   0.02166   1.72970
   A24        1.88120  -0.00285   0.00000  -0.00662  -0.00630   1.87489
   A25        1.93026   0.00320   0.00000  -0.00112  -0.00210   1.92817
   A26        1.92795   0.00138   0.00000   0.00439   0.00436   1.93231
   A27        1.91914   0.00145   0.00000   0.00685   0.00678   1.92592
   A28        1.90280   0.00681   0.00000   0.01772   0.01770   1.92050
   A29        1.82244   0.00172   0.00000   0.01097   0.01088   1.83332
   A30        1.96449  -0.00700   0.00000  -0.02579  -0.02577   1.93872
   A31        1.92594  -0.00461   0.00000  -0.01444  -0.01449   1.91144
    D1       -1.02126  -0.00197   0.00000  -0.01247  -0.01244  -1.03370
    D2       -3.13268   0.00528   0.00000   0.02500   0.02508  -3.10760
    D3        1.04953  -0.00098   0.00000   0.00039   0.00022   1.04975
    D4       -3.05161  -0.00608   0.00000  -0.03607  -0.03588  -3.08749
    D5        1.12015   0.00117   0.00000   0.00141   0.00165   1.12180
    D6       -0.98082  -0.00509   0.00000  -0.02320  -0.02322  -1.00404
    D7        1.01711  -0.00028   0.00000  -0.00254  -0.00261   1.01450
    D8       -1.09431   0.00698   0.00000   0.03493   0.03492  -1.05939
    D9        3.08790   0.00072   0.00000   0.01032   0.01005   3.09796
   D10       -0.75734  -0.00201   0.00000  -0.00671  -0.00699  -0.76433
   D11        1.35963  -0.00878   0.00000  -0.04633  -0.04698   1.31265
   D12       -2.93297  -0.00341   0.00000  -0.00650  -0.00603  -2.93900
   D13        1.22152   0.00353   0.00000   0.01857   0.01833   1.23985
   D14       -2.94470  -0.00323   0.00000  -0.02104  -0.02166  -2.96636
   D15       -0.95411   0.00213   0.00000   0.01879   0.01929  -0.93482
   D16       -2.98520   0.00638   0.00000   0.02544   0.02558  -2.95962
   D17       -0.86823  -0.00039   0.00000  -0.01418  -0.01440  -0.88264
   D18        1.12235   0.00498   0.00000   0.02565   0.02655   1.14890
   D19       -0.96594   0.01721   0.00000   0.05645   0.05603  -0.90991
   D20        1.21152   0.00075   0.00000   0.00154   0.00151   1.21303
   D21       -2.91321  -0.01925   0.00000  -0.06838  -0.06793  -2.98114
   D22       -1.17237  -0.00535   0.00000  -0.02709  -0.02741  -1.19977
   D23        0.68909   0.00285   0.00000   0.01690   0.01635   0.70545
   D24        3.03614  -0.00497   0.00000  -0.03782  -0.03782   2.99832
   D25        2.94081  -0.00688   0.00000  -0.03014  -0.02971   2.91110
   D26       -1.48091   0.00132   0.00000   0.01386   0.01405  -1.46687
   D27        0.86613  -0.00650   0.00000  -0.04087  -0.04013   0.82600
   D28        0.85237   0.00354   0.00000   0.02311   0.02293   0.87529
   D29        2.71383   0.01174   0.00000   0.06711   0.06669   2.78052
   D30       -1.22231   0.00392   0.00000   0.01239   0.01251  -1.20980
   D31       -1.07412   0.00762   0.00000   0.04354   0.04356  -1.03055
   D32       -3.07644   0.00392   0.00000   0.02379   0.02378  -3.05266
   D33        1.09317   0.00439   0.00000   0.02612   0.02610   1.11927
   D34       -3.11514   0.00095   0.00000   0.00548   0.00550  -3.10964
   D35        1.16572  -0.00275   0.00000  -0.01427  -0.01428   1.15144
   D36       -0.94786  -0.00228   0.00000  -0.01194  -0.01197  -0.95982
   D37        1.31966  -0.00205   0.00000  -0.01560  -0.01555   1.30411
   D38       -0.68266  -0.00576   0.00000  -0.03534  -0.03533  -0.71800
   D39       -2.79624  -0.00529   0.00000  -0.03301  -0.03302  -2.82926
         Item               Value     Threshold  Converged?
 Maximum Force            0.101008     0.000450     NO 
 RMS     Force            0.018290     0.000300     NO 
 Maximum Displacement     0.384521     0.001800     NO 
 RMS     Displacement     0.103141     0.001200     NO 
 Predicted change in Energy=-3.940800D-02
 Lowest energy point so far.  Saving SCF results.
 GradGradGradGradGradGradGradGradGradGradGradGradGradGradGradGradGradGrad

 Leave Link  103 at Wed Sep  7 15:36:04 2022, MaxMem=   131072000 cpu:               0.0 elap:               0.0
 (Enter /opt/g16/l202.exe)
                          Input orientation:                          
 ---------------------------------------------------------------------
 Center     Atomic      Atomic             Coordinates (Angstroms)
 Number     Number       Type             X           Y           Z
 ---------------------------------------------------------------------
      1          6           0        4.908465   11.725052    8.000686
      2          1           0        4.533928   12.733427    8.234172
      3          1           0        5.936715   11.724647    8.325276
      4          1           0        4.324398   11.024420    8.614612
      5          6           0        4.715288   11.442294    6.508226
      6          1           0        3.631620   11.544606    6.382983
      7          1           0        5.041324   10.421657    6.201480
      8          6           0        5.452766   12.419505    5.595425
      9          1           0        5.340903   13.447936    5.934799
     10          8           0        6.862016   12.122508    5.588728
     11          6           0        4.979220   12.242077    4.165532
     12          1           0        7.149626   12.086767    6.496043
     13          1           0        5.347457   11.248599    3.825818
     14          1           0        3.872973   12.076046    4.035607
     15          6           0        5.482558   13.279322    3.171001
     16          1           0        5.173338   14.296406    3.476363
     17          1           0        5.019048   13.123548    2.190867
     18          1           0        6.577357   13.210183    3.075382
 ---------------------------------------------------------------------
                    Distance matrix (angstroms):
                    1          2          3          4          5
     1  C    0.000000
     2  H    1.100733   0.000000
     3  H    1.078266   1.730245   0.000000
     4  H    1.099512   1.763333   1.781460   0.000000
     5  C    1.531244   2.163055   2.207550   2.182723   0.000000
     6  H    2.068782   2.377889   3.019666   2.393889   1.095669
     7  H    2.225676   3.119866   2.647643   2.588535   1.114491
     8  C    2.561993   2.811724   2.858168   3.512117   1.527095
     9  H    2.724559   2.539458   3.006509   3.753413   2.177800
    10  O    3.129198   3.576534   2.916020   4.098937   2.432408
    11  C    3.870494   4.122322   4.299768   4.658948   2.489483
    12  H    2.723526   3.206422   2.224496   3.687660   2.518232
    13  H    4.224837   4.722301   4.562781   4.901986   2.762693
    14  H    4.113064   4.300809   4.773235   4.719851   2.687933
    15  C    5.105996   5.180116   5.402761   6.004900   3.885929
    16  H    5.210712   5.048613   5.541538   6.150463   4.189028
    17  H    5.976790   6.075283   6.358460   6.793628   4.643110
    18  H    5.408275   5.569202   5.493508   6.366825   4.286858
                    6          7          8          9         10
     6  H    0.000000
     7  H    1.811414   0.000000
     8  C    2.168471   2.127906   0.000000
     9  H    2.597149   3.052741   1.088741   0.000000
    10  O    3.376429   2.565790   1.440222   2.047025   0.000000
    11  C    2.686927   2.731825   1.516681   2.171455   2.363198
    12  H    3.561333   2.702646   1.949657   2.332221   0.952479
    13  H    3.093673   2.534033   2.124529   3.047118   2.483034
    14  H    2.418854   2.965308   2.246496   2.764748   3.368787
    15  C    4.092926   4.188644   2.572549   2.772558   3.014387
    16  H    4.289258   4.738920   2.844514   2.606125   3.469806
    17  H    4.689547   4.835879   3.503542   3.771716   3.993003
    18  H    4.731991   4.461811   2.870627   3.124358   2.753357
                   11         12         13         14         15
    11  C    0.000000
    12  H    3.188427   0.000000
    13  H    1.112655   3.328729   0.000000
    14  H    1.126157   4.097599   1.703756   0.000000
    15  C    1.522603   3.906048   2.137960   2.187735   0.000000
    16  H    2.175524   4.231629   3.072712   2.633193   1.106038
    17  H    2.162841   4.914145   2.509253   2.411185   1.095340
    18  H    2.163261   3.645611   2.433848   3.085773   1.101140
                   16         17         18
    16  H    0.000000
    17  H    1.746968   0.000000
    18  H    1.819872   1.793934   0.000000
 Stoichiometry    C5H12O
 Framework group  C1[X(C5H12O)]
 Deg. of freedom    48
 Full point group                 C1      NOp   1
 RotChk:  IX=0 Diff= 4.17D-02
 Largest Abelian subgroup         C1      NOp   1
 Largest concise Abelian subgroup C1      NOp   1
                         Standard orientation:                         
 ---------------------------------------------------------------------
 Center     Atomic      Atomic             Coordinates (Angstroms)
 Number     Number       Type             X           Y           Z
 ---------------------------------------------------------------------
      1          6           0        2.546874   -0.176525    0.317679
      2          1           0        2.504139   -0.400514    1.394534
      3          1           0        2.744472    0.881801    0.258023
      4          1           0        3.402291   -0.737842   -0.084951
      5          6           0        1.238793   -0.615060   -0.346637
      6          1           0        1.205269   -1.687661   -0.125515
      7          1           0        1.221007   -0.450785   -1.448811
      8          6           0        0.000401    0.083734    0.210222
      9          1           0        0.023827    0.135657    1.297472
     10          8           0       -0.067228    1.435939   -0.280908
     11          6           0       -1.250153   -0.609835   -0.295147
     12          1           0        0.772389    1.847165   -0.098826
     13          1           0       -1.311880   -0.405906   -1.387211
     14          1           0       -1.204787   -1.734650   -0.326195
     15          6           0       -2.559020   -0.146617    0.329846
     16          1           0       -2.543274   -0.294947    1.425779
     17          1           0       -3.391058   -0.762351   -0.028420
     18          1           0       -2.745943    0.908339    0.075609
 ---------------------------------------------------------------------
 Rotational constants (GHZ):           7.0094142           1.8827270           1.6456258
 Leave Link  202 at Wed Sep  7 15:36:04 2022, MaxMem=   131072000 cpu:               0.0 elap:               0.0
 (Enter /opt/g16/l301.exe)
 Standard basis: VSTO-6G (5D, 7F)
 Ernie: Thresh=  0.10000D-02 Tol=  0.10000D-05 Strict=F.
  NNHCO=     0 NNPyr=     0 NCTC=     0               EPep=         0.000000000
    EC=       127.459845879  ECS=         2.196983191   EG=         0.561989034
   EHC=         0.000000000  EAt=       -36.836480110  AtH=         2.452923921
 EPDDG=         0.000000000  ECC=       130.218818104 EAtT=        39.289404030
 There are    36 symmetry adapted cartesian basis functions of A   symmetry.
 There are    36 symmetry adapted basis functions of A   symmetry.
    36 basis functions,   216 primitive gaussians,    36 cartesian basis functions
    19 alpha electrons       19 beta electrons
       nuclear repulsion energy       169.5082221342 Hartrees.
 IExCor=    0 DFT=F Ex=HF Corr=None ExCW=0 ScaHFX=  1.000000
 ScaDFX=  1.000000  1.000000  1.000000  1.000000 ScalE2=  1.000000  1.000000
 IRadAn=      5 IRanWt=     -1 IRanGd=            0 ICorTp=0 IEmpDi=  4
 Integral buffers will be    131072 words long.
 Regular integral format.
 Two-electron integral symmetry is turned off.
 Leave Link  301 at Wed Sep  7 15:36:04 2022, MaxMem=   131072000 cpu:               0.0 elap:               0.0
 (Enter /opt/g16/l302.exe)
 Do NDO integrals.
 NPDir=0 NMtPBC=     1 NCelOv=     1 NCel=       1 NClECP=     1 NCelD=      1
         NCelK=      1 NCelE2=     1 NClLst=     1 CellRange=     0.0.
 One-electron integrals computed using PRISM.
 NBasis=    36 RedAO= F EigKep=  0.00D+00  NBF=    36
 NBsUse=    36 1.00D-04 EigRej=  0.00D+00 NBFU=    36
 Leave Link  302 at Wed Sep  7 15:36:04 2022, MaxMem=   131072000 cpu:               0.0 elap:               0.0
 (Enter /opt/g16/l303.exe)
 DipDrv:  MaxL=1.
 Leave Link  303 at Wed Sep  7 15:36:04 2022, MaxMem=   131072000 cpu:               0.0 elap:               0.0
 (Enter /opt/g16/l401.exe)
 Initial guess from the checkpoint file:  "MD_extract_019_gaussian.chk"
 B after Tr=     0.000000    0.000000   -0.000000
         Rot=    0.999876    0.015682    0.000686   -0.000895 Ang=   1.80 deg.
 Guess basis will be translated and rotated to current coordinates.
 JPrj=0 DoOrth=T DoCkMO=T.
 Leave Link  401 at Wed Sep  7 15:36:04 2022, MaxMem=   131072000 cpu:               0.1 elap:               0.0
 (Enter /opt/g16/l502.exe)
 Keep J ints in memory in canonical form, NReq=862161.
 FoFCou: FMM=F IPFlag=           0 FMFlag=           0 FMFlg1=           0
         NFxFlg=           0 DoJE=F BraDBF=F KetDBF=F FulRan=T
         wScrn=  0.000000 ICntrl=       600 IOpCl=  2 I1Cent=           0 NGrid=           0
         NMat0=    1 NMatS0=     72 NMatT0=    0 NMatD0=    1 NMtDS0=    0 NMtDT0=    0
 Symmetry not used in FoFCou.
 Two-electron integral symmetry not used.
 Closed shell SCF:
 Using DIIS extrapolation, IDIIS=  1040.
 Overlap will be assumed to be unity.
 NGot=   131072000 LenX=   131006778 LenY=   131005041
 Requested convergence on RMS density matrix=1.00D-08 within 128 cycles.
 Requested convergence on MAX density matrix=1.00D-06.
 Requested convergence on             energy=1.00D-06.
 No special actions if energy rises.

 Cycle   1  Pass 1  IDiag  1:
 E=-0.934877129780318E-01
 DIIS: error= 8.34D-03 at cycle   1 NSaved=   1.
 NSaved= 1 IEnMin= 1 EnMin=-0.934877129780318E-01 IErMin= 1 ErrMin= 8.34D-03
 ErrMax= 8.34D-03  0.00D+00 EMaxC= 1.00D-01 BMatC= 4.01D-03 BMatP= 4.01D-03
 IDIUse=3 WtCom= 9.17D-01 WtEn= 8.34D-02
 Coeff-Com:  0.100D+01
 Coeff-En:   0.100D+01
 Coeff:      0.100D+01
 GapD=    2.000 DampG=2.000 DampE=1.000 DampFc=2.0000 IDamp=-1.
 RMSDP=3.10D-03 MaxDP=1.90D-02              OVMax= 0.00D+00

 Cycle   2  Pass 1  IDiag  3:
 E=-0.106718879749565     Delta-E=       -0.013231166772 Rises=F Damp=F
 DIIS: error= 3.31D-03 at cycle   2 NSaved=   2.
 NSaved= 2 IEnMin= 2 EnMin=-0.106718879749565     IErMin= 2 ErrMin= 3.31D-03
 ErrMax= 3.31D-03  0.00D+00 EMaxC= 1.00D-01 BMatC= 5.17D-04 BMatP= 4.01D-03
 IDIUse=3 WtCom= 9.67D-01 WtEn= 3.31D-02
 Coeff-Com: -0.481D+00 0.148D+01
 Coeff-En:   0.000D+00 0.100D+01
 Coeff:     -0.465D+00 0.147D+01
 Gap=     0.521 Goal=   None    Shift=    0.000
 RMSDP=1.80D-03 MaxDP=1.17D-02 DE=-1.32D-02 OVMax= 1.03D-02

 Cycle   3  Pass 1  IDiag  3:
 E=-0.109045551635433     Delta-E=       -0.002326671886 Rises=F Damp=F
 DIIS: error= 5.31D-04 at cycle   3 NSaved=   3.
 NSaved= 3 IEnMin= 3 EnMin=-0.109045551635433     IErMin= 3 ErrMin= 5.31D-04
 ErrMax= 5.31D-04  0.00D+00 EMaxC= 1.00D-01 BMatC= 1.36D-05 BMatP= 5.17D-04
 IDIUse=3 WtCom= 9.95D-01 WtEn= 5.31D-03
 Coeff-Com:  0.159D+00-0.592D+00 0.143D+01
 Coeff-En:   0.000D+00 0.000D+00 0.100D+01
 Coeff:      0.158D+00-0.588D+00 0.143D+01
 Gap=     0.521 Goal=   None    Shift=    0.000
 RMSDP=3.54D-04 MaxDP=2.01D-03 DE=-2.33D-03 OVMax= 2.37D-03

 Cycle   4  Pass 1  IDiag  3:
 E=-0.109117396447289     Delta-E=       -0.000071844812 Rises=F Damp=F
 DIIS: error= 1.59D-04 at cycle   4 NSaved=   4.
 NSaved= 4 IEnMin= 4 EnMin=-0.109117396447289     IErMin= 4 ErrMin= 1.59D-04
 ErrMax= 1.59D-04  0.00D+00 EMaxC= 1.00D-01 BMatC= 4.41D-07 BMatP= 1.36D-05
 IDIUse=3 WtCom= 9.98D-01 WtEn= 1.59D-03
 Coeff-Com: -0.781D-01 0.297D+00-0.795D+00 0.158D+01
 Coeff-En:   0.000D+00 0.000D+00 0.000D+00 0.100D+01
 Coeff:     -0.779D-01 0.297D+00-0.794D+00 0.158D+01
 Gap=     0.521 Goal=   None    Shift=    0.000
 RMSDP=6.97D-05 MaxDP=7.02D-04 DE=-7.18D-05 OVMax= 9.57D-04

 Cycle   5  Pass 1  IDiag  3:
 E=-0.109120237314357     Delta-E=       -0.000002840867 Rises=F Damp=F
 DIIS: error= 4.84D-05 at cycle   5 NSaved=   5.
 NSaved= 5 IEnMin= 5 EnMin=-0.109120237314357     IErMin= 5 ErrMin= 4.84D-05
 ErrMax= 4.84D-05  0.00D+00 EMaxC= 1.00D-01 BMatC= 3.60D-08 BMatP= 4.41D-07
 IDIUse=1 WtCom= 1.00D+00 WtEn= 0.00D+00
 Coeff-Com:  0.351D-01-0.134D+00 0.369D+00-0.931D+00 0.166D+01
 Coeff:      0.351D-01-0.134D+00 0.369D+00-0.931D+00 0.166D+01
 Gap=     0.521 Goal=   None    Shift=    0.000
 RMSDP=2.41D-05 MaxDP=2.66D-04 DE=-2.84D-06 OVMax= 3.45D-04

 Cycle   6  Pass 1  IDiag  3:
 E=-0.109120499804931     Delta-E=       -0.000000262491 Rises=F Damp=F
 DIIS: error= 8.43D-06 at cycle   6 NSaved=   6.
 NSaved= 6 IEnMin= 6 EnMin=-0.109120499804931     IErMin= 6 ErrMin= 8.43D-06
 ErrMax= 8.43D-06  0.00D+00 EMaxC= 1.00D-01 BMatC= 1.64D-09 BMatP= 3.60D-08
 IDIUse=1 WtCom= 1.00D+00 WtEn= 0.00D+00
 Coeff-Com: -0.901D-02 0.345D-01-0.961D-01 0.265D+00-0.635D+00 0.144D+01
 Coeff:     -0.901D-02 0.345D-01-0.961D-01 0.265D+00-0.635D+00 0.144D+01
 Gap=     0.521 Goal=   None    Shift=    0.000
 RMSDP=4.88D-06 MaxDP=5.52D-05 DE=-2.62D-07 OVMax= 5.47D-05

 Cycle   7  Pass 1  IDiag  3:
 E=-0.109120511038100     Delta-E=       -0.000000011233 Rises=F Damp=F
 DIIS: error= 1.64D-06 at cycle   7 NSaved=   7.
 NSaved= 7 IEnMin= 7 EnMin=-0.109120511038100     IErMin= 7 ErrMin= 1.64D-06
 ErrMax= 1.64D-06  0.00D+00 EMaxC= 1.00D-01 BMatC= 1.04D-10 BMatP= 1.64D-09
 IDIUse=1 WtCom= 1.00D+00 WtEn= 0.00D+00
 Coeff-Com:  0.272D-02-0.104D-01 0.290D-01-0.817D-01 0.216D+00-0.657D+00
 Coeff-Com:  0.150D+01
 Coeff:      0.272D-02-0.104D-01 0.290D-01-0.817D-01 0.216D+00-0.657D+00
 Coeff:      0.150D+01
 Gap=     0.521 Goal=   None    Shift=    0.000
 RMSDP=1.14D-06 MaxDP=1.11D-05 DE=-1.12D-08 OVMax= 1.21D-05

 Cycle   8  Pass 1  IDiag  3:
 E=-0.109120511732613     Delta-E=       -0.000000000695 Rises=F Damp=F
 DIIS: error= 5.82D-07 at cycle   8 NSaved=   8.
 NSaved= 8 IEnMin= 8 EnMin=-0.109120511732613     IErMin= 8 ErrMin= 5.82D-07
 ErrMax= 5.82D-07  0.00D+00 EMaxC= 1.00D-01 BMatC= 7.69D-12 BMatP= 1.04D-10
 IDIUse=1 WtCom= 1.00D+00 WtEn= 0.00D+00
 Coeff-Com: -0.750D-03 0.286D-02-0.802D-02 0.225D-01-0.616D-01 0.209D+00
 Coeff-Com: -0.677D+00 0.151D+01
 Coeff:     -0.750D-03 0.286D-02-0.802D-02 0.225D-01-0.616D-01 0.209D+00
 Coeff:     -0.677D+00 0.151D+01
 Gap=     0.521 Goal=   None    Shift=    0.000
 RMSDP=3.38D-07 MaxDP=3.43D-06 DE=-6.95D-10 OVMax= 4.47D-06

 Cycle   9  Pass 1  IDiag  3:
 E=-0.109120511789030     Delta-E=       -0.000000000056 Rises=F Damp=F
 DIIS: error= 2.33D-07 at cycle   9 NSaved=   9.
 NSaved= 9 IEnMin= 9 EnMin=-0.109120511789030     IErMin= 9 ErrMin= 2.33D-07
 ErrMax= 2.33D-07  0.00D+00 EMaxC= 1.00D-01 BMatC= 6.78D-13 BMatP= 7.69D-12
 IDIUse=1 WtCom= 1.00D+00 WtEn= 0.00D+00
 Coeff-Com:  0.218D-03-0.833D-03 0.234D-02-0.656D-02 0.189D-01-0.693D-01
 Coeff-Com:  0.259D+00-0.808D+00 0.160D+01
 Coeff:      0.218D-03-0.833D-03 0.234D-02-0.656D-02 0.189D-01-0.693D-01
 Coeff:      0.259D+00-0.808D+00 0.160D+01
 Gap=     0.521 Goal=   None    Shift=    0.000
 RMSDP=1.08D-07 MaxDP=1.52D-06 DE=-5.64D-11 OVMax= 1.41D-06

 Cycle  10  Pass 1  IDiag  3:
 E=-0.109120511794515     Delta-E=       -0.000000000005 Rises=F Damp=F
 DIIS: error= 6.47D-08 at cycle  10 NSaved=  10.
 NSaved=10 IEnMin=10 EnMin=-0.109120511794515     IErMin=10 ErrMin= 6.47D-08
 ErrMax= 6.47D-08  0.00D+00 EMaxC= 1.00D-01 BMatC= 5.72D-14 BMatP= 6.78D-13
 IDIUse=1 WtCom= 1.00D+00 WtEn= 0.00D+00
 Coeff-Com: -0.275D-04 0.105D-03-0.305D-03 0.886D-03-0.322D-02 0.152D-01
 Coeff-Com: -0.705D-01 0.281D+00-0.843D+00 0.162D+01
 Coeff:     -0.275D-04 0.105D-03-0.305D-03 0.886D-03-0.322D-02 0.152D-01
 Coeff:     -0.705D-01 0.281D+00-0.843D+00 0.162D+01
 Gap=     0.521 Goal=   None    Shift=    0.000
 RMSDP=3.33D-08 MaxDP=4.72D-07 DE=-5.49D-12 OVMax= 3.64D-07

 Cycle  11  Pass 1  IDiag  3:
 E=-0.109120511795027     Delta-E=       -0.000000000001 Rises=F Damp=F
 DIIS: error= 9.41D-09 at cycle  11 NSaved=  11.
 NSaved=11 IEnMin=11 EnMin=-0.109120511795027     IErMin=11 ErrMin= 9.41D-09
 ErrMax= 9.41D-09  0.00D+00 EMaxC= 1.00D-01 BMatC= 1.94D-15 BMatP= 5.72D-14
 IDIUse=1 WtCom= 1.00D+00 WtEn= 0.00D+00
 Coeff-Com:  0.152D-05-0.590D-05 0.210D-04-0.765D-04 0.491D-03-0.310D-02
 Coeff-Com:  0.163D-01-0.716D-01 0.243D+00-0.615D+00 0.143D+01
 Coeff:      0.152D-05-0.590D-05 0.210D-04-0.765D-04 0.491D-03-0.310D-02
 Coeff:      0.163D-01-0.716D-01 0.243D+00-0.615D+00 0.143D+01
 Gap=     0.521 Goal=   None    Shift=    0.000
 RMSDP=5.28D-09 MaxDP=6.64D-08 DE=-5.12D-13 OVMax= 4.72D-08

 Cycle  12  Pass 2  IDiag  1:
 SCF Done:  E(RPM3) = -0.109120511795     A.U. after   12 cycles
            NFock= 11  Conv=0.53D-08     -V/T= 0.9982
 KE=-5.967530651673D+01 PE=-2.534914737685D+02 EE= 1.435494376392D+02
 Leave Link  502 at Wed Sep  7 15:36:04 2022, MaxMem=   131072000 cpu:               0.0 elap:               0.0
 (Enter /opt/g16/l701.exe)
 ... and contract with generalized density number  0.
 Compute integral first derivatives.
 Leave Link  701 at Wed Sep  7 15:36:04 2022, MaxMem=   131072000 cpu:               0.0 elap:               0.0
 (Enter /opt/g16/l702.exe)
 L702 exits ... SP integral derivatives will be done elsewhere.
 Leave Link  702 at Wed Sep  7 15:36:05 2022, MaxMem=   131072000 cpu:               0.0 elap:               0.0
 (Enter /opt/g16/l703.exe)
 Integral derivatives from FoFJK, PRISM(SPDF).
 Compute integral first derivatives, UseDBF=F ICtDFT=           0.
 Calling FoFJK, ICntrl=      2127 FMM=F ISym2X=0 I1Cent= 0 IOpClX= 0 NMat=1 NMatS=1 NMatT=0.
 FoFJK:  IHMeth= 9 ICntrl=    2127 DoSepK=F KAlg= 0 I1Cent=           0 FoldK=F
 IRaf=         0 NMat=       1 IRICut=       1 DoRegI=T DoRafI=F ISym2E= 0 IDoP0=3 IntGTp=3.
 FoFCou: FMM=F IPFlag=           0 FMFlag=      100000 FMFlg1=         800
         NFxFlg=           0 DoJE=F BraDBF=F KetDBF=F FulRan=T
         wScrn=  0.000000 ICntrl=      2127 IOpCl=  0 I1Cent=           0 NGrid=           0
         NMat0=    1 NMatS0=      1 NMatT0=    0 NMatD0=    1 NMtDS0=    0 NMtDT0=    0
 Symmetry not used in FoFCou.
 Leave Link  703 at Wed Sep  7 15:36:05 2022, MaxMem=   131072000 cpu:               0.0 elap:               0.0
 (Enter /opt/g16/l716.exe)
 Dipole        = 4.74875242D-01-3.15788940D-01 2.14178728D-01
 ***** Axes restored to original set *****
 -------------------------------------------------------------------
 Center     Atomic                   Forces (Hartrees/Bohr)
 Number     Number              X              Y              Z
 -------------------------------------------------------------------
      1        6          -0.011307495    0.003800539   -0.013737292
      2        1          -0.001355879    0.000622835    0.000780509
      3        1           0.012670357   -0.005373922    0.002634019
      4        1           0.003777544   -0.000869170   -0.000933955
      5        6           0.002977487   -0.000653013    0.016841685
      6        1          -0.006105044   -0.004302490   -0.009313180
      7        1          -0.006020991    0.001600603    0.007095646
      8        6           0.017225409   -0.009861534    0.002086154
      9        1          -0.003474081    0.015563090    0.004341894
     10        8          -0.006734751    0.004009392    0.001868376
     11        6          -0.004027454   -0.014698122   -0.025271165
     12        1          -0.003849743    0.000931553   -0.003953439
     13        1           0.003358552   -0.002027064   -0.001908862
     14        1           0.006083006    0.010983781    0.010064406
     15        6          -0.008096151    0.001399597    0.012937436
     16        1           0.006656093   -0.003821952   -0.000009422
     17        1           0.002696373   -0.002090080   -0.002552965
     18        1          -0.004473233    0.004785958   -0.000969846
 -------------------------------------------------------------------
 Cartesian Forces:  Max     0.025271165 RMS     0.007868213
 Leave Link  716 at Wed Sep  7 15:36:05 2022, MaxMem=   131072000 cpu:               0.0 elap:               0.0
 (Enter /opt/g16/l103.exe)

 GradGradGradGradGradGradGradGradGradGradGradGradGradGradGradGradGradGrad
 Berny optimization.
 Using GEDIIS/GDIIS optimizer.
 FormGI is forming the generalized inverse of G from B-inverse, IUseBI=4.
 Internal  Forces:  Max     0.016411341 RMS     0.004643995
 Search for a local minimum.
 Step number   2 out of a maximum of   97
 All quantities printed in internal units (Hartrees-Bohrs-Radians)
 RMS Force = .46440D-02 SwitMx=.10000D-02 MixMth= 1
 Mixed Optimization -- RFO/linear search
 Update second derivatives using D2CorX and points    1    2
 DE= -3.05D-02 DEPred=-3.94D-02 R= 7.75D-01
 TightC=F SS=  1.41D+00  RLast= 3.50D-01 DXNew= 5.0454D-01 1.0514D+00
 Trust test= 7.75D-01 RLast= 3.50D-01 DXMaxT set to 5.05D-01
 ITU=  1  0
 Use linear search instead of GDIIS.
     Eigenvalues ---    0.00230   0.00313   0.01168   0.01490   0.01573
     Eigenvalues ---    0.03342   0.03873   0.04949   0.05114   0.05158
     Eigenvalues ---    0.05267   0.05483   0.05627   0.05705   0.06347
     Eigenvalues ---    0.07719   0.08755   0.09474   0.12160   0.12962
     Eigenvalues ---    0.15871   0.16000   0.16000   0.16000   0.16000
     Eigenvalues ---    0.16000   0.16014   0.16255   0.20744   0.21543
     Eigenvalues ---    0.21904   0.27036   0.28904   0.29722   0.31508
     Eigenvalues ---    0.31654   0.32218   0.33347   0.34040   0.34350
     Eigenvalues ---    0.34385   0.36125   0.38025   0.39257   0.39402
     Eigenvalues ---    0.39664   0.55341   0.57013
 RFO step:  Lambda=-1.38687489D-02 EMin= 2.29999780D-03
 Quartic linear search produced a step of  0.33260.
 Iteration  1 RMS(Cart)=  0.07398126 RMS(Int)=  0.00417381
 Iteration  2 RMS(Cart)=  0.00498864 RMS(Int)=  0.00195840
 Iteration  3 RMS(Cart)=  0.00001049 RMS(Int)=  0.00195838
 Iteration  4 RMS(Cart)=  0.00000008 RMS(Int)=  0.00195838
 ITry= 1 IFail=0 DXMaxC= 2.83D-01 DCOld= 1.00D+10 DXMaxT= 5.05D-01 DXLimC= 3.00D+00 Rises=F
 Variable       Old X    -DE/DX   Delta X   Delta X   Delta X     New X
                                 (Linear)    (Quad)   (Total)
    R1        2.08008   0.00120   0.00436   0.00016   0.00452   2.08460
    R2        2.03763   0.01288   0.01685   0.02472   0.04157   2.07920
    R3        2.07778  -0.00197  -0.00217  -0.00535  -0.00752   2.07025
    R4        2.89363  -0.01083  -0.01424  -0.03582  -0.05006   2.84357
    R5        2.07051   0.00670   0.01115   0.01252   0.02367   2.09419
    R6        2.10608  -0.00518  -0.00300  -0.01769  -0.02069   2.08539
    R7        2.88579   0.00791   0.05143  -0.02440   0.02703   2.91282
    R8        2.05742   0.01641   0.02052   0.03326   0.05378   2.11120
    R9        2.72163  -0.01137   0.00038  -0.03675  -0.03637   2.68525
   R10        2.86611   0.00722   0.04883  -0.02464   0.02419   2.89030
   R11        1.79993  -0.00496  -0.00488  -0.00666  -0.01154   1.78838
   R12        2.10261   0.00350   0.00988   0.00340   0.01327   2.11589
   R13        2.12813  -0.00876  -0.00689  -0.03010  -0.03699   2.09114
   R14        2.87730  -0.00702  -0.00729  -0.02326  -0.03055   2.84675
   R15        2.09011  -0.00538  -0.00829  -0.01334  -0.02164   2.06847
   R16        2.06989   0.00144   0.00086   0.00446   0.00532   2.07521
   R17        2.08085  -0.00466  -0.00769  -0.01075  -0.01844   2.06241
    A1        1.83482   0.00260   0.00844   0.03168   0.04052   1.87534
    A2        1.85935   0.00034   0.00269   0.01524   0.01781   1.87716
    A3        1.91026   0.00228   0.00272   0.03327   0.03614   1.94640
    A4        1.91584  -0.00076  -0.00165  -0.03446  -0.03818   1.87767
    A5        1.99725  -0.00396  -0.00769  -0.03054  -0.03910   1.95815
    A6        1.93857  -0.00004  -0.00288  -0.00884  -0.01290   1.92567
    A7        1.79153   0.00939   0.00908   0.08424   0.09402   1.88555
    A8        1.98282  -0.00455  -0.01692  -0.04436  -0.06016   1.92266
    A9        1.98614  -0.00707  -0.00629  -0.02401  -0.03037   1.95577
   A10        1.92132  -0.00426  -0.00807  -0.04565  -0.05246   1.86887
   A11        1.92790  -0.00262   0.00128  -0.01785  -0.01647   1.91143
   A12        1.85483   0.00853   0.01981   0.04353   0.06242   1.91725
   A13        1.94822  -0.00150  -0.01312  -0.00830  -0.02099   1.92723
   A14        1.92129   0.00208   0.00122   0.02943   0.02988   1.95117
   A15        1.91547   0.00152   0.03738  -0.01857   0.01828   1.93375
   A16        1.87211  -0.00013  -0.00428  -0.00073  -0.00513   1.86698
   A17        1.95228  -0.00149  -0.01463  -0.01462  -0.02911   1.92317
   A18        1.85147  -0.00040  -0.00616   0.01560   0.00790   1.85937
   A19        1.87420  -0.00464  -0.00856  -0.02702  -0.03558   1.83862
   A20        1.86395   0.00459   0.01493   0.05503   0.07303   1.93697
   A21        2.01830  -0.00485  -0.00707  -0.09306  -0.10539   1.91292
   A22        2.01850  -0.00667  -0.00784  -0.05009  -0.06341   1.95508
   A23        1.72970   0.00269   0.00720   0.07815   0.08800   1.81771
   A24        1.87489   0.00159  -0.00210   0.04752   0.04635   1.92124
   A25        1.92817   0.00477  -0.00070  -0.00009  -0.01315   1.91501
   A26        1.93231   0.00136   0.00145   0.01047   0.01167   1.94398
   A27        1.92592   0.00054   0.00225   0.01112   0.01301   1.93893
   A28        1.92050   0.00451   0.00589   0.01756   0.02345   1.94396
   A29        1.83332   0.00151   0.00362   0.03024   0.03326   1.86659
   A30        1.93872  -0.00509  -0.00857  -0.04754  -0.05600   1.88271
   A31        1.91144  -0.00308  -0.00482  -0.02206  -0.02698   1.88446
    D1       -1.03370  -0.00009  -0.00414  -0.01415  -0.01875  -1.05246
    D2       -3.10760   0.00144   0.00834   0.01019   0.01921  -3.08838
    D3        1.04975  -0.00089   0.00007   0.00549   0.00495   1.05470
    D4       -3.08749  -0.00246  -0.01193  -0.05815  -0.06977   3.12592
    D5        1.12180  -0.00093   0.00055  -0.03382  -0.03180   1.09000
    D6       -1.00404  -0.00326  -0.00772  -0.03851  -0.04607  -1.05011
    D7        1.01450   0.00171  -0.00087   0.01978   0.01806   1.03257
    D8       -1.05939   0.00324   0.01161   0.04411   0.05603  -1.00336
    D9        3.09796   0.00092   0.00334   0.03942   0.04176   3.13972
   D10       -0.76433  -0.00402  -0.00232  -0.05748  -0.06017  -0.82449
   D11        1.31265  -0.00378  -0.01562  -0.04437  -0.06079   1.25186
   D12       -2.93900  -0.00216  -0.00200  -0.01920  -0.02121  -2.96021
   D13        1.23985   0.00168   0.00610   0.02165   0.02776   1.26760
   D14       -2.96636   0.00192  -0.00720   0.03476   0.02714  -2.93922
   D15       -0.93482   0.00354   0.00642   0.05993   0.06671  -0.86811
   D16       -2.95962   0.00019   0.00851  -0.01698  -0.00805  -2.96767
   D17       -0.88264   0.00044  -0.00479  -0.00388  -0.00867  -0.89131
   D18        1.14890   0.00206   0.00883   0.02129   0.03090   1.17980
   D19       -0.90991   0.00099   0.01863  -0.00749   0.01109  -0.89882
   D20        1.21303   0.00031   0.00050  -0.00067  -0.00014   1.21289
   D21       -2.98114  -0.00169  -0.02259  -0.00992  -0.03248  -3.01362
   D22       -1.19977  -0.00253  -0.00912  -0.03021  -0.03868  -1.23845
   D23        0.70545   0.00118   0.00544   0.05293   0.05421   0.75966
   D24        2.99832  -0.00374  -0.01258  -0.09933  -0.10877   2.88955
   D25        2.91110  -0.00066  -0.00988   0.00451  -0.00444   2.90666
   D26       -1.46687   0.00305   0.00467   0.08764   0.08845  -1.37842
   D27        0.82600  -0.00187  -0.01335  -0.06461  -0.07453   0.75147
   D28        0.87529   0.00051   0.00763   0.00378   0.01214   0.88743
   D29        2.78052   0.00422   0.02218   0.08691   0.10502   2.88554
   D30       -1.20980  -0.00070   0.00416  -0.06534  -0.05796  -1.26776
   D31       -1.03055   0.00554   0.01449   0.10603   0.12031  -0.91024
   D32       -3.05266   0.00255   0.00791   0.05611   0.06350  -2.98917
   D33        1.11927   0.00311   0.00868   0.06500   0.07323   1.19250
   D34       -3.10964   0.00272   0.00183   0.03288   0.03539  -3.07425
   D35        1.15144  -0.00026  -0.00475  -0.01704  -0.02143   1.13001
[...]
 ! A11   A(6,5,8)              109.3408         -DE/DX =    0.0                 !
 ! A12   A(7,5,8)              109.8336         -DE/DX =    0.0                 !
 ! A13   A(5,8,9)              109.3418         -DE/DX =    0.0                 !
 ! A14   A(5,8,10)             111.9593         -DE/DX =    0.0                 !
 ! A15   A(5,8,11)             110.492          -DE/DX =    0.0                 !
 ! A16   A(9,8,10)             107.8138         -DE/DX =    0.0                 !
 ! A17   A(9,8,11)             109.7783         -DE/DX =    0.0                 !
 ! A18   A(10,8,11)            107.3921         -DE/DX =    0.0                 !
 ! A19   A(8,10,12)            106.0267         -DE/DX =    0.0                 !
 ! A20   A(8,11,13)            110.0543         -DE/DX =    0.0                 !
 ! A21   A(8,11,14)            108.8624         -DE/DX =    0.0                 !
 ! A22   A(8,11,15)            112.2254         -DE/DX =    0.0                 !
 ! A23   A(13,11,14)           105.7725         -DE/DX =    0.0                 !
 ! A24   A(13,11,15)           110.048          -DE/DX =    0.0                 !
 ! A25   A(14,11,15)           109.6664         -DE/DX =    0.0                 !
 ! A26   A(11,15,16)           111.7222         -DE/DX =    0.0                 !
 ! A27   A(11,15,17)           111.0656         -DE/DX =    0.0                 !
 ! A28   A(11,15,18)           111.7301         -DE/DX =    0.0                 !
 ! A29   A(16,15,17)           107.3861         -DE/DX =    0.0                 !
 ! A30   A(16,15,18)           107.3001         -DE/DX =    0.0                 !
 ! A31   A(17,15,18)           107.3995         -DE/DX =    0.0                 !
 ! D1    D(2,1,5,6)            -54.3517         -DE/DX =    0.0                 !
 ! D2    D(2,1,5,7)           -170.6042         -DE/DX =    0.0                 !
 ! D3    D(2,1,5,8)             67.1471         -DE/DX =    0.0                 !
 ! D4    D(3,1,5,6)           -173.9702         -DE/DX =    0.0                 !
 ! D5    D(3,1,5,7)             69.7773         -DE/DX =    0.0                 !
 ! D6    D(3,1,5,8)            -52.4714         -DE/DX =    0.0                 !
 ! D7    D(4,1,5,6)             66.0961         -DE/DX =    0.0                 !
 ! D8    D(4,1,5,7)            -50.1563         -DE/DX =    0.0                 !
 ! D9    D(4,1,5,8)           -172.4051         -DE/DX =    0.0                 !
 ! D10   D(1,5,8,9)            -56.5602         -DE/DX =    0.0                 !
 ! D11   D(1,5,8,10)            62.8538         -DE/DX =    0.0                 !
 ! D12   D(1,5,8,11)          -177.4929         -DE/DX =    0.0                 !
 ! D13   D(6,5,8,9)             65.3303         -DE/DX =    0.0                 !
 ! D14   D(6,5,8,10)          -175.2558         -DE/DX =    0.0                 !
 ! D15   D(6,5,8,11)           -55.6024         -DE/DX =    0.0                 !
 ! D16   D(7,5,8,9)           -179.0176         -DE/DX =    0.0                 !
 ! D17   D(7,5,8,10)           -59.6037         -DE/DX =    0.0                 !
 ! D18   D(7,5,8,11)            60.0496         -DE/DX =    0.0                 !
 ! D19   D(5,8,10,12)          -42.7948         -DE/DX =    0.0                 !
 ! D20   D(9,8,10,12)           77.5136         -DE/DX =    0.0                 !
 ! D21   D(11,8,10,12)        -164.2506         -DE/DX =    0.0                 !
 ! D22   D(5,8,11,13)          -71.6306         -DE/DX =    0.0                 !
 ! D23   D(5,8,11,14)           43.8687         -DE/DX =    0.0                 !
 ! D24   D(5,8,11,15)          165.4551         -DE/DX =    0.0                 !
 ! D25   D(9,8,11,13)          167.6969         -DE/DX =    0.0                 !
 ! D26   D(9,8,11,14)          -76.8039         -DE/DX =    0.0                 !
 ! D27   D(9,8,11,15)           44.7825         -DE/DX =    0.0                 !
 ! D28   D(10,8,11,13)          50.7403         -DE/DX =    0.0                 !
 ! D29   D(10,8,11,14)         166.2396         -DE/DX =    0.0                 !
 ! D30   D(10,8,11,15)         -72.174          -DE/DX =    0.0                 !
 ! D31   D(8,11,15,16)         -59.1806         -DE/DX =    0.0                 !
 ! D32   D(8,11,15,17)        -179.0575         -DE/DX =    0.0                 !
 ! D33   D(8,11,15,18)          61.0432         -DE/DX =    0.0                 !
 ! D34   D(13,11,15,16)        177.9015         -DE/DX =    0.0                 !
 ! D35   D(13,11,15,17)         58.0246         -DE/DX =    0.0                 !
 ! D36   D(13,11,15,18)        -61.8747         -DE/DX =    0.0                 !
 ! D37   D(14,11,15,16)         61.9447         -DE/DX =    0.0                 !
 ! D38   D(14,11,15,17)        -57.9323         -DE/DX =    0.0                 !
 ! D39   D(14,11,15,18)       -177.8316         -DE/DX =    0.0                 !
 --------------------------------------------------------------------------------
 Lowest energy point so far.  Saving SCF results.
 Largest change from initial coordinates is atom    7       0.192 Angstoms.
 GradGradGradGradGradGradGradGradGradGradGradGradGradGradGradGradGradGrad

 Leave Link  103 at Wed Sep  7 15:36:10 2022, MaxMem=   131072000 cpu:               0.0 elap:               0.0
 (Enter /opt/g16/l202.exe)
                          Input orientation:                          
 ---------------------------------------------------------------------
 Center     Atomic      Atomic             Coordinates (Angstroms)
 Number     Number       Type             X           Y           Z
 ---------------------------------------------------------------------
      1          6           0        4.973952   11.738276    7.967002
      2          1           0        4.634371   12.729736    8.294497
      3          1           0        6.064071   11.697506    8.128543
      4          1           0        4.513361   10.995762    8.629744
      5          6           0        4.630785   11.477855    6.517062
      6          1           0        3.546560   11.628964    6.351163
      7          1           0        4.829945   10.418110    6.261118
      8          6           0        5.424466   12.401047    5.574330
      9          1           0        5.231500   13.467844    5.851264
     10          8           0        6.820980   12.175669    5.663623
     11          6           0        5.013226   12.160649    4.114856
     12          1           0        7.013531   12.082827    6.591730
     13          1           0        5.400367   11.182072    3.767170
     14          1           0        3.908793   12.083798    4.061778
     15          6           0        5.491296   13.262935    3.196989
     16          1           0        5.092608   14.241916    3.495381
     17          1           0        5.173032   13.080674    2.162450
     18          1           0        6.586155   13.343361    3.194300
 ---------------------------------------------------------------------
                    Distance matrix (angstroms):
                    1          2          3          4          5
     1  C    0.000000
     2  H    1.097981   0.000000
     3  H    1.102777   1.771181   0.000000
     4  H    1.096676   1.770226   1.774359   0.000000
     5  C    1.512583   2.174050   2.167816   2.170167   0.000000
     6  H    2.158780   2.484266   3.082473   2.554913   1.107204
     7  H    2.161855   3.084882   2.578216   2.458514   1.108256
     8  C    2.523312   2.851595   2.725448   3.484321   1.539791
     9  H    2.744828   2.621212   3.002211   3.787725   2.182705
    10  O    2.984690   3.465508   2.622476   3.938928   2.451990
    11  C    3.875431   4.235184   4.174741   4.689460   2.526472
    12  H    2.483942   2.996383   1.847090   3.403830   2.459480
    13  H    4.257908   4.845483   4.441594   4.946323   2.870828
    14  H    4.062601   4.342765   4.618769   4.734515   2.629993
    15  C    5.034407   5.196461   5.205657   5.967517   3.866507
    16  H    5.126177   5.052542   5.374380   6.102026   4.121150
    17  H    5.961081   6.165656   6.188810   6.826999   4.671800
    18  H    5.287170   5.495270   5.227634   6.273096   4.283028
                    6          7          8          9         10
     6  H    0.000000
     7  H    1.766735   0.000000
     8  C    2.173962   2.181094   0.000000
     9  H    2.543698   3.103241   1.118921   0.000000
    10  O    3.390195   2.722174   1.417398   2.057030   0.000000
    11  C    2.726695   2.770646   1.535244   2.184379   2.380521
    12  H    3.504818   2.765616   1.913503   2.375331   0.952406
    13  H    3.211438   2.669981   2.179979   3.097857   2.569418
    14  H    2.362069   2.908632   2.164654   2.620572   3.324933
    15  C    4.049774   4.233120   2.529638   2.674819   3.005743
    16  H    4.168126   4.726499   2.796598   2.483680   3.458023
    17  H    4.722096   4.899596   3.487985   3.709538   3.974038
    18  H    4.705749   4.587672   2.811053   2.984969   2.741569
                   11         12         13         14         15
    11  C    0.000000
    12  H    3.184679   0.000000
    13  H    1.108322   3.375173   0.000000
    14  H    1.108376   4.005004   1.767681   0.000000
    15  C    1.511974   3.903091   2.159482   2.154656   0.000000
    16  H    2.172952   4.235445   3.087269   2.525806   1.098359
    17  H    2.164226   4.899148   2.496296   2.489882   1.097626
    18  H    2.172633   3.648852   2.530897   3.083388   1.097812
                   16         17         18
    16  H    0.000000
    17  H    1.769649   0.000000
    18  H    1.768823   1.769360   0.000000
 Stoichiometry    C5H12O
 Framework group  C1[X(C5H12O)]
 Deg. of freedom    48
 Full point group                 C1      NOp   1
 RotChk:  IX=0 Diff= 8.18D-16
 Largest Abelian subgroup         C1      NOp   1
 Largest concise Abelian subgroup C1      NOp   1
                         Standard orientation:                         
 ---------------------------------------------------------------------
 Center     Atomic      Atomic             Coordinates (Angstroms)
 Number     Number       Type             X           Y           Z
 ---------------------------------------------------------------------
      1          6           0        2.500651   -0.112005    0.304576
      2          1           0        2.552181   -0.211056    1.396865
      3          1           0        2.558907    0.964383    0.071958
      4          1           0        3.395234   -0.589546   -0.113005
      5          6           0        1.233644   -0.719685   -0.255179
      6          1           0        1.138048   -1.771080    0.078482
      7          1           0        1.284110   -0.758100   -1.361619
      8          6           0       -0.013189    0.070025    0.183825
      9          1           0       -0.046404    0.119022    1.301180
     10          8           0        0.000830    1.399185   -0.308268
     11          6           0       -1.288475   -0.601623   -0.344860
     12          1           0        0.891233    1.714904   -0.187509
     13          1           0       -1.367681   -0.457232   -1.440877
     14          1           0       -1.207488   -1.696170   -0.190250
     15          6           0       -2.533558   -0.082062    0.337702
     16          1           0       -2.500176   -0.245322    1.423346
     17          1           0       -3.431398   -0.586279   -0.042337
     18          1           0       -2.667650    0.995090    0.173520
 ---------------------------------------------------------------------
 Rotational constants (GHZ):           7.1122204           1.9153494           1.6723365
 Leave Link  202 at Wed Sep  7 15:36:10 2022, MaxMem=   131072000 cpu:               0.0 elap:               0.0
 (Enter /opt/g16/l601.exe)
 Copying SCF densities to generalized density rwf, IOpCl= 0 IROHF=0.

 **********************************************************************

            Population analysis using the SCF density.

 **********************************************************************

 Orbital symmetries:
       Occupied  (A) (A) (A) (A) (A) (A) (A) (A) (A) (A) (A) (A)
                 (A) (A) (A) (A) (A) (A) (A)
       Virtual   (A) (A) (A) (A) (A) (A) (A) (A) (A) (A) (A) (A)
                 (A) (A) (A) (A) (A)
 The electronic state is 1-A.
 Alpha  occ. eigenvalues --   -1.48627  -1.24036  -1.21330  -0.95410  -0.79116
 Alpha  occ. eigenvalues --   -0.76031  -0.65829  -0.61759  -0.56449  -0.55602
 Alpha  occ. eigenvalues --   -0.53675  -0.51710  -0.49724  -0.48172  -0.47034
 Alpha  occ. eigenvalues --   -0.44414  -0.43791  -0.42903  -0.40139
 Alpha virt. eigenvalues --    0.11495   0.12631   0.12925   0.13655   0.13780
 Alpha virt. eigenvalues --    0.14521   0.14728   0.15175   0.15567   0.15890
 Alpha virt. eigenvalues --    0.16803   0.17077   0.17338   0.18400   0.18571
 Alpha virt. eigenvalues --    0.18886   0.21164
          Condensed to atoms (all electrons):
               1          2          3          4          5          6
     1  C    4.110459   0.000000   0.000000   0.000000   0.000000   0.000000
     2  H    0.000000   0.958846   0.000000   0.000000   0.000000   0.000000
     3  H    0.000000   0.000000   0.966415   0.000000   0.000000   0.000000
     4  H    0.000000   0.000000   0.000000   0.955444   0.000000   0.000000
     5  C    0.000000   0.000000   0.000000   0.000000   4.145567   0.000000
     6  H    0.000000   0.000000   0.000000   0.000000   0.000000   0.939318
     7  H    0.000000   0.000000   0.000000   0.000000   0.000000   0.000000
     8  C    0.000000   0.000000   0.000000   0.000000   0.000000   0.000000
     9  H    0.000000   0.000000   0.000000   0.000000   0.000000   0.000000
    10  O    0.000000   0.000000   0.000000   0.000000   0.000000   0.000000
    11  C    0.000000   0.000000   0.000000   0.000000   0.000000   0.000000
    12  H    0.000000   0.000000   0.000000   0.000000   0.000000   0.000000
    13  H    0.000000   0.000000   0.000000   0.000000   0.000000   0.000000
    14  H    0.000000   0.000000   0.000000   0.000000   0.000000   0.000000
    15  C    0.000000   0.000000   0.000000   0.000000   0.000000   0.000000
    16  H    0.000000   0.000000   0.000000   0.000000   0.000000   0.000000
    17  H    0.000000   0.000000   0.000000   0.000000   0.000000   0.000000
    18  H    0.000000   0.000000   0.000000   0.000000   0.000000   0.000000
               7          8          9         10         11         12
     1  C    0.000000   0.000000   0.000000   0.000000   0.000000   0.000000
     2  H    0.000000   0.000000   0.000000   0.000000   0.000000   0.000000
     3  H    0.000000   0.000000   0.000000   0.000000   0.000000   0.000000
     4  H    0.000000   0.000000   0.000000   0.000000   0.000000   0.000000
     5  C    0.000000   0.000000   0.000000   0.000000   0.000000   0.000000
     6  H    0.000000   0.000000   0.000000   0.000000   0.000000   0.000000
     7  H    0.937697   0.000000   0.000000   0.000000   0.000000   0.000000
     8  C    0.000000   3.922982   0.000000   0.000000   0.000000   0.000000
     9  H    0.000000   0.000000   0.954964   0.000000   0.000000   0.000000
    10  O    0.000000   0.000000   0.000000   6.317141   0.000000   0.000000
    11  C    0.000000   0.000000   0.000000   0.000000   4.105367   0.000000
    12  H    0.000000   0.000000   0.000000   0.000000   0.000000   0.808870
    13  H    0.000000   0.000000   0.000000   0.000000   0.000000   0.000000
    14  H    0.000000   0.000000   0.000000   0.000000   0.000000   0.000000
    15  C    0.000000   0.000000   0.000000   0.000000   0.000000   0.000000
    16  H    0.000000   0.000000   0.000000   0.000000   0.000000   0.000000
    17  H    0.000000   0.000000   0.000000   0.000000   0.000000   0.000000
    18  H    0.000000   0.000000   0.000000   0.000000   0.000000   0.000000
              13         14         15         16         17         18
     1  C    0.000000   0.000000   0.000000   0.000000   0.000000   0.000000
     2  H    0.000000   0.000000   0.000000   0.000000   0.000000   0.000000
     3  H    0.000000   0.000000   0.000000   0.000000   0.000000   0.000000
     4  H    0.000000   0.000000   0.000000   0.000000   0.000000   0.000000
     5  C    0.000000   0.000000   0.000000   0.000000   0.000000   0.000000
     6  H    0.000000   0.000000   0.000000   0.000000   0.000000   0.000000
     7  H    0.000000   0.000000   0.000000   0.000000   0.000000   0.000000
     8  C    0.000000   0.000000   0.000000   0.000000   0.000000   0.000000
     9  H    0.000000   0.000000   0.000000   0.000000   0.000000   0.000000
    10  O    0.000000   0.000000   0.000000   0.000000   0.000000   0.000000
    11  C    0.000000   0.000000   0.000000   0.000000   0.000000   0.000000
    12  H    0.000000   0.000000   0.000000   0.000000   0.000000   0.000000
    13  H    0.938793   0.000000   0.000000   0.000000   0.000000   0.000000
    14  H    0.000000   0.951489   0.000000   0.000000   0.000000   0.000000
    15  C    0.000000   0.000000   4.106960   0.000000   0.000000   0.000000
    16  H    0.000000   0.000000   0.000000   0.965522   0.000000   0.000000
    17  H    0.000000   0.000000   0.000000   0.000000   0.965055   0.000000
    18  H    0.000000   0.000000   0.000000   0.000000   0.000000   0.949111
 Mulliken charges:
               1
     1  C   -0.110459
     2  H    0.041154
     3  H    0.033585
     4  H    0.044556
     5  C   -0.145567
     6  H    0.060682
     7  H    0.062303
     8  C    0.077018
     9  H    0.045036
    10  O   -0.317141
    11  C   -0.105367
    12  H    0.191130
    13  H    0.061207
    14  H    0.048511
    15  C   -0.106960
    16  H    0.034478
    17  H    0.034945
    18  H    0.050889
 Sum of Mulliken charges =   0.00000
 Mulliken charges with hydrogens summed into heavy atoms:
               1
     1  C    0.008836
     5  C   -0.022581
     8  C    0.122053
    10  O   -0.126011
    11  C    0.004351
    15  C    0.013352
 Charge=              0.0000 electrons
 Dipole moment (field-independent basis, Debye):
    X=              1.2463    Y=             -0.8606    Z=              0.5067  Tot=              1.5971
 N-N= 1.700423078613D+02 E-N=-2.545177569054D+02  KE=-5.968714820678D+01
 Leave Link  601 at Wed Sep  7 15:36:10 2022, MaxMem=   131072000 cpu:               0.0 elap:               0.0
 (Enter /opt/g16/l9999.exe)
 1\1\GINC-TOTEM2\FOpt\RPM3\ZDO\C5H12O1\JRAMOS\07-Sep-2022\0\\#p opt pm3
 \\Conformer number 019. Energy MM = 0.000 kcal/mol\\0,1\C,4.9739521828
 ,11.7382761381,7.9670016662\H,4.6343710901,12.7297362386,8.2944966607\
 H,6.064071141,11.6975063507,8.1285432464\H,4.5133608547,10.99576186,8.
 6297436011\C,4.6307852363,11.4778548803,6.5170624462\H,3.5465603595,11
 .6289639196,6.351162834\H,4.8299452058,10.4181096182,6.2611183494\C,5.
 424466475,12.4010466183,5.5743301988\H,5.2315000524,13.467843632,5.851
 2642056\O,6.8209798062,12.1756686004,5.6636230512\C,5.0132258714,12.16
 06494239,4.1148563878\H,7.0135310389,12.0828267842,6.5917298214\H,5.40
 03670987,11.182072493,3.7671697956\H,3.9087926116,12.0837979318,4.0617
 778395\C,5.4912957284,13.2629351185,3.1969889772\H,5.0926078525,14.241
 916025,3.4953806233\H,5.1730324551,13.0806738315,2.1624498382\H,6.5861
 549397,13.3433605361,3.1943004576\\Version=ES64L-G16RevA.03\State=1-A\
 HF=-0.1176668\RMSD=3.763e-09\RMSF=4.561e-06\Dipole=-0.4205147,-0.01917
 91,0.4664916\PG=C01 [X(C5H12O1)]\\@


 EXPERIENCE IS A WONDERFUL THING.  IT ENABLES
 YOU TO RECOGNIZE A MISTAKE WHEN YOU MAKE IT AGAIN.
           - BACK OF A SUGAR PACKET
 Job cpu time:       0 days  0 hours  0 minutes  6.0 seconds.
 Elapsed time:       0 days  0 hours  0 minutes 31.9 seconds.
 File lengths (MBytes):  RWF=      6 Int=      0 D2E=      0 Chk=      2 Scr=      1
 Normal termination of Gaussian 16 at Wed Sep  7 15:36:10 2022.
