 Entering Gaussian System, Link 0=/opt/g16/g16
 Input=MD_extract_010_gaussian.com
 Output=MD_extract_010_gaussian.log
 Initial command:
 /opt/g16/l1.exe "/tmp/Gau-316999.inp" -scrdir="/tmp/"
 Entering Link 1 = /opt/g16/l1.exe PID=    317001.
  
 Copyright (c) 1988,1990,1992,1993,1995,1998,2003,2009,2016,
            Gaussian, Inc.  All Rights Reserved.
  
 This is part of the Gaussian(R) 16 program.  It is based on
 the Gaussian(R) 09 system (copyright 2009, Gaussian, Inc.),
 the Gaussian(R) 03 system (copyright 2003, Gaussian, Inc.),
 the Gaussian(R) 98 system (copyright 1998, Gaussian, Inc.),
 the Gaussian(R) 94 system (copyright 1995, Gaussian, Inc.),
 the Gaussian 92(TM) system (copyright 1992, Gaussian, Inc.),
 the Gaussian 90(TM) system (copyright 1990, Gaussian, Inc.),
 the Gaussian 88(TM) system (copyright 1988, Gaussian, Inc.),
 the Gaussian 86(TM) system (copyright 1986, Carnegie Mellon
 University), and the Gaussian 82(TM) system (copyright 1983,
 Carnegie Mellon University). Gaussian is a federally registered
 trademark of Gaussian, Inc.
  
 This software contains proprietary and confidential information,
 including trade secrets, belonging to Gaussian, Inc.
  
 This software is provided under written license and may be
 used, copied, transmitted, or stored only in accord with that
 written license.
  
 The following legend is applicable only to US Government
 contracts under FAR:
  
                    RESTRICTED RIGHTS LEGEND
  
 Use, reproduction and disclosure by the US Government is
 subject to restrictions as set forth in subparagraphs (a)
 and (c) of the Commercial Computer Software - Restricted
 Rights clause in FAR 52.227-19.
  
 Gaussian, Inc.
 340 Quinnipiac St., Bldg. 40, Wallingford CT 06492
  
  
 ---------------------------------------------------------------
 Warning -- This program may not be used in any manner that
 competes with the business of Gaussian, Inc. or will provide
 assistance to any competitor of Gaussian, Inc.  The licensee
 of this program is prohibited from giving any competitor of
 Gaussian, Inc. access to this program.  By using this program,
 the user acknowledges that Gaussian, Inc. is engaged in the
 business of creating and licensing software in the field of
 computational chemistry and represents and warrants to the
 licensee that it is not a competitor of Gaussian, Inc. and that
 it will not use this program in any manner prohibited above.
 ---------------------------------------------------------------
  

 Cite this work as:
 Gaussian 16, Revision A.03,
 M. J. Frisch, G. W. Trucks, H. B. Schlegel, G. E. Scuseria, 
 M. A. Robb, J. R. Cheeseman, G. Scalmani, V. Barone, 
 G. A. Petersson, H. Nakatsuji, X. Li, M. Caricato, A. V. Marenich, 
 J. Bloino, B. G. Janesko, R. Gomperts, B. Mennucci, H. P. Hratchian, 
 J. V. Ortiz, A. F. Izmaylov, J. L. Sonnenberg, D. Williams-Young, 
 F. Ding, F. Lipparini, F. Egidi, J. Goings, B. Peng, A. Petrone, 
 T. Henderson, D. Ranasinghe, V. G. Zakrzewski, J. Gao, N. Rega, 
 G. Zheng, W. Liang, M. Hada, M. Ehara, K. Toyota, R. Fukuda, 
 J. Hasegawa, M. Ishida, T. Nakajima, Y. Honda, O. Kitao, H. Nakai, 
 T. Vreven, K. Throssell, J. A. Montgomery, Jr., J. E. Peralta, 
 F. Ogliaro, M. J. Bearpark, J. J. Heyd, E. N. Brothers, K. N. Kudin, 
 V. N. Staroverov, T. A. Keith, R. Kobayashi, J. Normand, 
 K. Raghavachari, A. P. Rendell, J. C. Burant, S. S. Iyengar, 
 J. Tomasi, M. Cossi, J. M. Millam, M. Klene, C. Adamo, R. Cammi, 
 J. W. Ochterski, R. L. Martin, K. Morokuma, O. Farkas, 
 J. B. Foresman, and D. J. Fox, Gaussian, Inc., Wallingford CT, 2016.
 
 ******************************************
 Gaussian 16:  ES64L-G16RevA.03 25-Dec-2016
                 7-Sep-2022 
 ******************************************
 %chk=MD_extract_010_gaussian.chk
 %nproc=1
 Will use up to    1 processors via shared memory.
 %mem=1000Mb
 ----------
 #p opt pm3
 ----------
 1/18=20,19=15,26=1,38=1/1,3;
 2/9=110,12=2,17=6,18=5,40=1/2;
 3/5=2,25=1,41=800000,71=1/1,2,3;
 4/35=1/1;
 5/5=2,35=1,38=5/2;
 6/7=2,8=2,9=2,10=2,28=1/1;
 7//1,2,3,16;
 1/18=20,19=15,26=1/3(2);
 2/9=110/2;
 99//99;
 2/9=110/2;
 3/5=2,25=1,41=800000,71=1,135=20/1,2,3;
 4/5=5,16=3,35=1/1;
 5/5=2,35=1,38=5/2;
 7//1,2,3,16;
 1/18=20,19=15,26=1/3(-5);
 2/9=110/2;
 6/7=2,8=2,9=2,10=2,19=2,28=1/1;
 99/9=1/99;
 Leave Link    1 at Wed Sep  7 15:34:28 2022, MaxMem=   131072000 cpu:               0.0 elap:              32.0
 (Enter /opt/g16/l101.exe)
 ------------------------------------------------
 Conformer number 010. Energy MM = 0.000 kcal/mol
 ------------------------------------------------
 Symbolic Z-matrix:
 Charge =  0 Multiplicity = 1
 C                     8.822     7.672     14.176 
 H                     7.993     8.416     14.249 
 H                     9.226     7.465     15.149 
 H                     8.463     6.805     13.629 
 C                     9.876     8.403     13.335 
 H                     10.025    9.404     13.733 
 H                     9.412     8.542     12.325 
 C                     11.088    7.699     13.093 
 H                     11.898    8.349     12.644 
 O                     11.704    7.193     14.296 
 C                     10.861    6.525     12.275 
 H                     12.236    7.927     14.618 
 H                     10.347    5.775     12.887 
 H                     10.234    6.686     11.308 
 C                     12.166    6.002     11.772 
 H                     12.716    6.806     11.272 
 H                     12.081    5.208     11.099 
 H                     12.78     5.699     12.669 
 
 ITRead=  0  0  0  0  0  0  0  0  0  0  0  0  0  0  0  0  0  0
 MicOpt= -1 -1 -1 -1 -1 -1 -1 -1 -1 -1 -1 -1 -1 -1 -1 -1 -1 -1
 NAtoms=     18 NQM=       18 NQMF=       0 NMMI=      0 NMMIF=      0
                NMic=       0 NMicF=      0.
                    Isotopes and Nuclear Properties:
 (Nuclear quadrupole moments (NQMom) in fm**2, nuclear magnetic moments (NMagM)
  in nuclear magnetons)

  Atom         1           2           3           4           5           6           7           8           9          10
 IAtWgt=          12           1           1           1          12           1           1          12           1          16
 AtmWgt=  12.0000000   1.0078250   1.0078250   1.0078250  12.0000000   1.0078250   1.0078250  12.0000000   1.0078250  15.9949146
 NucSpn=           0           1           1           1           0           1           1           0           1           0
 AtZEff=  -0.0000000  -0.0000000  -0.0000000  -0.0000000  -0.0000000  -0.0000000  -0.0000000  -0.0000000  -0.0000000  -0.0000000
 NQMom=    0.0000000   0.0000000   0.0000000   0.0000000   0.0000000   0.0000000   0.0000000   0.0000000   0.0000000   0.0000000
 NMagM=    0.0000000   2.7928460   2.7928460   2.7928460   0.0000000   2.7928460   2.7928460   0.0000000   2.7928460   0.0000000
 AtZNuc=   6.0000000   1.0000000   1.0000000   1.0000000   6.0000000   1.0000000   1.0000000   6.0000000   1.0000000   8.0000000

  Atom        11          12          13          14          15          16          17          18
 IAtWgt=          12           1           1           1          12           1           1           1
 AtmWgt=  12.0000000   1.0078250   1.0078250   1.0078250  12.0000000   1.0078250   1.0078250   1.0078250
 NucSpn=           0           1           1           1           0           1           1           1
 AtZEff=  -0.0000000  -0.0000000  -0.0000000  -0.0000000  -0.0000000  -0.0000000  -0.0000000  -0.0000000
 NQMom=    0.0000000   0.0000000   0.0000000   0.0000000   0.0000000   0.0000000   0.0000000   0.0000000
 NMagM=    0.0000000   2.7928460   2.7928460   2.7928460   0.0000000   2.7928460   2.7928460   2.7928460
 AtZNuc=   6.0000000   1.0000000   1.0000000   1.0000000   6.0000000   1.0000000   1.0000000   1.0000000
 Leave Link  101 at Wed Sep  7 15:34:28 2022, MaxMem=   131072000 cpu:               0.1 elap:               0.1
 (Enter /opt/g16/l103.exe)

 GradGradGradGradGradGradGradGradGradGradGradGradGradGradGradGradGradGrad
 Berny optimization.
 Initialization pass.
                           ----------------------------
                           !    Initial Parameters    !
                           ! (Angstroms and Degrees)  !
 --------------------------                            --------------------------
 ! Name  Definition              Value          Derivative Info.                !
 --------------------------------------------------------------------------------
 ! R1    R(1,2)                  1.1163         estimate D2E/DX2                !
 ! R2    R(1,3)                  1.0737         estimate D2E/DX2                !
 ! R3    R(1,4)                  1.0862         estimate D2E/DX2                !
 ! R4    R(1,5)                  1.5338         estimate D2E/DX2                !
 ! R5    R(5,6)                  1.0875         estimate D2E/DX2                !
 ! R6    R(5,7)                  1.1201         estimate D2E/DX2                !
 ! R7    R(5,8)                  1.4224         estimate D2E/DX2                !
 ! R8    R(8,9)                  1.1315         estimate D2E/DX2                !
 ! R9    R(8,10)                 1.4432         estimate D2E/DX2                !
 ! R10   R(8,11)                 1.4488         estimate D2E/DX2                !
 ! R11   R(10,12)                0.962          estimate D2E/DX2                !
 ! R12   R(11,13)                1.096          estimate D2E/DX2                !
 ! R13   R(11,14)                1.1637         estimate D2E/DX2                !
 ! R14   R(11,15)                1.4932         estimate D2E/DX2                !
 ! R15   R(15,16)                1.095          estimate D2E/DX2                !
 ! R16   R(15,17)                1.0443         estimate D2E/DX2                !
 ! R17   R(15,18)                1.1285         estimate D2E/DX2                !
 ! A1    A(2,1,3)              110.406          estimate D2E/DX2                !
 ! A2    A(2,1,4)              108.6316         estimate D2E/DX2                !
 ! A3    A(2,1,5)              103.211          estimate D2E/DX2                !
 ! A4    A(3,1,4)              115.2679         estimate D2E/DX2                !
 ! A5    A(3,1,5)              109.2814         estimate D2E/DX2                !
 ! A6    A(4,1,5)              109.3548         estimate D2E/DX2                !
 ! A7    A(1,5,6)              109.4008         estimate D2E/DX2                !
 ! A8    A(1,5,7)              105.5978         estimate D2E/DX2                !
 ! A9    A(1,5,8)              116.292          estimate D2E/DX2                !
 ! A10   A(6,5,7)              105.8149         estimate D2E/DX2                !
 ! A11   A(6,5,8)              113.6476         estimate D2E/DX2                !
 ! A12   A(7,5,8)              105.1281         estimate D2E/DX2                !
 ! A13   A(5,8,9)              113.1531         estimate D2E/DX2                !
 ! A14   A(5,8,10)             113.2926         estimate D2E/DX2                !
 ! A15   A(5,8,11)             111.3234         estimate D2E/DX2                !
 ! A16   A(9,8,10)             103.0998         estimate D2E/DX2                !
 ! A17   A(9,8,11)             110.7099         estimate D2E/DX2                !
 ! A18   A(10,8,11)            104.6797         estimate D2E/DX2                !
 ! A19   A(8,10,12)            104.3323         estimate D2E/DX2                !
 ! A20   A(8,11,13)            108.2234         estimate D2E/DX2                !
 ! A21   A(8,11,14)            116.1996         estimate D2E/DX2                !
 ! A22   A(8,11,15)            109.6999         estimate D2E/DX2                !
 ! A23   A(13,11,14)           107.8185         estimate D2E/DX2                !
 ! A24   A(13,11,15)           110.9953         estimate D2E/DX2                !
 ! A25   A(14,11,15)           103.8533         estimate D2E/DX2                !
 ! A26   A(11,15,16)           109.6116         estimate D2E/DX2                !
 ! A27   A(11,15,17)           114.347          estimate D2E/DX2                !
 ! A28   A(11,15,18)           107.5665         estimate D2E/DX2                !
 ! A29   A(16,15,17)           107.7512         estimate D2E/DX2                !
 ! A30   A(16,15,18)           106.6685         estimate D2E/DX2                !
 ! A31   A(17,15,18)           110.6341         estimate D2E/DX2                !
 ! D1    D(2,1,5,6)             48.2384         estimate D2E/DX2                !
 ! D2    D(2,1,5,7)            -65.2334         estimate D2E/DX2                !
 ! D3    D(2,1,5,8)            178.6534         estimate D2E/DX2                !
 ! D4    D(3,1,5,6)            -69.249          estimate D2E/DX2                !
 ! D5    D(3,1,5,7)            177.2792         estimate D2E/DX2                !
 ! D6    D(3,1,5,8)             61.166          estimate D2E/DX2                !
 ! D7    D(4,1,5,6)            163.724          estimate D2E/DX2                !
 ! D8    D(4,1,5,7)             50.2522         estimate D2E/DX2                !
 ! D9    D(4,1,5,8)            -65.861          estimate D2E/DX2                !
 ! D10   D(1,5,8,9)           -168.9891         estimate D2E/DX2                !
 ! D11   D(1,5,8,10)           -52.0865         estimate D2E/DX2                !
 ! D12   D(1,5,8,11)            65.574          estimate D2E/DX2                !
 ! D13   D(6,5,8,9)            -40.6143         estimate D2E/DX2                !
 ! D14   D(6,5,8,10)            76.2884         estimate D2E/DX2                !
 ! D15   D(6,5,8,11)          -166.0512         estimate D2E/DX2                !
 ! D16   D(7,5,8,9)             74.6359         estimate D2E/DX2                !
 ! D17   D(7,5,8,10)          -168.4614         estimate D2E/DX2                !
 ! D18   D(7,5,8,11)           -50.8009         estimate D2E/DX2                !
 ! D19   D(5,8,10,12)          -86.0531         estimate D2E/DX2                !
 ! D20   D(9,8,10,12)           36.61           estimate D2E/DX2                !
 ! D21   D(11,8,10,12)         152.4778         estimate D2E/DX2                !
 ! D22   D(5,8,11,13)          -72.2576         estimate D2E/DX2                !
 ! D23   D(5,8,11,14)           49.1451         estimate D2E/DX2                !
 ! D24   D(5,8,11,15)          166.5078         estimate D2E/DX2                !
 ! D25   D(9,8,11,13)          160.9569         estimate D2E/DX2                !
 ! D26   D(9,8,11,14)          -77.6404         estimate D2E/DX2                !
 ! D27   D(9,8,11,15)           39.7223         estimate D2E/DX2                !
 ! D28   D(10,8,11,13)          50.4989         estimate D2E/DX2                !
 ! D29   D(10,8,11,14)         171.9016         estimate D2E/DX2                !
 ! D30   D(10,8,11,15)         -70.7358         estimate D2E/DX2                !
 ! D31   D(8,11,15,16)         -53.3781         estimate D2E/DX2                !
 ! D32   D(8,11,15,17)        -174.475          estimate D2E/DX2                !
 ! D33   D(8,11,15,18)          62.2286         estimate D2E/DX2                !
 ! D34   D(13,11,15,16)       -172.9288         estimate D2E/DX2                !
 ! D35   D(13,11,15,17)         65.9743         estimate D2E/DX2                !
 ! D36   D(13,11,15,18)        -57.3221         estimate D2E/DX2                !
 ! D37   D(14,11,15,16)         71.4624         estimate D2E/DX2                !
 ! D38   D(14,11,15,17)        -49.6345         estimate D2E/DX2                !
 ! D39   D(14,11,15,18)       -172.9309         estimate D2E/DX2                !
 --------------------------------------------------------------------------------
 Trust Radius=3.00D-01 FncErr=1.00D-07 GrdErr=1.00D-07 EigMax=2.50D+02 EigMin=1.00D-04
 Number of steps in this run=     97 maximum allowed number of steps=    108.
 GradGradGradGradGradGradGradGradGradGradGradGradGradGradGradGradGradGrad

 Leave Link  103 at Wed Sep  7 15:34:28 2022, MaxMem=   131072000 cpu:               0.0 elap:               0.0
 (Enter /opt/g16/l202.exe)
                          Input orientation:                          
 ---------------------------------------------------------------------
 Center     Atomic      Atomic             Coordinates (Angstroms)
 Number     Number       Type             X           Y           Z
 ---------------------------------------------------------------------
      1          6           0        8.822000    7.672000   14.176000
      2          1           0        7.993000    8.416000   14.249000
      3          1           0        9.226000    7.465000   15.149000
      4          1           0        8.463000    6.805000   13.629000
      5          6           0        9.876000    8.403000   13.335000
      6          1           0       10.025000    9.404000   13.733000
      7          1           0        9.412000    8.542000   12.325000
      8          6           0       11.088000    7.699000   13.093000
      9          1           0       11.898000    8.349000   12.644000
     10          8           0       11.704000    7.193000   14.296000
     11          6           0       10.861000    6.525000   12.275000
     12          1           0       12.236000    7.927000   14.618000
     13          1           0       10.347000    5.775000   12.887000
     14          1           0       10.234000    6.686000   11.308000
     15          6           0       12.166000    6.002000   11.772000
     16          1           0       12.716000    6.806000   11.272000
     17          1           0       12.081000    5.208000   11.099000
     18          1           0       12.780000    5.699000   12.669000
 ---------------------------------------------------------------------
                    Distance matrix (angstroms):
                    1          2          3          4          5
     1  C    0.000000
     2  H    1.116291   0.000000
     3  H    1.073682   1.798524   0.000000
     4  H    1.086176   1.789028   1.824327   0.000000
     5  C    1.533805   2.093145   2.143115   2.153279   0.000000
     6  H    2.154828   2.317633   2.530450   3.034050   1.087477
     7  H    2.128662   2.393995   3.028118   2.370271   1.120142
     8  C    2.511648   3.380747   2.783691   2.824386   1.422366
     9  H    3.502446   4.222504   3.767767   3.892735   2.137494
    10  O    2.923998   3.907616   2.634782   3.331593   2.393576
    11  C    3.014454   3.962068   3.437543   2.768053   2.370803
    12  H    3.451925   4.286996   3.091198   4.058637   2.728052
    13  H    2.754225   3.790942   3.037990   2.271766   2.707199
    14  H    3.345350   4.082213   4.046750   2.921925   2.680482
    15  C    4.444148   5.420042   4.710424   4.219652   3.667679
    16  H    4.934208   5.810452   5.257900   4.862454   3.856420
    17  H    5.114715   6.076636   5.444959   4.694809   4.479927
    18  H    4.672210   5.726592   4.679751   4.558654   4.023480
                    6          7          8          9         10
     6  H    0.000000
     7  H    1.761044   0.000000
     8  C    2.108695   2.027178   0.000000
     9  H    2.409787   2.513803   1.131460   0.000000
    10  O    2.832760   3.310273   1.443157   2.025605   0.000000
    11  C    3.333662   2.484027   1.448768   2.130377   2.289392
    12  H    2.802370   3.689316   1.922372   2.046706   0.962010
    13  H    3.740193   2.974283   2.072026   3.014984   2.416082
    14  H    3.648538   2.270398   2.222996   2.705432   3.368396
    15  C    4.472472   3.787073   2.405605   2.518058   2.828869
    16  H    4.477455   3.878005   2.600745   2.220891   3.212240
    17  H    5.363908   4.443219   3.341731   3.505195   3.781952
    18  H    4.738053   4.420906   2.653797   2.793036   2.457019
                   11         12         13         14         15
    11  C    0.000000
    12  H    3.057103   0.000000
    13  H    1.096011   3.346010   0.000000
    14  H    1.163675   4.062534   1.826453   0.000000
    15  C    1.493172   3.436603   2.145580   2.101375   0.000000
    16  H    2.127439   3.561286   3.046859   2.485160   1.094950
    17  H    2.146128   4.449758   2.554445   2.374779   1.044313
    18  H    2.126046   3.009738   2.443929   3.051001   1.128456
                   16         17         18
    16  H    0.000000
    17  H    1.728224   0.000000
    18  H    1.783579   1.787339   0.000000
 Stoichiometry    C5H12O
 Framework group  C1[X(C5H12O)]
 Deg. of freedom    48
 Full point group                 C1      NOp   1
 Largest Abelian subgroup         C1      NOp   1
 Largest concise Abelian subgroup C1      NOp   1
                         Standard orientation:                         
 ---------------------------------------------------------------------
 Center     Atomic      Atomic             Coordinates (Angstroms)
 Number     Number       Type             X           Y           Z
 ---------------------------------------------------------------------
      1          6           0        2.114191   -0.438791   -0.552026
      2          1           0        3.100543   -0.755374   -0.136105
      3          1           0        2.217162    0.475941   -1.104708
      4          1           0        1.688462   -1.270095   -1.106524
      5          6           0        1.271291   -0.180088    0.703023
      6          1           0        1.836468    0.438020    1.396654
      7          1           0        1.160924   -1.176658    1.202407
      8          6           0       -0.058490    0.275645    0.485960
      9          1           0       -0.564861    0.636779    1.431144
     10          8           0       -0.133132    1.424333   -0.384467
     11          6           0       -0.861322   -0.735646   -0.171063
     12          1           0       -0.008906    2.176353    0.202473
     13          1           0       -0.533444   -0.809182   -1.214293
     14          1           0       -0.821788   -1.803047    0.290706
     15          6           0       -2.305134   -0.363850   -0.088990
     16          1           0       -2.576916   -0.173655    0.954502
     17          1           0       -2.958229   -1.088856   -0.461042
     18          1           0       -2.437575    0.611483   -0.640897
 ---------------------------------------------------------------------
 Rotational constants (GHZ):           5.9352760           2.3254084           2.0215417
 Leave Link  202 at Wed Sep  7 15:34:28 2022, MaxMem=   131072000 cpu:               0.0 elap:               0.0
 (Enter /opt/g16/l301.exe)
 Standard basis: VSTO-6G (5D, 7F)
 Ernie: Thresh=  0.10000D-02 Tol=  0.10000D-05 Strict=F.
  NNHCO=     0 NNPyr=     0 NCTC=     0               EPep=         0.000000000
    EC=       131.541431405  ECS=         2.308083939   EG=         0.572466596
   EHC=         0.000000000  EAt=       -36.836480110  AtH=         2.452923921
 EPDDG=         0.000000000  ECC=       134.421981940 EAtT=        39.289404030
 There are    36 symmetry adapted cartesian basis functions of A   symmetry.
 There are    36 symmetry adapted basis functions of A   symmetry.
    36 basis functions,   216 primitive gaussians,    36 cartesian basis functions
    19 alpha electrons       19 beta electrons
       nuclear repulsion energy       173.7113859704 Hartrees.
 IExCor=    0 DFT=F Ex=HF Corr=None ExCW=0 ScaHFX=  1.000000
 ScaDFX=  1.000000  1.000000  1.000000  1.000000 ScalE2=  1.000000  1.000000
 IRadAn=      5 IRanWt=     -1 IRanGd=            0 ICorTp=0 IEmpDi=  4
 Integral buffers will be    131072 words long.
 Regular integral format.
 Two-electron integral symmetry is turned off.
 Leave Link  301 at Wed Sep  7 15:34:28 2022, MaxMem=   131072000 cpu:               0.0 elap:               0.0
 (Enter /opt/g16/l302.exe)
 Do NDO integrals.
 NPDir=0 NMtPBC=     1 NCelOv=     1 NCel=       1 NClECP=     1 NCelD=      1
         NCelK=      1 NCelE2=     1 NClLst=     1 CellRange=     0.0.
 One-electron integrals computed using PRISM.
 NBasis=    36 RedAO= F EigKep=  0.00D+00  NBF=    36
 NBsUse=    36 1.00D-04 EigRej=  0.00D+00 NBFU=    36
 Leave Link  302 at Wed Sep  7 15:34:28 2022, MaxMem=   131072000 cpu:               0.0 elap:               0.0
 (Enter /opt/g16/l303.exe)
 DipDrv:  MaxL=1.
 Leave Link  303 at Wed Sep  7 15:34:28 2022, MaxMem=   131072000 cpu:               0.0 elap:               0.0
 (Enter /opt/g16/l401.exe)
 Simple Huckel Guess.
 JPrj=0 DoOrth=F DoCkMO=F.
 Leave Link  401 at Wed Sep  7 15:34:28 2022, MaxMem=   131072000 cpu:               0.0 elap:               0.0
 (Enter /opt/g16/l502.exe)
 Keep J ints in memory in canonical form, NReq=862161.
 FoFCou: FMM=F IPFlag=           0 FMFlag=           0 FMFlg1=           0
         NFxFlg=           0 DoJE=F BraDBF=F KetDBF=F FulRan=T
         wScrn=  0.000000 ICntrl=       600 IOpCl=  2 I1Cent=           0 NGrid=           0
         NMat0=    1 NMatS0=     72 NMatT0=    0 NMatD0=    1 NMtDS0=    0 NMtDT0=    0
 Symmetry not used in FoFCou.
 Two-electron integral symmetry not used.
 Closed shell SCF:
 Using DIIS extrapolation, IDIIS=  1040.
 Overlap will be assumed to be unity.
 NGot=   131072000 LenX=   131006778 LenY=   131005041
 Requested convergence on RMS density matrix=1.00D-08 within 128 cycles.
 Requested convergence on MAX density matrix=1.00D-06.
 Requested convergence on             energy=1.00D-06.
 No special actions if energy rises.

 Cycle   1  Pass 1  IDiag  1:
 E= 0.201775533178022    
 DIIS: error= 7.17D-02 at cycle   1 NSaved=   1.
 NSaved= 1 IEnMin= 1 EnMin= 0.201775533178022     IErMin= 1 ErrMin= 7.17D-02
 ErrMax= 7.17D-02  0.00D+00 EMaxC= 1.00D-01 BMatC= 1.09D-01 BMatP= 1.09D-01
 IDIUse=3 WtCom= 2.83D-01 WtEn= 7.17D-01
 Coeff-Com:  0.100D+01
 Coeff-En:   0.100D+01
 Coeff:      0.100D+01
 GapD=    2.000 DampG=2.000 DampE=0.500 DampFc=1.0000 IDamp=-1.
 RMSDP=1.28D-02 MaxDP=1.50D-01              OVMax= 0.00D+00

 Cycle   2  Pass 1  IDiag  1:
 E=-0.601742765223321E-01 Delta-E=       -0.261949809700 Rises=F Damp=F
 DIIS: error= 1.74D-02 at cycle   2 NSaved=   2.
 NSaved= 2 IEnMin= 2 EnMin=-0.601742765223321E-01 IErMin= 2 ErrMin= 1.74D-02
 ErrMax= 1.74D-02  0.00D+00 EMaxC= 1.00D-01 BMatC= 7.10D-03 BMatP= 1.09D-01
 IDIUse=3 WtCom= 8.26D-01 WtEn= 1.74D-01
 Coeff-Com: -0.305D+00 0.131D+01
 Coeff-En:   0.000D+00 0.100D+01
 Coeff:     -0.252D+00 0.125D+01
 RMSDP=4.63D-03 MaxDP=6.47D-02 DE=-2.62D-01 OVMax= 0.00D+00

 Cycle   3  Pass 1  IDiag  3:
 E=-0.821185218256915E-01 Delta-E=       -0.021944245303 Rises=F Damp=F
 DIIS: error= 4.33D-03 at cycle   3 NSaved=   3.
 NSaved= 3 IEnMin= 3 EnMin=-0.821185218256915E-01 IErMin= 3 ErrMin= 4.33D-03
 ErrMax= 4.33D-03  0.00D+00 EMaxC= 1.00D-01 BMatC= 2.22D-04 BMatP= 7.10D-03
 IDIUse=3 WtCom= 9.57D-01 WtEn= 4.33D-02
 Coeff-Com:  0.139D+00-0.690D+00 0.155D+01
 Coeff-En:   0.000D+00 0.000D+00 0.100D+01
 Coeff:      0.133D+00-0.660D+00 0.153D+01
 Gap=     0.524 Goal=   None    Shift=    0.000
 RMSDP=1.32D-03 MaxDP=2.57D-02 DE=-2.19D-02 OVMax= 9.76D-03

 Cycle   4  Pass 1  IDiag  3:
 E=-0.832798853581949E-01 Delta-E=       -0.001161363533 Rises=F Damp=F
 DIIS: error= 9.14D-04 at cycle   4 NSaved=   4.
 NSaved= 4 IEnMin= 4 EnMin=-0.832798853581949E-01 IErMin= 4 ErrMin= 9.14D-04
 ErrMax= 9.14D-04  0.00D+00 EMaxC= 1.00D-01 BMatC= 9.68D-06 BMatP= 2.22D-04
 IDIUse=3 WtCom= 9.91D-01 WtEn= 9.14D-03
 Coeff-Com: -0.299D-01 0.167D+00-0.570D+00 0.143D+01
 Coeff-En:   0.000D+00 0.000D+00 0.000D+00 0.100D+01
 Coeff:     -0.297D-01 0.165D+00-0.565D+00 0.143D+01
 Gap=     0.525 Goal=   None    Shift=    0.000
 RMSDP=3.30D-04 MaxDP=6.00D-03 DE=-1.16D-03 OVMax= 2.63D-03

 Cycle   5  Pass 1  IDiag  3:
 E=-0.833374140527212E-01 Delta-E=       -0.000057528695 Rises=F Damp=F
 DIIS: error= 1.13D-04 at cycle   5 NSaved=   5.
 NSaved= 5 IEnMin= 5 EnMin=-0.833374140527212E-01 IErMin= 5 ErrMin= 1.13D-04
 ErrMax= 1.13D-04  0.00D+00 EMaxC= 1.00D-01 BMatC= 3.00D-07 BMatP= 9.68D-06
 IDIUse=3 WtCom= 9.99D-01 WtEn= 1.13D-03
 Coeff-Com:  0.181D-02-0.138D-01 0.818D-01-0.375D+00 0.131D+01
 Coeff-En:   0.000D+00 0.000D+00 0.000D+00 0.000D+00 0.100D+01
 Coeff:      0.180D-02-0.138D-01 0.817D-01-0.375D+00 0.130D+01
 Gap=     0.526 Goal=   None    Shift=    0.000
 RMSDP=5.32D-05 MaxDP=5.98D-04 DE=-5.75D-05 OVMax= 3.92D-04

 Cycle   6  Pass 1  IDiag  3:
 E=-0.833390958101745E-01 Delta-E=       -0.000001681757 Rises=F Damp=F
 DIIS: error= 2.82D-05 at cycle   6 NSaved=   6.
 NSaved= 6 IEnMin= 6 EnMin=-0.833390958101745E-01 IErMin= 6 ErrMin= 2.82D-05
 ErrMax= 2.82D-05  0.00D+00 EMaxC= 1.00D-01 BMatC= 2.18D-08 BMatP= 3.00D-07
 IDIUse=1 WtCom= 1.00D+00 WtEn= 0.00D+00
 Coeff-Com: -0.367D-03 0.382D-02-0.295D-01 0.157D+00-0.713D+00 0.158D+01
 Coeff:     -0.367D-03 0.382D-02-0.295D-01 0.157D+00-0.713D+00 0.158D+01
 Gap=     0.526 Goal=   None    Shift=    0.000
 RMSDP=1.55D-05 MaxDP=1.85D-04 DE=-1.68D-06 OVMax= 1.11D-04

 Cycle   7  Pass 1  IDiag  3:
 E=-0.833392318000108E-01 Delta-E=       -0.000000135990 Rises=F Damp=F
 DIIS: error= 5.40D-06 at cycle   7 NSaved=   7.
 NSaved= 7 IEnMin= 7 EnMin=-0.833392318000108E-01 IErMin= 7 ErrMin= 5.40D-06
 ErrMax= 5.40D-06  0.00D+00 EMaxC= 1.00D-01 BMatC= 1.59D-09 BMatP= 2.18D-08
 IDIUse=1 WtCom= 1.00D+00 WtEn= 0.00D+00
 Coeff-Com:  0.173D-03-0.185D-02 0.146D-01-0.792D-01 0.379D+00-0.103D+01
 Coeff-Com:  0.172D+01
 Coeff:      0.173D-03-0.185D-02 0.146D-01-0.792D-01 0.379D+00-0.103D+01
 Coeff:      0.172D+01
 Gap=     0.525 Goal=   None    Shift=    0.000
 RMSDP=4.81D-06 MaxDP=4.96D-05 DE=-1.36D-07 OVMax= 3.11D-05

 Cycle   8  Pass 1  IDiag  3:
 E=-0.833392421535564E-01 Delta-E=       -0.000000010354 Rises=F Damp=F
 DIIS: error= 1.09D-06 at cycle   8 NSaved=   8.
 NSaved= 8 IEnMin= 8 EnMin=-0.833392421535564E-01 IErMin= 8 ErrMin= 1.09D-06
 ErrMax= 1.09D-06  0.00D+00 EMaxC= 1.00D-01 BMatC= 4.83D-11 BMatP= 1.59D-09
 IDIUse=1 WtCom= 1.00D+00 WtEn= 0.00D+00
 Coeff-Com: -0.584D-04 0.689D-03-0.572D-02 0.315D-01-0.154D+00 0.437D+00
 Coeff-Com: -0.834D+00 0.153D+01
 Coeff:     -0.584D-04 0.689D-03-0.572D-02 0.315D-01-0.154D+00 0.437D+00
 Coeff:     -0.834D+00 0.153D+01
 Gap=     0.525 Goal=   None    Shift=    0.000
 RMSDP=7.48D-07 MaxDP=7.60D-06 DE=-1.04D-08 OVMax= 5.18D-06

 Cycle   9  Pass 1  IDiag  3:
 E=-0.833392424503074E-01 Delta-E=       -0.000000000297 Rises=F Damp=F
 DIIS: error= 2.06D-07 at cycle   9 NSaved=   9.
 NSaved= 9 IEnMin= 9 EnMin=-0.833392424503074E-01 IErMin= 9 ErrMin= 2.06D-07
 ErrMax= 2.06D-07  0.00D+00 EMaxC= 1.00D-01 BMatC= 2.89D-12 BMatP= 4.83D-11
 IDIUse=1 WtCom= 1.00D+00 WtEn= 0.00D+00
 Coeff-Com:  0.201D-04-0.281D-03 0.252D-02-0.142D-01 0.703D-01-0.203D+00
 Coeff-Com:  0.401D+00-0.889D+00 0.163D+01
 Coeff:      0.201D-04-0.281D-03 0.252D-02-0.142D-01 0.703D-01-0.203D+00
 Coeff:      0.401D+00-0.889D+00 0.163D+01
 Gap=     0.525 Goal=   None    Shift=    0.000
 RMSDP=1.90D-07 MaxDP=1.73D-06 DE=-2.97D-10 OVMax= 1.44D-06

 Cycle  10  Pass 1  IDiag  3:
 E=-0.833392424684689E-01 Delta-E=       -0.000000000018 Rises=F Damp=F
 DIIS: error= 5.38D-08 at cycle  10 NSaved=  10.
 NSaved=10 IEnMin=10 EnMin=-0.833392424684689E-01 IErMin=10 ErrMin= 5.38D-08
 ErrMax= 5.38D-08  0.00D+00 EMaxC= 1.00D-01 BMatC= 1.49D-13 BMatP= 2.89D-12
 IDIUse=1 WtCom= 1.00D+00 WtEn= 0.00D+00
 Coeff-Com: -0.712D-05 0.108D-03-0.996D-03 0.567D-02-0.283D-01 0.822D-01
 Coeff-Com: -0.164D+00 0.378D+00-0.842D+00 0.157D+01
 Coeff:     -0.712D-05 0.108D-03-0.996D-03 0.567D-02-0.283D-01 0.822D-01
 Coeff:     -0.164D+00 0.378D+00-0.842D+00 0.157D+01
 Gap=     0.525 Goal=   None    Shift=    0.000
 RMSDP=4.30D-08 MaxDP=3.93D-07 DE=-1.82D-11 OVMax= 2.39D-07

 Cycle  11  Pass 1  IDiag  3:
 E=-0.833392424694068E-01 Delta-E=       -0.000000000001 Rises=F Damp=F
 DIIS: error= 1.32D-08 at cycle  11 NSaved=  11.
 NSaved=11 IEnMin=11 EnMin=-0.833392424694068E-01 IErMin=11 ErrMin= 1.32D-08
 ErrMax= 1.32D-08  0.00D+00 EMaxC= 1.00D-01 BMatC= 8.06D-15 BMatP= 1.49D-13
 IDIUse=1 WtCom= 1.00D+00 WtEn= 0.00D+00
 Coeff-Com:  0.178D-05-0.266D-04 0.244D-03-0.139D-02 0.695D-02-0.203D-01
 Coeff-Com:  0.406D-01-0.941D-01 0.227D+00-0.600D+00 0.144D+01
 Coeff:      0.178D-05-0.266D-04 0.244D-03-0.139D-02 0.695D-02-0.203D-01
 Coeff:      0.406D-01-0.941D-01 0.227D+00-0.600D+00 0.144D+01
 Gap=     0.525 Goal=   None    Shift=    0.000
 RMSDP=9.59D-09 MaxDP=9.85D-08 DE=-9.38D-13 OVMax= 6.03D-08

 Cycle  12  Pass 2  IDiag  1:
 SCF Done:  E(RPM3) = -0.833392424694E-01 A.U. after   12 cycles
            NFock= 11  Conv=0.96D-08     -V/T= 0.9986
 KE=-5.975427730259D+01 PE=-2.616807058789D+02 EE= 1.476402579687D+02
 Leave Link  502 at Wed Sep  7 15:34:28 2022, MaxMem=   131072000 cpu:               0.0 elap:               0.0
 (Enter /opt/g16/l601.exe)
 Copying SCF densities to generalized density rwf, IOpCl= 0 IROHF=0.

 **********************************************************************

            Population analysis using the SCF density.

 **********************************************************************

 Orbital symmetries:
       Occupied  (A) (A) (A) (A) (A) (A) (A) (A) (A) (A) (A) (A)
                 (A) (A) (A) (A) (A) (A) (A)
       Virtual   (A) (A) (A) (A) (A) (A) (A) (A) (A) (A) (A) (A)
                 (A) (A) (A) (A) (A)
 The electronic state is 1-A.
 Alpha  occ. eigenvalues --   -1.51915  -1.24786  -1.20418  -0.95392  -0.82705
 Alpha  occ. eigenvalues --   -0.72827  -0.65707  -0.60721  -0.59832  -0.54672
 Alpha  occ. eigenvalues --   -0.53935  -0.51619  -0.48904  -0.47125  -0.46900
 Alpha  occ. eigenvalues --   -0.43977  -0.43624  -0.41610  -0.41055
 Alpha virt. eigenvalues --    0.11410   0.12350   0.12986   0.14063   0.14454
 Alpha virt. eigenvalues --    0.14824   0.15111   0.15809   0.16283   0.16469
 Alpha virt. eigenvalues --    0.16811   0.17759   0.18216   0.18378   0.19152
 Alpha virt. eigenvalues --    0.19383   0.20621
          Condensed to atoms (all electrons):
               1          2          3          4          5          6
     1  C    4.098831   0.000000   0.000000   0.000000   0.000000   0.000000
     2  H    0.000000   0.969082   0.000000   0.000000   0.000000   0.000000
     3  H    0.000000   0.000000   0.941193   0.000000   0.000000   0.000000
     4  H    0.000000   0.000000   0.000000   0.951468   0.000000   0.000000
     5  C    0.000000   0.000000   0.000000   0.000000   4.147389   0.000000
     6  H    0.000000   0.000000   0.000000   0.000000   0.000000   0.945824
     7  H    0.000000   0.000000   0.000000   0.000000   0.000000   0.000000
     8  C    0.000000   0.000000   0.000000   0.000000   0.000000   0.000000
     9  H    0.000000   0.000000   0.000000   0.000000   0.000000   0.000000
    10  O    0.000000   0.000000   0.000000   0.000000   0.000000   0.000000
    11  C    0.000000   0.000000   0.000000   0.000000   0.000000   0.000000
    12  H    0.000000   0.000000   0.000000   0.000000   0.000000   0.000000
    13  H    0.000000   0.000000   0.000000   0.000000   0.000000   0.000000
    14  H    0.000000   0.000000   0.000000   0.000000   0.000000   0.000000
    15  C    0.000000   0.000000   0.000000   0.000000   0.000000   0.000000
    16  H    0.000000   0.000000   0.000000   0.000000   0.000000   0.000000
    17  H    0.000000   0.000000   0.000000   0.000000   0.000000   0.000000
    18  H    0.000000   0.000000   0.000000   0.000000   0.000000   0.000000
               7          8          9         10         11         12
     1  C    0.000000   0.000000   0.000000   0.000000   0.000000   0.000000
     2  H    0.000000   0.000000   0.000000   0.000000   0.000000   0.000000
     3  H    0.000000   0.000000   0.000000   0.000000   0.000000   0.000000
     4  H    0.000000   0.000000   0.000000   0.000000   0.000000   0.000000
     5  C    0.000000   0.000000   0.000000   0.000000   0.000000   0.000000
     6  H    0.000000   0.000000   0.000000   0.000000   0.000000   0.000000
     7  H    0.947063   0.000000   0.000000   0.000000   0.000000   0.000000
     8  C    0.000000   3.914778   0.000000   0.000000   0.000000   0.000000
     9  H    0.000000   0.000000   0.957888   0.000000   0.000000   0.000000
    10  O    0.000000   0.000000   0.000000   6.315828   0.000000   0.000000
    11  C    0.000000   0.000000   0.000000   0.000000   4.130858   0.000000
    12  H    0.000000   0.000000   0.000000   0.000000   0.000000   0.820464
    13  H    0.000000   0.000000   0.000000   0.000000   0.000000   0.000000
    14  H    0.000000   0.000000   0.000000   0.000000   0.000000   0.000000
    15  C    0.000000   0.000000   0.000000   0.000000   0.000000   0.000000
    16  H    0.000000   0.000000   0.000000   0.000000   0.000000   0.000000
    17  H    0.000000   0.000000   0.000000   0.000000   0.000000   0.000000
    18  H    0.000000   0.000000   0.000000   0.000000   0.000000   0.000000
              13         14         15         16         17         18
     1  C    0.000000   0.000000   0.000000   0.000000   0.000000   0.000000
     2  H    0.000000   0.000000   0.000000   0.000000   0.000000   0.000000
     3  H    0.000000   0.000000   0.000000   0.000000   0.000000   0.000000
     4  H    0.000000   0.000000   0.000000   0.000000   0.000000   0.000000
     5  C    0.000000   0.000000   0.000000   0.000000   0.000000   0.000000
     6  H    0.000000   0.000000   0.000000   0.000000   0.000000   0.000000
     7  H    0.000000   0.000000   0.000000   0.000000   0.000000   0.000000
     8  C    0.000000   0.000000   0.000000   0.000000   0.000000   0.000000
     9  H    0.000000   0.000000   0.000000   0.000000   0.000000   0.000000
    10  O    0.000000   0.000000   0.000000   0.000000   0.000000   0.000000
    11  C    0.000000   0.000000   0.000000   0.000000   0.000000   0.000000
    12  H    0.000000   0.000000   0.000000   0.000000   0.000000   0.000000
    13  H    0.923769   0.000000   0.000000   0.000000   0.000000   0.000000
    14  H    0.000000   0.940686   0.000000   0.000000   0.000000   0.000000
    15  C    0.000000   0.000000   4.120946   0.000000   0.000000   0.000000
    16  H    0.000000   0.000000   0.000000   0.968597   0.000000   0.000000
    17  H    0.000000   0.000000   0.000000   0.000000   0.958486   0.000000
    18  H    0.000000   0.000000   0.000000   0.000000   0.000000   0.946849
 Mulliken charges:
               1
     1  C   -0.098831
     2  H    0.030918
     3  H    0.058807
     4  H    0.048532
     5  C   -0.147389
     6  H    0.054176
     7  H    0.052937
     8  C    0.085222
     9  H    0.042112
    10  O   -0.315828
    11  C   -0.130858
    12  H    0.179536
    13  H    0.076231
    14  H    0.059314
    15  C   -0.120946
    16  H    0.031403
    17  H    0.041514
    18  H    0.053151
 Sum of Mulliken charges =  -0.00000
 Mulliken charges with hydrogens summed into heavy atoms:
               1
     1  C    0.039426
     5  C   -0.040276
     8  C    0.127334
    10  O   -0.136293
    11  C    0.004686
    15  C    0.005122
 Charge=              0.0000 electrons
 Dipole moment (field-independent basis, Debye):
    X=              0.2925    Y=             -0.1360    Z=              1.4275  Tot=              1.4635
 N-N= 1.737113859704D+02 E-N=-2.616807061034D+02  KE=-5.975427730259D+01
 Leave Link  601 at Wed Sep  7 15:34:28 2022, MaxMem=   131072000 cpu:               0.0 elap:               0.0
 (Enter /opt/g16/l701.exe)
 ... and contract with generalized density number  0.
 Compute integral first derivatives.
 Leave Link  701 at Wed Sep  7 15:34:28 2022, MaxMem=   131072000 cpu:               0.0 elap:               0.0
 (Enter /opt/g16/l702.exe)
 L702 exits ... SP integral derivatives will be done elsewhere.
 Leave Link  702 at Wed Sep  7 15:34:28 2022, MaxMem=   131072000 cpu:               0.0 elap:               0.0
 (Enter /opt/g16/l703.exe)
 Integral derivatives from FoFJK, PRISM(SPDF).
 Compute integral first derivatives, UseDBF=F ICtDFT=           0.
 Calling FoFJK, ICntrl=      2127 FMM=F ISym2X=0 I1Cent= 0 IOpClX= 0 NMat=1 NMatS=1 NMatT=0.
 FoFJK:  IHMeth= 9 ICntrl=    2127 DoSepK=F KAlg= 0 I1Cent=           0 FoldK=F
 IRaf=         0 NMat=       1 IRICut=       1 DoRegI=T DoRafI=F ISym2E= 0 IDoP0=3 IntGTp=3.
 FoFCou: FMM=F IPFlag=           0 FMFlag=      100000 FMFlg1=         800
         NFxFlg=           0 DoJE=F BraDBF=F KetDBF=F FulRan=T
         wScrn=  0.000000 ICntrl=      2127 IOpCl=  0 I1Cent=           0 NGrid=           0
         NMat0=    1 NMatS0=      1 NMatT0=    0 NMatD0=    1 NMtDS0=    0 NMtDT0=    0
 Symmetry not used in FoFCou.
 Leave Link  703 at Wed Sep  7 15:34:28 2022, MaxMem=   131072000 cpu:               0.0 elap:               0.0
 (Enter /opt/g16/l716.exe)
 Dipole        = 1.15070155D-01-5.34948288D-02 5.61632681D-01
 ***** Axes restored to original set *****
 -------------------------------------------------------------------
 Center     Atomic                   Forces (Hartrees/Bohr)
 Number     Number              X              Y              Z
 -------------------------------------------------------------------
      1        6          -0.000190505    0.036043311   -0.019407236
      2        1           0.002576075   -0.013690593    0.006097185
      3        1          -0.001077658   -0.008900848    0.011971992
      4        1          -0.002529084   -0.008171788    0.005270939
      5        6          -0.085911546    0.033500443    0.001338957
      6        1           0.004168272    0.011334640    0.006778758
      7        1          -0.000033462    0.007244834    0.002951761
      8        6           0.088365556    0.005721909    0.030938284
      9        1          -0.007805155    0.002006199   -0.001028217
     10        8           0.008086913    0.021174399    0.010135374
     11        6          -0.020566353   -0.050061141   -0.069776733
     12        1          -0.009571817   -0.012424478   -0.003454641
     13        1          -0.007507201   -0.009526934   -0.001572956
     14        1           0.007207031    0.001568138    0.028186767
     15        6           0.027558175    0.014431883    0.033769378
     16        1           0.004912463    0.001496563   -0.003425158
     17        1          -0.003998719   -0.030585539   -0.020927767
     18        1          -0.003682987   -0.001160997   -0.017846686
 -------------------------------------------------------------------
 Cartesian Forces:  Max     0.088365556 RMS     0.024867727
 Leave Link  716 at Wed Sep  7 15:34:28 2022, MaxMem=   131072000 cpu:               0.0 elap:               0.0
 (Enter /opt/g16/l103.exe)

 GradGradGradGradGradGradGradGradGradGradGradGradGradGradGradGradGradGrad
 Berny optimization.
 FormGI is forming the generalized inverse of G from B-inverse, IUseBI=4.
 Internal  Forces:  Max     0.101665471 RMS     0.016845610
 Search for a local minimum.
 Step number   1 out of a maximum of   97
 All quantities printed in internal units (Hartrees-Bohrs-Radians)
 RMS Force = .16846D-01 SwitMx=.10000D-02 MixMth= 1
 Mixed Optimization -- RFO/linear search
 Second derivative matrix not updated -- first step.
 ITU=  0
     Eigenvalues ---    0.00319   0.00856   0.01121   0.01444   0.01793
     Eigenvalues ---    0.03633   0.04458   0.04997   0.05362   0.05445
     Eigenvalues ---    0.05547   0.05660   0.05682   0.06280   0.06579
     Eigenvalues ---    0.08167   0.08229   0.09289   0.11966   0.12900
     Eigenvalues ---    0.16000   0.16000   0.16000   0.16000   0.16000
     Eigenvalues ---    0.16000   0.16000   0.16591   0.19719   0.21822
     Eigenvalues ---    0.21974   0.27519   0.29075   0.30430   0.30722
     Eigenvalues ---    0.31549   0.31943   0.33104   0.34127   0.34247
     Eigenvalues ---    0.35106   0.35258   0.36769   0.38407   0.39156
     Eigenvalues ---    0.40675   0.42106   0.55043
 RFO step:  Lambda=-6.15512865D-02 EMin= 3.18771227D-03
 Linear search not attempted -- first point.
 Maximum step size (   0.300) exceeded in Quadratic search.
    -- Step size scaled by   0.774
 Iteration  1 RMS(Cart)=  0.09595249 RMS(Int)=  0.00150133
 Iteration  2 RMS(Cart)=  0.00185796 RMS(Int)=  0.00044022
 Iteration  3 RMS(Cart)=  0.00000363 RMS(Int)=  0.00044021
 Iteration  4 RMS(Cart)=  0.00000000 RMS(Int)=  0.00044021
 ITry= 1 IFail=0 DXMaxC= 2.52D-01 DCOld= 1.00D+10 DXMaxT= 3.00D-01 DXLimC= 3.00D+00 Rises=F
 Variable       Old X    -DE/DX   Delta X   Delta X   Delta X     New X
                                 (Linear)    (Quad)   (Total)
    R1        2.10948  -0.01064   0.00000  -0.02161  -0.02161   2.08788
    R2        2.02897   0.01216   0.00000   0.02192   0.02192   2.05088
    R3        2.05258   0.00470   0.00000   0.00879   0.00879   2.06136
    R4        2.89847   0.00048   0.00000   0.00105   0.00105   2.89952
    R5        2.05503   0.01349   0.00000   0.02529   0.02529   2.08032
    R6        2.11676  -0.00175   0.00000  -0.00359  -0.00359   2.11317
    R7        2.68788   0.10167   0.00000   0.16299   0.16299   2.85087
    R8        2.13815  -0.00403   0.00000  -0.00852  -0.00852   2.12963
    R9        2.72717   0.00187   0.00000   0.00319   0.00319   2.73036
   R10        2.73777   0.08835   0.00000   0.15340   0.15340   2.89117
   R11        1.81794  -0.01593   0.00000  -0.02014  -0.02014   1.79780
   R12        2.07116   0.00916   0.00000   0.01760   0.01760   2.08876
   R13        2.19903  -0.02709   0.00000  -0.06224  -0.06224   2.13679
   R14        2.82169   0.03005   0.00000   0.05921   0.05921   2.88090
   R15        2.06916   0.00513   0.00000   0.00983   0.00983   2.07898
   R16        1.97347   0.03707   0.00000   0.06124   0.06124   2.03471
   R17        2.13247  -0.01588   0.00000  -0.03331  -0.03331   2.09916
    A1        1.92695  -0.00849   0.00000  -0.02604  -0.02709   1.89985
    A2        1.89598  -0.00705   0.00000  -0.01872  -0.01985   1.87612
    A3        1.80137   0.01591   0.00000   0.05977   0.05871   1.86009
    A4        2.01180  -0.01080   0.00000  -0.04531  -0.04529   1.96651
    A5        1.90732   0.00692   0.00000   0.02135   0.02088   1.92821
    A6        1.90860   0.00654   0.00000   0.02085   0.02037   1.92897
    A7        1.90940   0.00023   0.00000  -0.00564  -0.00582   1.90358
    A8        1.84303   0.00131   0.00000   0.01258   0.01239   1.85542
    A9        2.02968  -0.00071   0.00000  -0.00120  -0.00143   2.02825
   A10        1.84682  -0.00165   0.00000  -0.00912  -0.00893   1.83789
   A11        1.98352  -0.00276   0.00000  -0.01822  -0.01828   1.96524
   A12        1.83483   0.00398   0.00000   0.02499   0.02491   1.85974
   A13        1.97489  -0.00596   0.00000  -0.03490  -0.03504   1.93985
   A14        1.97733  -0.00986   0.00000  -0.02923  -0.03029   1.94704
   A15        1.94296   0.01054   0.00000   0.03606   0.03632   1.97928
   A16        1.79943   0.00379   0.00000   0.01102   0.01038   1.80981
   A17        1.93225  -0.00420   0.00000  -0.01128  -0.01100   1.92125
   A18        1.82701   0.00570   0.00000   0.03027   0.03053   1.85753
   A19        1.82094   0.00250   0.00000   0.00874   0.00874   1.82968
   A20        1.88885   0.00030   0.00000   0.01237   0.01193   1.90078
   A21        2.02807  -0.01351   0.00000  -0.05426  -0.05491   1.97315
   A22        1.91462   0.02033   0.00000   0.06282   0.06278   1.97740
   A23        1.88179   0.00045   0.00000  -0.01647  -0.01684   1.86495
   A24        1.93723  -0.00889   0.00000  -0.02181  -0.02267   1.91456
   A25        1.81258   0.00057   0.00000   0.01512   0.01620   1.82878
   A26        1.91308   0.00475   0.00000   0.01896   0.01864   1.93172
   A27        1.99573  -0.00563   0.00000  -0.02273  -0.02252   1.97321
   A28        1.87739   0.01210   0.00000   0.04271   0.04247   1.91986
   A29        1.88061  -0.00035   0.00000  -0.00238  -0.00227   1.87834
   A30        1.86172  -0.00471   0.00000  -0.00958  -0.01037   1.85134
   A31        1.93093  -0.00620   0.00000  -0.02631  -0.02604   1.90489
    D1        0.84192   0.00076   0.00000   0.00717   0.00714   0.84906
    D2       -1.13854   0.00189   0.00000   0.01392   0.01392  -1.12462
    D3        3.11809  -0.00357   0.00000  -0.02517  -0.02521   3.09288
    D4       -1.20862  -0.00080   0.00000  -0.00330  -0.00360  -1.21223
    D5        3.09411   0.00034   0.00000   0.00345   0.00317   3.09728
    D6        1.06755  -0.00512   0.00000  -0.03564  -0.03595   1.03160
    D7        2.85752   0.00347   0.00000   0.02464   0.02496   2.88249
    D8        0.87707   0.00461   0.00000   0.03139   0.03174   0.90881
    D9       -1.14949  -0.00085   0.00000  -0.00769  -0.00739  -1.15688
   D10       -2.94942   0.00340   0.00000   0.02194   0.02158  -2.92784
   D11       -0.90908  -0.00274   0.00000  -0.00863  -0.00819  -0.91727
   D12        1.14448   0.00525   0.00000   0.03545   0.03537   1.17985
   D13       -0.70885   0.00038   0.00000  -0.00527  -0.00554  -0.71439
   D14        1.33148  -0.00577   0.00000  -0.03583  -0.03531   1.29618
   D15       -2.89814   0.00222   0.00000   0.00824   0.00825  -2.88989
   D16        1.30264  -0.00056   0.00000  -0.01016  -0.01061   1.29204
   D17       -2.94021  -0.00671   0.00000  -0.04073  -0.04038  -2.98058
   D18       -0.88664   0.00128   0.00000   0.00335   0.00318  -0.88346
   D19       -1.50191   0.00800   0.00000   0.04252   0.04242  -1.45949
   D20        0.63896  -0.00221   0.00000  -0.00895  -0.00927   0.62970
   D21        2.66124  -0.00312   0.00000  -0.00527  -0.00486   2.65638
   D22       -1.26113   0.00270   0.00000   0.00787   0.00775  -1.25338
   D23        0.85774  -0.00575   0.00000  -0.04130  -0.04101   0.81674
   D24        2.90611   0.00112   0.00000  -0.01098  -0.01205   2.89406
   D25        2.80923   0.00573   0.00000   0.03499   0.03506   2.84429
   D26       -1.35508  -0.00271   0.00000  -0.01419  -0.01370  -1.36878
   D27        0.69328   0.00416   0.00000   0.01614   0.01526   0.70854
   D28        0.88137   0.00029   0.00000   0.01190   0.01248   0.89386
   D29        3.00025  -0.00816   0.00000  -0.03728  -0.03628   2.96397
   D30       -1.23457  -0.00129   0.00000  -0.00695  -0.00732  -1.24189
   D31       -0.93162   0.00262   0.00000   0.01103   0.01028  -0.92135
   D32       -3.04516   0.00342   0.00000   0.01568   0.01513  -3.03003
   D33        1.08609   0.00615   0.00000   0.03295   0.03273   1.11882
   D34       -3.01818  -0.00525   0.00000  -0.03108  -0.03123  -3.04941
   D35        1.15147  -0.00445   0.00000  -0.02643  -0.02638   1.12509
   D36       -1.00046  -0.00173   0.00000  -0.00916  -0.00878  -1.00924
   D37        1.24725  -0.00202   0.00000  -0.01014  -0.00997   1.23729
   D38       -0.86629  -0.00122   0.00000  -0.00549  -0.00511  -0.87140
   D39       -3.01821   0.00150   0.00000   0.01178   0.01248  -3.00573
         Item               Value     Threshold  Converged?
 Maximum Force            0.101665     0.000450     NO 
 RMS     Force            0.016846     0.000300     NO 
 Maximum Displacement     0.252368     0.001800     NO 
 RMS     Displacement     0.096120     0.001200     NO 
 Predicted change in Energy=-3.253829D-02
 Lowest energy point so far.  Saving SCF results.
 GradGradGradGradGradGradGradGradGradGradGradGradGradGradGradGradGradGrad

 Leave Link  103 at Wed Sep  7 15:34:28 2022, MaxMem=   131072000 cpu:               0.0 elap:               0.0
 (Enter /opt/g16/l202.exe)
                          Input orientation:                          
 ---------------------------------------------------------------------
 Center     Atomic      Atomic             Coordinates (Angstroms)
 Number     Number       Type             X           Y           Z
 ---------------------------------------------------------------------
      1          6           0        8.762953    7.733651   14.212858
      2          1           0        7.916409    8.433488   14.332449
      3          1           0        9.167062    7.501317   15.192935
      4          1           0        8.387931    6.851220   13.692687
      5          6           0        9.811486    8.457109   13.357608
      6          1           0        9.976822    9.465196   13.767868
      7          1           0        9.341815    8.619527   12.355862
      8          6           0       11.100360    7.712390   13.112428
      9          1           0       11.885470    8.391875   12.674336
     10          8           0       11.693556    7.256632   14.348541
     11          6           0       10.928066    6.472855   12.232320
     12          1           0       12.181679    8.005141   14.674951
     13          1           0       10.403124    5.691952   12.812290
     14          1           0       10.306244    6.668742   11.308450
     15          6           0       12.247049    5.920764   11.703550
     16          1           0       12.826524    6.711126   11.203684
     17          1           0       12.115648    5.117564   10.998619
     18          1           0       12.875803    5.565452   12.547564
 ---------------------------------------------------------------------
                    Distance matrix (angstroms):
                    1          2          3          4          5
     1  C    0.000000
     2  H    1.104858   0.000000
     3  H    1.085281   1.781436   0.000000
     4  H    1.090827   1.770650   1.811192   0.000000
     5  C    1.534362   2.131241   2.167313   2.172019   0.000000
     6  H    2.160959   2.372441   2.557997   3.059918   1.100858
     7  H    2.137357   2.444031   3.054492   2.413277   1.118243
     8  C    2.583578   3.485108   2.847930   2.904408   1.508614
     9  H    3.542658   4.301688   3.811322   3.955179   2.184611
    10  O    2.972271   3.956272   2.675078   3.394358   2.442392
    11  C    3.193721   4.162295   3.595012   2.954339   2.539742
    12  H    3.460481   4.300386   3.100010   4.085206   2.749088
    13  H    2.969897   4.001331   3.235602   2.485961   2.879843
    14  H    3.457075   4.239129   4.132813   3.065585   2.764433
    15  C    4.660698   5.655027   4.915310   4.440181   3.885990
    16  H    5.158808   6.071650   5.470849   5.090763   4.096132
    17  H    5.330648   6.304235   5.654089   4.915225   4.693245
    18  H    4.938606   6.000586   4.949780   4.806819   4.290441
                    6          7          8          9         10
     6  H    0.000000
     7  H    1.764129   0.000000
     8  C    2.182720   2.118436   0.000000
     9  H    2.447604   2.573604   1.126953   0.000000
    10  O    2.856941   3.370303   1.444844   2.031889   0.000000
    11  C    3.495265   2.672014   1.529942   2.189667   2.382998
    12  H    2.795702   3.717590   1.922611   2.059068   0.951353
    13  H    3.915639   3.147285   2.158330   3.083175   2.544309
    14  H    3.738638   2.415111   2.230282   2.707173   3.392994
    15  C    4.688105   4.018609   2.551422   2.679469   3.014445
    16  H    4.720248   4.136751   2.761426   2.423493   3.386934
    17  H    5.580790   4.669048   3.497445   3.685394   3.996968
    18  H    5.010113   4.674740   2.842641   2.997582   2.738853
                   11         12         13         14         15
    11  C    0.000000
    12  H    3.144185   0.000000
    13  H    1.105323   3.461735   0.000000
    14  H    1.130738   4.078793   1.795840   0.000000
    15  C    1.524506   3.630168   2.163728   2.117143   0.000000
    16  H    2.172328   3.760318   3.082077   2.522812   1.100149
    17  H    2.183846   4.675241   2.559700   2.403350   1.076720
    18  H    2.171736   3.310539   2.490025   3.058641   1.110827
                   16         17         18
    16  H    0.000000
    17  H    1.756940   0.000000
    18  H    1.766638   1.782602   0.000000
 Stoichiometry    C5H12O
 Framework group  C1[X(C5H12O)]
 Deg. of freedom    48
 Full point group                 C1      NOp   1
 RotChk:  IX=0 Diff= 4.60D-02
 Largest Abelian subgroup         C1      NOp   1
 Largest concise Abelian subgroup C1      NOp   1
                         Standard orientation:                         
 ---------------------------------------------------------------------
 Center     Atomic      Atomic             Coordinates (Angstroms)
 Number     Number       Type             X           Y           Z
 ---------------------------------------------------------------------
      1          6           0        2.184682   -0.499790   -0.548742
      2          1           0        3.183996   -0.816913   -0.200150
      3          1           0        2.291160    0.398546   -1.148317
      4          1           0        1.753919   -1.330688   -1.109059
      5          6           0        1.353922   -0.210732    0.708458
      6          1           0        1.937220    0.432817    1.384843
      7          1           0        1.248719   -1.185489    1.246275
      8          6           0       -0.044481    0.306543    0.478650
      9          1           0       -0.495524    0.697488    1.434550
     10          8           0       -0.048129    1.456169   -0.396519
     11          6           0       -0.977086   -0.725373   -0.158626
     12          1           0        0.137955    2.195782    0.172179
     13          1           0       -0.686039   -0.866716   -1.215533
     14          1           0       -0.918410   -1.740429    0.336134
     15          6           0       -2.449415   -0.338147   -0.078502
     16          1           0       -2.733163   -0.101914    0.957843
     17          1           0       -3.109106   -1.113883   -0.428312
     18          1           0       -2.631431    0.587037   -0.665735
 ---------------------------------------------------------------------
 Rotational constants (GHZ):           5.7562050           2.1136724           1.8452863
 Leave Link  202 at Wed Sep  7 15:34:28 2022, MaxMem=   131072000 cpu:               0.0 elap:               0.0
 (Enter /opt/g16/l301.exe)
 Standard basis: VSTO-6G (5D, 7F)
 Ernie: Thresh=  0.10000D-02 Tol=  0.10000D-05 Strict=F.
  NNHCO=     0 NNPyr=     0 NCTC=     0               EPep=         0.000000000
    EC=       128.470753127  ECS=         2.183060650   EG=         0.561792900
   EHC=         0.000000000  EAt=       -36.836480110  AtH=         2.452923921
 EPDDG=         0.000000000  ECC=       131.215606677 EAtT=        39.289404030
 There are    36 symmetry adapted cartesian basis functions of A   symmetry.
 There are    36 symmetry adapted basis functions of A   symmetry.
    36 basis functions,   216 primitive gaussians,    36 cartesian basis functions
    19 alpha electrons       19 beta electrons
       nuclear repulsion energy       170.5050107077 Hartrees.
 IExCor=    0 DFT=F Ex=HF Corr=None ExCW=0 ScaHFX=  1.000000
 ScaDFX=  1.000000  1.000000  1.000000  1.000000 ScalE2=  1.000000  1.000000
 IRadAn=      5 IRanWt=     -1 IRanGd=            0 ICorTp=0 IEmpDi=  4
 Integral buffers will be    131072 words long.
 Regular integral format.
 Two-electron integral symmetry is turned off.
 Leave Link  301 at Wed Sep  7 15:34:28 2022, MaxMem=   131072000 cpu:               0.0 elap:               0.0
 (Enter /opt/g16/l302.exe)
 Do NDO integrals.
 NPDir=0 NMtPBC=     1 NCelOv=     1 NCel=       1 NClECP=     1 NCelD=      1
         NCelK=      1 NCelE2=     1 NClLst=     1 CellRange=     0.0.
 One-electron integrals computed using PRISM.
 NBasis=    36 RedAO= F EigKep=  0.00D+00  NBF=    36
 NBsUse=    36 1.00D-04 EigRej=  0.00D+00 NBFU=    36
 Leave Link  302 at Wed Sep  7 15:34:28 2022, MaxMem=   131072000 cpu:               0.1 elap:               0.0
 (Enter /opt/g16/l303.exe)
 DipDrv:  MaxL=1.
 Leave Link  303 at Wed Sep  7 15:34:28 2022, MaxMem=   131072000 cpu:               0.0 elap:               0.0
 (Enter /opt/g16/l401.exe)
 Initial guess from the checkpoint file:  "MD_extract_010_gaussian.chk"
 B after Tr=     0.000000    0.000000    0.000000
         Rot=    0.999878    0.008215   -0.003381    0.012887 Ang=   1.79 deg.
 Guess basis will be translated and rotated to current coordinates.
 JPrj=0 DoOrth=T DoCkMO=T.
 Leave Link  401 at Wed Sep  7 15:34:28 2022, MaxMem=   131072000 cpu:               0.1 elap:               0.1
 (Enter /opt/g16/l502.exe)
 Keep J ints in memory in canonical form, NReq=862161.
 FoFCou: FMM=F IPFlag=           0 FMFlag=           0 FMFlg1=           0
         NFxFlg=           0 DoJE=F BraDBF=F KetDBF=F FulRan=T
         wScrn=  0.000000 ICntrl=       600 IOpCl=  2 I1Cent=           0 NGrid=           0
         NMat0=    1 NMatS0=     72 NMatT0=    0 NMatD0=    1 NMtDS0=    0 NMtDT0=    0
 Symmetry not used in FoFCou.
 Two-electron integral symmetry not used.
 Closed shell SCF:
 Using DIIS extrapolation, IDIIS=  1040.
 Overlap will be assumed to be unity.
 NGot=   131072000 LenX=   131006778 LenY=   131005041
 Requested convergence on RMS density matrix=1.00D-08 within 128 cycles.
 Requested convergence on MAX density matrix=1.00D-06.
 Requested convergence on             energy=1.00D-06.
 No special actions if energy rises.

 Cycle   1  Pass 1  IDiag  1:
 E=-0.102191149304844    
 DIIS: error= 4.58D-03 at cycle   1 NSaved=   1.
 NSaved= 1 IEnMin= 1 EnMin=-0.102191149304844     IErMin= 1 ErrMin= 4.58D-03
 ErrMax= 4.58D-03  0.00D+00 EMaxC= 1.00D-01 BMatC= 1.77D-03 BMatP= 1.77D-03
 IDIUse=3 WtCom= 9.54D-01 WtEn= 4.58D-02
 Coeff-Com:  0.100D+01
 Coeff-En:   0.100D+01
 Coeff:      0.100D+01
 GapD=    2.000 DampG=2.000 DampE=1.000 DampFc=2.0000 IDamp=-1.
 RMSDP=2.01D-03 MaxDP=1.07D-02              OVMax= 0.00D+00

 Cycle   2  Pass 1  IDiag  3:
 E=-0.107757505104729     Delta-E=       -0.005566355800 Rises=F Damp=F
 DIIS: error= 2.04D-03 at cycle   2 NSaved=   2.
 NSaved= 2 IEnMin= 2 EnMin=-0.107757505104729     IErMin= 2 ErrMin= 2.04D-03
 ErrMax= 2.04D-03  0.00D+00 EMaxC= 1.00D-01 BMatC= 2.09D-04 BMatP= 1.77D-03
 IDIUse=3 WtCom= 9.80D-01 WtEn= 2.04D-02
 Coeff-Com: -0.422D+00 0.142D+01
 Coeff-En:   0.000D+00 0.100D+01
 Coeff:     -0.414D+00 0.141D+01
 Gap=     0.526 Goal=   None    Shift=    0.000
 RMSDP=1.11D-03 MaxDP=6.39D-03 DE=-5.57D-03 OVMax= 7.29D-03

 Cycle   3  Pass 1  IDiag  3:
 E=-0.108709236052846     Delta-E=       -0.000951730948 Rises=F Damp=F
 DIIS: error= 6.08D-04 at cycle   3 NSaved=   3.
 NSaved= 3 IEnMin= 3 EnMin=-0.108709236052846     IErMin= 3 ErrMin= 6.08D-04
 ErrMax= 6.08D-04  0.00D+00 EMaxC= 1.00D-01 BMatC= 1.01D-05 BMatP= 2.09D-04
 IDIUse=3 WtCom= 9.94D-01 WtEn= 6.08D-03
 Coeff-Com:  0.175D+00-0.719D+00 0.154D+01
 Coeff-En:   0.000D+00 0.000D+00 0.100D+01
 Coeff:      0.174D+00-0.715D+00 0.154D+01
 Gap=     0.526 Goal=   None    Shift=    0.000
 RMSDP=3.26D-04 MaxDP=2.88D-03 DE=-9.52D-04 OVMax= 3.27D-03

 Cycle   4  Pass 1  IDiag  3:
 E=-0.108768559787677     Delta-E=       -0.000059323735 Rises=F Damp=F
 DIIS: error= 1.65D-04 at cycle   4 NSaved=   4.
 NSaved= 4 IEnMin= 4 EnMin=-0.108768559787677     IErMin= 4 ErrMin= 1.65D-04
 ErrMax= 1.65D-04  0.00D+00 EMaxC= 1.00D-01 BMatC= 4.28D-07 BMatP= 1.01D-05
 IDIUse=3 WtCom= 9.98D-01 WtEn= 1.65D-03
 Coeff-Com: -0.784D-01 0.333D+00-0.835D+00 0.158D+01
 Coeff-En:   0.000D+00 0.000D+00 0.000D+00 0.100D+01
 Coeff:     -0.782D-01 0.333D+00-0.834D+00 0.158D+01
 Gap=     0.526 Goal=   None    Shift=    0.000
 RMSDP=7.19D-05 MaxDP=9.49D-04 DE=-5.93D-05 OVMax= 1.07D-03

 Cycle   5  Pass 1  IDiag  3:
 E=-0.108771319364365     Delta-E=       -0.000002759577 Rises=F Damp=F
 DIIS: error= 4.73D-05 at cycle   5 NSaved=   5.
 NSaved= 5 IEnMin= 5 EnMin=-0.108771319364365     IErMin= 5 ErrMin= 4.73D-05
 ErrMax= 4.73D-05  0.00D+00 EMaxC= 1.00D-01 BMatC= 2.84D-08 BMatP= 4.28D-07
 IDIUse=1 WtCom= 1.00D+00 WtEn= 0.00D+00
 Coeff-Com:  0.420D-01-0.180D+00 0.466D+00-0.104D+01 0.171D+01
 Coeff:      0.420D-01-0.180D+00 0.466D+00-0.104D+01 0.171D+01
 Gap=     0.526 Goal=   None    Shift=    0.000
 RMSDP=2.07D-05 MaxDP=3.08D-04 DE=-2.76D-06 OVMax= 3.34D-04

 Cycle   6  Pass 1  IDiag  3:
 E=-0.108771519115351     Delta-E=       -0.000000199751 Rises=F Damp=F
 DIIS: error= 8.60D-06 at cycle   6 NSaved=   6.
 NSaved= 6 IEnMin= 6 EnMin=-0.108771519115351     IErMin= 6 ErrMin= 8.60D-06
 ErrMax= 8.60D-06  0.00D+00 EMaxC= 1.00D-01 BMatC= 1.24D-09 BMatP= 2.84D-08
 IDIUse=1 WtCom= 1.00D+00 WtEn= 0.00D+00
 Coeff-Com: -0.119D-01 0.513D-01-0.134D+00 0.315D+00-0.671D+00 0.145D+01
 Coeff:     -0.119D-01 0.513D-01-0.134D+00 0.315D+00-0.671D+00 0.145D+01
 Gap=     0.526 Goal=   None    Shift=    0.000
 RMSDP=4.03D-06 MaxDP=5.75D-05 DE=-2.00D-07 OVMax= 5.58D-05

 Cycle   7  Pass 1  IDiag  3:
 E=-0.108771526802826     Delta-E=       -0.000000007687 Rises=F Damp=F
 DIIS: error= 1.32D-06 at cycle   7 NSaved=   7.
 NSaved= 7 IEnMin= 7 EnMin=-0.108771526802826     IErMin= 7 ErrMin= 1.32D-06
 ErrMax= 1.32D-06  0.00D+00 EMaxC= 1.00D-01 BMatC= 4.50D-11 BMatP= 1.24D-09
 IDIUse=1 WtCom= 1.00D+00 WtEn= 0.00D+00
 Coeff-Com:  0.289D-02-0.125D-01 0.325D-01-0.768D-01 0.171D+00-0.472D+00
 Coeff-Com:  0.136D+01
 Coeff:      0.289D-02-0.125D-01 0.325D-01-0.768D-01 0.171D+00-0.472D+00
 Coeff:      0.136D+01
 Gap=     0.526 Goal=   None    Shift=    0.000
 RMSDP=6.44D-07 MaxDP=8.03D-06 DE=-7.69D-09 OVMax= 5.24D-06

 Cycle   8  Pass 1  IDiag  3:
 E=-0.108771527049100     Delta-E=       -0.000000000246 Rises=F Damp=F
 DIIS: error= 3.20D-07 at cycle   8 NSaved=   8.
 NSaved= 8 IEnMin= 8 EnMin=-0.108771527049100     IErMin= 8 ErrMin= 3.20D-07
 ErrMax= 3.20D-07  0.00D+00 EMaxC= 1.00D-01 BMatC= 2.80D-12 BMatP= 4.50D-11
 IDIUse=1 WtCom= 1.00D+00 WtEn= 0.00D+00
 Coeff-Com: -0.934D-03 0.402D-02-0.105D-01 0.248D-01-0.555D-01 0.161D+00
 Coeff-Com: -0.590D+00 0.147D+01
 Coeff:     -0.934D-03 0.402D-02-0.105D-01 0.248D-01-0.555D-01 0.161D+00
 Coeff:     -0.590D+00 0.147D+01
 Gap=     0.526 Goal=   None    Shift=    0.000
 RMSDP=1.75D-07 MaxDP=1.84D-06 DE=-2.46D-10 OVMax= 1.97D-06

 Cycle   9  Pass 1  IDiag  3:
 E=-0.108771527067887     Delta-E=       -0.000000000019 Rises=F Damp=F
 DIIS: error= 1.32D-07 at cycle   9 NSaved=   9.
 NSaved= 9 IEnMin= 9 EnMin=-0.108771527067887     IErMin= 9 ErrMin= 1.32D-07
 ErrMax= 1.32D-07  0.00D+00 EMaxC= 1.00D-01 BMatC= 3.06D-13 BMatP= 2.80D-12
 IDIUse=1 WtCom= 1.00D+00 WtEn= 0.00D+00
 Coeff-Com:  0.364D-03-0.157D-02 0.410D-02-0.976D-02 0.223D-01-0.674D-01
 Coeff-Com:  0.269D+00-0.912D+00 0.170D+01
 Coeff:      0.364D-03-0.157D-02 0.410D-02-0.976D-02 0.223D-01-0.674D-01
 Coeff:      0.269D+00-0.912D+00 0.170D+01
 Gap=     0.526 Goal=   None    Shift=    0.000
 RMSDP=7.43D-08 MaxDP=9.08D-07 DE=-1.88D-11 OVMax= 8.89D-07

 Cycle  10  Pass 1  IDiag  3:
 E=-0.108771527070246     Delta-E=       -0.000000000002 Rises=F Damp=F
 DIIS: error= 3.40D-08 at cycle  10 NSaved=  10.
 NSaved=10 IEnMin=10 EnMin=-0.108771527070246     IErMin=10 ErrMin= 3.40D-08
 ErrMax= 3.40D-08  0.00D+00 EMaxC= 1.00D-01 BMatC= 2.18D-14 BMatP= 3.06D-13
 IDIUse=1 WtCom= 1.00D+00 WtEn= 0.00D+00
 Coeff-Com: -0.103D-03 0.446D-03-0.116D-02 0.279D-02-0.657D-02 0.207D-01
 Coeff-Com: -0.855D-01 0.329D+00-0.838D+00 0.158D+01
 Coeff:     -0.103D-03 0.446D-03-0.116D-02 0.279D-02-0.657D-02 0.207D-01
 Coeff:     -0.855D-01 0.329D+00-0.838D+00 0.158D+01
 Gap=     0.526 Goal=   None    Shift=    0.000
 RMSDP=2.09D-08 MaxDP=2.49D-07 DE=-2.36D-12 OVMax= 2.22D-07

 Cycle  11  Pass 1  IDiag  3:
 E=-0.108771527070473     Delta-E=       -0.000000000000 Rises=F Damp=F
 DIIS: error= 5.41D-09 at cycle  11 NSaved=  11.
 NSaved=11 IEnMin=11 EnMin=-0.108771527070473     IErMin=11 ErrMin= 5.41D-09
 ErrMax= 5.41D-09  0.00D+00 EMaxC= 1.00D-01 BMatC= 1.07D-15 BMatP= 2.18D-14
 IDIUse=1 WtCom= 1.00D+00 WtEn= 0.00D+00
 Coeff-Com:  0.184D-04-0.797D-04 0.208D-03-0.508D-03 0.126D-02-0.435D-02
 Coeff-Com:  0.196D-01-0.840D-01 0.252D+00-0.671D+00 0.149D+01
 Coeff:      0.184D-04-0.797D-04 0.208D-03-0.508D-03 0.126D-02-0.435D-02
 Coeff:      0.196D-01-0.840D-01 0.252D+00-0.671D+00 0.149D+01
 Gap=     0.526 Goal=   None    Shift=    0.000
 RMSDP=4.21D-09 MaxDP=4.00D-08 DE=-2.27D-13 OVMax= 5.19D-08

 Cycle  12  Pass 2  IDiag  1:
 SCF Done:  E(RPM3) = -0.108771527070     A.U. after   12 cycles
            NFock= 11  Conv=0.42D-08     -V/T= 0.9982
 KE=-5.962945117095D+01 PE=-2.556241817930D+02 EE= 1.446398507292D+02
 Leave Link  502 at Wed Sep  7 15:34:29 2022, MaxMem=   131072000 cpu:               0.0 elap:               0.0
 (Enter /opt/g16/l701.exe)
 ... and contract with generalized density number  0.
 Compute integral first derivatives.
 Leave Link  701 at Wed Sep  7 15:34:29 2022, MaxMem=   131072000 cpu:               0.0 elap:               0.0
 (Enter /opt/g16/l702.exe)
 L702 exits ... SP integral derivatives will be done elsewhere.
 Leave Link  702 at Wed Sep  7 15:34:29 2022, MaxMem=   131072000 cpu:               0.0 elap:               0.0
 (Enter /opt/g16/l703.exe)
 Integral derivatives from FoFJK, PRISM(SPDF).
 Compute integral first derivatives, UseDBF=F ICtDFT=           0.
 Calling FoFJK, ICntrl=      2127 FMM=F ISym2X=0 I1Cent= 0 IOpClX= 0 NMat=1 NMatS=1 NMatT=0.
 FoFJK:  IHMeth= 9 ICntrl=    2127 DoSepK=F KAlg= 0 I1Cent=           0 FoldK=F
 IRaf=         0 NMat=       1 IRICut=       1 DoRegI=T DoRafI=F ISym2E= 0 IDoP0=3 IntGTp=3.
 FoFCou: FMM=F IPFlag=           0 FMFlag=      100000 FMFlg1=         800
         NFxFlg=           0 DoJE=F BraDBF=F KetDBF=F FulRan=T
         wScrn=  0.000000 ICntrl=      2127 IOpCl=  0 I1Cent=           0 NGrid=           0
         NMat0=    1 NMatS0=      1 NMatT0=    0 NMatD0=    1 NMtDS0=    0 NMtDT0=    0
 Symmetry not used in FoFCou.
 Leave Link  703 at Wed Sep  7 15:34:29 2022, MaxMem=   131072000 cpu:               0.0 elap:               0.0
 (Enter /opt/g16/l716.exe)
 Dipole        = 1.08616527D-01-5.39773860D-02 5.65490943D-01
 ***** Axes restored to original set *****
 -------------------------------------------------------------------
 Center     Atomic                   Forces (Hartrees/Bohr)
 Number     Number              X              Y              Z
 -------------------------------------------------------------------
      1        6           0.007831963    0.021614835   -0.014065732
      2        1           0.000645332   -0.005764530    0.003280575
      3        1          -0.000635628   -0.005834100    0.004779526
      4        1           0.000571718   -0.005443157    0.003503171
      5        6          -0.026301067   -0.003731791   -0.008375661
      6        1           0.004629431    0.001940258    0.002880039
      7        1           0.002963228    0.002882421    0.003165286
      8        6           0.029886062   -0.008957514    0.015132821
      9        1          -0.007957578   -0.001020606   -0.002544243
     10        8          -0.004919012    0.008211378   -0.009167120
     11        6          -0.000979841   -0.006500570   -0.019110088
     12        1          -0.004062997   -0.004078307   -0.001388500
     13        1          -0.002253813   -0.001260759   -0.001229405
     14        1           0.002071252    0.003018065    0.015454383
     15        6           0.005305346    0.016136938    0.022491207
     16        1          -0.000123444   -0.000759327   -0.001057972
     17        1          -0.003150911   -0.010210074   -0.006380686
     18        1          -0.003520040   -0.000243160   -0.007367601
 -------------------------------------------------------------------
 Cartesian Forces:  Max     0.029886062 RMS     0.009503676
 Leave Link  716 at Wed Sep  7 15:34:29 2022, MaxMem=   131072000 cpu:               0.0 elap:               0.0
 (Enter /opt/g16/l103.exe)

 GradGradGradGradGradGradGradGradGradGradGradGradGradGradGradGradGradGrad
 Berny optimization.
 Using GEDIIS/GDIIS optimizer.
 FormGI is forming the generalized inverse of G from B-inverse, IUseBI=4.
 Internal  Forces:  Max     0.014022081 RMS     0.004173511
 Search for a local minimum.
 Step number   2 out of a maximum of   97
 All quantities printed in internal units (Hartrees-Bohrs-Radians)
 RMS Force = .41735D-02 SwitMx=.10000D-02 MixMth= 1
 Mixed Optimization -- RFO/linear search
 Update second derivatives using D2CorX and points    1    2
 DE= -2.54D-02 DEPred=-3.25D-02 R= 7.82D-01
 TightC=F SS=  1.41D+00  RLast= 3.30D-01 DXNew= 5.0454D-01 9.9085D-01
 Trust test= 7.82D-01 RLast= 3.30D-01 DXMaxT set to 5.05D-01
 ITU=  1  0
 Use linear search instead of GDIIS.
     Eigenvalues ---    0.00319   0.00856   0.01121   0.01444   0.01793
     Eigenvalues ---    0.03675   0.04129   0.04930   0.05306   0.05423
     Eigenvalues ---    0.05437   0.05594   0.05684   0.06005   0.06132
     Eigenvalues ---    0.08232   0.08733   0.09290   0.12280   0.12849
     Eigenvalues ---    0.15687   0.16000   0.16000   0.16000   0.16000
     Eigenvalues ---    0.16000   0.16043   0.17303   0.19881   0.21806
     Eigenvalues ---    0.22497   0.26820   0.28973   0.30317   0.30612
     Eigenvalues ---    0.31521   0.31908   0.33480   0.34146   0.34261
     Eigenvalues ---    0.35071   0.35240   0.36634   0.38363   0.39790
     Eigenvalues ---    0.40792   0.54914   0.57752
 RFO step:  Lambda=-9.69622189D-03 EMin= 3.18759959D-03
 Quartic linear search produced a step of  0.20568.
 Iteration  1 RMS(Cart)=  0.04802470 RMS(Int)=  0.00203709
 Iteration  2 RMS(Cart)=  0.00211453 RMS(Int)=  0.00065654
 Iteration  3 RMS(Cart)=  0.00000431 RMS(Int)=  0.00065652
 Iteration  4 RMS(Cart)=  0.00000000 RMS(Int)=  0.00065652
 ITry= 1 IFail=0 DXMaxC= 1.78D-01 DCOld= 1.00D+10 DXMaxT= 5.05D-01 DXLimC= 3.00D+00 Rises=F
 Variable       Old X    -DE/DX   Delta X   Delta X   Delta X     New X
                                 (Linear)    (Quad)   (Total)
    R1        2.08788  -0.00379  -0.00444  -0.01150  -0.01594   2.07194
    R2        2.05088   0.00533   0.00451   0.01453   0.01904   2.06993
    R3        2.06136   0.00254   0.00181   0.00743   0.00924   2.07061
    R4        2.89952  -0.00930   0.00022  -0.03714  -0.03692   2.86260
    R5        2.08032   0.00355   0.00520   0.00905   0.01425   2.09457
    R6        2.11317  -0.00366  -0.00074  -0.01309  -0.01383   2.09934
    R7        2.85087   0.01081   0.03352   0.01219   0.04572   2.89658
    R8        2.12963  -0.00517  -0.00175  -0.01880  -0.02056   2.10908
    R9        2.73036  -0.01402   0.00066  -0.04215  -0.04149   2.68887
   R10        2.89117  -0.00146   0.03155  -0.02101   0.01054   2.90171
   R11        1.79780  -0.00577  -0.00414  -0.01006  -0.01420   1.78359
   R12        2.08876   0.00132   0.00362   0.00261   0.00623   2.09499
   R13        2.13679  -0.01324  -0.01280  -0.04920  -0.06201   2.07478
   R14        2.88090  -0.00574   0.01218  -0.02641  -0.01424   2.86666
   R15        2.07898  -0.00013   0.00202  -0.00149   0.00053   2.07951
   R16        2.03471   0.01218   0.01260   0.02831   0.04091   2.07561
   R17        2.09916  -0.00751  -0.00685  -0.02487  -0.03172   2.06744
    A1        1.89985  -0.00416  -0.00557  -0.01457  -0.02183   1.87802
    A2        1.87612  -0.00276  -0.00408   0.00188  -0.00415   1.87197
    A3        1.86009   0.00796   0.01208   0.06601   0.07616   1.93625
    A4        1.96651  -0.00627  -0.00932  -0.06698  -0.07617   1.89034
    A5        1.92821   0.00333   0.00430   0.01203   0.01550   1.94370
    A6        1.92897   0.00240   0.00419   0.00850   0.01173   1.94070
    A7        1.90358   0.00382  -0.00120   0.00828   0.00414   1.90772
    A8        1.85542   0.00372   0.00255   0.04852   0.05124   1.90665
    A9        2.02825  -0.00713  -0.00029  -0.04065  -0.04206   1.98619
   A10        1.83789  -0.00111  -0.00184   0.00604   0.00445   1.84234
   A11        1.96524  -0.00118  -0.00376  -0.04329  -0.04811   1.91714
   A12        1.85974   0.00266   0.00512   0.03249   0.03850   1.89824
   A13        1.93985  -0.00121  -0.00721  -0.02551  -0.03297   1.90688
   A14        1.94704  -0.00092  -0.00623  -0.00478  -0.01091   1.93613
   A15        1.97928  -0.00256   0.00747  -0.02892  -0.02168   1.95761
   A16        1.80981   0.00247   0.00214   0.05030   0.05211   1.86192
   A17        1.92125   0.00075  -0.00226   0.00359   0.00004   1.92129
   A18        1.85753   0.00206   0.00628   0.01394   0.01999   1.87752
   A19        1.82968  -0.00017   0.00180  -0.00200  -0.00020   1.82948
   A20        1.90078   0.00315   0.00245   0.01782   0.02011   1.92089
   A21        1.97315  -0.00549  -0.01129  -0.05984  -0.07101   1.90214
   A22        1.97740  -0.00401   0.01291  -0.02228  -0.00915   1.96825
   A23        1.86495  -0.00151  -0.00346  -0.01543  -0.01998   1.84497
   A24        1.91456   0.00017  -0.00466   0.01084   0.00578   1.92035
   A25        1.82878   0.00789   0.00333   0.07078   0.07418   1.90297
   A26        1.93172   0.00146   0.00383   0.01495   0.01830   1.95002
   A27        1.97321  -0.00384  -0.00463  -0.03305  -0.03746   1.93576
   A28        1.91986   0.00371   0.00873   0.02366   0.03195   1.95181
   A29        1.87834   0.00084  -0.00047   0.00321   0.00291   1.88125
   A30        1.85134  -0.00061  -0.00213   0.01312   0.00991   1.86125
   A31        1.90489  -0.00146  -0.00536  -0.01986  -0.02496   1.87994
    D1        0.84906   0.00197   0.00147   0.04959   0.05119   0.90025
    D2       -1.12462  -0.00039   0.00286   0.01447   0.01700  -1.10761
    D3        3.09288  -0.00216  -0.00518  -0.03712  -0.04233   3.05055
    D4       -1.21223   0.00052  -0.00074   0.02211   0.02110  -1.19113
    D5        3.09728  -0.00184   0.00065  -0.01301  -0.01309   3.08419
    D6        1.03160  -0.00361  -0.00739  -0.06460  -0.07243   0.95917
    D7        2.88249   0.00446   0.00513   0.09364   0.09954   2.98202
    D8        0.90881   0.00210   0.00653   0.05853   0.06535   0.97416
    D9       -1.15688   0.00033  -0.00152   0.00694   0.00601  -1.15086
   D10       -2.92784  -0.00010   0.00444   0.00034   0.00418  -2.92365
   D11       -0.91727   0.00163  -0.00168   0.04390   0.04145  -0.87582
   D12        1.17985   0.00183   0.00727   0.03804   0.04436   1.22421
   D13       -0.71439  -0.00209  -0.00114  -0.06409  -0.06411  -0.77850
   D14        1.29618  -0.00035  -0.00726  -0.02054  -0.02685   1.26933
   D15       -2.88989  -0.00016   0.00170  -0.02639  -0.02394  -2.91383
   D16        1.29204  -0.00244  -0.00218  -0.06000  -0.06218   1.22985
   D17       -2.98058  -0.00070  -0.00830  -0.01645  -0.02492  -3.00550
   D18       -0.88346  -0.00051   0.00065  -0.02230  -0.02201  -0.90547
   D19       -1.45949   0.00013   0.00873   0.03651   0.04523  -1.41426
   D20        0.62970  -0.00031  -0.00191   0.03365   0.03117   0.66087
   D21        2.65638   0.00250  -0.00100   0.06601   0.06558   2.72196
   D22       -1.25338   0.00038   0.00159   0.00212   0.00363  -1.24975
   D23        0.81674  -0.00281  -0.00843  -0.04247  -0.05071   0.76602
   D24        2.89406   0.00060  -0.00248  -0.00962  -0.01223   2.88183
   D25        2.84429   0.00333   0.00721   0.05486   0.06203   2.90632
   D26       -1.36878   0.00013  -0.00282   0.01026   0.00768  -1.36110
   D27        0.70854   0.00354   0.00314   0.04311   0.04617   0.75471
   D28        0.89386  -0.00094   0.00257  -0.01234  -0.00988   0.88397
   D29        2.96397  -0.00413  -0.00746  -0.05694  -0.06423   2.89974
   D30       -1.24189  -0.00072  -0.00150  -0.02409  -0.02575  -1.26763
   D31       -0.92135   0.00061   0.00211  -0.00795  -0.00615  -0.92750
   D32       -3.03003   0.00114   0.00311   0.00006   0.00316  -3.02688
   D33        1.11882   0.00299   0.00673   0.03148   0.03857   1.15740
   D34       -3.04941  -0.00081  -0.00642  -0.02346  -0.02999  -3.07940
   D35        1.12509  -0.00027  -0.00543  -0.01545  -0.02068   1.10440
   D36       -1.00924   0.00158  -0.00181   0.01597   0.01473  -0.99451
   D37        1.23729  -0.00318  -0.00205  -0.04684  -0.04944   1.18784
   D38       -0.87140  -0.00265  -0.00105  -0.03883  -0.04013  -0.91154
   D39       -3.00573  -0.00080   0.00257  -0.00741  -0.00472  -3.01045
         Item               Value     Threshold  Converged?
 Maximum Force            0.014022     0.000450     NO 
 RMS     Force            0.004174     0.000300     NO 
 Maximum Displacement     0.177507     0.001800     NO 
 RMS     Displacement     0.048121     0.001200     NO 
 Predicted change in Energy=-4.947069D-03
 Lowest energy point so far.  Saving SCF results.
 GradGradGradGradGradGradGradGradGradGradGradGradGradGradGradGradGradGrad

[...]
 ! A11   A(6,5,8)              109.2576         -DE/DX =    0.0                 !
 ! A12   A(7,5,8)              108.5525         -DE/DX =    0.0                 !
 ! A13   A(5,8,9)              108.1369         -DE/DX =    0.0                 !
 ! A14   A(5,8,10)             112.6679         -DE/DX =    0.0                 !
 ! A15   A(5,8,11)             111.8879         -DE/DX =    0.0                 !
 ! A16   A(9,8,10)             107.747          -DE/DX =    0.0                 !
 ! A17   A(9,8,11)             109.1379         -DE/DX =    0.0                 !
 ! A18   A(10,8,11)            107.145          -DE/DX =    0.0                 !
 ! A19   A(8,10,12)            106.709          -DE/DX =    0.0                 !
 ! A20   A(8,11,13)            110.245          -DE/DX =    0.0                 !
 ! A21   A(8,11,14)            108.8643         -DE/DX =    0.0                 !
 ! A22   A(8,11,15)            112.1364         -DE/DX =    0.0                 !
 ! A23   A(13,11,14)           105.7038         -DE/DX =    0.0                 !
 ! A24   A(13,11,15)           109.8903         -DE/DX =    0.0                 !
 ! A25   A(14,11,15)           109.7932         -DE/DX =    0.0                 !
 ! A26   A(11,15,16)           111.7954         -DE/DX =    0.0                 !
 ! A27   A(11,15,17)           111.0519         -DE/DX =    0.0                 !
 ! A28   A(11,15,18)           111.6965         -DE/DX =    0.0                 !
 ! A29   A(16,15,17)           107.3465         -DE/DX =    0.0                 !
 ! A30   A(16,15,18)           107.3059         -DE/DX =    0.0                 !
 ! A31   A(17,15,18)           107.4053         -DE/DX =    0.0                 !
 ! D1    D(2,1,5,6)             55.7258         -DE/DX =    0.0                 !
 ! D2    D(2,1,5,7)            -59.5111         -DE/DX =    0.0                 !
 ! D3    D(2,1,5,8)            178.4277         -DE/DX =    0.0                 !
 ! D4    D(3,1,5,6)            -64.3104         -DE/DX =    0.0                 !
 ! D5    D(3,1,5,7)           -179.5473         -DE/DX =    0.0                 !
 ! D6    D(3,1,5,8)             58.3915         -DE/DX =    0.0                 !
 ! D7    D(4,1,5,6)            175.6184         -DE/DX =    0.0                 !
 ! D8    D(4,1,5,7)             60.3815         -DE/DX =    0.0                 !
 ! D9    D(4,1,5,8)            -61.6797         -DE/DX =    0.0                 !
 ! D10   D(1,5,8,9)           -176.6832         -DE/DX =    0.0                 !
 ! D11   D(1,5,8,10)           -57.7095         -DE/DX =    0.0                 !
 ! D12   D(1,5,8,11)            63.0928         -DE/DX =    0.0                 !
 ! D13   D(6,5,8,9)            -53.8744         -DE/DX =    0.0                 !
 ! D14   D(6,5,8,10)            65.0993         -DE/DX =    0.0                 !
 ! D15   D(6,5,8,11)          -174.0984         -DE/DX =    0.0                 !
 ! D16   D(7,5,8,9)             60.5598         -DE/DX =    0.0                 !
 ! D17   D(7,5,8,10)           179.5334         -DE/DX =    0.0                 !
 ! D18   D(7,5,8,11)           -59.6643         -DE/DX =    0.0                 !
 ! D19   D(5,8,10,12)          -46.8481         -DE/DX =    0.0                 !
 ! D20   D(9,8,10,12)           72.3525         -DE/DX =    0.0                 !
 ! D21   D(11,8,10,12)        -170.3271         -DE/DX =    0.0                 !
 ! D22   D(5,8,11,13)          -76.9638         -DE/DX =    0.0                 !
 ! D23   D(5,8,11,14)           38.5597         -DE/DX =    0.0                 !
 ! D24   D(5,8,11,15)          160.2493         -DE/DX =    0.0                 !
 ! D25   D(9,8,11,13)          163.3985         -DE/DX =    0.0                 !
 ! D26   D(9,8,11,14)          -81.0779         -DE/DX =    0.0                 !
 ! D27   D(9,8,11,15)           40.6117         -DE/DX =    0.0                 !
 ! D28   D(10,8,11,13)          46.994          -DE/DX =    0.0                 !
 ! D29   D(10,8,11,14)         162.5175         -DE/DX =    0.0                 !
 ! D30   D(10,8,11,15)         -75.7928         -DE/DX =    0.0                 !
 ! D31   D(8,11,15,16)         -59.7029         -DE/DX =    0.0                 !
 ! D32   D(8,11,15,17)        -179.5695         -DE/DX =    0.0                 !
 ! D33   D(8,11,15,18)          60.5558         -DE/DX =    0.0                 !
 ! D34   D(13,11,15,16)        177.3098         -DE/DX =    0.0                 !
 ! D35   D(13,11,15,17)         57.4433         -DE/DX =    0.0                 !
 ! D36   D(13,11,15,18)        -62.4315         -DE/DX =    0.0                 !
 ! D37   D(14,11,15,16)         61.4534         -DE/DX =    0.0                 !
 ! D38   D(14,11,15,17)        -58.4132         -DE/DX =    0.0                 !
 ! D39   D(14,11,15,18)       -178.2879         -DE/DX =    0.0                 !
 --------------------------------------------------------------------------------
 Lowest energy point so far.  Saving SCF results.
 Largest change from initial coordinates is atom   12       0.280 Angstoms.
 GradGradGradGradGradGradGradGradGradGradGradGradGradGradGradGradGradGrad

 Leave Link  103 at Wed Sep  7 15:34:33 2022, MaxMem=   131072000 cpu:               0.0 elap:               0.0
 (Enter /opt/g16/l202.exe)
                          Input orientation:                          
 ---------------------------------------------------------------------
 Center     Atomic      Atomic             Coordinates (Angstroms)
 Number     Number       Type             X           Y           Z
 ---------------------------------------------------------------------
      1          6           0        8.811579    7.741750   14.125120
      2          1           0        7.913891    8.355327   14.274586
      3          1           0        9.178509    7.447023   15.117435
      4          1           0        8.500243    6.824019   13.607695
      5          6           0        9.861358    8.494708   13.340877
      6          1           0       10.091209    9.450737   13.854479
      7          1           0        9.455849    8.783026   12.350797
      8          6           0       11.166928    7.707424   13.125184
      9          1           0       11.891591    8.373654   12.591593
     10          8           0       11.767917    7.302956   14.342367
     11          6           0       10.939325    6.439153   12.289209
     12          1           0       11.767107    8.060773   14.911726
     13          1           0       10.476397    5.646962   12.912038
     14          1           0       10.202567    6.662856   11.492004
     15          6           0       12.220990    5.925550   11.672519
     16          1           0       12.681974    6.670605   11.009993
     17          1           0       12.036862    5.024378   11.073548
     18          1           0       12.963703    5.665099   12.437828
 ---------------------------------------------------------------------
                    Distance matrix (angstroms):
                    1          2          3          4          5
     1  C    0.000000
     2  H    1.097570   0.000000
     3  H    1.098267   1.770500   0.000000
     4  H    1.098585   1.770157   1.768472   0.000000
     5  C    1.511297   2.164224   2.172575   2.171411   0.000000
     6  H    2.152054   2.473283   2.538296   3.080865   1.109329
     7  H    2.155820   2.502304   3.084818   2.516085   1.108072
     8  C    2.559046   3.510435   2.826779   2.850339   1.539757
     9  H    3.498212   4.319132   3.820908   3.864593   2.167471
    10  O    2.996610   3.995698   2.706754   3.383315   2.461346
    11  C    3.097520   4.094716   3.480681   2.799224   2.548200
    12  H    3.075008   3.916629   2.668304   3.728601   2.507538
    13  H    2.937911   3.969662   3.128659   2.403037   2.944798
    14  H    3.167358   3.980611   3.848034   2.720300   2.624964
    15  C    4.575797   5.587994   4.841386   4.289069   3.866763
    16  H    5.082453   6.019176   5.454188   4.925289   4.088551
    17  H    5.205636   6.191991   5.512931   4.708321   4.681537
    18  H    4.939591   6.009293   4.968222   4.757537   4.294965
                    6          7          8          9         10
     6  H    0.000000
     7  H    1.763684   0.000000
     8  C    2.174438   2.164344   0.000000
     9  H    2.448748   2.481614   1.119696   0.000000
    10  O    2.768095   3.391551   1.416446   2.055943   0.000000
    11  C    3.498430   2.774569   1.535958   2.177278   2.376590
    12  H    2.420414   3.524475   1.917499   2.344442   0.947870
    13  H    3.937674   3.345356   2.183522   3.088740   2.540902
    14  H    3.655951   2.406290   2.165270   2.643621   3.314306
    15  C    4.660886   4.033762   2.529102   2.635605   3.038192
    16  H    4.746820   4.082641   2.800784   2.454901   3.512846
    17  H    5.577795   4.735021   3.487797   3.680110   3.993673
    18  H    4.958747   4.694047   2.805699   2.917076   2.782040
                   11         12         13         14         15
    11  C    0.000000
    12  H    3.192565   0.000000
    13  H    1.108958   3.389863   0.000000
    14  H    1.108329   4.012040   1.767349   0.000000
    15  C    1.512203   3.906104   2.158153   2.156442   0.000000
    16  H    2.174118   4.241824   3.087101   2.525837   1.098432
    17  H    2.164257   4.901436   2.490524   2.494866   1.097625
    18  H    2.172407   3.645719   2.532172   3.084473   1.097795
                   16         17         18
    16  H    0.000000
    17  H    1.769257   0.000000
    18  H    1.768933   1.769412   0.000000
 Stoichiometry    C5H12O
 Framework group  C1[X(C5H12O)]
 Deg. of freedom    48
 Full point group                 C1      NOp   1
 RotChk:  IX=0 Diff= 1.44D-15
 Largest Abelian subgroup         C1      NOp   1
 Largest concise Abelian subgroup C1      NOp   1
                         Standard orientation:                         
 ---------------------------------------------------------------------
 Center     Atomic      Atomic             Coordinates (Angstroms)
 Number     Number       Type             X           Y           Z
 ---------------------------------------------------------------------
      1          6           0        2.110360   -0.591950   -0.515367
      2          1           0        3.117468   -0.951152   -0.267643
      3          1           0        2.222472    0.248557   -1.213343
      4          1           0        1.597568   -1.398437   -1.057135
      5          6           0        1.354509   -0.188822    0.729701
      6          1           0        1.940980    0.568788    1.288888
      7          1           0        1.267065   -1.056289    1.413571
      8          6           0       -0.056610    0.362674    0.455022
      9          1           0       -0.500875    0.685118    1.430920
     10          8           0       -0.045180    1.486869   -0.406588
     11          6           0       -0.968305   -0.692296   -0.189197
     12          1           0        0.630537    2.069136   -0.085921
     13          1           0       -0.722305   -0.806992   -1.264426
     14          1           0       -0.758757   -1.677507    0.273235
     15          6           0       -2.433342   -0.353086   -0.029943
     16          1           0       -2.722208   -0.278858    1.027223
     17          1           0       -3.068201   -1.121559   -0.489488
     18          1           0       -2.681975    0.605120   -0.504472
 ---------------------------------------------------------------------
 Rotational constants (GHZ):           5.6198318           2.1663306           1.8733580
 Leave Link  202 at Wed Sep  7 15:34:33 2022, MaxMem=   131072000 cpu:               0.0 elap:               0.0
 (Enter /opt/g16/l601.exe)
 Copying SCF densities to generalized density rwf, IOpCl= 0 IROHF=0.

 **********************************************************************

            Population analysis using the SCF density.

 **********************************************************************

 Orbital symmetries:
       Occupied  (A) (A) (A) (A) (A) (A) (A) (A) (A) (A) (A) (A)
                 (A) (A) (A) (A) (A) (A) (A)
       Virtual   (A) (A) (A) (A) (A) (A) (A) (A) (A) (A) (A) (A)
                 (A) (A) (A) (A) (A)
 The electronic state is 1-A.
 Alpha  occ. eigenvalues --   -1.48297  -1.25026  -1.19889  -0.94456  -0.83170
 Alpha  occ. eigenvalues --   -0.73610  -0.64065  -0.60950  -0.58621  -0.54339
 Alpha  occ. eigenvalues --   -0.53816  -0.51654  -0.49276  -0.48434  -0.47059
 Alpha  occ. eigenvalues --   -0.44270  -0.43567  -0.42372  -0.40158
 Alpha virt. eigenvalues --    0.11672   0.12588   0.13038   0.13808   0.14197
 Alpha virt. eigenvalues --    0.14728   0.14994   0.15428   0.15957   0.16188
 Alpha virt. eigenvalues --    0.17076   0.17384   0.17617   0.18415   0.18529
 Alpha virt. eigenvalues --    0.18832   0.21206
          Condensed to atoms (all electrons):
               1          2          3          4          5          6
     1  C    4.110098   0.000000   0.000000   0.000000   0.000000   0.000000
     2  H    0.000000   0.962722   0.000000   0.000000   0.000000   0.000000
     3  H    0.000000   0.000000   0.954456   0.000000   0.000000   0.000000
     4  H    0.000000   0.000000   0.000000   0.956019   0.000000   0.000000
     5  C    0.000000   0.000000   0.000000   0.000000   4.135522   0.000000
     6  H    0.000000   0.000000   0.000000   0.000000   0.000000   0.954051
     7  H    0.000000   0.000000   0.000000   0.000000   0.000000   0.000000
     8  C    0.000000   0.000000   0.000000   0.000000   0.000000   0.000000
     9  H    0.000000   0.000000   0.000000   0.000000   0.000000   0.000000
    10  O    0.000000   0.000000   0.000000   0.000000   0.000000   0.000000
    11  C    0.000000   0.000000   0.000000   0.000000   0.000000   0.000000
    12  H    0.000000   0.000000   0.000000   0.000000   0.000000   0.000000
    13  H    0.000000   0.000000   0.000000   0.000000   0.000000   0.000000
    14  H    0.000000   0.000000   0.000000   0.000000   0.000000   0.000000
    15  C    0.000000   0.000000   0.000000   0.000000   0.000000   0.000000
    16  H    0.000000   0.000000   0.000000   0.000000   0.000000   0.000000
    17  H    0.000000   0.000000   0.000000   0.000000   0.000000   0.000000
    18  H    0.000000   0.000000   0.000000   0.000000   0.000000   0.000000
               7          8          9         10         11         12
     1  C    0.000000   0.000000   0.000000   0.000000   0.000000   0.000000
     2  H    0.000000   0.000000   0.000000   0.000000   0.000000   0.000000
     3  H    0.000000   0.000000   0.000000   0.000000   0.000000   0.000000
     4  H    0.000000   0.000000   0.000000   0.000000   0.000000   0.000000
     5  C    0.000000   0.000000   0.000000   0.000000   0.000000   0.000000
     6  H    0.000000   0.000000   0.000000   0.000000   0.000000   0.000000
     7  H    0.942734   0.000000   0.000000   0.000000   0.000000   0.000000
     8  C    0.000000   3.920354   0.000000   0.000000   0.000000   0.000000
     9  H    0.000000   0.000000   0.960315   0.000000   0.000000   0.000000
    10  O    0.000000   0.000000   0.000000   6.309133   0.000000   0.000000
    11  C    0.000000   0.000000   0.000000   0.000000   4.107135   0.000000
    12  H    0.000000   0.000000   0.000000   0.000000   0.000000   0.814771
    13  H    0.000000   0.000000   0.000000   0.000000   0.000000   0.000000
    14  H    0.000000   0.000000   0.000000   0.000000   0.000000   0.000000
    15  C    0.000000   0.000000   0.000000   0.000000   0.000000   0.000000
    16  H    0.000000   0.000000   0.000000   0.000000   0.000000   0.000000
    17  H    0.000000   0.000000   0.000000   0.000000   0.000000   0.000000
    18  H    0.000000   0.000000   0.000000   0.000000   0.000000   0.000000
              13         14         15         16         17         18
     1  C    0.000000   0.000000   0.000000   0.000000   0.000000   0.000000
     2  H    0.000000   0.000000   0.000000   0.000000   0.000000   0.000000
     3  H    0.000000   0.000000   0.000000   0.000000   0.000000   0.000000
     4  H    0.000000   0.000000   0.000000   0.000000   0.000000   0.000000
     5  C    0.000000   0.000000   0.000000   0.000000   0.000000   0.000000
     6  H    0.000000   0.000000   0.000000   0.000000   0.000000   0.000000
     7  H    0.000000   0.000000   0.000000   0.000000   0.000000   0.000000
     8  C    0.000000   0.000000   0.000000   0.000000   0.000000   0.000000
     9  H    0.000000   0.000000   0.000000   0.000000   0.000000   0.000000
    10  O    0.000000   0.000000   0.000000   0.000000   0.000000   0.000000
    11  C    0.000000   0.000000   0.000000   0.000000   0.000000   0.000000
    12  H    0.000000   0.000000   0.000000   0.000000   0.000000   0.000000
    13  H    0.935103   0.000000   0.000000   0.000000   0.000000   0.000000
    14  H    0.000000   0.949499   0.000000   0.000000   0.000000   0.000000
    15  C    0.000000   0.000000   4.107170   0.000000   0.000000   0.000000
    16  H    0.000000   0.000000   0.000000   0.966036   0.000000   0.000000
    17  H    0.000000   0.000000   0.000000   0.000000   0.964576   0.000000
    18  H    0.000000   0.000000   0.000000   0.000000   0.000000   0.950307
 Mulliken charges:
               1
     1  C   -0.110098
     2  H    0.037278
     3  H    0.045544
     4  H    0.043981
     5  C   -0.135522
     6  H    0.045949
     7  H    0.057266
     8  C    0.079646
     9  H    0.039685
    10  O   -0.309133
    11  C   -0.107135
    12  H    0.185229
    13  H    0.064897
    14  H    0.050501
    15  C   -0.107170
    16  H    0.033964
    17  H    0.035424
    18  H    0.049693
 Sum of Mulliken charges =  -0.00000
 Mulliken charges with hydrogens summed into heavy atoms:
               1
     1  C    0.016705
     5  C   -0.032307
     8  C    0.119330
    10  O   -0.123904
    11  C    0.008264
    15  C    0.011912
 Charge=             -0.0000 electrons
 Dipole moment (field-independent basis, Debye):
    X=              0.9160    Y=             -0.3197    Z=              1.0845  Tot=              1.4552
 N-N= 1.709813135522D+02 E-N=-2.564756327606D+02  KE=-5.965794939266D+01
 Leave Link  601 at Wed Sep  7 15:34:33 2022, MaxMem=   131072000 cpu:               0.0 elap:               0.0
 (Enter /opt/g16/l9999.exe)
 1\1\GINC-TOTEM2\FOpt\RPM3\ZDO\C5H12O1\JRAMOS\07-Sep-2022\0\\#p opt pm3
 \\Conformer number 010. Energy MM = 0.000 kcal/mol\\0,1\C,8.8115788569
 ,7.7417498075,14.1251196073\H,7.913890814,8.3553268502,14.2745863236\H
 ,9.178509355,7.4470232428,15.1174348652\H,8.5002425197,6.8240188014,13
 .6076951023\C,9.8613575848,8.4947077541,13.3408771599\H,10.0912093951,
 9.4507371048,13.8544794523\H,9.4558488477,8.783025601,12.3507971547\C,
 11.1669276691,7.7074241985,13.1251838943\H,11.891591462,8.3736540631,1
 2.5915929768\O,11.7679173847,7.3029561888,14.3423673871\C,10.939325473
 7,6.4391531028,12.2892089681\H,11.7671073343,8.0607733051,14.911726023
 3\H,10.4763968471,5.6469615395,12.9120383559\H,10.2025666966,6.6628559
 002,11.4920035443\C,12.2209904764,5.9255502705,11.6725194001\H,12.6819
 740497,6.6706047076,11.009993062\H,12.0368624057,5.0243780981,11.07354
 83378\H,12.9637028277,5.6650994641,12.4378283849\\Version=ES64L-G16Rev
 A.03\State=1-A\HF=-0.1157757\RMSD=4.166e-09\RMSF=6.487e-06\Dipole=-0.2
 523689,0.4985593,-0.1245611\PG=C01 [X(C5H12O1)]\\@


 SCIENCE AT ITS BEST PROVIDES US WITH BETTER QUESTIONS, 
 NOT ABSOLUTE ANSWERS

                                    -- NORMAN COUSINS, 1976
 Job cpu time:       0 days  0 hours  0 minutes  4.8 seconds.
 Elapsed time:       0 days  0 hours  0 minutes 35.9 seconds.
 File lengths (MBytes):  RWF=      6 Int=      0 D2E=      0 Chk=      2 Scr=      1
 Normal termination of Gaussian 16 at Wed Sep  7 15:34:33 2022.
