 Entering Gaussian System, Link 0=/opt/g16/g16
 Input=MD_extract_008_gaussian.com
 Output=MD_extract_008_gaussian.log
 Initial command:
 /opt/g16/l1.exe "/tmp/Gau-316891.inp" -scrdir="/tmp/"
 Entering Link 1 = /opt/g16/l1.exe PID=    316893.
  
 Copyright (c) 1988,1990,1992,1993,1995,1998,2003,2009,2016,
            Gaussian, Inc.  All Rights Reserved.
  
 This is part of the Gaussian(R) 16 program.  It is based on
 the Gaussian(R) 09 system (copyright 2009, Gaussian, Inc.),
 the Gaussian(R) 03 system (copyright 2003, Gaussian, Inc.),
 the Gaussian(R) 98 system (copyright 1998, Gaussian, Inc.),
 the Gaussian(R) 94 system (copyright 1995, Gaussian, Inc.),
 the Gaussian 92(TM) system (copyright 1992, Gaussian, Inc.),
 the Gaussian 90(TM) system (copyright 1990, Gaussian, Inc.),
 the Gaussian 88(TM) system (copyright 1988, Gaussian, Inc.),
 the Gaussian 86(TM) system (copyright 1986, Carnegie Mellon
 University), and the Gaussian 82(TM) system (copyright 1983,
 Carnegie Mellon University). Gaussian is a federally registered
 trademark of Gaussian, Inc.
  
 This software contains proprietary and confidential information,
 including trade secrets, belonging to Gaussian, Inc.
  
 This software is provided under written license and may be
 used, copied, transmitted, or stored only in accord with that
 written license.
  
 The following legend is applicable only to US Government
 contracts under FAR:
  
                    RESTRICTED RIGHTS LEGEND
  
 Use, reproduction and disclosure by the US Government is
 subject to restrictions as set forth in subparagraphs (a)
 and (c) of the Commercial Computer Software - Restricted
 Rights clause in FAR 52.227-19.
  
 Gaussian, Inc.
 340 Quinnipiac St., Bldg. 40, Wallingford CT 06492
  
  
 ---------------------------------------------------------------
 Warning -- This program may not be used in any manner that
 competes with the business of Gaussian, Inc. or will provide
 assistance to any competitor of Gaussian, Inc.  The licensee
 of this program is prohibited from giving any competitor of
 Gaussian, Inc. access to this program.  By using this program,
 the user acknowledges that Gaussian, Inc. is engaged in the
 business of creating and licensing software in the field of
 computational chemistry and represents and warrants to the
 licensee that it is not a competitor of Gaussian, Inc. and that
 it will not use this program in any manner prohibited above.
 ---------------------------------------------------------------
  

 Cite this work as:
 Gaussian 16, Revision A.03,
 M. J. Frisch, G. W. Trucks, H. B. Schlegel, G. E. Scuseria, 
 M. A. Robb, J. R. Cheeseman, G. Scalmani, V. Barone, 
 G. A. Petersson, H. Nakatsuji, X. Li, M. Caricato, A. V. Marenich, 
 J. Bloino, B. G. Janesko, R. Gomperts, B. Mennucci, H. P. Hratchian, 
 J. V. Ortiz, A. F. Izmaylov, J. L. Sonnenberg, D. Williams-Young, 
 F. Ding, F. Lipparini, F. Egidi, J. Goings, B. Peng, A. Petrone, 
 T. Henderson, D. Ranasinghe, V. G. Zakrzewski, J. Gao, N. Rega, 
 G. Zheng, W. Liang, M. Hada, M. Ehara, K. Toyota, R. Fukuda, 
 J. Hasegawa, M. Ishida, T. Nakajima, Y. Honda, O. Kitao, H. Nakai, 
 T. Vreven, K. Throssell, J. A. Montgomery, Jr., J. E. Peralta, 
 F. Ogliaro, M. J. Bearpark, J. J. Heyd, E. N. Brothers, K. N. Kudin, 
 V. N. Staroverov, T. A. Keith, R. Kobayashi, J. Normand, 
 K. Raghavachari, A. P. Rendell, J. C. Burant, S. S. Iyengar, 
 J. Tomasi, M. Cossi, J. M. Millam, M. Klene, C. Adamo, R. Cammi, 
 J. W. Ochterski, R. L. Martin, K. Morokuma, O. Farkas, 
 J. B. Foresman, and D. J. Fox, Gaussian, Inc., Wallingford CT, 2016.
 
 ******************************************
 Gaussian 16:  ES64L-G16RevA.03 25-Dec-2016
                 7-Sep-2022 
 ******************************************
 %chk=MD_extract_008_gaussian.chk
 %nproc=1
 Will use up to    1 processors via shared memory.
 %mem=1000Mb
 ----------
 #p opt pm3
 ----------
 1/18=20,19=15,26=1,38=1/1,3;
 2/9=110,12=2,17=6,18=5,40=1/2;
 3/5=2,25=1,41=800000,71=1/1,2,3;
 4/35=1/1;
 5/5=2,35=1,38=5/2;
 6/7=2,8=2,9=2,10=2,28=1/1;
 7//1,2,3,16;
 1/18=20,19=15,26=1/3(2);
 2/9=110/2;
 99//99;
 2/9=110/2;
 3/5=2,25=1,41=800000,71=1,135=20/1,2,3;
 4/5=5,16=3,35=1/1;
 5/5=2,35=1,38=5/2;
 7//1,2,3,16;
 1/18=20,19=15,26=1/3(-5);
 2/9=110/2;
 6/7=2,8=2,9=2,10=2,19=2,28=1/1;
 99/9=1/99;
 Leave Link    1 at Wed Sep  7 15:33:51 2022, MaxMem=   131072000 cpu:               0.0 elap:              10.1
 (Enter /opt/g16/l101.exe)
 ------------------------------------------------
 Conformer number 008. Energy MM = 0.000 kcal/mol
 ------------------------------------------------
 Symbolic Z-matrix:
 Charge =  0 Multiplicity = 1
 C                     11.228    4.009     4.329 
 H                     11.521    4.686     5.081 
 H                     12.14     3.723     3.747 
 H                     10.838    3.144     4.798 
 C                     10.102    4.639     3.53 
 H                     9.757     4.011     2.692 
 H                     10.427    5.584     3.085 
 C                     8.817     4.937     4.199 
 H                     8.454     3.963     4.699 
 O                     9.089     5.72      5.314 
 C                     7.884     5.54      3.265 
 H                     9.837     6.198     4.996 
 H                     8.35      6.457     2.861 
 H                     7.715     4.863     2.434 
 C                     6.523     5.831     4.03 
 H                     5.679     6.        3.371 
 H                     6.54      6.638     4.782 
 H                     6.278     4.897     4.625 
 
 ITRead=  0  0  0  0  0  0  0  0  0  0  0  0  0  0  0  0  0  0
 MicOpt= -1 -1 -1 -1 -1 -1 -1 -1 -1 -1 -1 -1 -1 -1 -1 -1 -1 -1
 NAtoms=     18 NQM=       18 NQMF=       0 NMMI=      0 NMMIF=      0
                NMic=       0 NMicF=      0.
                    Isotopes and Nuclear Properties:
 (Nuclear quadrupole moments (NQMom) in fm**2, nuclear magnetic moments (NMagM)
  in nuclear magnetons)

  Atom         1           2           3           4           5           6           7           8           9          10
 IAtWgt=          12           1           1           1          12           1           1          12           1          16
 AtmWgt=  12.0000000   1.0078250   1.0078250   1.0078250  12.0000000   1.0078250   1.0078250  12.0000000   1.0078250  15.9949146
 NucSpn=           0           1           1           1           0           1           1           0           1           0
 AtZEff=  -0.0000000  -0.0000000  -0.0000000  -0.0000000  -0.0000000  -0.0000000  -0.0000000  -0.0000000  -0.0000000  -0.0000000
 NQMom=    0.0000000   0.0000000   0.0000000   0.0000000   0.0000000   0.0000000   0.0000000   0.0000000   0.0000000   0.0000000
 NMagM=    0.0000000   2.7928460   2.7928460   2.7928460   0.0000000   2.7928460   2.7928460   0.0000000   2.7928460   0.0000000
 AtZNuc=   6.0000000   1.0000000   1.0000000   1.0000000   6.0000000   1.0000000   1.0000000   6.0000000   1.0000000   8.0000000

  Atom        11          12          13          14          15          16          17          18
 IAtWgt=          12           1           1           1          12           1           1           1
 AtmWgt=  12.0000000   1.0078250   1.0078250   1.0078250  12.0000000   1.0078250   1.0078250   1.0078250
 NucSpn=           0           1           1           1           0           1           1           1
 AtZEff=  -0.0000000  -0.0000000  -0.0000000  -0.0000000  -0.0000000  -0.0000000  -0.0000000  -0.0000000
 NQMom=    0.0000000   0.0000000   0.0000000   0.0000000   0.0000000   0.0000000   0.0000000   0.0000000
 NMagM=    0.0000000   2.7928460   2.7928460   2.7928460   0.0000000   2.7928460   2.7928460   2.7928460
 AtZNuc=   6.0000000   1.0000000   1.0000000   1.0000000   6.0000000   1.0000000   1.0000000   1.0000000
 Leave Link  101 at Wed Sep  7 15:33:51 2022, MaxMem=   131072000 cpu:               0.1 elap:               0.1
 (Enter /opt/g16/l103.exe)

 GradGradGradGradGradGradGradGradGradGradGradGradGradGradGradGradGradGrad
 Berny optimization.
 Initialization pass.
                           ----------------------------
                           !    Initial Parameters    !
                           ! (Angstroms and Degrees)  !
 --------------------------                            --------------------------
 ! Name  Definition              Value          Derivative Info.                !
 --------------------------------------------------------------------------------
 ! R1    R(1,2)                  1.0534         estimate D2E/DX2                !
 ! R2    R(1,3)                  1.119          estimate D2E/DX2                !
 ! R3    R(1,4)                  1.0584         estimate D2E/DX2                !
 ! R4    R(1,5)                  1.5176         estimate D2E/DX2                !
 ! R5    R(5,6)                  1.1026         estimate D2E/DX2                !
 ! R6    R(5,7)                  1.0939         estimate D2E/DX2                !
 ! R7    R(5,8)                  1.4791         estimate D2E/DX2                !
 ! R8    R(8,9)                  1.1534         estimate D2E/DX2                !
 ! R9    R(8,10)                 1.3894         estimate D2E/DX2                !
 ! R10   R(8,11)                 1.4514         estimate D2E/DX2                !
 ! R11   R(10,12)                0.9429         estimate D2E/DX2                !
 ! R12   R(11,13)                1.1051         estimate D2E/DX2                !
 ! R13   R(11,14)                1.0851         estimate D2E/DX2                !
 ! R14   R(11,15)                1.5882         estimate D2E/DX2                !
 ! R15   R(15,16)                1.0841         estimate D2E/DX2                !
 ! R16   R(15,17)                1.1032         estimate D2E/DX2                !
 ! R17   R(15,18)                1.1342         estimate D2E/DX2                !
 ! A1    A(2,1,3)              107.9895         estimate D2E/DX2                !
 ! A2    A(2,1,4)              108.1428         estimate D2E/DX2                !
 ! A3    A(2,1,5)              108.3861         estimate D2E/DX2                !
 ! A4    A(3,1,4)              108.7767         estimate D2E/DX2                !
 ! A5    A(3,1,5)              115.9097         estimate D2E/DX2                !
 ! A6    A(4,1,5)              107.4071         estimate D2E/DX2                !
 ! A7    A(1,5,6)              113.3199         estimate D2E/DX2                !
 ! A8    A(1,5,7)              110.6309         estimate D2E/DX2                !
 ! A9    A(1,5,8)              119.3478         estimate D2E/DX2                !
 ! A10   A(6,5,7)              106.0109         estimate D2E/DX2                !
 ! A11   A(6,5,8)              100.7595         estimate D2E/DX2                !
 ! A12   A(7,5,8)              105.5491         estimate D2E/DX2                !
 ! A13   A(5,8,9)              107.4189         estimate D2E/DX2                !
 ! A14   A(5,8,10)             107.846          estimate D2E/DX2                !
 ! A15   A(5,8,11)             110.5566         estimate D2E/DX2                !
 ! A16   A(9,8,10)             100.9307         estimate D2E/DX2                !
 ! A17   A(9,8,11)             115.3081         estimate D2E/DX2                !
 ! A18   A(10,8,11)            114.0893         estimate D2E/DX2                !
 ! A19   A(8,10,12)             99.8078         estimate D2E/DX2                !
 ! A20   A(8,11,13)            107.9952         estimate D2E/DX2                !
 ! A21   A(8,11,14)            109.4959         estimate D2E/DX2                !
 ! A22   A(8,11,15)            108.4841         estimate D2E/DX2                !
 ! A23   A(13,11,14)           107.6627         estimate D2E/DX2                !
 ! A24   A(13,11,15)           112.6697         estimate D2E/DX2                !
 ! A25   A(14,11,15)           110.4715         estimate D2E/DX2                !
 ! A26   A(11,15,16)           113.7624         estimate D2E/DX2                !
 ! A27   A(11,15,17)           116.691          estimate D2E/DX2                !
 ! A28   A(11,15,18)           106.6737         estimate D2E/DX2                !
 ! A29   A(16,15,17)           108.2002         estimate D2E/DX2                !
 ! A30   A(16,15,18)           106.2069         estimate D2E/DX2                !
 ! A31   A(17,15,18)           104.3665         estimate D2E/DX2                !
 ! D1    D(2,1,5,6)            177.8103         estimate D2E/DX2                !
 ! D2    D(2,1,5,7)             58.9132         estimate D2E/DX2                !
 ! D3    D(2,1,5,8)            -63.7906         estimate D2E/DX2                !
 ! D4    D(3,1,5,6)             56.2569         estimate D2E/DX2                !
 ! D5    D(3,1,5,7)            -62.6402         estimate D2E/DX2                !
 ! D6    D(3,1,5,8)            174.656          estimate D2E/DX2                !
 ! D7    D(4,1,5,6)            -65.5682         estimate D2E/DX2                !
 ! D8    D(4,1,5,7)            175.5348         estimate D2E/DX2                !
 ! D9    D(4,1,5,8)             52.831          estimate D2E/DX2                !
 ! D10   D(1,5,8,9)            -53.7334         estimate D2E/DX2                !
 ! D11   D(1,5,8,10)            54.3132         estimate D2E/DX2                !
 ! D12   D(1,5,8,11)           179.6714         estimate D2E/DX2                !
 ! D13   D(6,5,8,9)             70.9558         estimate D2E/DX2                !
 ! D14   D(6,5,8,10)           179.0024         estimate D2E/DX2                !
 ! D15   D(6,5,8,11)           -55.6394         estimate D2E/DX2                !
 ! D16   D(7,5,8,9)           -178.9053         estimate D2E/DX2                !
 ! D17   D(7,5,8,10)           -70.8587         estimate D2E/DX2                !
 ! D18   D(7,5,8,11)            54.4995         estimate D2E/DX2                !
 ! D19   D(5,8,10,12)           32.417          estimate D2E/DX2                !
 ! D20   D(9,8,10,12)          144.9041         estimate D2E/DX2                !
 ! D21   D(11,8,10,12)         -90.8139         estimate D2E/DX2                !
 ! D22   D(5,8,11,13)          -57.9167         estimate D2E/DX2                !
 ! D23   D(5,8,11,14)           59.0469         estimate D2E/DX2                !
 ! D24   D(5,8,11,15)          179.6804         estimate D2E/DX2                !
 ! D25   D(9,8,11,13)         -179.9888         estimate D2E/DX2                !
 ! D26   D(9,8,11,14)          -63.0253         estimate D2E/DX2                !
 ! D27   D(9,8,11,15)           57.6082         estimate D2E/DX2                !
 ! D28   D(10,8,11,13)          63.8317         estimate D2E/DX2                !
 ! D29   D(10,8,11,14)        -179.2048         estimate D2E/DX2                !
 ! D30   D(10,8,11,15)         -58.5713         estimate D2E/DX2                !
 ! D31   D(8,11,15,16)        -162.6944         estimate D2E/DX2                !
 ! D32   D(8,11,15,17)          70.1978         estimate D2E/DX2                !
 ! D33   D(8,11,15,18)         -45.9372         estimate D2E/DX2                !
 ! D34   D(13,11,15,16)         77.7911         estimate D2E/DX2                !
 ! D35   D(13,11,15,17)        -49.3167         estimate D2E/DX2                !
 ! D36   D(13,11,15,18)       -165.4516         estimate D2E/DX2                !
 ! D37   D(14,11,15,16)        -42.6673         estimate D2E/DX2                !
 ! D38   D(14,11,15,17)       -169.7751         estimate D2E/DX2                !
 ! D39   D(14,11,15,18)         74.09           estimate D2E/DX2                !
 --------------------------------------------------------------------------------
 Trust Radius=3.00D-01 FncErr=1.00D-07 GrdErr=1.00D-07 EigMax=2.50D+02 EigMin=1.00D-04
 Number of steps in this run=     97 maximum allowed number of steps=    108.
 GradGradGradGradGradGradGradGradGradGradGradGradGradGradGradGradGradGrad

 Leave Link  103 at Wed Sep  7 15:33:51 2022, MaxMem=   131072000 cpu:               0.0 elap:               0.0
 (Enter /opt/g16/l202.exe)
                          Input orientation:                          
 ---------------------------------------------------------------------
 Center     Atomic      Atomic             Coordinates (Angstroms)
 Number     Number       Type             X           Y           Z
 ---------------------------------------------------------------------
      1          6           0       11.228000    4.009000    4.329000
      2          1           0       11.521000    4.686000    5.081000
      3          1           0       12.140000    3.723000    3.747000
      4          1           0       10.838000    3.144000    4.798000
      5          6           0       10.102000    4.639000    3.530000
      6          1           0        9.757000    4.011000    2.692000
      7          1           0       10.427000    5.584000    3.085000
      8          6           0        8.817000    4.937000    4.199000
      9          1           0        8.454000    3.963000    4.699000
     10          8           0        9.089000    5.720000    5.314000
     11          6           0        7.884000    5.540000    3.265000
     12          1           0        9.837000    6.198000    4.996000
     13          1           0        8.350000    6.457000    2.861000
     14          1           0        7.715000    4.863000    2.434000
     15          6           0        6.523000    5.831000    4.030000
     16          1           0        5.679000    6.000000    3.371000
     17          1           0        6.540000    6.638000    4.782000
     18          1           0        6.278000    4.897000    4.625000
 ---------------------------------------------------------------------
                    Distance matrix (angstroms):
                    1          2          3          4          5
     1  C    0.000000
     2  H    1.053414   0.000000
     3  H    1.119046   1.757864   0.000000
     4  H    1.058436   1.710071   1.770606   0.000000
     5  C    1.517622   2.102706   2.244903   2.093931   0.000000
     6  H    2.200821   3.045430   2.621957   2.521009   1.102567
     7  H    2.160963   2.446887   2.614562   3.009467   1.093926
     8  C    2.586698   2.855265   3.566571   2.767326   1.479050
     9  H    2.798945   3.174136   3.814512   2.522701   2.130596
    10  O    2.910853   2.652936   3.968891   3.156110   2.318919
    11  C    3.828628   4.153907   4.652671   4.100856   2.408641
    12  H    2.677964   2.264779   3.604086   3.219957   2.156354
    13  H    4.053469   4.256769   4.756454   4.573629   2.611932
    14  H    4.081851   4.639351   4.754387   4.277451   2.636126
    15  C    5.054316   5.234083   6.006200   5.140916   3.805273
    16  H    5.972708   6.227332   6.860804   6.066988   4.630392
    17  H    5.393903   5.358177   6.397535   5.539052   4.272160
    18  H    5.037724   5.267021   6.042533   4.888409   3.986046
                    6          7          8          9         10
     6  H    0.000000
     7  H    1.754331   0.000000
     8  C    2.003029   2.061966   0.000000
     9  H    2.393358   3.020822   1.153449   0.000000
    10  O    3.200280   2.603302   1.389352   1.966850   0.000000
    11  C    2.484814   2.549742   1.451363   2.206396   2.383868
    12  H    3.177701   2.092132   1.807133   2.645019   0.942927
    13  H    2.826858   2.264119   2.078156   3.099854   2.665802
    14  H    2.227607   2.880727   2.082091   2.546831   3.304047
    15  C    3.944794   4.024332   2.467840   2.768708   2.871469
    16  H    4.587728   4.774762   3.415054   3.689658   3.934685
    17  H    4.649550   4.370297   2.901382   3.290275   2.761005
    18  H    4.077368   4.478590   2.574800   2.369137   3.008948
                   11         12         13         14         15
    11  C    0.000000
    12  H    2.691381   0.000000
    13  H    1.105107   2.614665   0.000000
    14  H    1.085104   3.584544   1.768160   0.000000
    15  C    1.588152   3.471375   2.257513   2.214747   0.000000
    16  H    2.254964   4.468646   2.757388   2.513172   1.084056
    17  H    2.305044   3.333107   2.645582   3.169283   1.103196
    18  H    2.200519   3.807456   3.136635   2.620421   1.134198
                   16         17         18
    16  H    0.000000
    17  H    1.771803   0.000000
    18  H    1.774240   1.767590   0.000000
 Stoichiometry    C5H12O
 Framework group  C1[X(C5H12O)]
 Deg. of freedom    48
 Full point group                 C1      NOp   1
 Largest Abelian subgroup         C1      NOp   1
 Largest concise Abelian subgroup C1      NOp   1
                         Standard orientation:                         
 ---------------------------------------------------------------------
 Center     Atomic      Atomic             Coordinates (Angstroms)
 Number     Number       Type             X           Y           Z
 ---------------------------------------------------------------------
      1          6           0        2.529007   -0.028401    0.225083
      2          1           0        2.612362    0.913723   -0.238744
      3          1           0        3.442039   -0.622170   -0.031968
      4          1           0        2.503553    0.121053    1.272605
      5          6           0        1.202002   -0.644662   -0.177978
      6          1           0        1.047018   -1.655435    0.234297
      7          1           0        1.140063   -0.749456   -1.265110
      8          6           0       -0.057313    0.015659    0.229077
      9          1           0       -0.016844    0.161345    1.372573
     10          8           0       -0.006868    1.334027   -0.206419
     11          6           0       -1.203784   -0.726840   -0.261589
     12          1           0        0.499837    1.223765   -0.993950
     13          1           0       -1.121556   -0.794258   -1.361569
     14          1           0       -1.176786   -1.737247    0.133126
     15          6           0       -2.525069    0.018170    0.208934
     16          1           0       -3.416180   -0.596770    0.154641
     17          1           0       -2.745220    0.986963   -0.270666
     18          1           0       -2.382396    0.272711    1.304954
 ---------------------------------------------------------------------
 Rotational constants (GHZ):           7.8308189           1.9652044           1.7159484
 Leave Link  202 at Wed Sep  7 15:33:51 2022, MaxMem=   131072000 cpu:               0.0 elap:               0.0
 (Enter /opt/g16/l301.exe)
 Standard basis: VSTO-6G (5D, 7F)
 Ernie: Thresh=  0.10000D-02 Tol=  0.10000D-05 Strict=F.
  NNHCO=     0 NNPyr=     0 NCTC=     0               EPep=         0.000000000
    EC=       129.841479879  ECS=         2.310076574   EG=         0.568220693
   EHC=         0.000000000  EAt=       -36.836480110  AtH=         2.452923921
 EPDDG=         0.000000000  ECC=       132.719777146 EAtT=        39.289404030
 There are    36 symmetry adapted cartesian basis functions of A   symmetry.
 There are    36 symmetry adapted basis functions of A   symmetry.
    36 basis functions,   216 primitive gaussians,    36 cartesian basis functions
    19 alpha electrons       19 beta electrons
       nuclear repulsion energy       172.0091811768 Hartrees.
 IExCor=    0 DFT=F Ex=HF Corr=None ExCW=0 ScaHFX=  1.000000
 ScaDFX=  1.000000  1.000000  1.000000  1.000000 ScalE2=  1.000000  1.000000
 IRadAn=      5 IRanWt=     -1 IRanGd=            0 ICorTp=0 IEmpDi=  4
 Integral buffers will be    131072 words long.
 Regular integral format.
 Two-electron integral symmetry is turned off.
 Leave Link  301 at Wed Sep  7 15:33:51 2022, MaxMem=   131072000 cpu:               0.0 elap:               0.0
 (Enter /opt/g16/l302.exe)
 Do NDO integrals.
 NPDir=0 NMtPBC=     1 NCelOv=     1 NCel=       1 NClECP=     1 NCelD=      1
         NCelK=      1 NCelE2=     1 NClLst=     1 CellRange=     0.0.
 One-electron integrals computed using PRISM.
 NBasis=    36 RedAO= F EigKep=  0.00D+00  NBF=    36
 NBsUse=    36 1.00D-04 EigRej=  0.00D+00 NBFU=    36
 Leave Link  302 at Wed Sep  7 15:33:52 2022, MaxMem=   131072000 cpu:               0.0 elap:               0.0
 (Enter /opt/g16/l303.exe)
 DipDrv:  MaxL=1.
 Leave Link  303 at Wed Sep  7 15:33:52 2022, MaxMem=   131072000 cpu:               0.0 elap:               0.0
 (Enter /opt/g16/l401.exe)
 Simple Huckel Guess.
 JPrj=0 DoOrth=F DoCkMO=F.
 Leave Link  401 at Wed Sep  7 15:33:52 2022, MaxMem=   131072000 cpu:               0.0 elap:               0.0
 (Enter /opt/g16/l502.exe)
 Keep J ints in memory in canonical form, NReq=862161.
 FoFCou: FMM=F IPFlag=           0 FMFlag=           0 FMFlg1=           0
         NFxFlg=           0 DoJE=F BraDBF=F KetDBF=F FulRan=T
         wScrn=  0.000000 ICntrl=       600 IOpCl=  2 I1Cent=           0 NGrid=           0
         NMat0=    1 NMatS0=     72 NMatT0=    0 NMatD0=    1 NMtDS0=    0 NMtDT0=    0
 Symmetry not used in FoFCou.
 Two-electron integral symmetry not used.
 Closed shell SCF:
 Using DIIS extrapolation, IDIIS=  1040.
 Overlap will be assumed to be unity.
 NGot=   131072000 LenX=   131006778 LenY=   131005041
 Requested convergence on RMS density matrix=1.00D-08 within 128 cycles.
 Requested convergence on MAX density matrix=1.00D-06.
 Requested convergence on             energy=1.00D-06.
 No special actions if energy rises.

 Cycle   1  Pass 1  IDiag  1:
 E= 0.201454452771344    
 DIIS: error= 7.07D-02 at cycle   1 NSaved=   1.
 NSaved= 1 IEnMin= 1 EnMin= 0.201454452771344     IErMin= 1 ErrMin= 7.07D-02
 ErrMax= 7.07D-02  0.00D+00 EMaxC= 1.00D-01 BMatC= 1.11D-01 BMatP= 1.11D-01
 IDIUse=3 WtCom= 2.93D-01 WtEn= 7.07D-01
 Coeff-Com:  0.100D+01
 Coeff-En:   0.100D+01
 Coeff:      0.100D+01
 GapD=    2.000 DampG=2.000 DampE=0.500 DampFc=1.0000 IDamp=-1.
 RMSDP=1.28D-02 MaxDP=1.52D-01              OVMax= 0.00D+00

 Cycle   2  Pass 1  IDiag  1:
 E=-0.632524846881495E-01 Delta-E=       -0.264706937459 Rises=F Damp=F
 DIIS: error= 1.52D-02 at cycle   2 NSaved=   2.
 NSaved= 2 IEnMin= 2 EnMin=-0.632524846881495E-01 IErMin= 2 ErrMin= 1.52D-02
 ErrMax= 1.52D-02  0.00D+00 EMaxC= 1.00D-01 BMatC= 7.15D-03 BMatP= 1.11D-01
 IDIUse=3 WtCom= 8.48D-01 WtEn= 1.52D-01
 Coeff-Com: -0.304D+00 0.130D+01
 Coeff-En:   0.000D+00 0.100D+01
 Coeff:     -0.258D+00 0.126D+01
 RMSDP=4.63D-03 MaxDP=5.73D-02 DE=-2.65D-01 OVMax= 0.00D+00

 Cycle   3  Pass 1  IDiag  3:
 E=-0.851141711556238E-01 Delta-E=       -0.021861686467 Rises=F Damp=F
 DIIS: error= 3.29D-03 at cycle   3 NSaved=   3.
 NSaved= 3 IEnMin= 3 EnMin=-0.851141711556238E-01 IErMin= 3 ErrMin= 3.29D-03
 ErrMax= 3.29D-03  0.00D+00 EMaxC= 1.00D-01 BMatC= 2.11D-04 BMatP= 7.15D-03
 IDIUse=3 WtCom= 9.67D-01 WtEn= 3.29D-02
 Coeff-Com:  0.138D+00-0.678D+00 0.154D+01
 Coeff-En:   0.000D+00 0.000D+00 0.100D+01
 Coeff:      0.134D+00-0.656D+00 0.152D+01
 Gap=     0.516 Goal=   None    Shift=    0.000
 RMSDP=1.27D-03 MaxDP=1.60D-02 DE=-2.19D-02 OVMax= 8.96D-03

 Cycle   4  Pass 1  IDiag  3:
 E=-0.862046578493789E-01 Delta-E=       -0.001090486694 Rises=F Damp=F
 DIIS: error= 7.09D-04 at cycle   4 NSaved=   4.
 NSaved= 4 IEnMin= 4 EnMin=-0.862046578493789E-01 IErMin= 4 ErrMin= 7.09D-04
 ErrMax= 7.09D-04  0.00D+00 EMaxC= 1.00D-01 BMatC= 9.46D-06 BMatP= 2.11D-04
 IDIUse=3 WtCom= 9.93D-01 WtEn= 7.09D-03
 Coeff-Com: -0.309D-01 0.166D+00-0.566D+00 0.143D+01
 Coeff-En:   0.000D+00 0.000D+00 0.000D+00 0.100D+01
 Coeff:     -0.307D-01 0.165D+00-0.562D+00 0.143D+01
 Gap=     0.517 Goal=   None    Shift=    0.000
 RMSDP=3.20D-04 MaxDP=3.20D-03 DE=-1.09D-03 OVMax= 2.44D-03

 Cycle   5  Pass 1  IDiag  3:
 E=-0.862602391517271E-01 Delta-E=       -0.000055581302 Rises=F Damp=F
 DIIS: error= 1.23D-04 at cycle   5 NSaved=   5.
 NSaved= 5 IEnMin= 5 EnMin=-0.862602391517271E-01 IErMin= 5 ErrMin= 1.23D-04
 ErrMax= 1.23D-04  0.00D+00 EMaxC= 1.00D-01 BMatC= 3.31D-07 BMatP= 9.46D-06
 IDIUse=3 WtCom= 9.99D-01 WtEn= 1.23D-03
 Coeff-Com:  0.172D-02-0.123D-01 0.775D-01-0.379D+00 0.131D+01
 Coeff-En:   0.000D+00 0.000D+00 0.000D+00 0.000D+00 0.100D+01
 Coeff:      0.171D-02-0.123D-01 0.774D-01-0.379D+00 0.131D+01
 Gap=     0.517 Goal=   None    Shift=    0.000
 RMSDP=5.64D-05 MaxDP=6.04D-04 DE=-5.56D-05 OVMax= 3.65D-04

 Cycle   6  Pass 1  IDiag  3:
 E=-0.862621258327181E-01 Delta-E=       -0.000001886681 Rises=F Damp=F
 DIIS: error= 3.62D-05 at cycle   6 NSaved=   6.
 NSaved= 6 IEnMin= 6 EnMin=-0.862621258327181E-01 IErMin= 6 ErrMin= 3.62D-05
 ErrMax= 3.62D-05  0.00D+00 EMaxC= 1.00D-01 BMatC= 2.35D-08 BMatP= 3.31D-07
 IDIUse=1 WtCom= 1.00D+00 WtEn= 0.00D+00
 Coeff-Com: -0.353D-03 0.329D-02-0.276D-01 0.158D+00-0.713D+00 0.158D+01
 Coeff:     -0.353D-03 0.329D-02-0.276D-01 0.158D+00-0.713D+00 0.158D+01
 Gap=     0.517 Goal=   None    Shift=    0.000
 RMSDP=1.65D-05 MaxDP=2.13D-04 DE=-1.89D-06 OVMax= 1.15D-04

 Cycle   7  Pass 1  IDiag  3:
 E=-0.862622736897265E-01 Delta-E=       -0.000000147857 Rises=F Damp=F
 DIIS: error= 5.90D-06 at cycle   7 NSaved=   7.
 NSaved= 7 IEnMin= 7 EnMin=-0.862622736897265E-01 IErMin= 7 ErrMin= 5.90D-06
 ErrMax= 5.90D-06  0.00D+00 EMaxC= 1.00D-01 BMatC= 1.49D-09 BMatP= 2.35D-08
 IDIUse=1 WtCom= 1.00D+00 WtEn= 0.00D+00
 Coeff-Com:  0.142D-03-0.141D-02 0.127D-01-0.743D-01 0.356D+00-0.965D+00
 Coeff-Com:  0.167D+01
 Coeff:      0.142D-03-0.141D-02 0.127D-01-0.743D-01 0.356D+00-0.965D+00
 Coeff:      0.167D+01
 Gap=     0.517 Goal=   None    Shift=    0.000
 RMSDP=4.54D-06 MaxDP=4.75D-05 DE=-1.48D-07 OVMax= 2.59D-05

 Cycle   8  Pass 1  IDiag  3:
 E=-0.862622831477040E-01 Delta-E=       -0.000000009458 Rises=F Damp=F
 DIIS: error= 1.07D-06 at cycle   8 NSaved=   8.
 NSaved= 8 IEnMin= 8 EnMin=-0.862622831477040E-01 IErMin= 8 ErrMin= 1.07D-06
 ErrMax= 1.07D-06  0.00D+00 EMaxC= 1.00D-01 BMatC= 4.85D-11 BMatP= 1.49D-09
 IDIUse=1 WtCom= 1.00D+00 WtEn= 0.00D+00
 Coeff-Com: -0.453D-04 0.528D-03-0.521D-02 0.311D-01-0.152D+00 0.430D+00
 Coeff-Com: -0.852D+00 0.155D+01
 Coeff:     -0.453D-04 0.528D-03-0.521D-02 0.311D-01-0.152D+00 0.430D+00
 Coeff:     -0.852D+00 0.155D+01
 Gap=     0.517 Goal=   None    Shift=    0.000
 RMSDP=7.40D-07 MaxDP=6.86D-06 DE=-9.46D-09 OVMax= 3.96D-06

 Cycle   9  Pass 1  IDiag  3:
 E=-0.862622834487752E-01 Delta-E=       -0.000000000301 Rises=F Damp=F
 DIIS: error= 2.47D-07 at cycle   9 NSaved=   9.
 NSaved= 9 IEnMin= 9 EnMin=-0.862622834487752E-01 IErMin= 9 ErrMin= 2.47D-07
 ErrMax= 2.47D-07  0.00D+00 EMaxC= 1.00D-01 BMatC= 3.09D-12 BMatP= 4.85D-11
 IDIUse=1 WtCom= 1.00D+00 WtEn= 0.00D+00
 Coeff-Com:  0.141D-04-0.202D-03 0.219D-02-0.134D-01 0.665D-01-0.191D+00
 Coeff-Com:  0.391D+00-0.881D+00 0.163D+01
 Coeff:      0.141D-04-0.202D-03 0.219D-02-0.134D-01 0.665D-01-0.191D+00
 Coeff:      0.391D+00-0.881D+00 0.163D+01
 Gap=     0.517 Goal=   None    Shift=    0.000
 RMSDP=2.06D-07 MaxDP=1.49D-06 DE=-3.01D-10 OVMax= 1.28D-06

 Cycle  10  Pass 1  IDiag  3:
 E=-0.862622834694093E-01 Delta-E=       -0.000000000021 Rises=F Damp=F
 DIIS: error= 5.57D-08 at cycle  10 NSaved=  10.
 NSaved=10 IEnMin=10 EnMin=-0.862622834694093E-01 IErMin=10 ErrMin= 5.57D-08
 ErrMax= 5.57D-08  0.00D+00 EMaxC= 1.00D-01 BMatC= 1.55D-13 BMatP= 3.09D-12
 IDIUse=1 WtCom= 1.00D+00 WtEn= 0.00D+00
 Coeff-Com: -0.557D-05 0.811D-04-0.889D-03 0.544D-02-0.271D-01 0.784D-01
 Coeff-Com: -0.162D+00 0.380D+00-0.851D+00 0.158D+01
 Coeff:     -0.557D-05 0.811D-04-0.889D-03 0.544D-02-0.271D-01 0.784D-01
 Coeff:     -0.162D+00 0.380D+00-0.851D+00 0.158D+01
 Gap=     0.517 Goal=   None    Shift=    0.000
 RMSDP=4.58D-08 MaxDP=3.69D-07 DE=-2.06D-11 OVMax= 3.44D-07

 Cycle  11  Pass 1  IDiag  3:
 E=-0.862622834702904E-01 Delta-E=       -0.000000000001 Rises=F Damp=F
 DIIS: error= 1.47D-08 at cycle  11 NSaved=  11.
 NSaved=11 IEnMin=11 EnMin=-0.862622834702904E-01 IErMin=11 ErrMin= 1.47D-08
 ErrMax= 1.47D-08  0.00D+00 EMaxC= 1.00D-01 BMatC= 8.13D-15 BMatP= 1.55D-13
 IDIUse=1 WtCom= 1.00D+00 WtEn= 0.00D+00
 Coeff-Com:  0.187D-05-0.271D-04 0.297D-03-0.182D-02 0.909D-02-0.263D-01
 Coeff-Com:  0.544D-01-0.129D+00 0.310D+00-0.743D+00 0.153D+01
 Coeff:      0.187D-05-0.271D-04 0.297D-03-0.182D-02 0.909D-02-0.263D-01
 Coeff:      0.544D-01-0.129D+00 0.310D+00-0.743D+00 0.153D+01
 Gap=     0.517 Goal=   None    Shift=    0.000
 RMSDP=9.99D-09 MaxDP=9.22D-08 DE=-8.81D-13 OVMax= 7.06D-08

 Cycle  12  Pass 2  IDiag  1:
 SCF Done:  E(RPM3) = -0.862622834703E-01 A.U. after   12 cycles
            NFock= 11  Conv=0.10D-07     -V/T= 0.9986
 KE=-5.975330573592D+01 PE=-2.581471627450D+02 EE= 1.458050250207D+02
 Leave Link  502 at Wed Sep  7 15:33:52 2022, MaxMem=   131072000 cpu:               0.0 elap:               0.0
 (Enter /opt/g16/l601.exe)
 Copying SCF densities to generalized density rwf, IOpCl= 0 IROHF=0.

 **********************************************************************

            Population analysis using the SCF density.

 **********************************************************************

 Orbital symmetries:
       Occupied  (A) (A) (A) (A) (A) (A) (A) (A) (A) (A) (A) (A)
                 (A) (A) (A) (A) (A) (A) (A)
       Virtual   (A) (A) (A) (A) (A) (A) (A) (A) (A) (A) (A) (A)
                 (A) (A) (A) (A) (A)
 The electronic state is 1-A.
 Alpha  occ. eigenvalues --   -1.53476  -1.23687  -1.20372  -0.97083  -0.79887
 Alpha  occ. eigenvalues --   -0.77919  -0.64814  -0.61912  -0.59095  -0.55367
 Alpha  occ. eigenvalues --   -0.53343  -0.51562  -0.49098  -0.47506  -0.46870
 Alpha  occ. eigenvalues --   -0.44675  -0.43887  -0.43171  -0.40795
 Alpha virt. eigenvalues --    0.10850   0.12239   0.13221   0.13511   0.13889
 Alpha virt. eigenvalues --    0.14400   0.14904   0.15705   0.15890   0.16340
 Alpha virt. eigenvalues --    0.16807   0.16966   0.17376   0.17687   0.18732
 Alpha virt. eigenvalues --    0.18849   0.20978
          Condensed to atoms (all electrons):
               1          2          3          4          5          6
     1  C    4.087270   0.000000   0.000000   0.000000   0.000000   0.000000
     2  H    0.000000   0.962754   0.000000   0.000000   0.000000   0.000000
     3  H    0.000000   0.000000   0.950836   0.000000   0.000000   0.000000
     4  H    0.000000   0.000000   0.000000   0.960442   0.000000   0.000000
     5  C    0.000000   0.000000   0.000000   0.000000   4.165927   0.000000
     6  H    0.000000   0.000000   0.000000   0.000000   0.000000   0.942424
     7  H    0.000000   0.000000   0.000000   0.000000   0.000000   0.000000
     8  C    0.000000   0.000000   0.000000   0.000000   0.000000   0.000000
     9  H    0.000000   0.000000   0.000000   0.000000   0.000000   0.000000
    10  O    0.000000   0.000000   0.000000   0.000000   0.000000   0.000000
    11  C    0.000000   0.000000   0.000000   0.000000   0.000000   0.000000
    12  H    0.000000   0.000000   0.000000   0.000000   0.000000   0.000000
    13  H    0.000000   0.000000   0.000000   0.000000   0.000000   0.000000
    14  H    0.000000   0.000000   0.000000   0.000000   0.000000   0.000000
    15  C    0.000000   0.000000   0.000000   0.000000   0.000000   0.000000
    16  H    0.000000   0.000000   0.000000   0.000000   0.000000   0.000000
    17  H    0.000000   0.000000   0.000000   0.000000   0.000000   0.000000
    18  H    0.000000   0.000000   0.000000   0.000000   0.000000   0.000000
               7          8          9         10         11         12
     1  C    0.000000   0.000000   0.000000   0.000000   0.000000   0.000000
     2  H    0.000000   0.000000   0.000000   0.000000   0.000000   0.000000
     3  H    0.000000   0.000000   0.000000   0.000000   0.000000   0.000000
     4  H    0.000000   0.000000   0.000000   0.000000   0.000000   0.000000
     5  C    0.000000   0.000000   0.000000   0.000000   0.000000   0.000000
     6  H    0.000000   0.000000   0.000000   0.000000   0.000000   0.000000
     7  H    0.950108   0.000000   0.000000   0.000000   0.000000   0.000000
     8  C    0.000000   3.945435   0.000000   0.000000   0.000000   0.000000
     9  H    0.000000   0.000000   0.926813   0.000000   0.000000   0.000000
    10  O    0.000000   0.000000   0.000000   6.308915   0.000000   0.000000
    11  C    0.000000   0.000000   0.000000   0.000000   4.117401   0.000000
    12  H    0.000000   0.000000   0.000000   0.000000   0.000000   0.813592
    13  H    0.000000   0.000000   0.000000   0.000000   0.000000   0.000000
    14  H    0.000000   0.000000   0.000000   0.000000   0.000000   0.000000
    15  C    0.000000   0.000000   0.000000   0.000000   0.000000   0.000000
    16  H    0.000000   0.000000   0.000000   0.000000   0.000000   0.000000
    17  H    0.000000   0.000000   0.000000   0.000000   0.000000   0.000000
    18  H    0.000000   0.000000   0.000000   0.000000   0.000000   0.000000
              13         14         15         16         17         18
     1  C    0.000000   0.000000   0.000000   0.000000   0.000000   0.000000
     2  H    0.000000   0.000000   0.000000   0.000000   0.000000   0.000000
     3  H    0.000000   0.000000   0.000000   0.000000   0.000000   0.000000
     4  H    0.000000   0.000000   0.000000   0.000000   0.000000   0.000000
     5  C    0.000000   0.000000   0.000000   0.000000   0.000000   0.000000
     6  H    0.000000   0.000000   0.000000   0.000000   0.000000   0.000000
     7  H    0.000000   0.000000   0.000000   0.000000   0.000000   0.000000
     8  C    0.000000   0.000000   0.000000   0.000000   0.000000   0.000000
     9  H    0.000000   0.000000   0.000000   0.000000   0.000000   0.000000
    10  O    0.000000   0.000000   0.000000   0.000000   0.000000   0.000000
    11  C    0.000000   0.000000   0.000000   0.000000   0.000000   0.000000
    12  H    0.000000   0.000000   0.000000   0.000000   0.000000   0.000000
    13  H    0.945538   0.000000   0.000000   0.000000   0.000000   0.000000
    14  H    0.000000   0.940654   0.000000   0.000000   0.000000   0.000000
    15  C    0.000000   0.000000   4.100350   0.000000   0.000000   0.000000
    16  H    0.000000   0.000000   0.000000   0.965462   0.000000   0.000000
    17  H    0.000000   0.000000   0.000000   0.000000   0.947802   0.000000
    18  H    0.000000   0.000000   0.000000   0.000000   0.000000   0.968279
 Mulliken charges:
               1
     1  C   -0.087270
     2  H    0.037246
     3  H    0.049164
     4  H    0.039558
     5  C   -0.165927
     6  H    0.057576
     7  H    0.049892
     8  C    0.054565
     9  H    0.073187
    10  O   -0.308915
    11  C   -0.117401
    12  H    0.186408
    13  H    0.054462
    14  H    0.059346
    15  C   -0.100350
    16  H    0.034538
    17  H    0.052198
    18  H    0.031721
 Sum of Mulliken charges =  -0.00000
 Mulliken charges with hydrogens summed into heavy atoms:
               1
     1  C    0.038699
     5  C   -0.058459
     8  C    0.127752
    10  O   -0.122507
    11  C   -0.003593
    15  C    0.018108
 Charge=             -0.0000 electrons
 Dipole moment (field-independent basis, Debye):
    X=              0.6713    Y=             -1.3515    Z=             -0.5768  Tot=              1.6156
 N-N= 1.720091811768D+02 E-N=-2.581471629987D+02  KE=-5.975330573592D+01
 Leave Link  601 at Wed Sep  7 15:33:52 2022, MaxMem=   131072000 cpu:               0.0 elap:               0.0
 (Enter /opt/g16/l701.exe)
 ... and contract with generalized density number  0.
 Compute integral first derivatives.
 Leave Link  701 at Wed Sep  7 15:33:52 2022, MaxMem=   131072000 cpu:               0.0 elap:               0.0
 (Enter /opt/g16/l702.exe)
 L702 exits ... SP integral derivatives will be done elsewhere.
 Leave Link  702 at Wed Sep  7 15:33:52 2022, MaxMem=   131072000 cpu:               0.0 elap:               0.0
 (Enter /opt/g16/l703.exe)
 Integral derivatives from FoFJK, PRISM(SPDF).
 Compute integral first derivatives, UseDBF=F ICtDFT=           0.
 Calling FoFJK, ICntrl=      2127 FMM=F ISym2X=0 I1Cent= 0 IOpClX= 0 NMat=1 NMatS=1 NMatT=0.
 FoFJK:  IHMeth= 9 ICntrl=    2127 DoSepK=F KAlg= 0 I1Cent=           0 FoldK=F
 IRaf=         0 NMat=       1 IRICut=       1 DoRegI=T DoRafI=F ISym2E= 0 IDoP0=3 IntGTp=3.
 FoFCou: FMM=F IPFlag=           0 FMFlag=      100000 FMFlg1=         800
         NFxFlg=           0 DoJE=F BraDBF=F KetDBF=F FulRan=T
         wScrn=  0.000000 ICntrl=      2127 IOpCl=  0 I1Cent=           0 NGrid=           0
         NMat0=    1 NMatS0=      1 NMatT0=    0 NMatD0=    1 NMtDS0=    0 NMtDT0=    0
 Symmetry not used in FoFCou.
 Leave Link  703 at Wed Sep  7 15:33:52 2022, MaxMem=   131072000 cpu:               0.0 elap:               0.0
 (Enter /opt/g16/l716.exe)
 Dipole        = 2.64106661D-01-5.31740378D-01-2.26947414D-01
 ***** Axes restored to original set *****
 -------------------------------------------------------------------
 Center     Atomic                   Forces (Hartrees/Bohr)
 Number     Number              X              Y              Z
 -------------------------------------------------------------------
      1        6          -0.005584396    0.000791814   -0.031233672
      2        1           0.014474678    0.019615242    0.024053290
      3        1          -0.014255269    0.005152051    0.001837003
      4        1          -0.005600025   -0.026761726    0.012752485
      5        6           0.033557631   -0.020386764   -0.042034070
      6        1           0.012075154   -0.007872585   -0.007227222
      7        1           0.011950707    0.007729343   -0.007927448
      8        6           0.011229497   -0.060587817    0.060393161
      9        1          -0.002969969    0.014469184   -0.008804980
     10        8          -0.006642682    0.016706065    0.024066440
     11        6          -0.071384254    0.042039331    0.000722064
     12        1           0.008811615    0.020613555    0.012836145
     13        1          -0.007701405    0.004773723   -0.003462541
     14        1          -0.006210019   -0.005798093   -0.011375099
     15        6           0.021072405   -0.028376428    0.001191745
     16        1          -0.001081024    0.003163383   -0.007183493
     17        1           0.007043447   -0.001052454   -0.008409206
     18        1           0.001213911    0.015782177   -0.010194602
 -------------------------------------------------------------------
 Cartesian Forces:  Max     0.071384254 RMS     0.021694797
 Leave Link  716 at Wed Sep  7 15:33:52 2022, MaxMem=   131072000 cpu:               0.0 elap:               0.0
 (Enter /opt/g16/l103.exe)

 GradGradGradGradGradGradGradGradGradGradGradGradGradGradGradGradGradGrad
 Berny optimization.
 FormGI is forming the generalized inverse of G from B-inverse, IUseBI=4.
 Internal  Forces:  Max     0.074269209 RMS     0.015959408
 Search for a local minimum.
 Step number   1 out of a maximum of   97
 All quantities printed in internal units (Hartrees-Bohrs-Radians)
 RMS Force = .15959D-01 SwitMx=.10000D-02 MixMth= 1
 Mixed Optimization -- RFO/linear search
 Second derivative matrix not updated -- first step.
 ITU=  0
     Eigenvalues ---    0.00230   0.00533   0.01043   0.01409   0.01833
     Eigenvalues ---    0.03306   0.04283   0.04530   0.04783   0.04785
     Eigenvalues ---    0.05115   0.05199   0.05232   0.05735   0.06127
     Eigenvalues ---    0.08010   0.08074   0.09701   0.11797   0.13006
     Eigenvalues ---    0.16000   0.16000   0.16000   0.16000   0.16000
     Eigenvalues ---    0.16000   0.16000   0.16791   0.20148   0.21844
     Eigenvalues ---    0.21977   0.24646   0.28401   0.30167   0.30597
     Eigenvalues ---    0.31661   0.33124   0.33331   0.33400   0.34363
     Eigenvalues ---    0.34679   0.35385   0.35509   0.38067   0.38731
     Eigenvalues ---    0.39407   0.47432   0.59314
 RFO step:  Lambda=-6.40083754D-02 EMin= 2.30000000D-03
 Linear search not attempted -- first point.
 Maximum step size (   0.300) exceeded in Quadratic search.
    -- Step size scaled by   0.710
 Iteration  1 RMS(Cart)=  0.07340986 RMS(Int)=  0.00268426
 Iteration  2 RMS(Cart)=  0.00281081 RMS(Int)=  0.00049569
 Iteration  3 RMS(Cart)=  0.00000987 RMS(Int)=  0.00049563
 Iteration  4 RMS(Cart)=  0.00000000 RMS(Int)=  0.00049563
 ITry= 1 IFail=0 DXMaxC= 3.18D-01 DCOld= 1.00D+10 DXMaxT= 3.00D-01 DXLimC= 3.00D+00 Rises=F
 Variable       Old X    -DE/DX   Delta X   Delta X   Delta X     New X
                                 (Linear)    (Quad)   (Total)
    R1        1.99066   0.03380   0.00000   0.05241   0.05241   2.04308
    R2        2.11469  -0.01389   0.00000  -0.02592  -0.02592   2.08877
    R3        2.00015   0.02958   0.00000   0.04656   0.04656   2.04671
    R4        2.86789  -0.00374   0.00000  -0.00717  -0.00717   2.86072
    R5        2.08355   0.00620   0.00000   0.01106   0.01106   2.09461
    R6        2.06722   0.01345   0.00000   0.02344   0.02344   2.09066
    R7        2.79500   0.06740   0.00000   0.11653   0.11653   2.91153
    R8        2.17970  -0.01510   0.00000  -0.03082  -0.03082   2.14888
    R9        2.62549   0.05107   0.00000   0.06739   0.06739   2.69288
   R10        2.74268   0.07427   0.00000   0.11863   0.11863   2.86131
   R11        1.78187   0.01311   0.00000   0.01417   0.01417   1.79605
   R12        2.08835   0.00198   0.00000   0.00356   0.00356   2.09191
   R13        2.05055   0.01330   0.00000   0.02260   0.02260   2.07315
   R14        3.00117  -0.03798   0.00000  -0.08688  -0.08688   2.91429
   R15        2.04857   0.00570   0.00000   0.00966   0.00966   2.05823
   R16        2.08474  -0.00639   0.00000  -0.01143  -0.01143   2.07331
   R17        2.14332  -0.01861   0.00000  -0.03614  -0.03614   2.10718
    A1        1.88477   0.00025   0.00000  -0.00270  -0.00245   1.88232
    A2        1.88745  -0.00305   0.00000  -0.00011  -0.00100   1.88644
    A3        1.89169   0.00845   0.00000   0.02894   0.02864   1.92034
    A4        1.89851  -0.00036   0.00000  -0.00566  -0.00545   1.89306
    A5        2.02301  -0.01340   0.00000  -0.04668  -0.04644   1.97657
    A6        1.87461   0.00851   0.00000   0.02863   0.02831   1.90291
    A7        1.97781  -0.00620   0.00000  -0.03424  -0.03362   1.94419
    A8        1.93087   0.00093   0.00000  -0.00724  -0.00677   1.92411
    A9        2.08301  -0.01811   0.00000  -0.04275  -0.04245   2.04056
   A10        1.85024  -0.00222   0.00000  -0.00501  -0.00687   1.84337
   A11        1.75859   0.01687   0.00000   0.05848   0.05758   1.81617
   A12        1.84218   0.01167   0.00000   0.04111   0.04058   1.88276
   A13        1.87481  -0.00220   0.00000  -0.00396  -0.00403   1.87079
   A14        1.88227   0.01858   0.00000   0.06814   0.06842   1.95068
   A15        1.92958   0.00092   0.00000   0.00970   0.00990   1.93947
   A16        1.76157   0.00030   0.00000  -0.00271  -0.00386   1.75771
   A17        2.01251  -0.00275   0.00000  -0.02982  -0.03028   1.98223
   A18        1.99123  -0.01311   0.00000  -0.03523  -0.03647   1.95477
   A19        1.74197   0.03872   0.00000   0.12276   0.12276   1.86474
   A20        1.88487   0.00186   0.00000   0.01968   0.02008   1.90495
   A21        1.91106  -0.00148   0.00000   0.00477   0.00506   1.91612
   A22        1.89340   0.01266   0.00000   0.03512   0.03523   1.92863
   A23        1.87907   0.00160   0.00000  -0.00390  -0.00468   1.87439
   A24        1.96646  -0.00864   0.00000  -0.03198  -0.03266   1.93379
   A25        1.92809  -0.00590   0.00000  -0.02245  -0.02292   1.90517
   A26        1.98553  -0.00490   0.00000  -0.01898  -0.01950   1.96603
   A27        2.03664  -0.01147   0.00000  -0.03943  -0.03980   1.99684
   A28        1.86181   0.00741   0.00000   0.02988   0.03020   1.89201
   A29        1.88845   0.00655   0.00000   0.01163   0.01066   1.89911
   A30        1.85366   0.00063   0.00000   0.00771   0.00786   1.86152
   A31        1.82154   0.00353   0.00000   0.01724   0.01767   1.83921
    D1        3.10338  -0.00592   0.00000  -0.03195  -0.03247   3.07091
    D2        1.02823   0.00041   0.00000   0.00238   0.00214   1.03037
    D3       -1.11336  -0.00217   0.00000  -0.01417  -0.01434  -1.12770
    D4        0.98187  -0.00357   0.00000  -0.01869  -0.01888   0.96299
    D5       -1.09328   0.00276   0.00000   0.01565   0.01573  -1.07755
    D6        3.04832   0.00018   0.00000  -0.00090  -0.00076   3.04756
    D7       -1.14438  -0.00063   0.00000  -0.00197  -0.00188  -1.14626
    D8        3.06366   0.00569   0.00000   0.03236   0.03273   3.09639
    D9        0.92207   0.00311   0.00000   0.01581   0.01625   0.93832
   D10       -0.93782  -0.00219   0.00000  -0.00878  -0.00869  -0.94651
   D11        0.94794   0.00526   0.00000   0.01602   0.01577   0.96372
   D12        3.13586   0.00219   0.00000   0.02508   0.02561  -3.12172
   D13        1.23841  -0.00776   0.00000  -0.03227  -0.03314   1.20527
   D14        3.12418  -0.00031   0.00000  -0.00747  -0.00868   3.11550
   D15       -0.97109  -0.00338   0.00000   0.00160   0.00116  -0.96994
   D16       -3.12249  -0.00043   0.00000  -0.00376  -0.00308  -3.12557
   D17       -1.23672   0.00702   0.00000   0.02104   0.02138  -1.21534
   D18        0.95120   0.00395   0.00000   0.03010   0.03121   0.98241
   D19        0.56578   0.00352   0.00000   0.03160   0.03113   0.59691
   D20        2.52905   0.00758   0.00000   0.04938   0.04946   2.57851
   D21       -1.58500  -0.00263   0.00000  -0.00781  -0.00742  -1.59242
   D22       -1.01084  -0.00824   0.00000  -0.03812  -0.03770  -1.04854
   D23        1.03056  -0.00609   0.00000  -0.02910  -0.02896   1.00160
   D24        3.13601  -0.00645   0.00000  -0.03219  -0.03207   3.10395
   D25       -3.14140  -0.00402   0.00000  -0.01851  -0.01803   3.12376
   D26       -1.10000  -0.00187   0.00000  -0.00949  -0.00929  -1.10929
   D27        1.00545  -0.00222   0.00000  -0.01257  -0.01240   0.99306
   D28        1.11407   0.00738   0.00000   0.03318   0.03286   1.14694
   D29       -3.12771   0.00953   0.00000   0.04220   0.04161  -3.08611
   D30       -1.02226   0.00917   0.00000   0.03911   0.03850  -0.98376
   D31       -2.83955  -0.00221   0.00000  -0.01699  -0.01680  -2.85635
   D32        1.22518   0.00366   0.00000   0.02111   0.02068   1.24586
   D33       -0.80175   0.00062   0.00000   0.00114   0.00113  -0.80062
   D34        1.35771  -0.00764   0.00000  -0.04523  -0.04453   1.31318
   D35       -0.86074  -0.00177   0.00000  -0.00712  -0.00706  -0.86780
   D36       -2.88768  -0.00481   0.00000  -0.02710  -0.02661  -2.91428
   D37       -0.74468   0.00034   0.00000  -0.00273  -0.00278  -0.74747
   D38       -2.96313   0.00621   0.00000   0.03538   0.03469  -2.92844
   D39        1.29311   0.00316   0.00000   0.01540   0.01514   1.30826
         Item               Value     Threshold  Converged?
 Maximum Force            0.074269     0.000450     NO 
 RMS     Force            0.015959     0.000300     NO 
 Maximum Displacement     0.317842     0.001800     NO 
 RMS     Displacement     0.073743     0.001200     NO 
 Predicted change in Energy=-3.291988D-02
 Lowest energy point so far.  Saving SCF results.
 GradGradGradGradGradGradGradGradGradGradGradGradGradGradGradGradGradGrad

 Leave Link  103 at Wed Sep  7 15:33:52 2022, MaxMem=   131072000 cpu:               0.0 elap:               0.0
 (Enter /opt/g16/l202.exe)
                          Input orientation:                          
 ---------------------------------------------------------------------
 Center     Atomic      Atomic             Coordinates (Angstroms)
 Number     Number       Type             X           Y           Z
 ---------------------------------------------------------------------
      1          6           0       11.254947    3.973727    4.311812
      2          1           0       11.592185    4.655833    5.079854
      3          1           0       12.133845    3.681357    3.708644
      4          1           0       10.862121    3.088681    4.797026
      5          6           0       10.155772    4.616935    3.493418
      6          1           0        9.842755    3.964922    2.653480
      7          1           0       10.522856    5.549817    3.025499
      8          6           0        8.839714    4.941390    4.225901
      9          1           0        8.482167    3.979740    4.716285
     10          8           0        9.060747    5.757335    5.373086
     11          6           0        7.826140    5.552817    3.281737
     12          1           0        9.785506    6.335607    5.164195
     13          1           0        8.240015    6.489797    2.861975
     14          1           0        7.641768    4.870791    2.442453
     15          6           0        6.497225    5.822017    4.016462
     16          1           0        5.666342    5.989534    3.332458
     17          1           0        6.536170    6.649995    4.735259
     18          1           0        6.238723    4.919704    4.618455
 ---------------------------------------------------------------------
                    Distance matrix (angstroms):
                    1          2          3          4          5
     1  C    0.000000
     2  H    1.081151   0.000000
     3  H    1.105329   1.767262   0.000000
     4  H    1.083075   1.751841   1.775704   0.000000
     5  C    1.513827   2.140462   2.198727   2.129292   0.000000
     6  H    2.178171   3.070041   2.538282   2.530157   1.108420
     7  H    2.162087   2.482548   2.559905   3.051327   1.106330
     8  C    2.603287   2.896011   3.564623   2.801579   1.540717
     9  H    2.802133   3.203357   3.799885   2.542575   2.168497
    10  O    3.020278   2.776234   4.064971   3.270858   2.456165
    11  C    3.912965   4.268594   4.716029   4.193477   2.519497
    12  H    2.909346   2.468369   3.831235   3.440413   2.425371
    13  H    4.185983   4.418083   4.875048   4.710356   2.752536
    14  H    4.165849   4.754776   4.816300   4.369280   2.736638
    15  C    5.112663   5.333798   6.037272   5.208908   3.887256
    16  H    6.021223   6.320425   6.877339   6.128298   4.697331
    17  H    5.441376   5.445982   6.418778   5.603626   4.333246
    18  H    5.113844   5.379783   6.092103   4.975976   4.086642
                    6          7          8          9         10
     6  H    0.000000
     7  H    1.764321   0.000000
     8  C    2.105252   2.155021   0.000000
     9  H    2.471150   3.080311   1.137140   0.000000
    10  O    3.349707   2.773444   1.425011   1.981411   0.000000
    11  C    2.642508   2.708864   1.514140   2.227750   2.437175
    12  H    3.453565   2.394821   1.928409   2.729364   0.950426
    13  H    2.997872   2.474200   2.148836   3.130095   2.741492
    14  H    2.389451   3.016901   2.149592   2.582742   3.374622
    15  C    4.061907   4.154733   2.511299   2.797093   2.901078
    16  H    4.690681   4.886032   3.459355   3.726006   3.967375
    17  H    4.740983   4.475191   2.912918   3.304168   2.752663
    18  H    4.214472   4.613929   2.630536   2.434367   3.038900
                   11         12         13         14         15
    11  C    0.000000
    12  H    2.827635   0.000000
    13  H    1.106989   2.777144   0.000000
    14  H    1.097064   3.761539   1.776254   0.000000
    15  C    1.542176   3.520491   2.194559   2.166175   0.000000
    16  H    2.204093   4.521343   2.663721   2.438443   1.089170
    17  H    2.231715   3.292569   2.537310   3.105619   1.097148
    18  H    2.169686   3.857756   3.091211   2.589577   1.115073
                   16         17         18
    16  H    0.000000
    17  H    1.777825   0.000000
    18  H    1.768034   1.759553   0.000000
 Stoichiometry    C5H12O
 Framework group  C1[X(C5H12O)]
 Deg. of freedom    48
 Full point group                 C1      NOp   1
 RotChk:  IX=0 Diff= 3.15D-02
 Largest Abelian subgroup         C1      NOp   1
 Largest concise Abelian subgroup C1      NOp   1
                         Standard orientation:                         
 ---------------------------------------------------------------------
 Center     Atomic      Atomic             Coordinates (Angstroms)
 Number     Number       Type             X           Y           Z
 ---------------------------------------------------------------------
      1          6           0        2.568014   -0.042563    0.232203
      2          1           0        2.682488    0.929308   -0.227416
      3          1           0        3.455773   -0.647290   -0.028456
      4          1           0        2.549163    0.093693    1.306507
      5          6           0        1.264566   -0.674034   -0.208185
      6          1           0        1.157560   -1.701923    0.192550
      7          1           0        1.243277   -0.779899   -1.309233
      8          6           0       -0.034156    0.033273    0.224075
      9          1           0        0.007692    0.151383    1.354291
     10          8           0       -0.053492    1.398380   -0.184295
     11          6           0       -1.253931   -0.721257   -0.261159
     12          1           0        0.401167    1.442947   -1.017727
     13          1           0       -1.230260   -0.777267   -1.366477
     14          1           0       -1.230308   -1.749735    0.119923
     15          6           0       -2.544631   -0.031043    0.224644
     16          1           0       -3.419246   -0.675599    0.147925
     17          1           0       -2.763308    0.922585   -0.271851
     18          1           0       -2.425247    0.218503    1.304858
 ---------------------------------------------------------------------
 Rotational constants (GHZ):           7.3420160           1.8985336           1.6446845
 Leave Link  202 at Wed Sep  7 15:33:52 2022, MaxMem=   131072000 cpu:               0.0 elap:               0.0
 (Enter /opt/g16/l301.exe)
 Standard basis: VSTO-6G (5D, 7F)
 Ernie: Thresh=  0.10000D-02 Tol=  0.10000D-05 Strict=F.
  NNHCO=     0 NNPyr=     0 NCTC=     0               EPep=         0.000000000
    EC=       127.814722241  ECS=         2.200477904   EG=         0.560680892
   EHC=         0.000000000  EAt=       -36.836480110  AtH=         2.452923921
 EPDDG=         0.000000000  ECC=       130.575881037 EAtT=        39.289404030
 There are    36 symmetry adapted cartesian basis functions of A   symmetry.
 There are    36 symmetry adapted basis functions of A   symmetry.
    36 basis functions,   216 primitive gaussians,    36 cartesian basis functions
    19 alpha electrons       19 beta electrons
       nuclear repulsion energy       169.8652850676 Hartrees.
 IExCor=    0 DFT=F Ex=HF Corr=None ExCW=0 ScaHFX=  1.000000
 ScaDFX=  1.000000  1.000000  1.000000  1.000000 ScalE2=  1.000000  1.000000
 IRadAn=      5 IRanWt=     -1 IRanGd=            0 ICorTp=0 IEmpDi=  4
 Integral buffers will be    131072 words long.
 Regular integral format.
 Two-electron integral symmetry is turned off.
 Leave Link  301 at Wed Sep  7 15:33:52 2022, MaxMem=   131072000 cpu:               0.0 elap:               0.0
 (Enter /opt/g16/l302.exe)
 Do NDO integrals.
 NPDir=0 NMtPBC=     1 NCelOv=     1 NCel=       1 NClECP=     1 NCelD=      1
         NCelK=      1 NCelE2=     1 NClLst=     1 CellRange=     0.0.
 One-electron integrals computed using PRISM.
 NBasis=    36 RedAO= F EigKep=  0.00D+00  NBF=    36
 NBsUse=    36 1.00D-04 EigRej=  0.00D+00 NBFU=    36
 Leave Link  302 at Wed Sep  7 15:33:52 2022, MaxMem=   131072000 cpu:               0.0 elap:               0.0
 (Enter /opt/g16/l303.exe)
 DipDrv:  MaxL=1.
 Leave Link  303 at Wed Sep  7 15:33:52 2022, MaxMem=   131072000 cpu:               0.0 elap:               0.0
 (Enter /opt/g16/l401.exe)
 Initial guess from the checkpoint file:  "MD_extract_008_gaussian.chk"
 B after Tr=     0.000000    0.000000    0.000000
         Rot=    0.999934   -0.010635   -0.001800   -0.003926 Ang=  -1.32 deg.
 Guess basis will be translated and rotated to current coordinates.
 JPrj=0 DoOrth=T DoCkMO=T.
 Leave Link  401 at Wed Sep  7 15:33:52 2022, MaxMem=   131072000 cpu:               0.1 elap:               0.0
 (Enter /opt/g16/l502.exe)
 Keep J ints in memory in canonical form, NReq=862161.
 FoFCou: FMM=F IPFlag=           0 FMFlag=           0 FMFlg1=           0
         NFxFlg=           0 DoJE=F BraDBF=F KetDBF=F FulRan=T
         wScrn=  0.000000 ICntrl=       600 IOpCl=  2 I1Cent=           0 NGrid=           0
         NMat0=    1 NMatS0=     72 NMatT0=    0 NMatD0=    1 NMtDS0=    0 NMtDT0=    0
 Symmetry not used in FoFCou.
 Two-electron integral symmetry not used.
 Closed shell SCF:
 Using DIIS extrapolation, IDIIS=  1040.
 Overlap will be assumed to be unity.
 NGot=   131072000 LenX=   131006778 LenY=   131005041
 Requested convergence on RMS density matrix=1.00D-08 within 128 cycles.
 Requested convergence on MAX density matrix=1.00D-06.
 Requested convergence on             energy=1.00D-06.
 No special actions if energy rises.

 Cycle   1  Pass 1  IDiag  1:
 E=-0.105385132971577    
 DIIS: error= 6.73D-03 at cycle   1 NSaved=   1.
 NSaved= 1 IEnMin= 1 EnMin=-0.105385132971577     IErMin= 1 ErrMin= 6.73D-03
 ErrMax= 6.73D-03  0.00D+00 EMaxC= 1.00D-01 BMatC= 2.15D-03 BMatP= 2.15D-03
 IDIUse=3 WtCom= 9.33D-01 WtEn= 6.73D-02
 Coeff-Com:  0.100D+01
 Coeff-En:   0.100D+01
 Coeff:      0.100D+01
 GapD=    2.000 DampG=2.000 DampE=1.000 DampFc=2.0000 IDamp=-1.
 RMSDP=2.09D-03 MaxDP=1.99D-02              OVMax= 0.00D+00

 Cycle   2  Pass 1  IDiag  3:
 E=-0.111820278614232     Delta-E=       -0.006435145643 Rises=F Damp=F
 DIIS: error= 2.88D-03 at cycle   2 NSaved=   2.
 NSaved= 2 IEnMin= 2 EnMin=-0.111820278614232     IErMin= 2 ErrMin= 2.88D-03
 ErrMax= 2.88D-03  0.00D+00 EMaxC= 1.00D-01 BMatC= 2.79D-04 BMatP= 2.15D-03
 IDIUse=3 WtCom= 9.71D-01 WtEn= 2.88D-02
 Coeff-Com: -0.432D+00 0.143D+01
 Coeff-En:   0.000D+00 0.100D+01
 Coeff:     -0.419D+00 0.142D+01
 Gap=     0.517 Goal=   None    Shift=    0.000
 RMSDP=1.24D-03 MaxDP=1.31D-02 DE=-6.44D-03 OVMax= 8.52D-03

 Cycle   3  Pass 1  IDiag  3:
 E=-0.113083157677181     Delta-E=       -0.001262879063 Rises=F Damp=F
 DIIS: error= 7.91D-04 at cycle   3 NSaved=   3.
 NSaved= 3 IEnMin= 3 EnMin=-0.113083157677181     IErMin= 3 ErrMin= 7.91D-04
 ErrMax= 7.91D-04  0.00D+00 EMaxC= 1.00D-01 BMatC= 1.68D-05 BMatP= 2.79D-04
 IDIUse=3 WtCom= 9.92D-01 WtEn= 7.91D-03
 Coeff-Com:  0.175D+00-0.752D+00 0.158D+01
 Coeff-En:   0.000D+00 0.000D+00 0.100D+01
 Coeff:      0.174D+00-0.746D+00 0.157D+01
 Gap=     0.517 Goal=   None    Shift=    0.000
 RMSDP=4.21D-04 MaxDP=4.16D-03 DE=-1.26D-03 OVMax= 4.43D-03

 Cycle   4  Pass 1  IDiag  3:
 E=-0.113179281196665     Delta-E=       -0.000096123519 Rises=F Damp=F
 DIIS: error= 1.67D-04 at cycle   4 NSaved=   4.
 NSaved= 4 IEnMin= 4 EnMin=-0.113179281196665     IErMin= 4 ErrMin= 1.67D-04
 ErrMax= 1.67D-04  0.00D+00 EMaxC= 1.00D-01 BMatC= 5.07D-07 BMatP= 1.68D-05
 IDIUse=3 WtCom= 9.98D-01 WtEn= 1.67D-03
 Coeff-Com: -0.787D-01 0.351D+00-0.830D+00 0.156D+01
 Coeff-En:   0.000D+00 0.000D+00 0.000D+00 0.100D+01
 Coeff:     -0.786D-01 0.350D+00-0.829D+00 0.156D+01
 Gap=     0.517 Goal=   None    Shift=    0.000
 RMSDP=7.65D-05 MaxDP=9.04D-04 DE=-9.61D-05 OVMax= 1.20D-03

 Cycle   5  Pass 1  IDiag  3:
 E=-0.113182482390982     Delta-E=       -0.000003201194 Rises=F Damp=F
 DIIS: error= 4.60D-05 at cycle   5 NSaved=   5.
 NSaved= 5 IEnMin= 5 EnMin=-0.113182482390982     IErMin= 5 ErrMin= 4.60D-05
 ErrMax= 4.60D-05  0.00D+00 EMaxC= 1.00D-01 BMatC= 3.35D-08 BMatP= 5.07D-07
 IDIUse=1 WtCom= 1.00D+00 WtEn= 0.00D+00
 Coeff-Com:  0.376D-01-0.169D+00 0.412D+00-0.928D+00 0.165D+01
 Coeff:      0.376D-01-0.169D+00 0.412D+00-0.928D+00 0.165D+01
 Gap=     0.517 Goal=   None    Shift=    0.000
 RMSDP=2.14D-05 MaxDP=2.75D-04 DE=-3.20D-06 OVMax= 3.39D-04

 Cycle   6  Pass 1  IDiag  3:
 E=-0.113182707365553     Delta-E=       -0.000000224975 Rises=F Damp=F
 DIIS: error= 8.17D-06 at cycle   6 NSaved=   6.
 NSaved= 6 IEnMin= 6 EnMin=-0.113182707365553     IErMin= 6 ErrMin= 8.17D-06
 ErrMax= 8.17D-06  0.00D+00 EMaxC= 1.00D-01 BMatC= 1.59D-09 BMatP= 3.35D-08
 IDIUse=1 WtCom= 1.00D+00 WtEn= 0.00D+00
 Coeff-Com: -0.108D-01 0.491D-01-0.121D+00 0.288D+00-0.671D+00 0.147D+01
 Coeff:     -0.108D-01 0.491D-01-0.121D+00 0.288D+00-0.671D+00 0.147D+01
 Gap=     0.517 Goal=   None    Shift=    0.000
 RMSDP=4.52D-06 MaxDP=5.70D-05 DE=-2.25D-07 OVMax= 6.19D-05

 Cycle   7  Pass 1  IDiag  3:
 E=-0.113182717306302     Delta-E=       -0.000000009941 Rises=F Damp=F
 DIIS: error= 1.32D-06 at cycle   7 NSaved=   7.
 NSaved= 7 IEnMin= 7 EnMin=-0.113182717306302     IErMin= 7 ErrMin= 1.32D-06
 ErrMax= 1.32D-06  0.00D+00 EMaxC= 1.00D-01 BMatC= 6.61D-11 BMatP= 1.59D-09
 IDIUse=1 WtCom= 1.00D+00 WtEn= 0.00D+00
 Coeff-Com:  0.280D-02-0.127D-01 0.312D-01-0.759D-01 0.190D+00-0.541D+00
 Coeff-Com:  0.140D+01
 Coeff:      0.280D-02-0.127D-01 0.312D-01-0.759D-01 0.190D+00-0.541D+00
 Coeff:      0.140D+01
 Gap=     0.517 Goal=   None    Shift=    0.000
 RMSDP=8.23D-07 MaxDP=9.09D-06 DE=-9.94D-09 OVMax= 7.69D-06

 Cycle   8  Pass 1  IDiag  3:
 E=-0.113182717701022     Delta-E=       -0.000000000395 Rises=F Damp=F
 DIIS: error= 3.43D-07 at cycle   8 NSaved=   8.
 NSaved= 8 IEnMin= 8 EnMin=-0.113182717701022     IErMin= 8 ErrMin= 3.43D-07
 ErrMax= 3.43D-07  0.00D+00 EMaxC= 1.00D-01 BMatC= 4.65D-12 BMatP= 6.61D-11
 IDIUse=1 WtCom= 1.00D+00 WtEn= 0.00D+00
 Coeff-Com: -0.760D-03 0.344D-02-0.851D-02 0.209D-01-0.538D-01 0.167D+00
 Coeff-Com: -0.619D+00 0.149D+01
 Coeff:     -0.760D-03 0.344D-02-0.851D-02 0.209D-01-0.538D-01 0.167D+00
 Coeff:     -0.619D+00 0.149D+01
 Gap=     0.517 Goal=   None    Shift=    0.000
 RMSDP=2.39D-07 MaxDP=2.29D-06 DE=-3.95D-10 OVMax= 1.56D-06

 Cycle   9  Pass 1  IDiag  3:
 E=-0.113182717731860     Delta-E=       -0.000000000031 Rises=F Damp=F
 DIIS: error= 1.13D-07 at cycle   9 NSaved=   9.
 NSaved= 9 IEnMin= 9 EnMin=-0.113182717731860     IErMin= 9 ErrMin= 1.13D-07
 ErrMax= 1.13D-07  0.00D+00 EMaxC= 1.00D-01 BMatC= 3.70D-13 BMatP= 4.65D-12
 IDIUse=1 WtCom= 1.00D+00 WtEn= 0.00D+00
 Coeff-Com:  0.192D-03-0.870D-03 0.217D-02-0.550D-02 0.148D-01-0.502D-01
 Coeff-Com:  0.226D+00-0.765D+00 0.158D+01
 Coeff:      0.192D-03-0.870D-03 0.217D-02-0.550D-02 0.148D-01-0.502D-01
 Coeff:      0.226D+00-0.765D+00 0.158D+01
 Gap=     0.517 Goal=   None    Shift=    0.000
 RMSDP=7.51D-08 MaxDP=7.18D-07 DE=-3.08D-11 OVMax= 7.33D-07

 Cycle  10  Pass 1  IDiag  3:
 E=-0.113182717734674     Delta-E=       -0.000000000003 Rises=F Damp=F
 DIIS: error= 3.21D-08 at cycle  10 NSaved=  10.
 NSaved=10 IEnMin=10 EnMin=-0.113182717734674     IErMin=10 ErrMin= 3.21D-08
 ErrMax= 3.21D-08  0.00D+00 EMaxC= 1.00D-01 BMatC= 3.01D-14 BMatP= 3.70D-13
 IDIUse=1 WtCom= 1.00D+00 WtEn= 0.00D+00
 Coeff-Com: -0.392D-04 0.179D-03-0.454D-03 0.123D-02-0.362D-02 0.139D-01
 Coeff-Com: -0.727D-01 0.291D+00-0.844D+00 0.161D+01
 Coeff:     -0.392D-04 0.179D-03-0.454D-03 0.123D-02-0.362D-02 0.139D-01
 Coeff:     -0.727D-01 0.291D+00-0.844D+00 0.161D+01
 Gap=     0.517 Goal=   None    Shift=    0.000
 RMSDP=2.35D-08 MaxDP=2.24D-07 DE=-2.81D-12 OVMax= 2.72D-07

 Cycle  11  Pass 1  IDiag  3:
 E=-0.113182717734958     Delta-E=       -0.000000000000 Rises=F Damp=F
 DIIS: error= 5.66D-09 at cycle  11 NSaved=  11.
 NSaved=11 IEnMin=11 EnMin=-0.113182717734958     IErMin=11 ErrMin= 5.66D-09
 ErrMax= 5.66D-09  0.00D+00 EMaxC= 1.00D-01 BMatC= 1.61D-15 BMatP= 3.01D-14
 IDIUse=1 WtCom= 1.00D+00 WtEn= 0.00D+00
 Coeff-Com:  0.507D-05-0.236D-04 0.629D-04-0.200D-03 0.723D-03-0.343D-02
 Coeff-Com:  0.211D-01-0.939D-01 0.309D+00-0.780D+00 0.155D+01
 Coeff:      0.507D-05-0.236D-04 0.629D-04-0.200D-03 0.723D-03-0.343D-02
 Coeff:      0.211D-01-0.939D-01 0.309D+00-0.780D+00 0.155D+01
 Gap=     0.517 Goal=   None    Shift=    0.000
 RMSDP=5.31D-09 MaxDP=4.35D-08 DE=-2.84D-13 OVMax= 6.04D-08

 Cycle  12  Pass 2  IDiag  1:
 SCF Done:  E(RPM3) = -0.113182717735     A.U. after   12 cycles
            NFock= 11  Conv=0.53D-08     -V/T= 0.9981
 KE=-5.967388444733D+01 PE=-2.541860122388D+02 EE= 1.438814289008D+02
 Leave Link  502 at Wed Sep  7 15:33:52 2022, MaxMem=   131072000 cpu:               0.0 elap:               0.0
 (Enter /opt/g16/l701.exe)
 ... and contract with generalized density number  0.
 Compute integral first derivatives.
 Leave Link  701 at Wed Sep  7 15:33:52 2022, MaxMem=   131072000 cpu:               0.0 elap:               0.0
 (Enter /opt/g16/l702.exe)
 L702 exits ... SP integral derivatives will be done elsewhere.
 Leave Link  702 at Wed Sep  7 15:33:52 2022, MaxMem=   131072000 cpu:               0.0 elap:               0.0
 (Enter /opt/g16/l703.exe)
 Integral derivatives from FoFJK, PRISM(SPDF).
 Compute integral first derivatives, UseDBF=F ICtDFT=           0.
 Calling FoFJK, ICntrl=      2127 FMM=F ISym2X=0 I1Cent= 0 IOpClX= 0 NMat=1 NMatS=1 NMatT=0.
 FoFJK:  IHMeth= 9 ICntrl=    2127 DoSepK=F KAlg= 0 I1Cent=           0 FoldK=F
 IRaf=         0 NMat=       1 IRICut=       1 DoRegI=T DoRafI=F ISym2E= 0 IDoP0=3 IntGTp=3.
 FoFCou: FMM=F IPFlag=           0 FMFlag=      100000 FMFlg1=         800
         NFxFlg=           0 DoJE=F BraDBF=F KetDBF=F FulRan=T
         wScrn=  0.000000 ICntrl=      2127 IOpCl=  0 I1Cent=           0 NGrid=           0
         NMat0=    1 NMatS0=      1 NMatT0=    0 NMatD0=    1 NMtDS0=    0 NMtDT0=    0
 Symmetry not used in FoFCou.
 Leave Link  703 at Wed Sep  7 15:33:52 2022, MaxMem=   131072000 cpu:               0.0 elap:               0.0
 (Enter /opt/g16/l716.exe)
 Dipole        = 2.64603806D-01-4.90079627D-01-2.68960569D-01
 ***** Axes restored to original set *****
 -------------------------------------------------------------------
 Center     Atomic                   Forces (Hartrees/Bohr)
 Number     Number              X              Y              Z
 -------------------------------------------------------------------
      1        6          -0.008389284    0.002253413   -0.009969016
      2        1           0.005651490    0.005931679    0.008714209
      3        1          -0.005909338    0.002169171    0.000879784
      4        1          -0.000334545   -0.009580139    0.005154451
      5        6          -0.004852367    0.002364467   -0.013288415
      6        1           0.005746012   -0.002033708   -0.001266785
      7        1           0.003480330    0.000790659   -0.001727790
      8        6           0.019953529   -0.016215572    0.028537811
      9        1          -0.002346941    0.010646537   -0.005887705
     10        8          -0.000256415   -0.002675445   -0.006666757
     11        6          -0.020094502    0.013500108    0.011207173
     12        1          -0.003098921    0.001358832    0.000661525
     13        1          -0.002558630    0.000389879   -0.001666143
     14        1          -0.000154897   -0.002706907   -0.004883901
     15        6           0.011693898   -0.017943361    0.002453201
     16        1          -0.001102204    0.003041642   -0.003891868
     17        1           0.002959163    0.001561074   -0.003595606
     18        1          -0.000386377    0.007147670   -0.004764168
 -------------------------------------------------------------------
 Cartesian Forces:  Max     0.028537811 RMS     0.008355807
 Leave Link  716 at Wed Sep  7 15:33:52 2022, MaxMem=   131072000 cpu:               0.0 elap:               0.0
 (Enter /opt/g16/l103.exe)

 GradGradGradGradGradGradGradGradGradGradGradGradGradGradGradGradGradGrad
 Berny optimization.
 Using GEDIIS/GDIIS optimizer.
 FormGI is forming the generalized inverse of G from B-inverse, IUseBI=4.
 Internal  Forces:  Max     0.017093248 RMS     0.004416918
 Search for a local minimum.
 Step number   2 out of a maximum of   97
 All quantities printed in internal units (Hartrees-Bohrs-Radians)
 RMS Force = .44169D-02 SwitMx=.10000D-02 MixMth= 1
 Mixed Optimization -- RFO/linear search
 Update second derivatives using D2CorX and points    1    2
 DE= -2.69D-02 DEPred=-3.29D-02 R= 8.18D-01
 TightC=F SS=  1.41D+00  RLast= 3.36D-01 DXNew= 5.0454D-01 1.0091D+00
 Trust test= 8.18D-01 RLast= 3.36D-01 DXMaxT set to 5.05D-01
 ITU=  1  0
 Use linear search instead of GDIIS.
     Eigenvalues ---    0.00230   0.00533   0.01044   0.01409   0.01838
     Eigenvalues ---    0.03475   0.04099   0.04770   0.04871   0.04960
     Eigenvalues ---    0.05176   0.05256   0.05457   0.05646   0.05907
     Eigenvalues ---    0.07958   0.08331   0.09388   0.12042   0.12784
     Eigenvalues ---    0.15669   0.16000   0.16000   0.16000   0.16000
     Eigenvalues ---    0.16000   0.16739   0.18153   0.20299   0.21033
     Eigenvalues ---    0.21929   0.24152   0.28111   0.30013   0.30570
     Eigenvalues ---    0.31596   0.33124   0.33333   0.33406   0.34350
     Eigenvalues ---    0.35260   0.35484   0.36256   0.38458   0.39209
     Eigenvalues ---    0.41379   0.56445   0.61189
 RFO step:  Lambda=-7.53897787D-03 EMin= 2.29997318D-03
 Quartic linear search produced a step of  0.29745.
 Iteration  1 RMS(Cart)=  0.03857605 RMS(Int)=  0.00154121
 Iteration  2 RMS(Cart)=  0.00156188 RMS(Int)=  0.00085703
 Iteration  3 RMS(Cart)=  0.00000204 RMS(Int)=  0.00085703
 Iteration  4 RMS(Cart)=  0.00000001 RMS(Int)=  0.00085703
 ITry= 1 IFail=0 DXMaxC= 1.02D-01 DCOld= 1.00D+10 DXMaxT= 5.05D-01 DXLimC= 3.00D+00 Rises=F
 Variable       Old X    -DE/DX   Delta X   Delta X   Delta X     New X
                                 (Linear)    (Quad)   (Total)
    R1        2.04308   0.01170   0.01559   0.02032   0.03591   2.07899
    R2        2.08877  -0.00575  -0.00771  -0.01416  -0.02187   2.06690
    R3        2.04671   0.01026   0.01385   0.01817   0.03202   2.07873
    R4        2.86072  -0.00427  -0.00213  -0.01514  -0.01727   2.84345
    R5        2.09461   0.00053   0.00329  -0.00169   0.00160   2.09621
    R6        2.09066   0.00255   0.00697   0.00155   0.00852   2.09918
    R7        2.91153   0.00113   0.03466  -0.03479  -0.00013   2.91141
    R8        2.14888  -0.01080  -0.00917  -0.03730  -0.04647   2.10241
    R9        2.69288  -0.00611   0.02004  -0.03821  -0.01817   2.67471
   R10        2.86131   0.01168   0.03529  -0.00041   0.03488   2.89619
   R11        1.79605  -0.00168   0.00422  -0.00813  -0.00392   1.79213
   R12        2.09191   0.00001   0.00106  -0.00117  -0.00012   2.09179
   R13        2.07315   0.00545   0.00672   0.01192   0.01864   2.09179
   R14        2.91429  -0.01709  -0.02584  -0.05659  -0.08243   2.83186
   R15        2.05823   0.00375   0.00287   0.01014   0.01302   2.07125
   R16        2.07331  -0.00107  -0.00340  -0.00023  -0.00363   2.06968
   R17        2.10718  -0.00827  -0.01075  -0.02225  -0.03300   2.07419
    A1        1.88232   0.00013  -0.00073  -0.00516  -0.00552   1.87680
    A2        1.88644  -0.00257  -0.00030  -0.00373  -0.00568   1.88077
    A3        1.92034   0.00380   0.00852   0.02192   0.02974   1.95008
    A4        1.89306  -0.00081  -0.00162  -0.01119  -0.01221   1.88085
    A5        1.97657  -0.00596  -0.01381  -0.03583  -0.04914   1.92743
    A6        1.90291   0.00536   0.00842   0.03423   0.04206   1.94497
    A7        1.94419  -0.00074  -0.01000  -0.01411  -0.02239   1.92180
    A8        1.92411   0.00273  -0.00201   0.00348   0.00234   1.92645
    A9        2.04056  -0.01359  -0.01263  -0.06264  -0.07476   1.96580
   A10        1.84337  -0.00212  -0.00204   0.00098  -0.00358   1.83979
   A11        1.81617   0.00897   0.01713   0.05296   0.06829   1.88446
   A12        1.88276   0.00601   0.01207   0.02752   0.03814   1.92090
   A13        1.87079   0.00277  -0.00120   0.04037   0.03838   1.90916
   A14        1.95068   0.00429   0.02035   0.00826   0.02811   1.97879
   A15        1.93947  -0.00275   0.00294  -0.02396  -0.02069   1.91878
   A16        1.75771   0.00028  -0.00115   0.01821   0.01533   1.77304
   A17        1.98223  -0.00192  -0.00901  -0.02701  -0.03585   1.94638
   A18        1.95477  -0.00204  -0.01085  -0.00983  -0.02085   1.93391
   A19        1.86474   0.00247   0.03652  -0.02703   0.00949   1.87422
   A20        1.90495   0.00018   0.00597   0.00832   0.01453   1.91949
   A21        1.91612  -0.00191   0.00150  -0.01057  -0.00895   1.90717
   A22        1.92863   0.00569   0.01048   0.02599   0.03638   1.96501
   A23        1.87439   0.00016  -0.00139  -0.01596  -0.01777   1.85661
   A24        1.93379  -0.00307  -0.00972  -0.01035  -0.02079   1.91300
   A25        1.90517  -0.00124  -0.00682   0.00120  -0.00589   1.89928
   A26        1.96603  -0.00266  -0.00580  -0.02386  -0.03129   1.93474
   A27        1.99684  -0.00590  -0.01184  -0.03943  -0.05252   1.94433
   A28        1.89201   0.00525   0.00898   0.04816   0.05777   1.94978
   A29        1.89911   0.00221   0.00317  -0.01669  -0.01681   1.88230
   A30        1.86152   0.00007   0.00234   0.01403   0.01663   1.87815
   A31        1.83921   0.00175   0.00526   0.02592   0.03209   1.87130
    D1        3.07091  -0.00204  -0.00966  -0.01596  -0.02673   3.04418
    D2        1.03037  -0.00068   0.00064  -0.01071  -0.01028   1.02009
    D3       -1.12770  -0.00061  -0.00427  -0.00237  -0.00690  -1.13460
    D4        0.96299  -0.00089  -0.00562  -0.00068  -0.00694   0.95604
    D5       -1.07755   0.00047   0.00468   0.00457   0.00951  -1.06804
    D6        3.04756   0.00054  -0.00023   0.01291   0.01289   3.06045
    D7       -1.14626   0.00028  -0.00056   0.01297   0.01241  -1.13385
    D8        3.09639   0.00165   0.00974   0.01822   0.02886   3.12525
    D9        0.93832   0.00172   0.00483   0.02655   0.03224   0.97056
   D10       -0.94651  -0.00148  -0.00258  -0.01797  -0.02064  -0.96715
   D11        0.96372   0.00233   0.00469   0.02880   0.03415   0.99787
   D12       -3.12172   0.00080   0.00762   0.00362   0.01178  -3.10994
   D13        1.20527  -0.00411  -0.00986  -0.03491  -0.04671   1.15856
   D14        3.11550  -0.00030  -0.00258   0.01186   0.00807   3.12358
   D15       -0.96994  -0.00183   0.00034  -0.01332  -0.01430  -0.98423
   D16       -3.12557  -0.00008  -0.00092   0.00090   0.00065  -3.12492
   D17       -1.21534   0.00374   0.00636   0.04767   0.05543  -1.15990
   D18        0.98241   0.00221   0.00928   0.02249   0.03306   1.01547
   D19        0.59691  -0.00075   0.00926   0.02635   0.03523   0.63214
   D20        2.57851   0.00419   0.01471   0.08502   0.09993   2.67844
   D21       -1.59242   0.00115  -0.00221   0.05941   0.05739  -1.53503
   D22       -1.04854  -0.00062  -0.01121   0.00608  -0.00480  -1.05334
   D23        1.00160  -0.00142  -0.00861  -0.01448  -0.02306   0.97854
   D24        3.10395  -0.00057  -0.00954  -0.00324  -0.01290   3.09105
   D25        3.12376  -0.00082  -0.00536  -0.00955  -0.01461   3.10915
   D26       -1.10929  -0.00162  -0.00276  -0.03010  -0.03287  -1.14216
   D27        0.99306  -0.00078  -0.00369  -0.01887  -0.02270   0.97036
   D28        1.14694   0.00136   0.00978  -0.00914   0.00075   1.14769
   D29       -3.08611   0.00055   0.01238  -0.02969  -0.01751  -3.10361
   D30       -0.98376   0.00140   0.01145  -0.01846  -0.00734  -0.99110
   D31       -2.85635  -0.00174  -0.00500  -0.06176  -0.06596  -2.92231
   D32        1.24586   0.00235   0.00615   0.01393   0.01883   1.26469
   D33       -0.80062   0.00015   0.00034  -0.02747  -0.02711  -0.82773
   D34        1.31318  -0.00373  -0.01325  -0.08274  -0.09474   1.21844
   D35       -0.86780   0.00037  -0.00210  -0.00706  -0.00995  -0.87774
   D36       -2.91428  -0.00183  -0.00791  -0.04846  -0.05588  -2.97017
   D37       -0.74747  -0.00133  -0.00083  -0.05776  -0.05783  -0.80530
   D38       -2.92844   0.00276   0.01032   0.01793   0.02696  -2.90148
   D39        1.30826   0.00057   0.00450  -0.02348  -0.01898   1.28928
         Item               Value     Threshold  Converged?
 Maximum Force            0.017093     0.000450     NO 
 RMS     Force            0.004417     0.000300     NO 
 Maximum Displacement     0.102230     0.001800     NO 
 RMS     Displacement     0.038744     0.001200     NO 
 Predicted change in Energy=-4.926323D-03
 Lowest energy point so far.  Saving SCF results.
 GradGradGradGradGradGradGradGradGradGradGradGradGradGradGradGradGradGrad

[...]
 ! A18   A(10,8,11)            112.123          -DE/DX =    0.0                 !
 ! A19   A(8,10,12)            107.3442         -DE/DX =    0.0                 !
 ! A20   A(8,11,13)            110.0222         -DE/DX =    0.0                 !
 ! A21   A(8,11,14)            108.9885         -DE/DX =    0.0                 !
 ! A22   A(8,11,15)            112.2681         -DE/DX =    0.0                 !
 ! A23   A(13,11,14)           105.6125         -DE/DX =    0.0                 !
 ! A24   A(13,11,15)           110.0944         -DE/DX =    0.0                 !
 ! A25   A(14,11,15)           109.6321         -DE/DX =    0.0                 !
 ! A26   A(11,15,16)           111.1845         -DE/DX =    0.0                 !
 ! A27   A(11,15,17)           111.7054         -DE/DX =    0.0                 !
 ! A28   A(11,15,18)           111.5733         -DE/DX =    0.0                 !
 ! A29   A(16,15,17)           107.4627         -DE/DX =    0.0                 !
 ! A30   A(16,15,18)           107.4517         -DE/DX =    0.0                 !
 ! A31   A(17,15,18)           107.2306         -DE/DX =    0.0                 !
 ! D1    D(2,1,5,6)            178.5128         -DE/DX =    0.0                 !
 ! D2    D(2,1,5,7)             62.7429         -DE/DX =    0.0                 !
 ! D3    D(2,1,5,8)            -60.2022         -DE/DX =    0.0                 !
 ! D4    D(3,1,5,6)             58.4695         -DE/DX =    0.0                 !
 ! D5    D(3,1,5,7)            -57.3003         -DE/DX =    0.0                 !
 ! D6    D(3,1,5,8)            179.7545         -DE/DX =    0.0                 !
 ! D7    D(4,1,5,6)            -61.472          -DE/DX =    0.0                 !
 ! D8    D(4,1,5,7)           -177.2419         -DE/DX =    0.0                 !
 ! D9    D(4,1,5,8)             59.813          -DE/DX =    0.0                 !
 ! D10   D(1,5,8,9)            -48.8892         -DE/DX =    0.0                 !
 ! D11   D(1,5,8,10)            63.562          -DE/DX =    0.0                 !
 ! D12   D(1,5,8,11)          -171.0161         -DE/DX =    0.0                 !
 ! D13   D(6,5,8,9)             72.7625         -DE/DX =    0.0                 !
 ! D14   D(6,5,8,10)          -174.7863         -DE/DX =    0.0                 !
 ! D15   D(6,5,8,11)           -49.3644         -DE/DX =    0.0                 !
 ! D16   D(7,5,8,9)           -171.8746         -DE/DX =    0.0                 !
 ! D17   D(7,5,8,10)           -59.4233         -DE/DX =    0.0                 !
 ! D18   D(7,5,8,11)            65.9986         -DE/DX =    0.0                 !
 ! D19   D(5,8,10,12)           62.0348         -DE/DX =    0.0                 !
 ! D20   D(9,8,10,12)          179.9433         -DE/DX =    0.0                 !
 ! D21   D(11,8,10,12)         -62.1566         -DE/DX =    0.0                 !
 ! D22   D(5,8,11,13)          -66.1271         -DE/DX =    0.0                 !
 ! D23   D(5,8,11,14)           49.2339         -DE/DX =    0.0                 !
 ! D24   D(5,8,11,15)          170.8922         -DE/DX =    0.0                 !
 ! D25   D(9,8,11,13)          171.7447         -DE/DX =    0.0                 !
 ! D26   D(9,8,11,14)          -72.8943         -DE/DX =    0.0                 !
 ! D27   D(9,8,11,15)           48.764          -DE/DX =    0.0                 !
 ! D28   D(10,8,11,13)          59.3022         -DE/DX =    0.0                 !
 ! D29   D(10,8,11,14)         174.6632         -DE/DX =    0.0                 !
 ! D30   D(10,8,11,15)         -63.6785         -DE/DX =    0.0                 !
 ! D31   D(8,11,15,16)        -179.7864         -DE/DX =    0.0                 !
 ! D32   D(8,11,15,17)          60.1696         -DE/DX =    0.0                 !
 ! D33   D(8,11,15,18)         -59.8456         -DE/DX =    0.0                 !
 ! D34   D(13,11,15,16)         57.2736         -DE/DX =    0.0                 !
 ! D35   D(13,11,15,17)        -62.7705         -DE/DX =    0.0                 !
 ! D36   D(13,11,15,18)        177.2144         -DE/DX =    0.0                 !
 ! D37   D(14,11,15,16)        -58.4964         -DE/DX =    0.0                 !
 ! D38   D(14,11,15,17)       -178.5405         -DE/DX =    0.0                 !
 ! D39   D(14,11,15,18)         61.4444         -DE/DX =    0.0                 !
 --------------------------------------------------------------------------------
 Lowest energy point so far.  Saving SCF results.
 Largest change from initial coordinates is atom   12       0.503 Angstoms.
 GradGradGradGradGradGradGradGradGradGradGradGradGradGradGradGradGradGrad

 Leave Link  103 at Wed Sep  7 15:33:56 2022, MaxMem=   131072000 cpu:               0.0 elap:               0.0
 (Enter /opt/g16/l202.exe)
                          Input orientation:                          
 ---------------------------------------------------------------------
 Center     Atomic      Atomic             Coordinates (Angstroms)
 Number     Number       Type             X           Y           Z
 ---------------------------------------------------------------------
      1          6           0       11.196836    3.892834    4.306761
      2          1           0       11.539146    4.496182    5.158038
      3          1           0       12.081161    3.631523    3.711545
      4          1           0       10.786217    2.959196    4.713962
      5          6           0       10.175916    4.631614    3.472607
      6          1           0        9.874945    4.003777    2.610686
      7          1           0       10.630064    5.543042    3.033816
      8          6           0        8.921579    5.005276    4.281963
      9          1           0        8.543366    4.120705    4.845118
     10          8           0        9.213053    5.902156    5.329341
     11          6           0        7.832994    5.548712    3.339710
     12          1           0        9.548034    6.698349    4.935204
     13          1           0        8.160797    6.510384    2.895597
     14          1           0        7.713660    4.851657    2.486755
     15          6           0        6.505641    5.725961    4.040133
     16          1           0        5.742123    6.110269    3.351710
     17          1           0        6.579564    6.432210    4.877766
     18          1           0        6.133903    4.776152    4.447286
 ---------------------------------------------------------------------
                    Distance matrix (angstroms):
                    1          2          3          4          5
     1  C    0.000000
     2  H    1.098125   0.000000
     3  H    1.097541   1.770242   0.000000
     4  H    1.098225   1.768172   1.770238   0.000000
     5  C    1.511254   2.171961   2.165001   2.170348   0.000000
     6  H    2.153224   3.082373   2.493561   2.518994   1.108003
     7  H    2.159816   2.536663   2.493772   3.086022   1.108823
     8  C    2.532772   2.806838   3.492210   2.801774   1.538844
     9  H    2.717104   3.035392   3.747036   2.529167   2.193179
    10  O    3.003072   2.723383   3.999885   3.393310   2.447211
    11  C    3.872022   4.260246   4.675553   4.161212   2.519526
    12  H    3.314273   2.977201   4.161670   3.945037   2.608605
    13  H    4.249763   4.537498   4.931821   4.776004   2.814857
    14  H    4.045278   4.679365   4.697222   4.240573   2.661395
    15  C    5.043684   5.300777   5.964986   5.141241   3.871769
    16  H    5.965151   6.282800   6.815941   6.101464   4.675420
    17  H    5.300347   5.331436   6.282633   5.457525   4.260324
    18  H    5.141331   5.458956   6.100931   5.001646   4.160379
                    6          7          8          9         10
     6  H    0.000000
     7  H    1.765950   0.000000
     8  C    2.169118   2.183114   0.000000
     9  H    2.603740   3.107759   1.114744   0.000000
    10  O    3.381276   2.721455   1.409380   1.963803   0.000000
    11  C    2.662305   2.813753   1.538890   2.193190   2.447063
    12  H    3.573650   2.474025   1.919809   2.767982   0.949462
    13  H    3.050009   2.655586   2.183152   3.107661   2.720348
    14  H    2.324954   3.046753   2.169203   2.604722   3.381128
    15  C    4.044928   4.249353   2.532711   2.716094   3.003861
    16  H    4.697514   4.931001   3.492180   3.746410   4.000211
    17  H    4.679367   4.538427   2.806449   3.033255   2.723993
    18  H    4.238521   4.775090   2.801958   2.528515   3.395154
                   11         12         13         14         15
    11  C    0.000000
    12  H    2.609335   0.000000
    13  H    1.108830   2.473814   0.000000
    14  H    1.107998   3.573528   1.765916   0.000000
    15  C    1.511249   3.317053   2.159820   2.153300   0.000000
    16  H    2.165001   4.163922   2.493615   2.493834   1.097533
    17  H    2.171927   2.980929   2.536810   3.082411   1.098126
    18  H    2.170365   3.948315   3.086033   2.518932   1.098226
                   16         17         18
    16  H    0.000000
    17  H    1.770254   0.000000
    18  H    1.770210   1.768178   0.000000
 Stoichiometry    C5H12O
 Framework group  C1[X(C5H12O)]
 Deg. of freedom    48
 Full point group                 C1      NOp   1
 RotChk:  IX=0 Diff= 4.40D-15
 Largest Abelian subgroup         C1      NOp   1
 Largest concise Abelian subgroup C1      NOp   1
                         Standard orientation:                         
 ---------------------------------------------------------------------
 Center     Atomic      Atomic             Coordinates (Angstroms)
 Number     Number       Type             X           Y           Z
 ---------------------------------------------------------------------
      1          6           0        2.521801   -0.109846    0.323112
      2          1           0        2.665879    0.952990    0.087528
      3          1           0        3.407809   -0.649596   -0.035017
      4          1           0        2.500814   -0.200557    1.417384
      5          6           0        1.259583   -0.655268   -0.303952
      6          1           0        1.162294   -1.733324   -0.067312
      7          1           0        1.327459   -0.597230   -1.409173
      8          6           0       -0.000083    0.080462    0.185929
      9          1           0       -0.000518    0.154164    1.298234
     10          8           0        0.000382    1.439820   -0.186222
     11          6           0       -1.259943   -0.654362   -0.304957
     12          1           0        0.001672    1.473510   -1.135086
     13          1           0       -1.328125   -0.594287   -1.410057
     14          1           0       -1.162658   -1.732867   -0.070387
     15          6           0       -2.521884   -0.109881    0.323470
     16          1           0       -3.408133   -0.648499   -0.035741
     17          1           0       -2.665556    0.953534    0.090254
     18          1           0       -2.500832   -0.203032    1.417535
 ---------------------------------------------------------------------
 Rotational constants (GHZ):           6.9943576           1.9134447           1.6689594
 Leave Link  202 at Wed Sep  7 15:33:56 2022, MaxMem=   131072000 cpu:               0.0 elap:               0.0
 (Enter /opt/g16/l601.exe)
 Copying SCF densities to generalized density rwf, IOpCl= 0 IROHF=0.

 **********************************************************************

            Population analysis using the SCF density.

 **********************************************************************

 Orbital symmetries:
       Occupied  (A) (A) (A) (A) (A) (A) (A) (A) (A) (A) (A) (A)
                 (A) (A) (A) (A) (A) (A) (A)
       Virtual   (A) (A) (A) (A) (A) (A) (A) (A) (A) (A) (A) (A)
                 (A) (A) (A) (A) (A)
 The electronic state is 1-A.
 Alpha  occ. eigenvalues --   -1.48603  -1.24178  -1.21240  -0.94872  -0.78948
 Alpha  occ. eigenvalues --   -0.78590  -0.62882  -0.61513  -0.59182  -0.55240
 Alpha  occ. eigenvalues --   -0.53179  -0.51801  -0.48671  -0.48488  -0.46943
 Alpha  occ. eigenvalues --   -0.44126  -0.43610  -0.43402  -0.40749
 Alpha virt. eigenvalues --    0.11336   0.12739   0.13405   0.13924   0.14084
 Alpha virt. eigenvalues --    0.14274   0.14686   0.15319   0.15745   0.16148
 Alpha virt. eigenvalues --    0.17204   0.17295   0.17465   0.17617   0.18357
 Alpha virt. eigenvalues --    0.18526   0.21322
          Condensed to atoms (all electrons):
               1          2          3          4          5          6
     1  C    4.107023   0.000000   0.000000   0.000000   0.000000   0.000000
     2  H    0.000000   0.952073   0.000000   0.000000   0.000000   0.000000
     3  H    0.000000   0.000000   0.963922   0.000000   0.000000   0.000000
     4  H    0.000000   0.000000   0.000000   0.959900   0.000000   0.000000
     5  C    0.000000   0.000000   0.000000   0.000000   4.132975   0.000000
     6  H    0.000000   0.000000   0.000000   0.000000   0.000000   0.944296
     7  H    0.000000   0.000000   0.000000   0.000000   0.000000   0.000000
     8  C    0.000000   0.000000   0.000000   0.000000   0.000000   0.000000
     9  H    0.000000   0.000000   0.000000   0.000000   0.000000   0.000000
    10  O    0.000000   0.000000   0.000000   0.000000   0.000000   0.000000
    11  C    0.000000   0.000000   0.000000   0.000000   0.000000   0.000000
    12  H    0.000000   0.000000   0.000000   0.000000   0.000000   0.000000
    13  H    0.000000   0.000000   0.000000   0.000000   0.000000   0.000000
    14  H    0.000000   0.000000   0.000000   0.000000   0.000000   0.000000
    15  C    0.000000   0.000000   0.000000   0.000000   0.000000   0.000000
    16  H    0.000000   0.000000   0.000000   0.000000   0.000000   0.000000
    17  H    0.000000   0.000000   0.000000   0.000000   0.000000   0.000000
    18  H    0.000000   0.000000   0.000000   0.000000   0.000000   0.000000
               7          8          9         10         11         12
     1  C    0.000000   0.000000   0.000000   0.000000   0.000000   0.000000
     2  H    0.000000   0.000000   0.000000   0.000000   0.000000   0.000000
     3  H    0.000000   0.000000   0.000000   0.000000   0.000000   0.000000
     4  H    0.000000   0.000000   0.000000   0.000000   0.000000   0.000000
     5  C    0.000000   0.000000   0.000000   0.000000   0.000000   0.000000
     6  H    0.000000   0.000000   0.000000   0.000000   0.000000   0.000000
     7  H    0.951038   0.000000   0.000000   0.000000   0.000000   0.000000
     8  C    0.000000   3.929703   0.000000   0.000000   0.000000   0.000000
     9  H    0.000000   0.000000   0.924497   0.000000   0.000000   0.000000
    10  O    0.000000   0.000000   0.000000   6.304934   0.000000   0.000000
    11  C    0.000000   0.000000   0.000000   0.000000   4.132958   0.000000
    12  H    0.000000   0.000000   0.000000   0.000000   0.000000   0.818409
    13  H    0.000000   0.000000   0.000000   0.000000   0.000000   0.000000
    14  H    0.000000   0.000000   0.000000   0.000000   0.000000   0.000000
    15  C    0.000000   0.000000   0.000000   0.000000   0.000000   0.000000
    16  H    0.000000   0.000000   0.000000   0.000000   0.000000   0.000000
    17  H    0.000000   0.000000   0.000000   0.000000   0.000000   0.000000
    18  H    0.000000   0.000000   0.000000   0.000000   0.000000   0.000000
              13         14         15         16         17         18
     1  C    0.000000   0.000000   0.000000   0.000000   0.000000   0.000000
     2  H    0.000000   0.000000   0.000000   0.000000   0.000000   0.000000
     3  H    0.000000   0.000000   0.000000   0.000000   0.000000   0.000000
     4  H    0.000000   0.000000   0.000000   0.000000   0.000000   0.000000
     5  C    0.000000   0.000000   0.000000   0.000000   0.000000   0.000000
     6  H    0.000000   0.000000   0.000000   0.000000   0.000000   0.000000
     7  H    0.000000   0.000000   0.000000   0.000000   0.000000   0.000000
     8  C    0.000000   0.000000   0.000000   0.000000   0.000000   0.000000
     9  H    0.000000   0.000000   0.000000   0.000000   0.000000   0.000000
    10  O    0.000000   0.000000   0.000000   0.000000   0.000000   0.000000
    11  C    0.000000   0.000000   0.000000   0.000000   0.000000   0.000000
    12  H    0.000000   0.000000   0.000000   0.000000   0.000000   0.000000
    13  H    0.951036   0.000000   0.000000   0.000000   0.000000   0.000000
    14  H    0.000000   0.944316   0.000000   0.000000   0.000000   0.000000
    15  C    0.000000   0.000000   4.107024   0.000000   0.000000   0.000000
    16  H    0.000000   0.000000   0.000000   0.963929   0.000000   0.000000
    17  H    0.000000   0.000000   0.000000   0.000000   0.952039   0.000000
    18  H    0.000000   0.000000   0.000000   0.000000   0.000000   0.959929
 Mulliken charges:
               1
     1  C   -0.107023
     2  H    0.047927
     3  H    0.036078
     4  H    0.040100
     5  C   -0.132975
     6  H    0.055704
     7  H    0.048962
     8  C    0.070297
     9  H    0.075503
    10  O   -0.304934
    11  C   -0.132958
    12  H    0.181591
    13  H    0.048964
    14  H    0.055684
    15  C   -0.107024
    16  H    0.036071
    17  H    0.047961
    18  H    0.040071
 Sum of Mulliken charges =   0.00000
 Mulliken charges with hydrogens summed into heavy atoms:
               1
     1  C    0.017083
     5  C   -0.028308
     8  C    0.145800
    10  O   -0.123343
    11  C   -0.028310
    15  C    0.017079
 Charge=              0.0000 electrons
 Dipole moment (field-independent basis, Debye):
    X=              0.0015    Y=             -1.1955    Z=             -0.8680  Tot=              1.4774
 N-N= 1.698600521530D+02 E-N=-2.541520397212D+02  KE=-5.968310504609D+01
 Leave Link  601 at Wed Sep  7 15:33:56 2022, MaxMem=   131072000 cpu:               0.0 elap:               0.0
 (Enter /opt/g16/l9999.exe)
 1\1\GINC-TOTEM2\FOpt\RPM3\ZDO\C5H12O1\JRAMOS\07-Sep-2022\0\\#p opt pm3
 \\Conformer number 008. Energy MM = 0.000 kcal/mol\\0,1\C,11.196835805
 6,3.8928335354,4.3067612348\H,11.5391463429,4.4961824844,5.1580375943\
 H,12.0811605313,3.6315231962,3.7115446112\H,10.7862169248,2.9591960841
 ,4.7139616848\C,10.1759157361,4.6316142862,3.4726071877\H,9.8749454258
 ,4.0037773623,2.6106863329\H,10.6300642511,5.5430419667,3.0338163337\C
 ,8.9215791786,5.0052757561,4.281963493\H,8.5433657288,4.1207050533,4.8
 451176834\O,9.2130532082,5.9021563232,5.3293408657\C,7.8329937958,5.54
 87123368,3.3397104457\H,9.5480335502,6.6983493134,4.935204417\H,8.1607
 971813,6.5103838694,2.8955970585\H,7.7136602371,4.8516570065,2.4867547
 832\C,6.5056413461,5.7259608537,4.0401333078\H,5.7421230783,6.11026855
 96,3.3517104329\H,6.5795644733,6.4322099939,4.8777663051\H,6.133903204
 7,4.7761520188,4.4472862284\\Version=ES64L-G16RevA.03\State=1-A\HF=-0.
 1196939\RMSD=1.809e-09\RMSF=5.057e-06\Dipole=0.0632738,0.076993,-0.572
 6451\PG=C01 [X(C5H12O1)]\\@


 I MET A TRAVELLER FROM AN ANTIQUE LAND
 WHO SAID... TWO VAST AND TRUNKLESS LEGS OF STONE
 STAND IN THE DESERT..... NEAR THEM,  ON THE SAND,
 HALF SUNK,  A SHATTERED VISAGE LIES,  WHOSE FROWN,
 AND WRINKLED LIP,  AND SNEER OF COLD COMMAND
 TELL THAT ITS SCULPTOR WELL THOSE PASSIONS READ
 WHICH YET SURVIVE,  STAMPED ON THESE LIFELESS THINGS
 THE HAND THAT MOCKED THEM,  AND THE HEART THAT FED-
 AND ON THE PEDESTAL THESE WORDS APPEAR 
 MY NAME IS OZYMANDIAS, KING OF KINGS--   
 LOOK ON MY WORKS YE MIGHTY AND DESPAIR. 
 NOTHING BESIDE REMAINS,  ROUND THE DECAY 
 OF THAT COLOSSAL WRECK,  BOUNDLESS AND BARE
 THE LONE AND LEVEL SANDS STRETCH FAR AWAY.
                                    SHELLEY
 Job cpu time:       0 days  0 hours  0 minutes  4.4 seconds.
 Elapsed time:       0 days  0 hours  0 minutes 13.6 seconds.
 File lengths (MBytes):  RWF=      6 Int=      0 D2E=      0 Chk=      2 Scr=      1
 Normal termination of Gaussian 16 at Wed Sep  7 15:33:56 2022.
