 Entering Gaussian System, Link 0=/opt/g16/g16
 Input=MD_extract_016_gaussian.com
 Output=MD_extract_016_gaussian.log
 Initial command:
 /opt/g16/l1.exe "/tmp/Gau-318044.inp" -scrdir="/tmp/"
 Entering Link 1 = /opt/g16/l1.exe PID=    318046.
  
 Copyright (c) 1988,1990,1992,1993,1995,1998,2003,2009,2016,
            Gaussian, Inc.  All Rights Reserved.
  
 This is part of the Gaussian(R) 16 program.  It is based on
 the Gaussian(R) 09 system (copyright 2009, Gaussian, Inc.),
 the Gaussian(R) 03 system (copyright 2003, Gaussian, Inc.),
 the Gaussian(R) 98 system (copyright 1998, Gaussian, Inc.),
 the Gaussian(R) 94 system (copyright 1995, Gaussian, Inc.),
 the Gaussian 92(TM) system (copyright 1992, Gaussian, Inc.),
 the Gaussian 90(TM) system (copyright 1990, Gaussian, Inc.),
 the Gaussian 88(TM) system (copyright 1988, Gaussian, Inc.),
 the Gaussian 86(TM) system (copyright 1986, Carnegie Mellon
 University), and the Gaussian 82(TM) system (copyright 1983,
 Carnegie Mellon University). Gaussian is a federally registered
 trademark of Gaussian, Inc.
  
 This software contains proprietary and confidential information,
 including trade secrets, belonging to Gaussian, Inc.
  
 This software is provided under written license and may be
 used, copied, transmitted, or stored only in accord with that
 written license.
  
 The following legend is applicable only to US Government
 contracts under FAR:
  
                    RESTRICTED RIGHTS LEGEND
  
 Use, reproduction and disclosure by the US Government is
 subject to restrictions as set forth in subparagraphs (a)
 and (c) of the Commercial Computer Software - Restricted
 Rights clause in FAR 52.227-19.
  
 Gaussian, Inc.
 340 Quinnipiac St., Bldg. 40, Wallingford CT 06492
  
  
 ---------------------------------------------------------------
 Warning -- This program may not be used in any manner that
 competes with the business of Gaussian, Inc. or will provide
 assistance to any competitor of Gaussian, Inc.  The licensee
 of this program is prohibited from giving any competitor of
 Gaussian, Inc. access to this program.  By using this program,
 the user acknowledges that Gaussian, Inc. is engaged in the
 business of creating and licensing software in the field of
 computational chemistry and represents and warrants to the
 licensee that it is not a competitor of Gaussian, Inc. and that
 it will not use this program in any manner prohibited above.
 ---------------------------------------------------------------
  

 Cite this work as:
 Gaussian 16, Revision A.03,
 M. J. Frisch, G. W. Trucks, H. B. Schlegel, G. E. Scuseria, 
 M. A. Robb, J. R. Cheeseman, G. Scalmani, V. Barone, 
 G. A. Petersson, H. Nakatsuji, X. Li, M. Caricato, A. V. Marenich, 
 J. Bloino, B. G. Janesko, R. Gomperts, B. Mennucci, H. P. Hratchian, 
 J. V. Ortiz, A. F. Izmaylov, J. L. Sonnenberg, D. Williams-Young, 
 F. Ding, F. Lipparini, F. Egidi, J. Goings, B. Peng, A. Petrone, 
 T. Henderson, D. Ranasinghe, V. G. Zakrzewski, J. Gao, N. Rega, 
 G. Zheng, W. Liang, M. Hada, M. Ehara, K. Toyota, R. Fukuda, 
 J. Hasegawa, M. Ishida, T. Nakajima, Y. Honda, O. Kitao, H. Nakai, 
 T. Vreven, K. Throssell, J. A. Montgomery, Jr., J. E. Peralta, 
 F. Ogliaro, M. J. Bearpark, J. J. Heyd, E. N. Brothers, K. N. Kudin, 
 V. N. Staroverov, T. A. Keith, R. Kobayashi, J. Normand, 
 K. Raghavachari, A. P. Rendell, J. C. Burant, S. S. Iyengar, 
 J. Tomasi, M. Cossi, J. M. Millam, M. Klene, C. Adamo, R. Cammi, 
 J. W. Ochterski, R. L. Martin, K. Morokuma, O. Farkas, 
 J. B. Foresman, and D. J. Fox, Gaussian, Inc., Wallingford CT, 2016.
 
 ******************************************
 Gaussian 16:  ES64L-G16RevA.03 25-Dec-2016
                 7-Sep-2022 
 ******************************************
 %chk=MD_extract_016_gaussian.chk
 %nproc=1
 Will use up to    1 processors via shared memory.
 %mem=1000Mb
 ----------
 #p opt pm3
 ----------
 1/18=20,19=15,26=1,38=1/1,3;
 2/9=110,12=2,17=6,18=5,40=1/2;
 3/5=2,25=1,41=800000,71=1/1,2,3;
 4/35=1/1;
 5/5=2,35=1,38=5/2;
 6/7=2,8=2,9=2,10=2,28=1/1;
 7//1,2,3,16;
 1/18=20,19=15,26=1/3(2);
 2/9=110/2;
 99//99;
 2/9=110/2;
 3/5=2,25=1,41=800000,71=1,135=20/1,2,3;
 4/5=5,16=3,35=1/1;
 5/5=2,35=1,38=5/2;
 7//1,2,3,16;
 1/18=20,19=15,26=1/3(-5);
 2/9=110/2;
 6/7=2,8=2,9=2,10=2,19=2,28=1/1;
 99/9=1/99;
 Leave Link    1 at Wed Sep  7 15:35:27 2022, MaxMem=   131072000 cpu:               0.0 elap:               6.6
 (Enter /opt/g16/l101.exe)
 ------------------------------------------------
 Conformer number 016. Energy MM = 0.000 kcal/mol
 ------------------------------------------------
 Symbolic Z-matrix:
 Charge =  0 Multiplicity = 1
 C                     1.361     1.06      7.806 
 H                     0.847     1.079     8.722 
 H                     1.086     0.117     7.273 
 H                     1.064     1.931     7.182 
 C                     2.878     1.005     8.059 
 H                     3.082     0.153     8.715 
 H                     3.102     1.956     8.63 
 C                     3.587     0.86      6.76 
 H                     3.586    -0.126     6.425 
 O                     2.813     1.515     5.769 
 C                     5.035     1.224     6.892 
 H                     3.007     1.172     4.895 
 H                     5.135     2.16      7.493 
 H                     5.619     0.436     7.53 
 C                     5.86      1.552     5.612 
 H                     5.41      2.325     4.959 
 H                     5.927     0.596     5.014 
 H                     6.846     1.763     5.875 
 
 ITRead=  0  0  0  0  0  0  0  0  0  0  0  0  0  0  0  0  0  0
 MicOpt= -1 -1 -1 -1 -1 -1 -1 -1 -1 -1 -1 -1 -1 -1 -1 -1 -1 -1
 NAtoms=     18 NQM=       18 NQMF=       0 NMMI=      0 NMMIF=      0
                NMic=       0 NMicF=      0.
                    Isotopes and Nuclear Properties:
 (Nuclear quadrupole moments (NQMom) in fm**2, nuclear magnetic moments (NMagM)
  in nuclear magnetons)

  Atom         1           2           3           4           5           6           7           8           9          10
 IAtWgt=          12           1           1           1          12           1           1          12           1          16
 AtmWgt=  12.0000000   1.0078250   1.0078250   1.0078250  12.0000000   1.0078250   1.0078250  12.0000000   1.0078250  15.9949146
 NucSpn=           0           1           1           1           0           1           1           0           1           0
 AtZEff=  -0.0000000  -0.0000000  -0.0000000  -0.0000000  -0.0000000  -0.0000000  -0.0000000  -0.0000000  -0.0000000  -0.0000000
 NQMom=    0.0000000   0.0000000   0.0000000   0.0000000   0.0000000   0.0000000   0.0000000   0.0000000   0.0000000   0.0000000
 NMagM=    0.0000000   2.7928460   2.7928460   2.7928460   0.0000000   2.7928460   2.7928460   0.0000000   2.7928460   0.0000000
 AtZNuc=   6.0000000   1.0000000   1.0000000   1.0000000   6.0000000   1.0000000   1.0000000   6.0000000   1.0000000   8.0000000

  Atom        11          12          13          14          15          16          17          18
 IAtWgt=          12           1           1           1          12           1           1           1
 AtmWgt=  12.0000000   1.0078250   1.0078250   1.0078250  12.0000000   1.0078250   1.0078250   1.0078250
 NucSpn=           0           1           1           1           0           1           1           1
 AtZEff=  -0.0000000  -0.0000000  -0.0000000  -0.0000000  -0.0000000  -0.0000000  -0.0000000  -0.0000000
 NQMom=    0.0000000   0.0000000   0.0000000   0.0000000   0.0000000   0.0000000   0.0000000   0.0000000
 NMagM=    0.0000000   2.7928460   2.7928460   2.7928460   0.0000000   2.7928460   2.7928460   2.7928460
 AtZNuc=   6.0000000   1.0000000   1.0000000   1.0000000   6.0000000   1.0000000   1.0000000   1.0000000
 Leave Link  101 at Wed Sep  7 15:35:27 2022, MaxMem=   131072000 cpu:               0.1 elap:               0.1
 (Enter /opt/g16/l103.exe)

 GradGradGradGradGradGradGradGradGradGradGradGradGradGradGradGradGradGrad
 Berny optimization.
 Initialization pass.
                           ----------------------------
                           !    Initial Parameters    !
                           ! (Angstroms and Degrees)  !
 --------------------------                            --------------------------
 ! Name  Definition              Value          Derivative Info.                !
 --------------------------------------------------------------------------------
 ! R1    R(1,2)                  1.0505         estimate D2E/DX2                !
 ! R2    R(1,3)                  1.1176         estimate D2E/DX2                !
 ! R3    R(1,4)                  1.1119         estimate D2E/DX2                !
 ! R4    R(1,5)                  1.5389         estimate D2E/DX2                !
 ! R5    R(5,6)                  1.0945         estimate D2E/DX2                !
 ! R6    R(5,7)                  1.1316         estimate D2E/DX2                !
 ! R7    R(5,8)                  1.487          estimate D2E/DX2                !
 ! R8    R(8,9)                  1.0414         estimate D2E/DX2                !
 ! R9    R(8,10)                 1.4178         estimate D2E/DX2                !
 ! R10   R(8,11)                 1.4989         estimate D2E/DX2                !
 ! R11   R(10,12)                0.9587         estimate D2E/DX2                !
 ! R12   R(11,13)                1.1168         estimate D2E/DX2                !
 ! R13   R(11,14)                1.1701         estimate D2E/DX2                !
 ! R14   R(11,15)                1.5578         estimate D2E/DX2                !
 ! R15   R(15,16)                1.1074         estimate D2E/DX2                !
 ! R16   R(15,17)                1.1296         estimate D2E/DX2                !
 ! R17   R(15,18)                1.0421         estimate D2E/DX2                !
 ! A1    A(2,1,3)              108.1025         estimate D2E/DX2                !
 ! A2    A(2,1,4)              110.1506         estimate D2E/DX2                !
 ! A3    A(2,1,5)              109.8527         estimate D2E/DX2                !
 ! A4    A(3,1,4)              109.124          estimate D2E/DX2                !
 ! A5    A(3,1,5)              106.9066         estimate D2E/DX2                !
 ! A6    A(4,1,5)              112.5553         estimate D2E/DX2                !
 ! A7    A(1,5,6)              108.0649         estimate D2E/DX2                !
 ! A8    A(1,5,7)              104.3615         estimate D2E/DX2                !
 ! A9    A(1,5,8)              109.2614         estimate D2E/DX2                !
 ! A10   A(6,5,7)              108.3529         estimate D2E/DX2                !
 ! A11   A(6,5,8)              111.028          estimate D2E/DX2                !
 ! A12   A(7,5,8)              115.3633         estimate D2E/DX2                !
 ! A13   A(5,8,9)              111.8946         estimate D2E/DX2                !
 ! A14   A(5,8,10)             107.7739         estimate D2E/DX2                !
 ! A15   A(5,8,11)             111.1007         estimate D2E/DX2                !
 ! A16   A(9,8,10)             102.2422         estimate D2E/DX2                !
 ! A17   A(9,8,11)             105.0225         estimate D2E/DX2                !
 ! A18   A(10,8,11)            118.4732         estimate D2E/DX2                !
 ! A19   A(8,10,12)            111.1891         estimate D2E/DX2                !
 ! A20   A(8,11,13)            109.7198         estimate D2E/DX2                !
 ! A21   A(8,11,14)            111.509          estimate D2E/DX2                !
 ! A22   A(8,11,15)            119.367          estimate D2E/DX2                !
 ! A23   A(13,11,14)           103.0799         estimate D2E/DX2                !
 ! A24   A(13,11,15)           102.6087         estimate D2E/DX2                !
 ! A25   A(14,11,15)           108.9967         estimate D2E/DX2                !
 ! A26   A(11,15,16)           114.5998         estimate D2E/DX2                !
 ! A27   A(11,15,17)           106.7506         estimate D2E/DX2                !
 ! A28   A(11,15,18)           109.6558         estimate D2E/DX2                !
 ! A29   A(16,15,17)           107.6184         estimate D2E/DX2                !
 ! A30   A(16,15,18)           113.0768         estimate D2E/DX2                !
 ! A31   A(17,15,18)           104.4095         estimate D2E/DX2                !
 ! D1    D(2,1,5,6)             54.2329         estimate D2E/DX2                !
 ! D2    D(2,1,5,7)            -60.9426         estimate D2E/DX2                !
 ! D3    D(2,1,5,8)            175.1493         estimate D2E/DX2                !
 ! D4    D(3,1,5,6)            -62.8332         estimate D2E/DX2                !
 ! D5    D(3,1,5,7)           -178.0086         estimate D2E/DX2                !
 ! D6    D(3,1,5,8)             58.0832         estimate D2E/DX2                !
 ! D7    D(4,1,5,6)            177.364          estimate D2E/DX2                !
 ! D8    D(4,1,5,7)             62.1885         estimate D2E/DX2                !
 ! D9    D(4,1,5,8)            -61.7196         estimate D2E/DX2                !
 ! D10   D(1,5,8,9)            -80.6038         estimate D2E/DX2                !
 ! D11   D(1,5,8,10)            31.0386         estimate D2E/DX2                !
 ! D12   D(1,5,8,11)           162.3632         estimate D2E/DX2                !
 ! D13   D(6,5,8,9)             38.4906         estimate D2E/DX2                !
 ! D14   D(6,5,8,10)           150.133          estimate D2E/DX2                !
 ! D15   D(6,5,8,11)           -78.5424         estimate D2E/DX2                !
 ! D16   D(7,5,8,9)            162.2396         estimate D2E/DX2                !
 ! D17   D(7,5,8,10)           -86.1181         estimate D2E/DX2                !
 ! D18   D(7,5,8,11)            45.2065         estimate D2E/DX2                !
 ! D19   D(5,8,10,12)         -157.0177         estimate D2E/DX2                !
 ! D20   D(9,8,10,12)          -38.9666         estimate D2E/DX2                !
 ! D21   D(11,8,10,12)          75.8303         estimate D2E/DX2                !
 ! D22   D(5,8,11,13)          -44.1069         estimate D2E/DX2                !
 ! D23   D(5,8,11,14)           69.4501         estimate D2E/DX2                !
 ! D24   D(5,8,11,15)         -161.9975         estimate D2E/DX2                !
 ! D25   D(9,8,11,13)         -165.2651         estimate D2E/DX2                !
 ! D26   D(9,8,11,14)          -51.708          estimate D2E/DX2                !
 ! D27   D(9,8,11,15)           76.8443         estimate D2E/DX2                !
 ! D28   D(10,8,11,13)          81.4497         estimate D2E/DX2                !
 ! D29   D(10,8,11,14)        -164.9932         estimate D2E/DX2                !
 ! D30   D(10,8,11,15)         -36.4409         estimate D2E/DX2                !
 ! D31   D(8,11,15,16)          52.7975         estimate D2E/DX2                !
 ! D32   D(8,11,15,17)         -66.2437         estimate D2E/DX2                !
 ! D33   D(8,11,15,18)        -178.7919         estimate D2E/DX2                !
 ! D34   D(13,11,15,16)        -68.7103         estimate D2E/DX2                !
 ! D35   D(13,11,15,17)        172.2486         estimate D2E/DX2                !
 ! D36   D(13,11,15,18)         59.7004         estimate D2E/DX2                !
 ! D37   D(14,11,15,16)       -177.5103         estimate D2E/DX2                !
 ! D38   D(14,11,15,17)         63.4486         estimate D2E/DX2                !
 ! D39   D(14,11,15,18)        -49.0997         estimate D2E/DX2                !
 --------------------------------------------------------------------------------
 Trust Radius=3.00D-01 FncErr=1.00D-07 GrdErr=1.00D-07 EigMax=2.50D+02 EigMin=1.00D-04
 Number of steps in this run=     97 maximum allowed number of steps=    108.
 GradGradGradGradGradGradGradGradGradGradGradGradGradGradGradGradGradGrad

 Leave Link  103 at Wed Sep  7 15:35:27 2022, MaxMem=   131072000 cpu:               0.0 elap:               0.0
 (Enter /opt/g16/l202.exe)
                          Input orientation:                          
 ---------------------------------------------------------------------
 Center     Atomic      Atomic             Coordinates (Angstroms)
 Number     Number       Type             X           Y           Z
 ---------------------------------------------------------------------
      1          6           0        1.361000    1.060000    7.806000
      2          1           0        0.847000    1.079000    8.722000
      3          1           0        1.086000    0.117000    7.273000
      4          1           0        1.064000    1.931000    7.182000
      5          6           0        2.878000    1.005000    8.059000
      6          1           0        3.082000    0.153000    8.715000
      7          1           0        3.102000    1.956000    8.630000
      8          6           0        3.587000    0.860000    6.760000
      9          1           0        3.586000   -0.126000    6.425000
     10          8           0        2.813000    1.515000    5.769000
     11          6           0        5.035000    1.224000    6.892000
     12          1           0        3.007000    1.172000    4.895000
     13          1           0        5.135000    2.160000    7.493000
     14          1           0        5.619000    0.436000    7.530000
     15          6           0        5.860000    1.552000    5.612000
     16          1           0        5.410000    2.325000    4.959000
     17          1           0        5.927000    0.596000    5.014000
     18          1           0        6.846000    1.763000    5.875000
 ---------------------------------------------------------------------
                    Distance matrix (angstroms):
                    1          2          3          4          5
     1  C    0.000000
     2  H    1.050530   0.000000
     3  H    1.117570   1.755610   0.000000
     4  H    1.111857   1.773300   1.816414   0.000000
     5  C    1.538936   2.137757   2.148861   2.217476   0.000000
     6  H    2.147271   2.419246   2.462656   3.095755   1.094466
     7  H    2.124352   2.421284   3.047561   2.500155   1.131644
     8  C    2.467629   3.377130   2.658988   2.773203   1.486979
     9  H    2.874784   3.772314   2.651066   3.341374   2.109593
    10  O    2.542577   3.574278   2.683086   2.286619   2.347003
    11  C    3.789534   4.572665   4.118885   4.043858   2.462214
    12  H    3.346010   4.395472   3.233906   3.095432   3.171029
    13  H    3.943481   4.589765   4.540556   4.089279   2.597774
    14  H    4.312321   4.960473   4.551472   4.806678   2.848979
    15  C    5.029583   5.918277   5.254448   5.060648   3.896068
    16  H    5.108819   6.044308   5.378367   4.897416   4.214668
    17  H    5.372050   6.307849   5.363563   5.489191   4.328476
    18  H    5.857320   6.675423   6.151530   5.930261   4.592324
                    6          7          8          9         10
     6  H    0.000000
     7  H    1.805113   0.000000
     8  C    2.139369   2.221113   0.000000
     9  H    2.361346   3.070994   1.041356   0.000000
    10  O    3.256735   2.909179   1.417809   1.928924   0.000000
    11  C    2.878294   2.700548   1.498874   2.034746   2.506610
    12  H    3.954287   3.817579   1.977870   2.088288   0.958729
    13  H    3.120279   2.338263   2.150254   2.960713   2.963087
    14  H    2.814371   3.139377   2.213978   2.381167   3.484106
    15  C    4.393529   4.108297   2.638806   2.940702   3.051266
    16  H    4.923891   4.351927   2.951805   3.388736   2.838417
    17  H    4.689102   4.785988   2.931520   2.827099   3.333404
    18  H    4.982509   4.652398   3.495671   3.807679   4.042008
                   11         12         13         14         15
    11  C    0.000000
    12  H    2.846664   0.000000
    13  H    1.116825   3.500590   0.000000
    14  H    1.170062   3.782521   1.791034   0.000000
    15  C    1.557758   2.966159   2.105576   2.232098   0.000000
    16  H    2.255951   2.666067   2.554213   3.197193   1.107447
    17  H    2.171850   2.978647   3.036248   2.539827   1.129615
    18  H    2.145817   4.005946   2.388107   2.450609   1.042059
                   16         17         18
    16  H    0.000000
    17  H    1.805479   0.000000
    18  H    1.793599   1.716907   0.000000
 Stoichiometry    C5H12O
 Framework group  C1[X(C5H12O)]
 Deg. of freedom    48
 Full point group                 C1      NOp   1
 Largest Abelian subgroup         C1      NOp   1
 Largest concise Abelian subgroup C1      NOp   1
                         Standard orientation:                         
 ---------------------------------------------------------------------
 Center     Atomic      Atomic             Coordinates (Angstroms)
 Number     Number       Type             X           Y           Z
 ---------------------------------------------------------------------
      1          6           0        2.451214    0.059386   -0.075588
      2          1           0        3.304444   -0.521866   -0.269897
      3          1           0        2.554988    0.497364    0.947334
      4          1           0        2.371650    0.883088   -0.818158
      5          6           0        1.201328   -0.838175   -0.053437
      6          1           0        1.376486   -1.646299    0.663578
      7          1           0        1.158970   -1.286082   -1.091803
      8          6           0        0.019919   -0.024399    0.337904
      9          1           0       -0.033728    0.111450    1.368966
     10          8           0        0.231142    1.297583   -0.128925
     11          6           0       -1.257763   -0.716474   -0.029773
     12          1           0       -0.287165    1.929177    0.372681
     13          1           0       -1.174449   -1.138987   -1.060229
     14          1           0       -1.437641   -1.664828    0.631523
     15          6           0       -2.578057    0.106750   -0.105517
     16          1           0       -2.523690    1.007179   -0.747941
     17          1           0       -2.808366    0.450148    0.945703
     18          1           0       -3.370474   -0.523537   -0.351888
 ---------------------------------------------------------------------
 Rotational constants (GHZ):           7.5353263           1.9802389           1.6752849
 Leave Link  202 at Wed Sep  7 15:35:27 2022, MaxMem=   131072000 cpu:               0.0 elap:               0.0
 (Enter /opt/g16/l301.exe)
 Standard basis: VSTO-6G (5D, 7F)
 Ernie: Thresh=  0.10000D-02 Tol=  0.10000D-05 Strict=F.
  NNHCO=     0 NNPyr=     0 NCTC=     0               EPep=         0.000000000
    EC=       128.650707891  ECS=         2.236770796   EG=         0.563384778
   EHC=         0.000000000  EAt=       -36.836480110  AtH=         2.452923921
 EPDDG=         0.000000000  ECC=       131.450863466 EAtT=        39.289404030
 There are    36 symmetry adapted cartesian basis functions of A   symmetry.
 There are    36 symmetry adapted basis functions of A   symmetry.
    36 basis functions,   216 primitive gaussians,    36 cartesian basis functions
    19 alpha electrons       19 beta electrons
       nuclear repulsion energy       170.7402674966 Hartrees.
 IExCor=    0 DFT=F Ex=HF Corr=None ExCW=0 ScaHFX=  1.000000
 ScaDFX=  1.000000  1.000000  1.000000  1.000000 ScalE2=  1.000000  1.000000
 IRadAn=      5 IRanWt=     -1 IRanGd=            0 ICorTp=0 IEmpDi=  4
 Integral buffers will be    131072 words long.
 Regular integral format.
 Two-electron integral symmetry is turned off.
 Leave Link  301 at Wed Sep  7 15:35:27 2022, MaxMem=   131072000 cpu:               0.0 elap:               0.0
 (Enter /opt/g16/l302.exe)
 Do NDO integrals.
 NPDir=0 NMtPBC=     1 NCelOv=     1 NCel=       1 NClECP=     1 NCelD=      1
         NCelK=      1 NCelE2=     1 NClLst=     1 CellRange=     0.0.
 One-electron integrals computed using PRISM.
 NBasis=    36 RedAO= F EigKep=  0.00D+00  NBF=    36
 NBsUse=    36 1.00D-04 EigRej=  0.00D+00 NBFU=    36
 Leave Link  302 at Wed Sep  7 15:35:27 2022, MaxMem=   131072000 cpu:               0.0 elap:               0.0
 (Enter /opt/g16/l303.exe)
 DipDrv:  MaxL=1.
 Leave Link  303 at Wed Sep  7 15:35:27 2022, MaxMem=   131072000 cpu:               0.0 elap:               0.0
 (Enter /opt/g16/l401.exe)
 Simple Huckel Guess.
 JPrj=0 DoOrth=F DoCkMO=F.
 Leave Link  401 at Wed Sep  7 15:35:27 2022, MaxMem=   131072000 cpu:               0.0 elap:               0.0
 (Enter /opt/g16/l502.exe)
 Keep J ints in memory in canonical form, NReq=862161.
 FoFCou: FMM=F IPFlag=           0 FMFlag=           0 FMFlg1=           0
         NFxFlg=           0 DoJE=F BraDBF=F KetDBF=F FulRan=T
         wScrn=  0.000000 ICntrl=       600 IOpCl=  2 I1Cent=           0 NGrid=           0
         NMat0=    1 NMatS0=     72 NMatT0=    0 NMatD0=    1 NMtDS0=    0 NMtDT0=    0
 Symmetry not used in FoFCou.
 Two-electron integral symmetry not used.
 Closed shell SCF:
 Using DIIS extrapolation, IDIIS=  1040.
 Overlap will be assumed to be unity.
 NGot=   131072000 LenX=   131006778 LenY=   131005041
 Requested convergence on RMS density matrix=1.00D-08 within 128 cycles.
 Requested convergence on MAX density matrix=1.00D-06.
 Requested convergence on             energy=1.00D-06.
 No special actions if energy rises.

 Cycle   1  Pass 1  IDiag  1:
 E= 0.194579252312280    
 DIIS: error= 7.19D-02 at cycle   1 NSaved=   1.
 NSaved= 1 IEnMin= 1 EnMin= 0.194579252312280     IErMin= 1 ErrMin= 7.19D-02
 ErrMax= 7.19D-02  0.00D+00 EMaxC= 1.00D-01 BMatC= 1.07D-01 BMatP= 1.07D-01
 IDIUse=3 WtCom= 2.81D-01 WtEn= 7.19D-01
 Coeff-Com:  0.100D+01
 Coeff-En:   0.100D+01
 Coeff:      0.100D+01
 GapD=    2.000 DampG=2.000 DampE=0.500 DampFc=1.0000 IDamp=-1.
 RMSDP=1.26D-02 MaxDP=1.51D-01              OVMax= 0.00D+00

 Cycle   2  Pass 1  IDiag  1:
 E=-0.613279916318561E-01 Delta-E=       -0.255907243944 Rises=F Damp=F
 DIIS: error= 1.43D-02 at cycle   2 NSaved=   2.
 NSaved= 2 IEnMin= 2 EnMin=-0.613279916318561E-01 IErMin= 2 ErrMin= 1.43D-02
 ErrMax= 1.43D-02  0.00D+00 EMaxC= 1.00D-01 BMatC= 7.05D-03 BMatP= 1.07D-01
 IDIUse=3 WtCom= 8.57D-01 WtEn= 1.43D-01
 Coeff-Com: -0.305D+00 0.131D+01
 Coeff-En:   0.000D+00 0.100D+01
 Coeff:     -0.261D+00 0.126D+01
 RMSDP=4.69D-03 MaxDP=3.92D-02 DE=-2.56D-01 OVMax= 0.00D+00

 Cycle   3  Pass 1  IDiag  3:
 E=-0.834903540296352E-01 Delta-E=       -0.022162362398 Rises=F Damp=F
 DIIS: error= 3.33D-03 at cycle   3 NSaved=   3.
 NSaved= 3 IEnMin= 3 EnMin=-0.834903540296352E-01 IErMin= 3 ErrMin= 3.33D-03
 ErrMax= 3.33D-03  0.00D+00 EMaxC= 1.00D-01 BMatC= 2.41D-04 BMatP= 7.05D-03
 IDIUse=3 WtCom= 9.67D-01 WtEn= 3.33D-02
 Coeff-Com:  0.149D+00-0.729D+00 0.158D+01
 Coeff-En:   0.000D+00 0.000D+00 0.100D+01
 Coeff:      0.144D+00-0.705D+00 0.156D+01
 Gap=     0.507 Goal=   None    Shift=    0.000
 RMSDP=1.45D-03 MaxDP=1.52D-02 DE=-2.22D-02 OVMax= 9.39D-03

 Cycle   4  Pass 1  IDiag  3:
 E=-0.848220905793369E-01 Delta-E=       -0.001331736550 Rises=F Damp=F
 DIIS: error= 6.73D-04 at cycle   4 NSaved=   4.
 NSaved= 4 IEnMin= 4 EnMin=-0.848220905793369E-01 IErMin= 4 ErrMin= 6.73D-04
 ErrMax= 6.73D-04  0.00D+00 EMaxC= 1.00D-01 BMatC= 1.07D-05 BMatP= 2.41D-04
 IDIUse=3 WtCom= 9.93D-01 WtEn= 6.73D-03
 Coeff-Com: -0.324D-01 0.176D+00-0.573D+00 0.143D+01
 Coeff-En:   0.000D+00 0.000D+00 0.000D+00 0.100D+01
 Coeff:     -0.322D-01 0.174D+00-0.569D+00 0.143D+01
 Gap=     0.508 Goal=   None    Shift=    0.000
 RMSDP=3.58D-04 MaxDP=3.57D-03 DE=-1.33D-03 OVMax= 2.52D-03

 Cycle   5  Pass 1  IDiag  3:
 E=-0.848874932657395E-01 Delta-E=       -0.000065402686 Rises=F Damp=F
 DIIS: error= 1.10D-04 at cycle   5 NSaved=   5.
 NSaved= 5 IEnMin= 5 EnMin=-0.848874932657395E-01 IErMin= 5 ErrMin= 1.10D-04
 ErrMax= 1.10D-04  0.00D+00 EMaxC= 1.00D-01 BMatC= 3.25D-07 BMatP= 1.07D-05
 IDIUse=3 WtCom= 9.99D-01 WtEn= 1.10D-03
 Coeff-Com:  0.240D-02-0.166D-01 0.864D-01-0.377D+00 0.130D+01
 Coeff-En:   0.000D+00 0.000D+00 0.000D+00 0.000D+00 0.100D+01
 Coeff:      0.240D-02-0.166D-01 0.863D-01-0.376D+00 0.130D+01
 Gap=     0.508 Goal=   None    Shift=    0.000
 RMSDP=5.62D-05 MaxDP=6.09D-04 DE=-6.54D-05 OVMax= 5.39D-04

 Cycle   6  Pass 1  IDiag  3:
 E=-0.848893690215391E-01 Delta-E=       -0.000001875756 Rises=F Damp=F
 DIIS: error= 3.48D-05 at cycle   6 NSaved=   6.
 NSaved= 6 IEnMin= 6 EnMin=-0.848893690215391E-01 IErMin= 6 ErrMin= 3.48D-05
 ErrMax= 3.48D-05  0.00D+00 EMaxC= 1.00D-01 BMatC= 2.60D-08 BMatP= 3.25D-07
 IDIUse=1 WtCom= 1.00D+00 WtEn= 0.00D+00
 Coeff-Com: -0.379D-03 0.402D-02-0.302D-01 0.160D+00-0.743D+00 0.161D+01
 Coeff:     -0.379D-03 0.402D-02-0.302D-01 0.160D+00-0.743D+00 0.161D+01
 Gap=     0.508 Goal=   None    Shift=    0.000
 RMSDP=1.77D-05 MaxDP=2.35D-04 DE=-1.88D-06 OVMax= 2.01D-04

 Cycle   7  Pass 1  IDiag  3:
 E=-0.848895359572737E-01 Delta-E=       -0.000000166936 Rises=F Damp=F
 DIIS: error= 6.67D-06 at cycle   7 NSaved=   7.
 NSaved= 7 IEnMin= 7 EnMin=-0.848895359572737E-01 IErMin= 7 ErrMin= 6.67D-06
 ErrMax= 6.67D-06  0.00D+00 EMaxC= 1.00D-01 BMatC= 1.77D-09 BMatP= 2.60D-08
 IDIUse=1 WtCom= 1.00D+00 WtEn= 0.00D+00
 Coeff-Com:  0.161D-03-0.183D-02 0.144D-01-0.781D-01 0.383D+00-0.101D+01
 Coeff-Com:  0.169D+01
 Coeff:      0.161D-03-0.183D-02 0.144D-01-0.781D-01 0.383D+00-0.101D+01
 Coeff:      0.169D+01
 Gap=     0.508 Goal=   None    Shift=    0.000
 RMSDP=5.01D-06 MaxDP=5.51D-05 DE=-1.67D-07 OVMax= 4.36D-05

 Cycle   8  Pass 1  IDiag  3:
 E=-0.848895474432823E-01 Delta-E=       -0.000000011486 Rises=F Damp=F
 DIIS: error= 1.13D-06 at cycle   8 NSaved=   8.
 NSaved= 8 IEnMin= 8 EnMin=-0.848895474432823E-01 IErMin= 8 ErrMin= 1.13D-06
 ErrMax= 1.13D-06  0.00D+00 EMaxC= 1.00D-01 BMatC= 6.85D-11 BMatP= 1.77D-09
 IDIUse=1 WtCom= 1.00D+00 WtEn= 0.00D+00
 Coeff-Com: -0.700D-04 0.811D-03-0.639D-02 0.346D-01-0.172D+00 0.468D+00
 Coeff-Com: -0.904D+00 0.158D+01
 Coeff:     -0.700D-04 0.811D-03-0.639D-02 0.346D-01-0.172D+00 0.468D+00
 Coeff:     -0.904D+00 0.158D+01
 Gap=     0.508 Goal=   None    Shift=    0.000
 RMSDP=9.25D-07 MaxDP=8.75D-06 DE=-1.15D-08 OVMax= 5.19D-06

 Cycle   9  Pass 1  IDiag  3:
 E=-0.848895478811755E-01 Delta-E=       -0.000000000438 Rises=F Damp=F
 DIIS: error= 1.90D-07 at cycle   9 NSaved=   9.
 NSaved= 9 IEnMin= 9 EnMin=-0.848895478811755E-01 IErMin= 9 ErrMin= 1.90D-07
 ErrMax= 1.90D-07  0.00D+00 EMaxC= 1.00D-01 BMatC= 3.74D-12 BMatP= 6.85D-11
 IDIUse=1 WtCom= 1.00D+00 WtEn= 0.00D+00
 Coeff-Com:  0.239D-04-0.310D-03 0.257D-02-0.141D-01 0.708D-01-0.196D+00
 Coeff-Com:  0.394D+00-0.844D+00 0.159D+01
 Coeff:      0.239D-04-0.310D-03 0.257D-02-0.141D-01 0.708D-01-0.196D+00
 Coeff:      0.394D+00-0.844D+00 0.159D+01
 Gap=     0.508 Goal=   None    Shift=    0.000
 RMSDP=2.19D-07 MaxDP=1.70D-06 DE=-4.38D-10 OVMax= 1.01D-06

 Cycle  10  Pass 1  IDiag  3:
 E=-0.848895479049361E-01 Delta-E=       -0.000000000024 Rises=F Damp=F
 DIIS: error= 4.84D-08 at cycle  10 NSaved=  10.
 NSaved=10 IEnMin=10 EnMin=-0.848895479049361E-01 IErMin=10 ErrMin= 4.84D-08
 ErrMax= 4.84D-08  0.00D+00 EMaxC= 1.00D-01 BMatC= 1.77D-13 BMatP= 3.74D-12
 IDIUse=1 WtCom= 1.00D+00 WtEn= 0.00D+00
 Coeff-Com: -0.714D-05 0.101D-03-0.867D-03 0.481D-02-0.244D-01 0.680D-01
 Coeff-Com: -0.138D+00 0.313D+00-0.732D+00 0.151D+01
 Coeff:     -0.714D-05 0.101D-03-0.867D-03 0.481D-02-0.244D-01 0.680D-01
 Coeff:     -0.138D+00 0.313D+00-0.732D+00 0.151D+01
 Gap=     0.508 Goal=   None    Shift=    0.000
 RMSDP=4.64D-08 MaxDP=3.74D-07 DE=-2.38D-11 OVMax= 3.63D-07

 Cycle  11  Pass 1  IDiag  3:
 E=-0.848895479062435E-01 Delta-E=       -0.000000000001 Rises=F Damp=F
 DIIS: error= 1.40D-08 at cycle  11 NSaved=  11.
 NSaved=11 IEnMin=11 EnMin=-0.848895479062435E-01 IErMin=11 ErrMin= 1.40D-08
 ErrMax= 1.40D-08  0.00D+00 EMaxC= 1.00D-01 BMatC= 1.23D-14 BMatP= 1.77D-13
 IDIUse=1 WtCom= 1.00D+00 WtEn= 0.00D+00
 Coeff-Com:  0.222D-05-0.306D-04 0.259D-03-0.144D-02 0.729D-02-0.204D-01
 Coeff-Com:  0.417D-01-0.958D-01 0.243D+00-0.698D+00 0.152D+01
 Coeff:      0.222D-05-0.306D-04 0.259D-03-0.144D-02 0.729D-02-0.204D-01
 Coeff:      0.417D-01-0.958D-01 0.243D+00-0.698D+00 0.152D+01
 Gap=     0.508 Goal=   None    Shift=    0.000
 RMSDP=1.28D-08 MaxDP=9.82D-08 DE=-1.31D-12 OVMax= 1.14D-07

 Cycle  12  Pass 1  IDiag  3:
 E=-0.848895479059877E-01 Delta-E=        0.000000000000 Rises=F Damp=F
 DIIS: error= 4.20D-09 at cycle  12 NSaved=  12.
 NSaved=12 IEnMin=11 EnMin=-0.848895479062435E-01 IErMin=12 ErrMin= 4.20D-09
 ErrMax= 4.20D-09  0.00D+00 EMaxC= 1.00D-01 BMatC= 8.22D-16 BMatP= 1.23D-14
 IDIUse=1 WtCom= 1.00D+00 WtEn= 0.00D+00
 Coeff-Com: -0.441D-06 0.581D-05-0.482D-04 0.266D-03-0.135D-02 0.381D-02
 Coeff-Com: -0.782D-02 0.179D-01-0.493D-01 0.183D+00-0.653D+00 0.151D+01
 Coeff:     -0.441D-06 0.581D-05-0.482D-04 0.266D-03-0.135D-02 0.381D-02
 Coeff:     -0.782D-02 0.179D-01-0.493D-01 0.183D+00-0.653D+00 0.151D+01
 Gap=     0.508 Goal=   None    Shift=    0.000
 RMSDP=3.61D-09 MaxDP=3.29D-08 DE= 2.56D-13 OVMax= 3.20D-08

 Cycle  13  Pass 2  IDiag  1:
 SCF Done:  E(RPM3) = -0.848895479060E-01 A.U. after   13 cycles
            NFock= 12  Conv=0.36D-08     -V/T= 0.9986
 KE=-5.964370248207D+01 PE=-2.559728919031D+02 EE= 1.447914373406D+02
 Leave Link  502 at Wed Sep  7 15:35:27 2022, MaxMem=   131072000 cpu:               0.0 elap:               0.0
 (Enter /opt/g16/l601.exe)
 Copying SCF densities to generalized density rwf, IOpCl= 0 IROHF=0.

 **********************************************************************

            Population analysis using the SCF density.

 **********************************************************************

 Orbital symmetries:
       Occupied  (A) (A) (A) (A) (A) (A) (A) (A) (A) (A) (A) (A)
                 (A) (A) (A) (A) (A) (A) (A)
       Virtual   (A) (A) (A) (A) (A) (A) (A) (A) (A) (A) (A) (A)
                 (A) (A) (A) (A) (A)
 The electronic state is 1-A.
 Alpha  occ. eigenvalues --   -1.48804  -1.23785  -1.20478  -0.96888  -0.78494
 Alpha  occ. eigenvalues --   -0.75331  -0.67816  -0.60359  -0.57344  -0.54707
 Alpha  occ. eigenvalues --   -0.53345  -0.51745  -0.48665  -0.46966  -0.46413
 Alpha  occ. eigenvalues --   -0.45322  -0.43005  -0.42393  -0.39826
 Alpha virt. eigenvalues --    0.10936   0.12192   0.13201   0.14082   0.14312
 Alpha virt. eigenvalues --    0.14604   0.14965   0.15996   0.16167   0.16328
 Alpha virt. eigenvalues --    0.16957   0.17334   0.17849   0.18288   0.18958
 Alpha virt. eigenvalues --    0.19208   0.21652
          Condensed to atoms (all electrons):
               1          2          3          4          5          6
     1  C    4.111299   0.000000   0.000000   0.000000   0.000000   0.000000
     2  H    0.000000   0.968203   0.000000   0.000000   0.000000   0.000000
     3  H    0.000000   0.000000   0.967459   0.000000   0.000000   0.000000
     4  H    0.000000   0.000000   0.000000   0.934677   0.000000   0.000000
     5  C    0.000000   0.000000   0.000000   0.000000   4.113204   0.000000
     6  H    0.000000   0.000000   0.000000   0.000000   0.000000   0.946891
     7  H    0.000000   0.000000   0.000000   0.000000   0.000000   0.000000
     8  C    0.000000   0.000000   0.000000   0.000000   0.000000   0.000000
     9  H    0.000000   0.000000   0.000000   0.000000   0.000000   0.000000
    10  O    0.000000   0.000000   0.000000   0.000000   0.000000   0.000000
    11  C    0.000000   0.000000   0.000000   0.000000   0.000000   0.000000
    12  H    0.000000   0.000000   0.000000   0.000000   0.000000   0.000000
    13  H    0.000000   0.000000   0.000000   0.000000   0.000000   0.000000
    14  H    0.000000   0.000000   0.000000   0.000000   0.000000   0.000000
    15  C    0.000000   0.000000   0.000000   0.000000   0.000000   0.000000
    16  H    0.000000   0.000000   0.000000   0.000000   0.000000   0.000000
    17  H    0.000000   0.000000   0.000000   0.000000   0.000000   0.000000
    18  H    0.000000   0.000000   0.000000   0.000000   0.000000   0.000000
               7          8          9         10         11         12
     1  C    0.000000   0.000000   0.000000   0.000000   0.000000   0.000000
     2  H    0.000000   0.000000   0.000000   0.000000   0.000000   0.000000
     3  H    0.000000   0.000000   0.000000   0.000000   0.000000   0.000000
     4  H    0.000000   0.000000   0.000000   0.000000   0.000000   0.000000
     5  C    0.000000   0.000000   0.000000   0.000000   0.000000   0.000000
     6  H    0.000000   0.000000   0.000000   0.000000   0.000000   0.000000
     7  H    0.938839   0.000000   0.000000   0.000000   0.000000   0.000000
     8  C    0.000000   3.885433   0.000000   0.000000   0.000000   0.000000
     9  H    0.000000   0.000000   0.980757   0.000000   0.000000   0.000000
    10  O    0.000000   0.000000   0.000000   6.314881   0.000000   0.000000
    11  C    0.000000   0.000000   0.000000   0.000000   4.149069   0.000000
    12  H    0.000000   0.000000   0.000000   0.000000   0.000000   0.813481
    13  H    0.000000   0.000000   0.000000   0.000000   0.000000   0.000000
    14  H    0.000000   0.000000   0.000000   0.000000   0.000000   0.000000
    15  C    0.000000   0.000000   0.000000   0.000000   0.000000   0.000000
    16  H    0.000000   0.000000   0.000000   0.000000   0.000000   0.000000
    17  H    0.000000   0.000000   0.000000   0.000000   0.000000   0.000000
    18  H    0.000000   0.000000   0.000000   0.000000   0.000000   0.000000
              13         14         15         16         17         18
     1  C    0.000000   0.000000   0.000000   0.000000   0.000000   0.000000
     2  H    0.000000   0.000000   0.000000   0.000000   0.000000   0.000000
     3  H    0.000000   0.000000   0.000000   0.000000   0.000000   0.000000
     4  H    0.000000   0.000000   0.000000   0.000000   0.000000   0.000000
     5  C    0.000000   0.000000   0.000000   0.000000   0.000000   0.000000
     6  H    0.000000   0.000000   0.000000   0.000000   0.000000   0.000000
     7  H    0.000000   0.000000   0.000000   0.000000   0.000000   0.000000
     8  C    0.000000   0.000000   0.000000   0.000000   0.000000   0.000000
     9  H    0.000000   0.000000   0.000000   0.000000   0.000000   0.000000
    10  O    0.000000   0.000000   0.000000   0.000000   0.000000   0.000000
    11  C    0.000000   0.000000   0.000000   0.000000   0.000000   0.000000
    12  H    0.000000   0.000000   0.000000   0.000000   0.000000   0.000000
    13  H    0.952061   0.000000   0.000000   0.000000   0.000000   0.000000
    14  H    0.000000   0.940088   0.000000   0.000000   0.000000   0.000000
    15  C    0.000000   0.000000   4.097073   0.000000   0.000000   0.000000
    16  H    0.000000   0.000000   0.000000   0.946519   0.000000   0.000000
    17  H    0.000000   0.000000   0.000000   0.000000   0.980371   0.000000
    18  H    0.000000   0.000000   0.000000   0.000000   0.000000   0.959696
 Mulliken charges:
               1
     1  C   -0.111299
     2  H    0.031797
     3  H    0.032541
     4  H    0.065323
     5  C   -0.113204
     6  H    0.053109
     7  H    0.061161
     8  C    0.114567
     9  H    0.019243
    10  O   -0.314881
    11  C   -0.149069
    12  H    0.186519
    13  H    0.047939
    14  H    0.059912
    15  C   -0.097073
    16  H    0.053481
    17  H    0.019629
    18  H    0.040304
 Sum of Mulliken charges =   0.00000
 Mulliken charges with hydrogens summed into heavy atoms:
               1
     1  C    0.018363
     5  C    0.001066
     8  C    0.133810
    10  O   -0.128362
    11  C   -0.041218
    15  C    0.016341
 Charge=              0.0000 electrons
 Dipole moment (field-independent basis, Debye):
    X=             -0.8679    Y=             -0.3748    Z=              0.9726  Tot=              1.3563
 N-N= 1.707402674966D+02 E-N=-2.559728919499D+02  KE=-5.964370248207D+01
 Leave Link  601 at Wed Sep  7 15:35:27 2022, MaxMem=   131072000 cpu:               0.0 elap:               0.0
 (Enter /opt/g16/l701.exe)
 ... and contract with generalized density number  0.
 Compute integral first derivatives.
 Leave Link  701 at Wed Sep  7 15:35:27 2022, MaxMem=   131072000 cpu:               0.0 elap:               0.0
 (Enter /opt/g16/l702.exe)
 L702 exits ... SP integral derivatives will be done elsewhere.
 Leave Link  702 at Wed Sep  7 15:35:27 2022, MaxMem=   131072000 cpu:               0.0 elap:               0.0
 (Enter /opt/g16/l703.exe)
 Integral derivatives from FoFJK, PRISM(SPDF).
 Compute integral first derivatives, UseDBF=F ICtDFT=           0.
 Calling FoFJK, ICntrl=      2127 FMM=F ISym2X=0 I1Cent= 0 IOpClX= 0 NMat=1 NMatS=1 NMatT=0.
 FoFJK:  IHMeth= 9 ICntrl=    2127 DoSepK=F KAlg= 0 I1Cent=           0 FoldK=F
 IRaf=         0 NMat=       1 IRICut=       1 DoRegI=T DoRafI=F ISym2E= 0 IDoP0=3 IntGTp=3.
 FoFCou: FMM=F IPFlag=           0 FMFlag=      100000 FMFlg1=         800
         NFxFlg=           0 DoJE=F BraDBF=F KetDBF=F FulRan=T
         wScrn=  0.000000 ICntrl=      2127 IOpCl=  0 I1Cent=           0 NGrid=           0
         NMat0=    1 NMatS0=      1 NMatT0=    0 NMatD0=    1 NMtDS0=    0 NMtDT0=    0
 Symmetry not used in FoFCou.
 Leave Link  703 at Wed Sep  7 15:35:27 2022, MaxMem=   131072000 cpu:               0.0 elap:               0.0
 (Enter /opt/g16/l716.exe)
 Dipole        =-3.41447971D-01-1.47457097D-01 3.82639056D-01
 ***** Axes restored to original set *****
 -------------------------------------------------------------------
 Center     Atomic                   Forces (Hartrees/Bohr)
 Number     Number              X              Y              Z
 -------------------------------------------------------------------
      1        6           0.020526215   -0.014950146   -0.026330216
      2        1          -0.018310379    0.002890651    0.026585804
      3        1          -0.003692750    0.011736555    0.003475664
      4        1           0.000021646   -0.007701105    0.007307868
      5        6          -0.041292232    0.025283285    0.024072807
      6        1           0.006179967   -0.002759251    0.005742582
      7        1           0.006316675   -0.012936316   -0.007692233
      8        6           0.006269270    0.016117910   -0.025763291
      9        1          -0.001771199   -0.053556471   -0.010912835
     10        8           0.007101924    0.016244862   -0.015256978
     11        6           0.051897034    0.025370227    0.004047340
     12        1           0.005967204    0.000675622    0.016007049
     13        1          -0.002377669   -0.004363026    0.001819190
     14        1          -0.018763001    0.017854381   -0.019111296
     15        6          -0.054113081   -0.047156743   -0.004540389
     16        1           0.003980079   -0.004634463    0.008662741
     17        1          -0.003126975    0.015640706    0.002949978
     18        1           0.035187273    0.016243322    0.008936216
 -------------------------------------------------------------------
 Cartesian Forces:  Max     0.054113081 RMS     0.020309546
 Leave Link  716 at Wed Sep  7 15:35:27 2022, MaxMem=   131072000 cpu:               0.0 elap:               0.0
 (Enter /opt/g16/l103.exe)

 GradGradGradGradGradGradGradGradGradGradGradGradGradGradGradGradGradGrad
 Berny optimization.
 FormGI is forming the generalized inverse of G from B-inverse, IUseBI=4.
 GSVD:  received Info=                   1 from GESDD.
 Internal  Forces:  Max     0.054221860 RMS     0.012726048
 Search for a local minimum.
 Step number   1 out of a maximum of   97
 All quantities printed in internal units (Hartrees-Bohrs-Radians)
 RMS Force = .12726D-01 SwitMx=.10000D-02 MixMth= 1
 Mixed Optimization -- RFO/linear search
 Second derivative matrix not updated -- first step.
 ITU=  0
     Eigenvalues ---    0.00230   0.00251   0.00781   0.00938   0.01456
     Eigenvalues ---    0.02926   0.04114   0.04168   0.04775   0.04921
     Eigenvalues ---    0.05030   0.05109   0.05337   0.05972   0.06064
     Eigenvalues ---    0.07586   0.07910   0.09617   0.11752   0.13119
     Eigenvalues ---    0.16000   0.16000   0.16000   0.16000   0.16000
     Eigenvalues ---    0.16000   0.16000   0.17297   0.20792   0.21867
     Eigenvalues ---    0.21910   0.26986   0.27002   0.28613   0.30412
     Eigenvalues ---    0.30608   0.31811   0.31888   0.32404   0.32496
     Eigenvalues ---    0.32872   0.33783   0.34302   0.39803   0.40997
     Eigenvalues ---    0.41098   0.42792   0.55748
 RFO step:  Lambda=-4.57497067D-02 EMin= 2.30000000D-03
 Linear search not attempted -- first point.
 Maximum step size (   0.300) exceeded in Quadratic search.
    -- Step size scaled by   0.827
 Iteration  1 RMS(Cart)=  0.09332823 RMS(Int)=  0.00337817
 Iteration  2 RMS(Cart)=  0.00418682 RMS(Int)=  0.00074920
 Iteration  3 RMS(Cart)=  0.00000974 RMS(Int)=  0.00074911
 Iteration  4 RMS(Cart)=  0.00000001 RMS(Int)=  0.00074911
 ITry= 1 IFail=0 DXMaxC= 4.72D-01 DCOld= 1.00D+10 DXMaxT= 3.00D-01 DXLimC= 3.00D+00 Rises=F
 Variable       Old X    -DE/DX   Delta X   Delta X   Delta X     New X
                                 (Linear)    (Quad)   (Total)
    R1        1.98521   0.03219   0.00000   0.06002   0.06002   2.04524
    R2        2.11190  -0.01065   0.00000  -0.02422  -0.02422   2.08768
    R3        2.10111  -0.01014   0.00000  -0.02269  -0.02269   2.07842
    R4        2.90817  -0.00067   0.00000  -0.00166  -0.00166   2.90650
    R5        2.06824   0.00674   0.00000   0.01435   0.01435   2.08259
    R6        2.13850  -0.01350   0.00000  -0.03193  -0.03193   2.10656
    R7        2.80998   0.04355   0.00000   0.09394   0.09394   2.90392
    R8        1.96788   0.05422   0.00000   0.09823   0.09823   2.06611
    R9        2.67927   0.00016   0.00000   0.00028   0.00028   2.67955
   R10        2.83246   0.01710   0.00000   0.03817   0.03817   2.87063
   R11        1.81173  -0.01363   0.00000  -0.01869  -0.01869   1.79304
   R12        2.11049  -0.00289   0.00000  -0.00656  -0.00656   2.10393
   R13        2.21110  -0.03181   0.00000  -0.08340  -0.08340   2.12770
   R14        2.94374  -0.02692   0.00000  -0.07054  -0.07054   2.87320
   R15        2.09277  -0.00996   0.00000  -0.02201  -0.02201   2.07076
   R16        2.13466  -0.01498   0.00000  -0.03524  -0.03524   2.09942
   R17        1.96921   0.03884   0.00000   0.07052   0.07052   2.03973
    A1        1.88674  -0.00381   0.00000  -0.00919  -0.00965   1.87709
    A2        1.92249  -0.00394   0.00000  -0.02319  -0.02318   1.89931
    A3        1.91729   0.00209   0.00000   0.00697   0.00675   1.92404
    A4        1.90457  -0.00511   0.00000  -0.01829  -0.01847   1.88610
    A5        1.86587   0.01003   0.00000   0.04443   0.04410   1.90997
    A6        1.96446   0.00086   0.00000   0.00053   0.00045   1.96491
    A7        1.88609  -0.00852   0.00000  -0.01792  -0.01703   1.86906
    A8        1.82145  -0.00229   0.00000   0.02170   0.02276   1.84421
    A9        1.90697   0.02802   0.00000   0.09776   0.09782   2.00479
   A10        1.89112   0.00290   0.00000  -0.01562  -0.01742   1.87369
   A11        1.93780  -0.00779   0.00000  -0.03208  -0.03332   1.90448
   A12        2.01347  -0.01201   0.00000  -0.04935  -0.05243   1.96104
   A13        1.95293  -0.00596   0.00000  -0.01685  -0.01756   1.93537
   A14        1.88101   0.01504   0.00000   0.04909   0.04775   1.92876
   A15        1.93907   0.00045   0.00000  -0.00715  -0.00711   1.93196
   A16        1.78446   0.00501   0.00000   0.04104   0.04138   1.82585
   A17        1.83299   0.00578   0.00000   0.02266   0.02334   1.85632
   A18        2.06775  -0.02079   0.00000  -0.08682  -0.08613   1.98161
   A19        1.94062  -0.01789   0.00000  -0.07196  -0.07196   1.86866
   A20        1.91497   0.00297   0.00000   0.01501   0.01603   1.93100
   A21        1.94620   0.00232   0.00000  -0.01067  -0.01148   1.93472
   A22        2.08335  -0.01700   0.00000  -0.05606  -0.05641   2.02694
   A23        1.79908  -0.00165   0.00000   0.00687   0.00648   1.80556
   A24        1.79086   0.00964   0.00000   0.04831   0.04863   1.83949
   A25        1.90235   0.00622   0.00000   0.01026   0.00868   1.91103
   A26        2.00014  -0.00639   0.00000  -0.03419  -0.03428   1.96586
   A27        1.86315   0.00756   0.00000   0.03886   0.03864   1.90179
   A28        1.91385   0.00261   0.00000   0.00959   0.00888   1.92273
   A29        1.87830  -0.00170   0.00000  -0.00711  -0.00672   1.87158
   A30        1.97356  -0.00225   0.00000  -0.02305  -0.02355   1.95001
   A31        1.82229   0.00143   0.00000   0.02527   0.02437   1.84666
    D1        0.94654   0.00028   0.00000   0.00140   0.00123   0.94777
    D2       -1.06365   0.00180   0.00000   0.01657   0.01781  -1.04583
    D3        3.05693   0.00222   0.00000   0.00934   0.00866   3.06559
    D4       -1.09665  -0.00193   0.00000  -0.01628  -0.01666  -1.11331
    D5       -3.10684  -0.00041   0.00000  -0.00111  -0.00008  -3.10691
    D6        1.01374   0.00002   0.00000  -0.00835  -0.00923   1.00452
    D7        3.09559  -0.00268   0.00000  -0.02306  -0.02342   3.07217
    D8        1.08539  -0.00116   0.00000  -0.00789  -0.00683   1.07857
    D9       -1.07721  -0.00073   0.00000  -0.01512  -0.01598  -1.09319
   D10       -1.40680   0.00097   0.00000   0.01523   0.01484  -1.39197
   D11        0.54173   0.01234   0.00000   0.08304   0.08279   0.62451
   D12        2.83377  -0.00275   0.00000   0.00223   0.00141   2.83518
   D13        0.67179   0.00345   0.00000   0.03542   0.03463   0.70642
   D14        2.62032   0.01482   0.00000   0.10323   0.10258   2.72290
   D15       -1.37082  -0.00027   0.00000   0.02243   0.02120  -1.34962
   D16        2.83161  -0.00842   0.00000  -0.05070  -0.04922   2.78239
   D17       -1.50304   0.00295   0.00000   0.01711   0.01873  -1.48432
   D18        0.78900  -0.01214   0.00000  -0.06369  -0.06265   0.72635
   D19       -2.74048  -0.00313   0.00000  -0.04204  -0.04328  -2.78375
   D20       -0.68010  -0.00121   0.00000  -0.02097  -0.01970  -0.69979
   D21        1.32349  -0.00074   0.00000  -0.00677  -0.00681   1.31668
   D22       -0.76981  -0.00212   0.00000   0.00200   0.00148  -0.76833
   D23        1.21213  -0.00108   0.00000   0.01312   0.01218   1.22431
   D24       -2.82739  -0.00559   0.00000  -0.03599  -0.03624  -2.86363
   D25       -2.88442   0.00127   0.00000   0.01229   0.01231  -2.87211
   D26       -0.90248   0.00231   0.00000   0.02341   0.02301  -0.87947
   D27        1.34119  -0.00220   0.00000  -0.02570  -0.02541   1.31578
   D28        1.42157   0.00185   0.00000  -0.00951  -0.00887   1.41270
   D29       -2.87968   0.00289   0.00000   0.00161   0.00183  -2.87784
   D30       -0.63601  -0.00163   0.00000  -0.04751  -0.04659  -0.68260
   D31        0.92149   0.00416   0.00000   0.04382   0.04333   0.96482
   D32       -1.15617   0.00489   0.00000   0.04635   0.04645  -1.10972
   D33       -3.12051  -0.00188   0.00000  -0.00747  -0.00784  -3.12835
   D34       -1.19922   0.00294   0.00000   0.01987   0.02004  -1.17918
   D35        3.00630   0.00367   0.00000   0.02240   0.02316   3.02947
   D36        1.04197  -0.00310   0.00000  -0.03141  -0.03113   1.01084
   D37       -3.09814  -0.00165   0.00000  -0.01267  -0.01306  -3.11120
   D38        1.10739  -0.00093   0.00000  -0.01014  -0.00994   1.09745
   D39       -0.85695  -0.00770   0.00000  -0.06395  -0.06423  -0.92118
         Item               Value     Threshold  Converged?
 Maximum Force            0.054222     0.000450     NO 
 RMS     Force            0.012726     0.000300     NO 
 Maximum Displacement     0.472167     0.001800     NO 
 RMS     Displacement     0.091901     0.001200     NO 
 Predicted change in Energy=-2.525539D-02
 Lowest energy point so far.  Saving SCF results.
 GradGradGradGradGradGradGradGradGradGradGradGradGradGradGradGradGradGrad

 Leave Link  103 at Wed Sep  7 15:35:27 2022, MaxMem=   131072000 cpu:               0.0 elap:               0.0
 (Enter /opt/g16/l202.exe)
                          Input orientation:                          
 ---------------------------------------------------------------------
 Center     Atomic      Atomic             Coordinates (Angstroms)
 Number     Number       Type             X           Y           Z
 ---------------------------------------------------------------------
      1          6           0        1.298557    1.044425    7.874420
      2          1           0        0.827839    1.071178    8.848622
      3          1           0        0.954626    0.127371    7.363345
      4          1           0        0.954145    1.910166    7.290003
      5          6           0        2.828800    1.003739    8.023810
      6          1           0        3.067660    0.150304    8.678889
      7          1           0        3.102201    1.933054    8.575428
      8          6           0        3.603179    0.857774    6.704550
      9          1           0        3.607430   -0.182490    6.368064
     10          8           0        2.951037    1.567501    5.664552
     11          6           0        5.058069    1.253595    6.889491
     12          1           0        3.256860    1.202340    4.843929
     13          1           0        5.137184    2.189545    7.487231
     14          1           0        5.603111    0.494717    7.517781
     15          6           0        5.846774    1.519404    5.617091
     16          1           0        5.375987    2.276017    4.979381
     17          1           0        5.905211    0.580687    5.025785
     18          1           0        6.866330    1.778674    5.858626
 ---------------------------------------------------------------------
                    Distance matrix (angstroms):
                    1          2          3          4          5
     1  C    0.000000
     2  H    1.082294   0.000000
     3  H    1.104751   1.764340   0.000000
     4  H    1.099850   1.774583   1.784303   0.000000
     5  C    1.538056   2.165342   2.171810   2.207807   0.000000
     6  H    2.139240   2.427677   2.489196   3.081082   1.102060
     7  H    2.129367   2.447485   3.056421   2.503395   1.114745
     8  C    2.591278   3.513559   2.825302   2.909926   1.536690
     9  H    3.017503   3.930773   2.850257   3.502728   2.180573
    10  O    2.808526   3.859094   2.990908   2.597516   2.428758
    11  C    3.892013   4.665438   4.281490   4.175367   2.513712
    12  H    3.611615   4.685607   3.578170   3.433190   3.214703
    13  H    4.024459   4.655597   4.664944   4.196995   2.650036
    14  H    4.354142   4.990658   4.665534   4.865004   2.865654
    15  C    5.099747   5.986101   5.377757   5.185475   3.894403
    16  H    5.150098   6.091659   5.463369   5.002550   4.168381
    17  H    5.436086   6.374509   5.493448   5.604217   4.316414
    18  H    5.966795   6.775248   6.319748   6.084411   4.646525
                    6          7          8          9         10
     6  H    0.000000
     7  H    1.786083   0.000000
     8  C    2.164558   2.215263   0.000000
     9  H    2.396250   3.098909   1.093339   0.000000
    10  O    3.332908   2.937631   1.417955   1.997060   0.000000
    11  C    2.894983   2.670107   1.519072   2.106793   2.457355
    12  H    3.981143   3.805515   1.923687   2.088933   0.948837
    13  H    3.140300   2.321878   2.177010   3.036319   2.913474
    14  H    2.809858   3.072781   2.189265   2.400667   3.408638
    15  C    4.355746   4.056544   2.579543   2.911197   2.896525
    16  H    4.851123   4.268405   2.851398   3.331740   2.617601
    17  H    4.645653   4.720776   2.862582   2.768384   3.179460
    18  H    5.003535   4.644729   3.494538   3.837462   3.925783
                   11         12         13         14         15
    11  C    0.000000
    12  H    2.726042   0.000000
    13  H    1.113353   3.390758   0.000000
    14  H    1.125929   3.626997   1.757972   0.000000
    15  C    1.520432   2.721390   2.109510   2.173012   0.000000
    16  H    2.189735   2.379460   2.520677   3.109355   1.095800
    17  H    2.154960   2.726405   3.039244   2.511712   1.110966
    18  H    2.146671   3.793421   2.410625   2.448890   1.079376
                   16         17         18
    16  H    0.000000
    17  H    1.776619   0.000000
    18  H    1.800429   1.747154   0.000000
 Stoichiometry    C5H12O
 Framework group  C1[X(C5H12O)]
 Deg. of freedom    48
 Full point group                 C1      NOp   1
 RotChk:  IX=0 Diff= 2.99D-02
 Largest Abelian subgroup         C1      NOp   1
 Largest concise Abelian subgroup C1      NOp   1
                         Standard orientation:                         
 ---------------------------------------------------------------------
 Center     Atomic      Atomic             Coordinates (Angstroms)
 Number     Number       Type             X           Y           Z
 ---------------------------------------------------------------------
      1          6           0        2.554665    0.066774   -0.066133
      2          1           0        3.407221   -0.565625   -0.277272
      3          1           0        2.715714    0.522287    0.927369
      4          1           0        2.519797    0.875623   -0.810592
      5          6           0        1.264388   -0.770025   -0.042344
      6          1           0        1.423652   -1.590418    0.676075
      7          1           0        1.183101   -1.226761   -1.055971
      8          6           0       -0.001860    0.005978    0.352435
      9          1           0       -0.060965    0.129669    1.437146
     10          8           0        0.047190    1.328620   -0.156299
     11          6           0       -1.249228   -0.756707   -0.059833
     12          1           0       -0.558889    1.847246    0.357498
     13          1           0       -1.137675   -1.163881   -1.090037
     14          1           0       -1.382938   -1.678320    0.572991
     15          6           0       -2.544989    0.038515   -0.078235
     16          1           0       -2.481330    0.934052   -0.706518
     17          1           0       -2.775738    0.376731    0.954534
     18          1           0       -3.367319   -0.596779   -0.370177
 ---------------------------------------------------------------------
 Rotational constants (GHZ):           7.5123692           1.9256596           1.6372924
 Leave Link  202 at Wed Sep  7 15:35:27 2022, MaxMem=   131072000 cpu:               0.0 elap:               0.0
 (Enter /opt/g16/l301.exe)
 Standard basis: VSTO-6G (5D, 7F)
 Ernie: Thresh=  0.10000D-02 Tol=  0.10000D-05 Strict=F.
  NNHCO=     0 NNPyr=     0 NCTC=     0               EPep=         0.000000000
    EC=       127.816159586  ECS=         2.206241339   EG=         0.562918797
   EHC=         0.000000000  EAt=       -36.836480110  AtH=         2.452923921
 EPDDG=         0.000000000  ECC=       130.585319722 EAtT=        39.289404030
 There are    36 symmetry adapted cartesian basis functions of A   symmetry.
 There are    36 symmetry adapted basis functions of A   symmetry.
    36 basis functions,   216 primitive gaussians,    36 cartesian basis functions
    19 alpha electrons       19 beta electrons
       nuclear repulsion energy       169.8747237526 Hartrees.
 IExCor=    0 DFT=F Ex=HF Corr=None ExCW=0 ScaHFX=  1.000000
 ScaDFX=  1.000000  1.000000  1.000000  1.000000 ScalE2=  1.000000  1.000000
 IRadAn=      5 IRanWt=     -1 IRanGd=            0 ICorTp=0 IEmpDi=  4
 Integral buffers will be    131072 words long.
 Regular integral format.
 Two-electron integral symmetry is turned off.
 Leave Link  301 at Wed Sep  7 15:35:27 2022, MaxMem=   131072000 cpu:               0.0 elap:               0.0
 (Enter /opt/g16/l302.exe)
 Do NDO integrals.
 NPDir=0 NMtPBC=     1 NCelOv=     1 NCel=       1 NClECP=     1 NCelD=      1
         NCelK=      1 NCelE2=     1 NClLst=     1 CellRange=     0.0.
 One-electron integrals computed using PRISM.
 NBasis=    36 RedAO= F EigKep=  0.00D+00  NBF=    36
 NBsUse=    36 1.00D-04 EigRej=  0.00D+00 NBFU=    36
 Leave Link  302 at Wed Sep  7 15:35:27 2022, MaxMem=   131072000 cpu:               0.0 elap:               0.0
 (Enter /opt/g16/l303.exe)
 DipDrv:  MaxL=1.
 Leave Link  303 at Wed Sep  7 15:35:27 2022, MaxMem=   131072000 cpu:               0.0 elap:               0.0
 (Enter /opt/g16/l401.exe)
 Initial guess from the checkpoint file:  "MD_extract_016_gaussian.chk"
 B after Tr=     0.000000    0.000000    0.000000
         Rot=    0.999889    0.002063    0.000342   -0.014748 Ang=   1.71 deg.
 Guess basis will be translated and rotated to current coordinates.
 JPrj=0 DoOrth=T DoCkMO=T.
 Leave Link  401 at Wed Sep  7 15:35:27 2022, MaxMem=   131072000 cpu:               0.0 elap:               0.0
 (Enter /opt/g16/l502.exe)
 Keep J ints in memory in canonical form, NReq=862161.
 FoFCou: FMM=F IPFlag=           0 FMFlag=           0 FMFlg1=           0
         NFxFlg=           0 DoJE=F BraDBF=F KetDBF=F FulRan=T
         wScrn=  0.000000 ICntrl=       600 IOpCl=  2 I1Cent=           0 NGrid=           0
         NMat0=    1 NMatS0=     72 NMatT0=    0 NMatD0=    1 NMtDS0=    0 NMtDT0=    0
 Symmetry not used in FoFCou.
 Two-electron integral symmetry not used.
 Closed shell SCF:
 Using DIIS extrapolation, IDIIS=  1040.
 Overlap will be assumed to be unity.
 NGot=   131072000 LenX=   131006778 LenY=   131005041
 Requested convergence on RMS density matrix=1.00D-08 within 128 cycles.
 Requested convergence on MAX density matrix=1.00D-06.
 Requested convergence on             energy=1.00D-06.
 No special actions if energy rises.

 Cycle   1  Pass 1  IDiag  1:
 E=-0.925729580377208E-01
 DIIS: error= 1.07D-02 at cycle   1 NSaved=   1.
 NSaved= 1 IEnMin= 1 EnMin=-0.925729580377208E-01 IErMin= 1 ErrMin= 1.07D-02
 ErrMax= 1.07D-02  0.00D+00 EMaxC= 1.00D-01 BMatC= 3.61D-03 BMatP= 3.61D-03
 IDIUse=3 WtCom= 8.93D-01 WtEn= 1.07D-01
 Coeff-Com:  0.100D+01
 Coeff-En:   0.100D+01
 Coeff:      0.100D+01
 GapD=    2.000 DampG=2.000 DampE=0.500 DampFc=1.0000 IDamp=-1.
 RMSDP=2.94D-03 MaxDP=2.39D-02              OVMax= 0.00D+00

 Cycle   2  Pass 1  IDiag  3:
 E=-0.104688839318214     Delta-E=       -0.012115881280 Rises=F Damp=F
 DIIS: error= 5.10D-03 at cycle   2 NSaved=   2.
 NSaved= 2 IEnMin= 2 EnMin=-0.104688839318214     IErMin= 2 ErrMin= 5.10D-03
 ErrMax= 5.10D-03  0.00D+00 EMaxC= 1.00D-01 BMatC= 5.39D-04 BMatP= 3.61D-03
 IDIUse=3 WtCom= 9.49D-01 WtEn= 5.10D-02
 Coeff-Com: -0.522D+00 0.152D+01
 Coeff-En:   0.000D+00 0.100D+01
 Coeff:     -0.496D+00 0.150D+01
 Gap=     0.514 Goal=   None    Shift=    0.000
 RMSDP=1.87D-03 MaxDP=1.76D-02 DE=-1.21D-02 OVMax= 1.30D-02

 Cycle   3  Pass 1  IDiag  3:
 E=-0.107249757841089     Delta-E=       -0.002560918523 Rises=F Damp=F
 DIIS: error= 1.27D-03 at cycle   3 NSaved=   3.
 NSaved= 3 IEnMin= 3 EnMin=-0.107249757841089     IErMin= 3 ErrMin= 1.27D-03
 ErrMax= 1.27D-03  0.00D+00 EMaxC= 1.00D-01 BMatC= 2.33D-05 BMatP= 5.39D-04
 IDIUse=3 WtCom= 9.87D-01 WtEn= 1.27D-02
 Coeff-Com:  0.206D+00-0.737D+00 0.153D+01
 Coeff-En:   0.000D+00 0.000D+00 0.100D+01
 Coeff:      0.204D+00-0.727D+00 0.152D+01
 Gap=     0.514 Goal=   None    Shift=    0.000
 RMSDP=4.95D-04 MaxDP=5.21D-03 DE=-2.56D-03 OVMax= 4.54D-03

 Cycle   4  Pass 1  IDiag  3:
 E=-0.107388358476356     Delta-E=       -0.000138600635 Rises=F Damp=F
 DIIS: error= 2.39D-04 at cycle   4 NSaved=   4.
 NSaved= 4 IEnMin= 4 EnMin=-0.107388358476356     IErMin= 4 ErrMin= 2.39D-04
 ErrMax= 2.39D-04  0.00D+00 EMaxC= 1.00D-01 BMatC= 1.27D-06 BMatP= 2.33D-05
 IDIUse=3 WtCom= 9.98D-01 WtEn= 2.39D-03
 Coeff-Com: -0.112D+00 0.414D+00-0.100D+01 0.170D+01
 Coeff-En:   0.000D+00 0.000D+00 0.000D+00 0.100D+01
 Coeff:     -0.112D+00 0.413D+00-0.100D+01 0.170D+01
 Gap=     0.514 Goal=   None    Shift=    0.000
 RMSDP=1.37D-04 MaxDP=1.47D-03 DE=-1.39D-04 OVMax= 1.73D-03

 Cycle   5  Pass 1  IDiag  3:
 E=-0.107397460931651     Delta-E=       -0.000009102455 Rises=F Damp=F
 DIIS: error= 5.73D-05 at cycle   5 NSaved=   5.
 NSaved= 5 IEnMin= 5 EnMin=-0.107397460931651     IErMin= 5 ErrMin= 5.73D-05
 ErrMax= 5.73D-05  0.00D+00 EMaxC= 1.00D-01 BMatC= 7.08D-08 BMatP= 1.27D-06
 IDIUse=1 WtCom= 1.00D+00 WtEn= 0.00D+00
 Coeff-Com:  0.439D-01-0.164D+00 0.415D+00-0.880D+00 0.159D+01
 Coeff:      0.439D-01-0.164D+00 0.415D+00-0.880D+00 0.159D+01
 Gap=     0.514 Goal=   None    Shift=    0.000
 RMSDP=3.46D-05 MaxDP=3.35D-04 DE=-9.10D-06 OVMax= 4.11D-04

 Cycle   6  Pass 1  IDiag  3:
 E=-0.107397970400257     Delta-E=       -0.000000509469 Rises=F Damp=F
 DIIS: error= 1.03D-05 at cycle   6 NSaved=   6.
 NSaved= 6 IEnMin= 6 EnMin=-0.107397970400257     IErMin= 6 ErrMin= 1.03D-05
 ErrMax= 1.03D-05  0.00D+00 EMaxC= 1.00D-01 BMatC= 2.93D-09 BMatP= 7.08D-08
 IDIUse=1 WtCom= 1.00D+00 WtEn= 0.00D+00
 Coeff-Com: -0.141D-01 0.530D-01-0.136D+00 0.304D+00-0.673D+00 0.147D+01
 Coeff:     -0.141D-01 0.530D-01-0.136D+00 0.304D+00-0.673D+00 0.147D+01
 Gap=     0.514 Goal=   None    Shift=    0.000
 RMSDP=6.06D-06 MaxDP=5.90D-05 DE=-5.09D-07 OVMax= 5.98D-05

 Cycle   7  Pass 1  IDiag  3:
 E=-0.107397989759619     Delta-E=       -0.000000019359 Rises=F Damp=F
 DIIS: error= 2.89D-06 at cycle   7 NSaved=   7.
 NSaved= 7 IEnMin= 7 EnMin=-0.107397989759619     IErMin= 7 ErrMin= 2.89D-06
 ErrMax= 2.89D-06  0.00D+00 EMaxC= 1.00D-01 BMatC= 2.32D-10 BMatP= 2.93D-09
 IDIUse=1 WtCom= 1.00D+00 WtEn= 0.00D+00
 Coeff-Com:  0.392D-02-0.148D-01 0.380D-01-0.871D-01 0.212D+00-0.669D+00
 Coeff-Com:  0.152D+01
 Coeff:      0.392D-02-0.148D-01 0.380D-01-0.871D-01 0.212D+00-0.669D+00
 Coeff:      0.152D+01
 Gap=     0.514 Goal=   None    Shift=    0.000
 RMSDP=1.79D-06 MaxDP=2.17D-05 DE=-1.94D-08 OVMax= 1.83D-05

 Cycle   8  Pass 1  IDiag  3:
 E=-0.107397991423625     Delta-E=       -0.000000001664 Rises=F Damp=F
 DIIS: error= 1.08D-06 at cycle   8 NSaved=   8.
 NSaved= 8 IEnMin= 8 EnMin=-0.107397991423625     IErMin= 8 ErrMin= 1.08D-06
 ErrMax= 1.08D-06  0.00D+00 EMaxC= 1.00D-01 BMatC= 2.04D-11 BMatP= 2.32D-10
 IDIUse=1 WtCom= 1.00D+00 WtEn= 0.00D+00
 Coeff-Com: -0.126D-02 0.475D-02-0.123D-01 0.287D-01-0.747D-01 0.278D+00
 Coeff-Com: -0.872D+00 0.165D+01
 Coeff:     -0.126D-02 0.475D-02-0.123D-01 0.287D-01-0.747D-01 0.278D+00
 Coeff:     -0.872D+00 0.165D+01
 Gap=     0.514 Goal=   None    Shift=    0.000
 RMSDP=6.12D-07 MaxDP=8.30D-06 DE=-1.66D-09 OVMax= 6.54D-06

 Cycle   9  Pass 1  IDiag  3:
 E=-0.107397991585373     Delta-E=       -0.000000000162 Rises=F Damp=F
 DIIS: error= 2.73D-07 at cycle   9 NSaved=   9.
 NSaved= 9 IEnMin= 9 EnMin=-0.107397991585373     IErMin= 9 ErrMin= 2.73D-07
 ErrMax= 2.73D-07  0.00D+00 EMaxC= 1.00D-01 BMatC= 1.29D-12 BMatP= 2.04D-11
 IDIUse=1 WtCom= 1.00D+00 WtEn= 0.00D+00
 Coeff-Com:  0.294D-03-0.111D-02 0.291D-02-0.696D-02 0.199D-01-0.854D-01
 Coeff-Com:  0.313D+00-0.802D+00 0.156D+01
 Coeff:      0.294D-03-0.111D-02 0.291D-02-0.696D-02 0.199D-01-0.854D-01
 Coeff:      0.313D+00-0.802D+00 0.156D+01
 Gap=     0.514 Goal=   None    Shift=    0.000
 RMSDP=1.51D-07 MaxDP=1.90D-06 DE=-1.62D-10 OVMax= 1.37D-06

 Cycle  10  Pass 1  IDiag  3:
 E=-0.107397991595008     Delta-E=       -0.000000000010 Rises=F Damp=F
 DIIS: error= 4.49D-08 at cycle  10 NSaved=  10.
 NSaved=10 IEnMin=10 EnMin=-0.107397991595008     IErMin=10 ErrMin= 4.49D-08
 ErrMax= 4.49D-08  0.00D+00 EMaxC= 1.00D-01 BMatC= 5.97D-14 BMatP= 1.29D-12
 IDIUse=1 WtCom= 1.00D+00 WtEn= 0.00D+00
 Coeff-Com: -0.335D-04 0.129D-03-0.351D-03 0.926D-03-0.329D-02 0.177D-01
 Coeff-Com: -0.746D-01 0.225D+00-0.624D+00 0.146D+01
 Coeff:     -0.335D-04 0.129D-03-0.351D-03 0.926D-03-0.329D-02 0.177D-01
 Coeff:     -0.746D-01 0.225D+00-0.624D+00 0.146D+01
 Gap=     0.514 Goal=   None    Shift=    0.000
 RMSDP=2.92D-08 MaxDP=3.56D-07 DE=-9.63D-12 OVMax= 2.19D-07

 Cycle  11  Pass 1  IDiag  3:
 E=-0.107397991595576     Delta-E=       -0.000000000001 Rises=F Damp=F
 DIIS: error= 5.86D-09 at cycle  11 NSaved=  11.
 NSaved=11 IEnMin=11 EnMin=-0.107397991595576     IErMin=11 ErrMin= 5.86D-09
 ErrMax= 5.86D-09  0.00D+00 EMaxC= 1.00D-01 BMatC= 2.07D-15 BMatP= 5.97D-14
 IDIUse=1 WtCom= 1.00D+00 WtEn= 0.00D+00
 Coeff-Com:  0.357D-05-0.144D-04 0.425D-04-0.134D-03 0.631D-03-0.405D-02
 Coeff-Com:  0.183D-01-0.583D-01 0.182D+00-0.562D+00 0.142D+01
 Coeff:      0.357D-05-0.144D-04 0.425D-04-0.134D-03 0.631D-03-0.405D-02
 Coeff:      0.183D-01-0.583D-01 0.182D+00-0.562D+00 0.142D+01
 Gap=     0.514 Goal=   None    Shift=    0.000
 RMSDP=4.80D-09 MaxDP=4.25D-08 DE=-5.68D-13 OVMax= 2.86D-08

 Cycle  12  Pass 2  IDiag  1:
 SCF Done:  E(RPM3) = -0.107397991596     A.U. after   12 cycles
            NFock= 11  Conv=0.48D-08     -V/T= 0.9982
 KE=-5.962797726617D+01 PE=-2.542846956276D+02 EE= 1.439305511495D+02
 Leave Link  502 at Wed Sep  7 15:35:27 2022, MaxMem=   131072000 cpu:               0.0 elap:               0.0
 (Enter /opt/g16/l701.exe)
 ... and contract with generalized density number  0.
 Compute integral first derivatives.
 Leave Link  701 at Wed Sep  7 15:35:27 2022, MaxMem=   131072000 cpu:               0.0 elap:               0.0
 (Enter /opt/g16/l702.exe)
 L702 exits ... SP integral derivatives will be done elsewhere.
 Leave Link  702 at Wed Sep  7 15:35:28 2022, MaxMem=   131072000 cpu:               0.0 elap:               0.0
 (Enter /opt/g16/l703.exe)
 Integral derivatives from FoFJK, PRISM(SPDF).
 Compute integral first derivatives, UseDBF=F ICtDFT=           0.
 Calling FoFJK, ICntrl=      2127 FMM=F ISym2X=0 I1Cent= 0 IOpClX= 0 NMat=1 NMatS=1 NMatT=0.
 FoFJK:  IHMeth= 9 ICntrl=    2127 DoSepK=F KAlg= 0 I1Cent=           0 FoldK=F
 IRaf=         0 NMat=       1 IRICut=       1 DoRegI=T DoRafI=F ISym2E= 0 IDoP0=3 IntGTp=3.
 FoFCou: FMM=F IPFlag=           0 FMFlag=      100000 FMFlg1=         800
         NFxFlg=           0 DoJE=F BraDBF=F KetDBF=F FulRan=T
         wScrn=  0.000000 ICntrl=      2127 IOpCl=  0 I1Cent=           0 NGrid=           0
         NMat0=    1 NMatS0=      1 NMatT0=    0 NMatD0=    1 NMtDS0=    0 NMtDT0=    0
 Symmetry not used in FoFCou.
 Leave Link  703 at Wed Sep  7 15:35:28 2022, MaxMem=   131072000 cpu:               0.0 elap:               0.0
 (Enter /opt/g16/l716.exe)
 Dipole        =-3.25777830D-01-2.07036373D-01 4.02308930D-01
 ***** Axes restored to original set *****
 -------------------------------------------------------------------
 Center     Atomic                   Forces (Hartrees/Bohr)
 Number     Number              X              Y              Z
 -------------------------------------------------------------------
      1        6           0.018152789   -0.009257059   -0.013433162
      2        1          -0.004792380    0.001620238    0.007991208
      3        1          -0.001056948    0.004868249    0.000996854
      4        1           0.000975201   -0.002046754    0.001747424
      5        6          -0.020820702    0.010651242   -0.000801837
      6        1           0.005070382   -0.000536944    0.001674089
      7        1           0.004353532   -0.004514433   -0.003593017
      8        6          -0.005462971   -0.000647561   -0.007240574
      9        1          -0.003071079   -0.015681984   -0.000634027
     10        8          -0.002295947    0.006875706    0.005726119
     11        6           0.021024089    0.015755121    0.009192765
     12        1           0.002100924   -0.000516316    0.003690247
     13        1          -0.003291824   -0.001395552    0.001084339
     14        1          -0.007560864    0.003818494   -0.006489026
     15        6          -0.015661938   -0.025741415   -0.001891918
     16        1           0.003508736    0.002479824    0.001224780
     17        1          -0.000662553    0.006439236    0.000221507
     18        1           0.009491554    0.007829907    0.000534228
 -------------------------------------------------------------------
 Cartesian Forces:  Max     0.025741415 RMS     0.008407986
 Leave Link  716 at Wed Sep  7 15:35:28 2022, MaxMem=   131072000 cpu:               0.0 elap:               0.0
 (Enter /opt/g16/l103.exe)

 GradGradGradGradGradGradGradGradGradGradGradGradGradGradGradGradGradGrad
 Berny optimization.
 Using GEDIIS/GDIIS optimizer.
 FormGI is forming the generalized inverse of G from B-inverse, IUseBI=4.
 Internal  Forces:  Max     0.015103908 RMS     0.004002276
 Search for a local minimum.
 Step number   2 out of a maximum of   97
 All quantities printed in internal units (Hartrees-Bohrs-Radians)
 RMS Force = .40023D-02 SwitMx=.10000D-02 MixMth= 1
 Mixed Optimization -- RFO/linear search
 Update second derivatives using D2CorX and points    1    2
 DE= -2.25D-02 DEPred=-2.53D-02 R= 8.91D-01
 TightC=F SS=  1.41D+00  RLast= 3.68D-01 DXNew= 5.0454D-01 1.1030D+00
 Trust test= 8.91D-01 RLast= 3.68D-01 DXMaxT set to 5.05D-01
 ITU=  1  0
 Use linear search instead of GDIIS.
     Eigenvalues ---    0.00230   0.00251   0.00780   0.00942   0.01460
     Eigenvalues ---    0.03208   0.03572   0.04427   0.04804   0.05053
     Eigenvalues ---    0.05111   0.05173   0.05306   0.05665   0.05820
     Eigenvalues ---    0.07467   0.08563   0.09045   0.12452   0.12726
     Eigenvalues ---    0.15626   0.16000   0.16000   0.16000   0.16000
     Eigenvalues ---    0.16000   0.16063   0.17986   0.20348   0.21563
     Eigenvalues ---    0.23807   0.25930   0.27130   0.28985   0.30338
     Eigenvalues ---    0.30528   0.31669   0.31886   0.32138   0.32425
     Eigenvalues ---    0.32891   0.34267   0.37065   0.40041   0.41029
     Eigenvalues ---    0.41882   0.44040   0.55812
 RFO step:  Lambda=-9.08933861D-03 EMin= 2.29967653D-03
 Quartic linear search produced a step of  0.29378.
 Iteration  1 RMS(Cart)=  0.05022688 RMS(Int)=  0.00161450
 Iteration  2 RMS(Cart)=  0.00226538 RMS(Int)=  0.00079268
 Iteration  3 RMS(Cart)=  0.00000407 RMS(Int)=  0.00079267
 Iteration  4 RMS(Cart)=  0.00000000 RMS(Int)=  0.00079267
 ITry= 1 IFail=0 DXMaxC= 1.94D-01 DCOld= 1.00D+10 DXMaxT= 5.05D-01 DXLimC= 3.00D+00 Rises=F
 Variable       Old X    -DE/DX   Delta X   Delta X   Delta X     New X
                                 (Linear)    (Quad)   (Total)
    R1        2.04524   0.00932   0.01763   0.01747   0.03510   2.08034
    R2        2.08768  -0.00417  -0.00712  -0.01142  -0.01854   2.06914
    R3        2.07842  -0.00284  -0.00667  -0.00637  -0.01304   2.06538
    R4        2.90650  -0.01308  -0.00049  -0.05606  -0.05655   2.84996
    R5        2.08259   0.00251   0.00422   0.00625   0.01046   2.09305
    R6        2.10656  -0.00447  -0.00938  -0.01181  -0.02119   2.08537
    R7        2.90392  -0.00553   0.02760  -0.03883  -0.01123   2.89269
    R8        2.06611   0.01510   0.02886   0.02673   0.05559   2.12171
    R9        2.67955  -0.00363   0.00008  -0.01064  -0.01056   2.66899
   R10        2.87063   0.00942   0.01121   0.02835   0.03956   2.91019
   R11        1.79304  -0.00232  -0.00549  -0.00166  -0.00715   1.78589
   R12        2.10393  -0.00082  -0.00193  -0.00190  -0.00383   2.10011
   R13        2.12770  -0.00985  -0.02450  -0.02808  -0.05259   2.07511
   R14        2.87320  -0.00337  -0.02072  -0.00109  -0.02181   2.85139
   R15        2.07076  -0.00051  -0.00647   0.00244  -0.00402   2.06674
   R16        2.09942  -0.00559  -0.01035  -0.01556  -0.02592   2.07351
   R17        2.03973   0.01097   0.02072   0.01964   0.04036   2.08009
    A1        1.87709  -0.00107  -0.00283   0.00624   0.00268   1.87978
    A2        1.89931  -0.00076  -0.00681  -0.00987  -0.01675   1.88256
    A3        1.92404   0.00082   0.00198   0.00537   0.00693   1.93097
    A4        1.88610  -0.00164  -0.00543  -0.00993  -0.01521   1.87089
    A5        1.90997   0.00405   0.01296   0.02591   0.03856   1.94854
    A6        1.96491  -0.00148   0.00013  -0.01711  -0.01694   1.94796
    A7        1.86906   0.00344  -0.00500   0.03991   0.03472   1.90378
    A8        1.84421   0.00607   0.00669   0.05694   0.06358   1.90779
    A9        2.00479  -0.00489   0.02874  -0.04378  -0.01462   1.99016
   A10        1.87369  -0.00147  -0.00512  -0.00835  -0.01653   1.85716
   A11        1.90448  -0.00022  -0.00979  -0.01195  -0.02218   1.88231
   A12        1.96104  -0.00244  -0.01540  -0.02695  -0.04325   1.91779
   A13        1.93537  -0.00196  -0.00516  -0.01816  -0.02273   1.91264
   A14        1.92876  -0.00311   0.01403  -0.05548  -0.04313   1.88563
   A15        1.93196   0.00054  -0.00209  -0.01503  -0.01843   1.91354
   A16        1.82585   0.00348   0.01216   0.05272   0.06488   1.89073
   A17        1.85632   0.00214   0.00686   0.04178   0.04882   1.90514
   A18        1.98161  -0.00081  -0.02530   0.00111  -0.02590   1.95571
   A19        1.86866  -0.00610  -0.02114  -0.03013  -0.05127   1.81738
   A20        1.93100  -0.00039   0.00471   0.00200   0.00773   1.93874
   A21        1.93472  -0.00116  -0.00337  -0.04328  -0.04844   1.88628
   A22        2.02694  -0.00488  -0.01657  -0.02089  -0.03868   1.98826
   A23        1.80556   0.00028   0.00190   0.02148   0.02307   1.82863
   A24        1.83949   0.00512   0.01429   0.05777   0.07225   1.91173
   A25        1.91103   0.00190   0.00255  -0.00720  -0.00818   1.90285
   A26        1.96586  -0.00002  -0.01007  -0.00420  -0.01464   1.95122
   A27        1.90179   0.00442   0.01135   0.04169   0.05226   1.95405
   A28        1.92273   0.00185   0.00261   0.00550   0.00683   1.92956
   A29        1.87158  -0.00156  -0.00197   0.00016  -0.00172   1.86986
   A30        1.95001  -0.00430  -0.00692  -0.05638  -0.06408   1.88593
   A31        1.84666  -0.00024   0.00716   0.01733   0.02288   1.86954
    D1        0.94777   0.00217   0.00036   0.03158   0.03254   0.98030
    D2       -1.04583  -0.00051   0.00523  -0.00310   0.00211  -1.04372
    D3        3.06559   0.00126   0.00255   0.01735   0.01984   3.08543
    D4       -1.11331   0.00053  -0.00490   0.00505   0.00035  -1.11296
    D5       -3.10691  -0.00215  -0.00002  -0.02963  -0.03007  -3.13698
    D6        1.00452  -0.00038  -0.00271  -0.00918  -0.01234   0.99218
    D7        3.07217   0.00077  -0.00688   0.01093   0.00453   3.07670
    D8        1.07857  -0.00191  -0.00201  -0.02375  -0.02589   1.05267
    D9       -1.09319  -0.00014  -0.00469  -0.00330  -0.00817  -1.10136
   D10       -1.39197   0.00134   0.00436   0.04149   0.04566  -1.34631
   D11        0.62451   0.00256   0.02432   0.06188   0.08581   0.71032
   D12        2.83518  -0.00042   0.00041   0.01052   0.01102   2.84620
   D13        0.70642   0.00234   0.01017   0.05478   0.06435   0.77077
   D14        2.72290   0.00356   0.03014   0.07517   0.10451   2.82741
   D15       -1.34962   0.00058   0.00623   0.02381   0.02972  -1.31990
   D16        2.78239  -0.00116  -0.01446   0.01964   0.00588   2.78827
   D17       -1.48432   0.00006   0.00550   0.04003   0.04604  -1.43828
   D18        0.72635  -0.00292  -0.01841  -0.01133  -0.02875   0.69760
   D19       -2.78375  -0.00082  -0.01271  -0.03934  -0.05144  -2.83519
   D20       -0.69979  -0.00273  -0.00579  -0.05874  -0.06475  -0.76454
   D21        1.31668   0.00155  -0.00200   0.02391   0.02152   1.33820
   D22       -0.76833   0.00177   0.00043   0.00590   0.00608  -0.76226
   D23        1.22431   0.00120   0.00358   0.00800   0.01029   1.23460
   D24       -2.86363  -0.00121  -0.01065  -0.05723  -0.06744  -2.93107
   D25       -2.87211   0.00252   0.00362   0.01076   0.01460  -2.85751
   D26       -0.87947   0.00196   0.00676   0.01286   0.01881  -0.86065
   D27        1.31578  -0.00045  -0.00746  -0.05237  -0.05892   1.25686
   D28        1.41270  -0.00257  -0.00261  -0.07914  -0.08137   1.33132
   D29       -2.87784  -0.00314   0.00054  -0.07704  -0.07716  -2.95500
   D30       -0.68260  -0.00554  -0.01369  -0.14227  -0.15489  -0.83749
   D31        0.96482   0.00335   0.01273   0.09710   0.10932   1.07414
   D32       -1.10972   0.00237   0.01365   0.07176   0.08558  -1.02414
   D33       -3.12835  -0.00090  -0.00230   0.02399   0.02119  -3.10716
   D34       -1.17918   0.00310   0.00589   0.06399   0.07006  -1.10912
[...]
 ! A11   A(6,5,8)              108.8614         -DE/DX =    0.0                 !
 ! A12   A(7,5,8)              110.059          -DE/DX =    0.0                 !
 ! A13   A(5,8,9)              109.7738         -DE/DX =    0.0                 !
 ! A14   A(5,8,10)             107.3886         -DE/DX =    0.0                 !
 ! A15   A(5,8,11)             110.4995         -DE/DX =    0.0                 !
 ! A16   A(9,8,10)             107.8289         -DE/DX =    0.0                 !
 ! A17   A(9,8,11)             109.3365         -DE/DX =    0.0                 !
 ! A18   A(10,8,11)            111.9502         -DE/DX =    0.0001              !
 ! A19   A(8,10,12)            106.0253         -DE/DX =    0.0                 !
 ! A20   A(8,11,13)            109.8359         -DE/DX =    0.0                 !
 ! A21   A(8,11,14)            109.3505         -DE/DX =    0.0                 !
 ! A22   A(8,11,15)            111.5021         -DE/DX =    0.0001              !
 ! A23   A(13,11,14)           105.7763         -DE/DX =    0.0                 !
 ! A24   A(13,11,15)           110.1966         -DE/DX =    0.0                 !
 ! A25   A(14,11,15)           110.017          -DE/DX =    0.0                 !
 ! A26   A(11,15,16)           110.9939         -DE/DX =    0.0                 !
 ! A27   A(11,15,17)           111.7833         -DE/DX =    0.0                 !
 ! A28   A(11,15,18)           111.5604         -DE/DX =    0.0                 !
 ! A29   A(16,15,17)           107.1833         -DE/DX =    0.0                 !
 ! A30   A(16,15,18)           107.5562         -DE/DX =    0.0                 !
 ! A31   A(17,15,18)           107.5378         -DE/DX =    0.0                 !
 ! D1    D(2,1,5,6)             57.9306         -DE/DX =    0.0                 !
 ! D2    D(2,1,5,7)            -58.0177         -DE/DX =    0.0                 !
 ! D3    D(2,1,5,8)            179.0579         -DE/DX =    0.0                 !
 ! D4    D(3,1,5,6)            -61.9465         -DE/DX =    0.0                 !
 ! D5    D(3,1,5,7)           -177.8949         -DE/DX =    0.0                 !
 ! D6    D(3,1,5,8)             59.1807         -DE/DX =    0.0                 !
 ! D7    D(4,1,5,6)            177.8263         -DE/DX =    0.0                 !
 ! D8    D(4,1,5,7)             61.8779         -DE/DX =    0.0                 !
 ! D9    D(4,1,5,8)            -61.0465         -DE/DX =    0.0                 !
 ! D10   D(1,5,8,9)            -44.6826         -DE/DX =    0.0                 !
 ! D11   D(1,5,8,10)            72.2875         -DE/DX =    0.0                 !
 ! D12   D(1,5,8,11)          -165.3505         -DE/DX =    0.0                 !
 ! D13   D(6,5,8,9)             76.9089         -DE/DX =    0.0                 !
 ! D14   D(6,5,8,10)          -166.121          -DE/DX =    0.0                 !
 ! D15   D(6,5,8,11)           -43.759          -DE/DX =    0.0                 !
 ! D16   D(7,5,8,9)           -167.6011         -DE/DX =    0.0                 !
 ! D17   D(7,5,8,10)           -50.6309         -DE/DX =    0.0                 !
 ! D18   D(7,5,8,11)            71.731          -DE/DX =    0.0                 !
 ! D19   D(5,8,10,12)          164.3107         -DE/DX =    0.0                 !
 ! D20   D(9,8,10,12)          -77.4527         -DE/DX =    0.0                 !
 ! D21   D(11,8,10,12)          42.8536         -DE/DX =    0.0                 !
 ! D22   D(5,8,11,13)          -60.0249         -DE/DX =    0.0                 !
 ! D23   D(5,8,11,14)           55.6344         -DE/DX =    0.0                 !
 ! D24   D(5,8,11,15)          177.5237         -DE/DX =    0.0                 !
 ! D25   D(9,8,11,13)          179.0466         -DE/DX =    0.0                 !
 ! D26   D(9,8,11,14)          -65.2941         -DE/DX =    0.0                 !
 ! D27   D(9,8,11,15)           56.5952         -DE/DX =    0.0                 !
 ! D28   D(10,8,11,13)          59.623          -DE/DX =    0.0                 !
 ! D29   D(10,8,11,14)         175.2823         -DE/DX =    0.0                 !
 ! D30   D(10,8,11,15)         -62.8283         -DE/DX =    0.0                 !
 ! D31   D(8,11,15,16)          52.4652         -DE/DX =    0.0                 !
 ! D32   D(8,11,15,17)         -67.1468         -DE/DX =    0.0                 !
 ! D33   D(8,11,15,18)         172.4005         -DE/DX =    0.0                 !
 ! D34   D(13,11,15,16)        -69.7787         -DE/DX =    0.0                 !
 ! D35   D(13,11,15,17)        170.6093         -DE/DX =    0.0                 !
 ! D36   D(13,11,15,18)         50.1566         -DE/DX =    0.0                 !
 ! D37   D(14,11,15,16)        173.9684         -DE/DX =    0.0                 !
 ! D38   D(14,11,15,17)         54.3565         -DE/DX =    0.0                 !
 ! D39   D(14,11,15,18)        -66.0962         -DE/DX =    0.0                 !
 --------------------------------------------------------------------------------
 Lowest energy point so far.  Saving SCF results.
 Largest change from initial coordinates is atom    4       0.250 Angstoms.
 GradGradGradGradGradGradGradGradGradGradGradGradGradGradGradGradGradGrad

 Leave Link  103 at Wed Sep  7 15:35:36 2022, MaxMem=   131072000 cpu:               0.0 elap:               0.0
 (Enter /opt/g16/l202.exe)
                          Input orientation:                          
 ---------------------------------------------------------------------
 Center     Atomic      Atomic             Coordinates (Angstroms)
 Number     Number       Type             X           Y           Z
 ---------------------------------------------------------------------
      1          6           0        1.355779    0.693600    7.880393
      2          1           0        0.838384    0.736750    8.847486
      3          1           0        1.323112   -0.349179    7.536959
      4          1           0        0.770903    1.290339    7.168330
      5          6           0        2.775655    1.198944    8.000653
      6          1           0        3.322746    0.598573    8.754845
      7          1           0        2.777671    2.238722    8.384402
      8          6           0        3.532063    1.128569    6.666508
      9          1           0        3.339160    0.142733    6.173511
     10          8           0        3.006896    2.143361    5.827773
     11          6           0        5.045426    1.296802    6.895144
     12          1           0        3.635149    2.250818    5.120086
     13          1           0        5.247487    2.278610    7.367775
     14          1           0        5.393674    0.536165    7.620481
     15          6           0        5.818967    1.170941    5.601400
     16          1           0        5.413604    1.848143    4.831227
     17          1           0        5.770705    0.151957    5.195282
     18          1           0        6.877619    1.422154    5.738748
 ---------------------------------------------------------------------
                    Distance matrix (angstroms):
                    1          2          3          4          5
     1  C    0.000000
     2  H    1.097647   0.000000
     3  H    1.098363   1.769656   0.000000
     4  H    1.097821   1.769344   1.768853   0.000000
     5  C    1.511914   2.164202   2.172919   2.172590   0.000000
     6  H    2.154682   2.489926   2.525869   3.083419   1.108404
     7  H    2.159445   2.496237   3.087253   2.530885   1.108335
     8  C    2.529610   3.487993   2.796585   2.811050   1.535268
     9  H    2.674079   3.709027   2.483026   2.983724   2.184392
    10  O    3.006866   3.974879   3.459653   2.743065   2.380505
    11  C    3.866272   4.671670   4.120291   4.283248   2.526576
    12  H    3.903812   4.899776   4.236363   3.649894   3.184782
    13  H    4.233253   4.899701   4.725952   4.588710   2.770590
    14  H    4.049313   4.721911   4.166567   4.705659   2.727238
    15  C    5.034055   5.960856   5.125414   5.287010   3.875429
    16  H    5.205413   6.188551   5.374135   5.227606   4.174385
    17  H    5.195649   6.165093   5.051305   5.494256   4.235164
    18  H    5.967257   6.826887   6.101126   6.273202   4.689578
                    6          7          8          9         10
     6  H    0.000000
     7  H    1.767604   0.000000
     8  C    2.164684   2.180070   0.000000
     9  H    2.621325   3.097818   1.118986   0.000000
    10  O    3.324737   2.568655   1.417420   2.057291   0.000000
    11  C    2.629379   2.871901   1.539754   2.182652   2.451845
    12  H    4.004870   3.375081   1.913503   2.375149   0.952402
    13  H    2.907080   2.671164   2.181066   3.103216   2.722158
    14  H    2.362079   3.213370   2.174074   2.543528   3.390219
    15  C    4.062381   4.258490   2.523129   2.744807   2.984055
    16  H    4.618212   4.441367   2.725112   3.002243   2.621545
    17  H    4.343093   4.845960   2.851279   2.620960   3.464733
    18  H    4.734157   4.947307   3.484204   3.787694   3.938345
                   11         12         13         14         15
    11  C    0.000000
    12  H    2.459646   0.000000
    13  H    1.108222   2.766318   0.000000
    14  H    1.107230   3.504914   1.766733   0.000000
    15  C    1.512607   2.483316   2.161851   2.158820   0.000000
    16  H    2.167783   1.846209   2.578172   3.082469   1.102763
    17  H    2.173989   2.995241   3.084824   2.484222   1.097994
    18  H    2.170229   3.403387   2.458572   2.554993   1.096685
                   16         17         18
    16  H    0.000000
    17  H    1.771187   0.000000
    18  H    1.774374   1.770315   0.000000
 Stoichiometry    C5H12O
 Framework group  C1[X(C5H12O)]
 Deg. of freedom    48
 Full point group                 C1      NOp   1
 RotChk:  IX=0 Diff= 1.01D-15
 Largest Abelian subgroup         C1      NOp   1
 Largest concise Abelian subgroup C1      NOp   1
                         Standard orientation:                         
 ---------------------------------------------------------------------
 Center     Atomic      Atomic             Coordinates (Angstroms)
 Number     Number       Type             X           Y           Z
 ---------------------------------------------------------------------
      1          6           0        2.533504   -0.082431    0.338334
      2          1           0        3.431522   -0.586005   -0.042200
      3          1           0        2.499626   -0.247658    1.423670
      4          1           0        2.667774    0.995007    0.176133
      5          6           0        1.288761   -0.600651   -0.345732
      6          1           0        1.207579   -1.695508   -0.193229
      7          1           0        1.368535   -0.454376   -1.441472
      8          6           0        0.013244    0.070118    0.183583
      9          1           0        0.046837    0.118678    1.301010
     10          8           0       -0.001722    1.399363   -0.308318
     11          6           0       -1.233368   -0.720017   -0.255151
     12          1           0       -0.892028    1.714856   -0.186298
     13          1           0       -1.284052   -0.758528   -1.361544
     14          1           0       -1.137581   -1.771397    0.078591
     15          6           0       -2.500350   -0.112426    0.304821
     16          1           0       -2.558705    0.963925    0.072118
     17          1           0       -2.551479   -0.211380    1.397150
     18          1           0       -3.395002   -0.590077   -0.112509
 ---------------------------------------------------------------------
 Rotational constants (GHZ):           7.1105639           1.9154052           1.6724820
 Leave Link  202 at Wed Sep  7 15:35:36 2022, MaxMem=   131072000 cpu:               0.0 elap:               0.0
 (Enter /opt/g16/l601.exe)
 Copying SCF densities to generalized density rwf, IOpCl= 0 IROHF=0.

 **********************************************************************

            Population analysis using the SCF density.

 **********************************************************************

 Orbital symmetries:
       Occupied  (A) (A) (A) (A) (A) (A) (A) (A) (A) (A) (A) (A)
                 (A) (A) (A) (A) (A) (A) (A)
       Virtual   (A) (A) (A) (A) (A) (A) (A) (A) (A) (A) (A) (A)
                 (A) (A) (A) (A) (A)
 The electronic state is 1-A.
 Alpha  occ. eigenvalues --   -1.48627  -1.24038  -1.21328  -0.95409  -0.79117
 Alpha  occ. eigenvalues --   -0.76030  -0.65831  -0.61758  -0.56450  -0.55600
 Alpha  occ. eigenvalues --   -0.53679  -0.51709  -0.49720  -0.48172  -0.47037
 Alpha  occ. eigenvalues --   -0.44414  -0.43791  -0.42903  -0.40140
 Alpha virt. eigenvalues --    0.11495   0.12631   0.12925   0.13655   0.13780
 Alpha virt. eigenvalues --    0.14522   0.14728   0.15173   0.15566   0.15889
 Alpha virt. eigenvalues --    0.16802   0.17076   0.17338   0.18400   0.18570
 Alpha virt. eigenvalues --    0.18885   0.21164
          Condensed to atoms (all electrons):
               1          2          3          4          5          6
     1  C    4.106960   0.000000   0.000000   0.000000   0.000000   0.000000
     2  H    0.000000   0.965048   0.000000   0.000000   0.000000   0.000000
     3  H    0.000000   0.000000   0.965524   0.000000   0.000000   0.000000
     4  H    0.000000   0.000000   0.000000   0.949136   0.000000   0.000000
     5  C    0.000000   0.000000   0.000000   0.000000   4.105372   0.000000
     6  H    0.000000   0.000000   0.000000   0.000000   0.000000   0.951489
     7  H    0.000000   0.000000   0.000000   0.000000   0.000000   0.000000
     8  C    0.000000   0.000000   0.000000   0.000000   0.000000   0.000000
     9  H    0.000000   0.000000   0.000000   0.000000   0.000000   0.000000
    10  O    0.000000   0.000000   0.000000   0.000000   0.000000   0.000000
    11  C    0.000000   0.000000   0.000000   0.000000   0.000000   0.000000
    12  H    0.000000   0.000000   0.000000   0.000000   0.000000   0.000000
    13  H    0.000000   0.000000   0.000000   0.000000   0.000000   0.000000
    14  H    0.000000   0.000000   0.000000   0.000000   0.000000   0.000000
    15  C    0.000000   0.000000   0.000000   0.000000   0.000000   0.000000
    16  H    0.000000   0.000000   0.000000   0.000000   0.000000   0.000000
    17  H    0.000000   0.000000   0.000000   0.000000   0.000000   0.000000
    18  H    0.000000   0.000000   0.000000   0.000000   0.000000   0.000000
               7          8          9         10         11         12
     1  C    0.000000   0.000000   0.000000   0.000000   0.000000   0.000000
     2  H    0.000000   0.000000   0.000000   0.000000   0.000000   0.000000
     3  H    0.000000   0.000000   0.000000   0.000000   0.000000   0.000000
     4  H    0.000000   0.000000   0.000000   0.000000   0.000000   0.000000
     5  C    0.000000   0.000000   0.000000   0.000000   0.000000   0.000000
     6  H    0.000000   0.000000   0.000000   0.000000   0.000000   0.000000
     7  H    0.938760   0.000000   0.000000   0.000000   0.000000   0.000000
     8  C    0.000000   3.922981   0.000000   0.000000   0.000000   0.000000
     9  H    0.000000   0.000000   0.954966   0.000000   0.000000   0.000000
    10  O    0.000000   0.000000   0.000000   6.317148   0.000000   0.000000
    11  C    0.000000   0.000000   0.000000   0.000000   4.145568   0.000000
    12  H    0.000000   0.000000   0.000000   0.000000   0.000000   0.808866
    13  H    0.000000   0.000000   0.000000   0.000000   0.000000   0.000000
    14  H    0.000000   0.000000   0.000000   0.000000   0.000000   0.000000
    15  C    0.000000   0.000000   0.000000   0.000000   0.000000   0.000000
    16  H    0.000000   0.000000   0.000000   0.000000   0.000000   0.000000
    17  H    0.000000   0.000000   0.000000   0.000000   0.000000   0.000000
    18  H    0.000000   0.000000   0.000000   0.000000   0.000000   0.000000
              13         14         15         16         17         18
     1  C    0.000000   0.000000   0.000000   0.000000   0.000000   0.000000
     2  H    0.000000   0.000000   0.000000   0.000000   0.000000   0.000000
     3  H    0.000000   0.000000   0.000000   0.000000   0.000000   0.000000
     4  H    0.000000   0.000000   0.000000   0.000000   0.000000   0.000000
     5  C    0.000000   0.000000   0.000000   0.000000   0.000000   0.000000
     6  H    0.000000   0.000000   0.000000   0.000000   0.000000   0.000000
     7  H    0.000000   0.000000   0.000000   0.000000   0.000000   0.000000
     8  C    0.000000   0.000000   0.000000   0.000000   0.000000   0.000000
     9  H    0.000000   0.000000   0.000000   0.000000   0.000000   0.000000
    10  O    0.000000   0.000000   0.000000   0.000000   0.000000   0.000000
    11  C    0.000000   0.000000   0.000000   0.000000   0.000000   0.000000
    12  H    0.000000   0.000000   0.000000   0.000000   0.000000   0.000000
    13  H    0.937693   0.000000   0.000000   0.000000   0.000000   0.000000
    14  H    0.000000   0.939316   0.000000   0.000000   0.000000   0.000000
    15  C    0.000000   0.000000   4.110481   0.000000   0.000000   0.000000
    16  H    0.000000   0.000000   0.000000   0.966408   0.000000   0.000000
    17  H    0.000000   0.000000   0.000000   0.000000   0.958852   0.000000
    18  H    0.000000   0.000000   0.000000   0.000000   0.000000   0.955431
 Mulliken charges:
               1
     1  C   -0.106960
     2  H    0.034952
     3  H    0.034476
     4  H    0.050864
     5  C   -0.105372
     6  H    0.048511
     7  H    0.061240
     8  C    0.077019
     9  H    0.045034
    10  O   -0.317148
    11  C   -0.145568
    12  H    0.191134
    13  H    0.062307
    14  H    0.060684
    15  C   -0.110481
    16  H    0.033592
    17  H    0.041148
    18  H    0.044569
 Sum of Mulliken charges =   0.00000
 Mulliken charges with hydrogens summed into heavy atoms:
               1
     1  C    0.013332
     5  C    0.004378
     8  C    0.122052
    10  O   -0.126014
    11  C   -0.022577
    15  C    0.008828
 Charge=              0.0000 electrons
 Dipole moment (field-independent basis, Debye):
    X=             -1.2452    Y=             -0.8610    Z=              0.5082  Tot=              1.5969
 N-N= 1.700426390223D+02 E-N=-2.545183968338D+02  KE=-5.968717204010D+01
 Leave Link  601 at Wed Sep  7 15:35:36 2022, MaxMem=   131072000 cpu:               0.0 elap:               0.0
 (Enter /opt/g16/l9999.exe)
 1\1\GINC-TOTEM2\FOpt\RPM3\ZDO\C5H12O1\JRAMOS\07-Sep-2022\0\\#p opt pm3
 \\Conformer number 016. Energy MM = 0.000 kcal/mol\\0,1\C,1.3557790481
 ,0.6935998063,7.8803926191\H,0.8383839156,0.7367498397,8.847485651\H,1
 .3231117036,-0.3491789072,7.5369587827\H,0.7709031848,1.2903389722,7.1
 683297262\C,2.7756550529,1.1989437839,8.0006530228\H,3.322746016,0.598
 5727899,8.7548445151\H,2.7776708347,2.238722104,8.384401675\C,3.532063
 4788,1.1285685979,6.6665082653\H,3.3391601784,0.142733115,6.1735108229
 \O,3.0068962062,2.1433611114,5.8277733195\C,5.0454257962,1.2968015052,
 6.8951435794\H,3.6351485942,2.2508175391,5.1200855164\H,5.2474873941,2
 .2786098238,7.3677750864\H,5.3936737831,0.5361645058,7.6204805644\C,5.
 8189665886,1.1709414915,5.6013995523\H,5.4136037787,1.8481429471,4.831
 2273945\H,5.7707051824,0.1519572132,5.1952815356\H,6.8776192637,1.4221
 537614,5.7387483713\\Version=ES64L-G16RevA.03\State=1-A\HF=-0.1176668\
 RMSD=2.900e-09\RMSF=1.556e-05\Dipole=0.5603911,-0.2804706,-0.0448774\P
 G=C01 [X(C5H12O1)]\\@



 WE LOSE BECAUSE WE WIN

 GAMBLERS,

 RECOLLECTING WHICH,

 TOSS THEIR DICE AGAIN....


                          EMILY DICKINSON  BOLTS OF MELODY NO. 533
 Job cpu time:       0 days  0 hours  0 minutes  9.7 seconds.
 Elapsed time:       0 days  0 hours  0 minutes 14.3 seconds.
 File lengths (MBytes):  RWF=      6 Int=      0 D2E=      0 Chk=      2 Scr=      1
 Normal termination of Gaussian 16 at Wed Sep  7 15:35:36 2022.
