 Entering Gaussian System, Link 0=/opt/g16/g16
 Input=MD_extract_013_gaussian.com
 Output=MD_extract_013_gaussian.log
 Initial command:
 /opt/g16/l1.exe "/tmp/Gau-317135.inp" -scrdir="/tmp/"
 Entering Link 1 = /opt/g16/l1.exe PID=    317137.
  
 Copyright (c) 1988,1990,1992,1993,1995,1998,2003,2009,2016,
            Gaussian, Inc.  All Rights Reserved.
  
 This is part of the Gaussian(R) 16 program.  It is based on
 the Gaussian(R) 09 system (copyright 2009, Gaussian, Inc.),
 the Gaussian(R) 03 system (copyright 2003, Gaussian, Inc.),
 the Gaussian(R) 98 system (copyright 1998, Gaussian, Inc.),
 the Gaussian(R) 94 system (copyright 1995, Gaussian, Inc.),
 the Gaussian 92(TM) system (copyright 1992, Gaussian, Inc.),
 the Gaussian 90(TM) system (copyright 1990, Gaussian, Inc.),
 the Gaussian 88(TM) system (copyright 1988, Gaussian, Inc.),
 the Gaussian 86(TM) system (copyright 1986, Carnegie Mellon
 University), and the Gaussian 82(TM) system (copyright 1983,
 Carnegie Mellon University). Gaussian is a federally registered
 trademark of Gaussian, Inc.
  
 This software contains proprietary and confidential information,
 including trade secrets, belonging to Gaussian, Inc.
  
 This software is provided under written license and may be
 used, copied, transmitted, or stored only in accord with that
 written license.
  
 The following legend is applicable only to US Government
 contracts under FAR:
  
                    RESTRICTED RIGHTS LEGEND
  
 Use, reproduction and disclosure by the US Government is
 subject to restrictions as set forth in subparagraphs (a)
 and (c) of the Commercial Computer Software - Restricted
 Rights clause in FAR 52.227-19.
  
 Gaussian, Inc.
 340 Quinnipiac St., Bldg. 40, Wallingford CT 06492
  
  
 ---------------------------------------------------------------
 Warning -- This program may not be used in any manner that
 competes with the business of Gaussian, Inc. or will provide
 assistance to any competitor of Gaussian, Inc.  The licensee
 of this program is prohibited from giving any competitor of
 Gaussian, Inc. access to this program.  By using this program,
 the user acknowledges that Gaussian, Inc. is engaged in the
 business of creating and licensing software in the field of
 computational chemistry and represents and warrants to the
 licensee that it is not a competitor of Gaussian, Inc. and that
 it will not use this program in any manner prohibited above.
 ---------------------------------------------------------------
  

 Cite this work as:
 Gaussian 16, Revision A.03,
 M. J. Frisch, G. W. Trucks, H. B. Schlegel, G. E. Scuseria, 
 M. A. Robb, J. R. Cheeseman, G. Scalmani, V. Barone, 
 G. A. Petersson, H. Nakatsuji, X. Li, M. Caricato, A. V. Marenich, 
 J. Bloino, B. G. Janesko, R. Gomperts, B. Mennucci, H. P. Hratchian, 
 J. V. Ortiz, A. F. Izmaylov, J. L. Sonnenberg, D. Williams-Young, 
 F. Ding, F. Lipparini, F. Egidi, J. Goings, B. Peng, A. Petrone, 
 T. Henderson, D. Ranasinghe, V. G. Zakrzewski, J. Gao, N. Rega, 
 G. Zheng, W. Liang, M. Hada, M. Ehara, K. Toyota, R. Fukuda, 
 J. Hasegawa, M. Ishida, T. Nakajima, Y. Honda, O. Kitao, H. Nakai, 
 T. Vreven, K. Throssell, J. A. Montgomery, Jr., J. E. Peralta, 
 F. Ogliaro, M. J. Bearpark, J. J. Heyd, E. N. Brothers, K. N. Kudin, 
 V. N. Staroverov, T. A. Keith, R. Kobayashi, J. Normand, 
 K. Raghavachari, A. P. Rendell, J. C. Burant, S. S. Iyengar, 
 J. Tomasi, M. Cossi, J. M. Millam, M. Klene, C. Adamo, R. Cammi, 
 J. W. Ochterski, R. L. Martin, K. Morokuma, O. Farkas, 
 J. B. Foresman, and D. J. Fox, Gaussian, Inc., Wallingford CT, 2016.
 
 ******************************************
 Gaussian 16:  ES64L-G16RevA.03 25-Dec-2016
                 7-Sep-2022 
 ******************************************
 %chk=MD_extract_013_gaussian.chk
 %nproc=1
 Will use up to    1 processors via shared memory.
 %mem=1000Mb
 ----------
 #p opt pm3
 ----------
 1/18=20,19=15,26=1,38=1/1,3;
 2/9=110,12=2,17=6,18=5,40=1/2;
 3/5=2,25=1,41=800000,71=1/1,2,3;
 4/35=1/1;
 5/5=2,35=1,38=5/2;
 6/7=2,8=2,9=2,10=2,28=1/1;
 7//1,2,3,16;
 1/18=20,19=15,26=1/3(2);
 2/9=110/2;
 99//99;
 2/9=110/2;
 3/5=2,25=1,41=800000,71=1,135=20/1,2,3;
 4/5=5,16=3,35=1/1;
 5/5=2,35=1,38=5/2;
 7//1,2,3,16;
 1/18=20,19=15,26=1/3(-5);
 2/9=110/2;
 6/7=2,8=2,9=2,10=2,19=2,28=1/1;
 99/9=1/99;
 Leave Link    1 at Wed Sep  7 15:34:39 2022, MaxMem=   131072000 cpu:               0.0 elap:               5.2
 (Enter /opt/g16/l101.exe)
 ------------------------------------------------
 Conformer number 013. Energy MM = 0.000 kcal/mol
 ------------------------------------------------
 Symbolic Z-matrix:
 Charge =  0 Multiplicity = 1
 C                     13.465    6.914     2.622 
 H                     13.55     6.62      1.596 
 H                     12.891    6.216     3.246 
 H                     14.522    7.023     2.957 
 C                     12.704    8.289     2.599 
 H                     12.402    8.621     3.619 
 H                     11.725    8.07      2.132 
 C                     13.409    9.337     1.86 
 H                     14.445    9.549     2.335 
 O                     13.624    8.755     0.586 
 C                     12.667    10.558    1.663 
 H                     14.465    8.34      0.571 
 H                     13.584    11.267    1.215 
 H                     11.798    10.435    1.019 
 C                     12.176    11.176    2.968 
 H                     12.93     11.336    3.699 
 H                     11.423    10.541    3.439 
 H                     11.793    12.156    2.763 
 
 ITRead=  0  0  0  0  0  0  0  0  0  0  0  0  0  0  0  0  0  0
 MicOpt= -1 -1 -1 -1 -1 -1 -1 -1 -1 -1 -1 -1 -1 -1 -1 -1 -1 -1
 NAtoms=     18 NQM=       18 NQMF=       0 NMMI=      0 NMMIF=      0
                NMic=       0 NMicF=      0.
                    Isotopes and Nuclear Properties:
 (Nuclear quadrupole moments (NQMom) in fm**2, nuclear magnetic moments (NMagM)
  in nuclear magnetons)

  Atom         1           2           3           4           5           6           7           8           9          10
 IAtWgt=          12           1           1           1          12           1           1          12           1          16
 AtmWgt=  12.0000000   1.0078250   1.0078250   1.0078250  12.0000000   1.0078250   1.0078250  12.0000000   1.0078250  15.9949146
 NucSpn=           0           1           1           1           0           1           1           0           1           0
 AtZEff=  -0.0000000  -0.0000000  -0.0000000  -0.0000000  -0.0000000  -0.0000000  -0.0000000  -0.0000000  -0.0000000  -0.0000000
 NQMom=    0.0000000   0.0000000   0.0000000   0.0000000   0.0000000   0.0000000   0.0000000   0.0000000   0.0000000   0.0000000
 NMagM=    0.0000000   2.7928460   2.7928460   2.7928460   0.0000000   2.7928460   2.7928460   0.0000000   2.7928460   0.0000000
 AtZNuc=   6.0000000   1.0000000   1.0000000   1.0000000   6.0000000   1.0000000   1.0000000   6.0000000   1.0000000   8.0000000

  Atom        11          12          13          14          15          16          17          18
 IAtWgt=          12           1           1           1          12           1           1           1
 AtmWgt=  12.0000000   1.0078250   1.0078250   1.0078250  12.0000000   1.0078250   1.0078250   1.0078250
 NucSpn=           0           1           1           1           0           1           1           1
 AtZEff=  -0.0000000  -0.0000000  -0.0000000  -0.0000000  -0.0000000  -0.0000000  -0.0000000  -0.0000000
 NQMom=    0.0000000   0.0000000   0.0000000   0.0000000   0.0000000   0.0000000   0.0000000   0.0000000
 NMagM=    0.0000000   2.7928460   2.7928460   2.7928460   0.0000000   2.7928460   2.7928460   2.7928460
 AtZNuc=   6.0000000   1.0000000   1.0000000   1.0000000   6.0000000   1.0000000   1.0000000   1.0000000
 Leave Link  101 at Wed Sep  7 15:34:39 2022, MaxMem=   131072000 cpu:               0.1 elap:               0.1
 (Enter /opt/g16/l103.exe)

 GradGradGradGradGradGradGradGradGradGradGradGradGradGradGradGradGradGrad
 Berny optimization.
 Initialization pass.
                           ----------------------------
                           !    Initial Parameters    !
                           ! (Angstroms and Degrees)  !
 --------------------------                            --------------------------
 ! Name  Definition              Value          Derivative Info.                !
 --------------------------------------------------------------------------------
 ! R1    R(1,2)                  1.0707         estimate D2E/DX2                !
 ! R2    R(1,3)                  1.0982         estimate D2E/DX2                !
 ! R3    R(1,4)                  1.1142         estimate D2E/DX2                !
 ! R4    R(1,5)                  1.5717         estimate D2E/DX2                !
 ! R5    R(5,6)                  1.1144         estimate D2E/DX2                !
 ! R6    R(5,7)                  1.1066         estimate D2E/DX2                !
 ! R7    R(5,8)                  1.4634         estimate D2E/DX2                !
 ! R8    R(8,9)                  1.1593         estimate D2E/DX2                !
 ! R9    R(8,10)                 1.417          estimate D2E/DX2                !
 ! R10   R(8,11)                 1.4423         estimate D2E/DX2                !
 ! R11   R(10,12)                0.9379         estimate D2E/DX2                !
 ! R12   R(11,13)                1.2427         estimate D2E/DX2                !
 ! R13   R(11,14)                1.0886         estimate D2E/DX2                !
 ! R14   R(11,15)                1.5251         estimate D2E/DX2                !
 ! R15   R(15,16)                1.0623         estimate D2E/DX2                !
 ! R16   R(15,17)                1.0918         estimate D2E/DX2                !
 ! R17   R(15,18)                1.072          estimate D2E/DX2                !
 ! A1    A(2,1,3)              114.2966         estimate D2E/DX2                !
 ! A2    A(2,1,4)              103.8675         estimate D2E/DX2                !
 ! A3    A(2,1,5)              105.3457         estimate D2E/DX2                !
 ! A4    A(3,1,4)              112.7799         estimate D2E/DX2                !
 ! A5    A(3,1,5)              108.1364         estimate D2E/DX2                !
 ! A6    A(4,1,5)              112.2196         estimate D2E/DX2                !
 ! A7    A(1,5,6)              112.2383         estimate D2E/DX2                !
 ! A8    A(1,5,7)              105.1534         estimate D2E/DX2                !
 ! A9    A(1,5,8)              113.6188         estimate D2E/DX2                !
 ! A10   A(6,5,7)              101.8579         estimate D2E/DX2                !
 ! A11   A(6,5,8)              112.2985         estimate D2E/DX2                !
 ! A12   A(7,5,8)              110.7835         estimate D2E/DX2                !
 ! A13   A(5,8,9)              110.7683         estimate D2E/DX2                !
 ! A14   A(5,8,10)             103.4727         estimate D2E/DX2                !
 ! A15   A(5,8,11)             115.3029         estimate D2E/DX2                !
 ! A16   A(9,8,10)             107.9328         estimate D2E/DX2                !
 ! A17   A(9,8,11)             111.1561         estimate D2E/DX2                !
 ! A18   A(10,8,11)            107.635          estimate D2E/DX2                !
 ! A19   A(8,10,12)            109.399          estimate D2E/DX2                !
 ! A20   A(8,11,13)             98.7784         estimate D2E/DX2                !
 ! A21   A(8,11,14)            113.3179         estimate D2E/DX2                !
 ! A22   A(8,11,15)            113.0659         estimate D2E/DX2                !
 ! A23   A(13,11,14)           116.1202         estimate D2E/DX2                !
 ! A24   A(13,11,15)           108.3518         estimate D2E/DX2                !
 ! A25   A(14,11,15)           107.1569         estimate D2E/DX2                !
 ! A26   A(11,15,16)           114.9188         estimate D2E/DX2                !
 ! A27   A(11,15,17)           110.8233         estimate D2E/DX2                !
 ! A28   A(11,15,18)           108.774          estimate D2E/DX2                !
 ! A29   A(16,15,17)           106.2759         estimate D2E/DX2                !
 ! A30   A(16,15,18)           104.3295         estimate D2E/DX2                !
 ! A31   A(17,15,18)           111.5792         estimate D2E/DX2                !
 ! D1    D(2,1,5,6)            170.4672         estimate D2E/DX2                !
 ! D2    D(2,1,5,7)             60.5461         estimate D2E/DX2                !
 ! D3    D(2,1,5,8)            -60.763          estimate D2E/DX2                !
 ! D4    D(3,1,5,6)             47.8606         estimate D2E/DX2                !
 ! D5    D(3,1,5,7)            -62.0605         estimate D2E/DX2                !
 ! D6    D(3,1,5,8)            176.6304         estimate D2E/DX2                !
 ! D7    D(4,1,5,6)            -77.1634         estimate D2E/DX2                !
 ! D8    D(4,1,5,7)            172.9155         estimate D2E/DX2                !
 ! D9    D(4,1,5,8)             51.6064         estimate D2E/DX2                !
 ! D10   D(1,5,8,9)            -60.5827         estimate D2E/DX2                !
 ! D11   D(1,5,8,10)            54.8513         estimate D2E/DX2                !
 ! D12   D(1,5,8,11)           172.0994         estimate D2E/DX2                !
 ! D13   D(6,5,8,9)             68.1564         estimate D2E/DX2                !
 ! D14   D(6,5,8,10)          -176.4096         estimate D2E/DX2                !
 ! D15   D(6,5,8,11)           -59.1615         estimate D2E/DX2                !
 ! D16   D(7,5,8,9)           -178.6899         estimate D2E/DX2                !
 ! D17   D(7,5,8,10)           -63.256          estimate D2E/DX2                !
 ! D18   D(7,5,8,11)            53.9921         estimate D2E/DX2                !
 ! D19   D(5,8,10,12)          -92.8617         estimate D2E/DX2                !
 ! D20   D(9,8,10,12)           24.5753         estimate D2E/DX2                !
 ! D21   D(11,8,10,12)         144.6363         estimate D2E/DX2                !
 ! D22   D(5,8,11,13)          170.387          estimate D2E/DX2                !
 ! D23   D(5,8,11,14)          -66.1323         estimate D2E/DX2                !
 ! D24   D(5,8,11,15)           56.0551         estimate D2E/DX2                !
 ! D25   D(9,8,11,13)           43.2646         estimate D2E/DX2                !
 ! D26   D(9,8,11,14)          166.7454         estimate D2E/DX2                !
 ! D27   D(9,8,11,15)          -71.0673         estimate D2E/DX2                !
 ! D28   D(10,8,11,13)         -74.7343         estimate D2E/DX2                !
 ! D29   D(10,8,11,14)          48.7465         estimate D2E/DX2                !
 ! D30   D(10,8,11,15)         170.9338         estimate D2E/DX2                !
 ! D31   D(8,11,15,16)          53.4669         estimate D2E/DX2                !
 ! D32   D(8,11,15,17)         -67.0189         estimate D2E/DX2                !
 ! D33   D(8,11,15,18)         169.9645         estimate D2E/DX2                !
 ! D34   D(13,11,15,16)        -54.9555         estimate D2E/DX2                !
 ! D35   D(13,11,15,17)       -175.4412         estimate D2E/DX2                !
 ! D36   D(13,11,15,18)         61.5421         estimate D2E/DX2                !
 ! D37   D(14,11,15,16)        179.0392         estimate D2E/DX2                !
 ! D38   D(14,11,15,17)         58.5534         estimate D2E/DX2                !
 ! D39   D(14,11,15,18)        -64.4632         estimate D2E/DX2                !
 --------------------------------------------------------------------------------
 Trust Radius=3.00D-01 FncErr=1.00D-07 GrdErr=1.00D-07 EigMax=2.50D+02 EigMin=1.00D-04
 Number of steps in this run=     97 maximum allowed number of steps=    108.
 GradGradGradGradGradGradGradGradGradGradGradGradGradGradGradGradGradGrad

 Leave Link  103 at Wed Sep  7 15:34:39 2022, MaxMem=   131072000 cpu:               0.0 elap:               0.0
 (Enter /opt/g16/l202.exe)
                          Input orientation:                          
 ---------------------------------------------------------------------
 Center     Atomic      Atomic             Coordinates (Angstroms)
 Number     Number       Type             X           Y           Z
 ---------------------------------------------------------------------
      1          6           0       13.465000    6.914000    2.622000
      2          1           0       13.550000    6.620000    1.596000
      3          1           0       12.891000    6.216000    3.246000
      4          1           0       14.522000    7.023000    2.957000
      5          6           0       12.704000    8.289000    2.599000
      6          1           0       12.402000    8.621000    3.619000
      7          1           0       11.725000    8.070000    2.132000
      8          6           0       13.409000    9.337000    1.860000
      9          1           0       14.445000    9.549000    2.335000
     10          8           0       13.624000    8.755000    0.586000
     11          6           0       12.667000   10.558000    1.663000
     12          1           0       14.465000    8.340000    0.571000
     13          1           0       13.584000   11.267000    1.215000
     14          1           0       11.798000   10.435000    1.019000
     15          6           0       12.176000   11.176000    2.968000
     16          1           0       12.930000   11.336000    3.699000
     17          1           0       11.423000   10.541000    3.439000
     18          1           0       11.793000   12.156000    2.763000
 ---------------------------------------------------------------------
                    Distance matrix (angstroms):
                    1          2          3          4          5
     1  C    0.000000
     2  H    1.070671   0.000000
     3  H    1.098206   1.822086   0.000000
     4  H    1.114161   1.720324   1.842534   0.000000
     5  C    1.571711   2.123037   2.179658   2.244113   0.000000
     6  H    2.244510   3.068295   2.482393   2.736101   1.114373
     7  H    2.145702   2.391740   2.457207   3.098394   1.106567
     8  C    2.540612   2.733435   3.453978   2.792270   1.463369
     9  H    2.825950   3.150585   3.788631   2.602593   2.165266
    10  O    2.749520   2.363007   3.749588   3.070484   2.261797
    11  C    3.851652   4.036338   4.626989   4.196628   2.454756
    12  H    2.690739   2.201420   3.760914   2.725937   2.686356
    13  H    4.576289   4.662717   5.487970   4.682515   3.399756
    14  H    4.212593   4.237530   4.894297   4.776794   2.814703
    15  C    4.466081   4.952514   5.018975   4.769827   2.957992
    16  H    4.582602   5.200737   5.140149   4.656930   3.247350
    17  H    4.241743   4.826491   4.571422   4.713008   2.723612
    18  H    5.504001   5.924207   6.059909   5.816594   3.976243
                    6          7          8          9         10
     6  H    0.000000
     7  H    1.724268   0.000000
     8  C    2.149601   2.124883   0.000000
     9  H    2.585283   3.102749   1.159252   0.000000
    10  O    3.272664   2.542743   1.417048   2.088894   0.000000
    11  C    2.765525   2.701383   1.442295   2.151964   2.307940
    12  H    3.691237   3.164999   1.941820   2.138639   0.937940
    13  H    3.765323   3.810194   2.042437   2.224240   2.589862
    14  H    3.227292   2.614828   2.123254   3.086011   2.518763
    15  C    2.646300   3.248004   2.475858   2.862897   3.692136
    16  H    2.767022   3.817626   2.758145   2.710921   4.102922
    17  H    2.162693   2.811635   2.808390   3.366803   4.021667
    18  H    3.687796   4.134995   3.372481   3.743359   4.433812
                   11         12         13         14         15
    11  C    0.000000
    12  H    3.056925   0.000000
    13  H    1.242688   3.123816   0.000000
    14  H    1.088589   3.420909   1.980009   0.000000
    15  C    1.525133   4.362113   2.250279   2.119096   0.000000
    16  H    2.195393   4.595283   2.569578   3.045591   1.062298
    17  H    2.168410   4.724785   3.184835   2.451175   1.091822
    18  H    2.127788   5.148427   2.528697   2.450184   1.071967
                   16         17         18
    16  H    0.000000
    17  H    1.723564   0.000000
    18  H    1.685605   1.789442   0.000000
 Stoichiometry    C5H12O
 Framework group  C1[X(C5H12O)]
 Deg. of freedom    48
 Full point group                 C1      NOp   1
 Largest Abelian subgroup         C1      NOp   1
 Largest concise Abelian subgroup C1      NOp   1
                         Standard orientation:                         
 ---------------------------------------------------------------------
 Center     Atomic      Atomic             Coordinates (Angstroms)
 Number     Number       Type             X           Y           Z
 ---------------------------------------------------------------------
      1          6           0        2.224855   -0.755537    0.108331
      2          1           0        2.612024    0.149606   -0.312565
      3          1           0        2.677253   -1.671230   -0.295277
      4          1           0        2.396259   -0.635840    1.202702
      5          6           0        0.696090   -0.763267   -0.256487
      6          1           0        0.211054   -1.738338   -0.020257
      7          1           0        0.662597   -0.754695   -1.362514
      8          6           0       -0.043845    0.372801    0.294236
      9          1           0        0.011994    0.377349    1.452133
     10          8           0        0.675360    1.497198   -0.181685
     11          6           0       -1.406197    0.500550   -0.161715
     12          1           0        1.313361    1.752006    0.456875
     13          1           0       -1.785088    1.389555    0.619558
     14          1           0       -1.485731    0.729402   -1.223000
     15          6           0       -2.241195   -0.750092    0.092650
     16          1           0       -2.236845   -1.094422    1.097586
     17          1           0       -1.887902   -1.583461   -0.517887
     18          1           0       -3.270107   -0.524248   -0.105966
 ---------------------------------------------------------------------
 Rotational constants (GHZ):           5.6333816           2.3441196           1.7978166
 Leave Link  202 at Wed Sep  7 15:34:39 2022, MaxMem=   131072000 cpu:               0.0 elap:               0.0
 (Enter /opt/g16/l301.exe)
 Standard basis: VSTO-6G (5D, 7F)
 Ernie: Thresh=  0.10000D-02 Tol=  0.10000D-05 Strict=F.
  NNHCO=     0 NNPyr=     0 NCTC=     0               EPep=         0.000000000
    EC=       130.126934413  ECS=         2.268725514   EG=         0.564984686
   EHC=         0.000000000  EAt=       -36.836480110  AtH=         2.452923921
 EPDDG=         0.000000000  ECC=       132.960644612 EAtT=        39.289404030
 There are    36 symmetry adapted cartesian basis functions of A   symmetry.
 There are    36 symmetry adapted basis functions of A   symmetry.
    36 basis functions,   216 primitive gaussians,    36 cartesian basis functions
    19 alpha electrons       19 beta electrons
       nuclear repulsion energy       172.2500486429 Hartrees.
 IExCor=    0 DFT=F Ex=HF Corr=None ExCW=0 ScaHFX=  1.000000
 ScaDFX=  1.000000  1.000000  1.000000  1.000000 ScalE2=  1.000000  1.000000
 IRadAn=      5 IRanWt=     -1 IRanGd=            0 ICorTp=0 IEmpDi=  4
 Integral buffers will be    131072 words long.
 Regular integral format.
 Two-electron integral symmetry is turned off.
 Leave Link  301 at Wed Sep  7 15:34:39 2022, MaxMem=   131072000 cpu:               0.0 elap:               0.0
 (Enter /opt/g16/l302.exe)
 Do NDO integrals.
 NPDir=0 NMtPBC=     1 NCelOv=     1 NCel=       1 NClECP=     1 NCelD=      1
         NCelK=      1 NCelE2=     1 NClLst=     1 CellRange=     0.0.
 One-electron integrals computed using PRISM.
 NBasis=    36 RedAO= F EigKep=  0.00D+00  NBF=    36
 NBsUse=    36 1.00D-04 EigRej=  0.00D+00 NBFU=    36
 Leave Link  302 at Wed Sep  7 15:34:39 2022, MaxMem=   131072000 cpu:               0.0 elap:               0.0
 (Enter /opt/g16/l303.exe)
 DipDrv:  MaxL=1.
 Leave Link  303 at Wed Sep  7 15:34:39 2022, MaxMem=   131072000 cpu:               0.0 elap:               0.0
 (Enter /opt/g16/l401.exe)
 Simple Huckel Guess.
 JPrj=0 DoOrth=F DoCkMO=F.
 Leave Link  401 at Wed Sep  7 15:34:39 2022, MaxMem=   131072000 cpu:               0.0 elap:               0.0
 (Enter /opt/g16/l502.exe)
 Keep J ints in memory in canonical form, NReq=862161.
 FoFCou: FMM=F IPFlag=           0 FMFlag=           0 FMFlg1=           0
         NFxFlg=           0 DoJE=F BraDBF=F KetDBF=F FulRan=T
         wScrn=  0.000000 ICntrl=       600 IOpCl=  2 I1Cent=           0 NGrid=           0
         NMat0=    1 NMatS0=     72 NMatT0=    0 NMatD0=    1 NMtDS0=    0 NMtDT0=    0
 Symmetry not used in FoFCou.
 Two-electron integral symmetry not used.
 Closed shell SCF:
 Using DIIS extrapolation, IDIIS=  1040.
 Overlap will be assumed to be unity.
 NGot=   131072000 LenX=   131006778 LenY=   131005041
 Requested convergence on RMS density matrix=1.00D-08 within 128 cycles.
 Requested convergence on MAX density matrix=1.00D-06.
 Requested convergence on             energy=1.00D-06.
 No special actions if energy rises.

 Cycle   1  Pass 1  IDiag  1:
 E= 0.205720015553652    
 DIIS: error= 7.31D-02 at cycle   1 NSaved=   1.
 NSaved= 1 IEnMin= 1 EnMin= 0.205720015553652     IErMin= 1 ErrMin= 7.31D-02
 ErrMax= 7.31D-02  0.00D+00 EMaxC= 1.00D-01 BMatC= 1.09D-01 BMatP= 1.09D-01
 IDIUse=3 WtCom= 2.69D-01 WtEn= 7.31D-01
 Coeff-Com:  0.100D+01
 Coeff-En:   0.100D+01
 Coeff:      0.100D+01
 GapD=    2.000 DampG=2.000 DampE=0.500 DampFc=1.0000 IDamp=-1.
 RMSDP=1.27D-02 MaxDP=1.52D-01              OVMax= 0.00D+00

 Cycle   2  Pass 1  IDiag  1:
 E=-0.545777398222071E-01 Delta-E=       -0.260297755376 Rises=F Damp=F
 DIIS: error= 1.53D-02 at cycle   2 NSaved=   2.
 NSaved= 2 IEnMin= 2 EnMin=-0.545777398222071E-01 IErMin= 2 ErrMin= 1.53D-02
 ErrMax= 1.53D-02  0.00D+00 EMaxC= 1.00D-01 BMatC= 7.10D-03 BMatP= 1.09D-01
 IDIUse=3 WtCom= 8.47D-01 WtEn= 1.53D-01
 Coeff-Com: -0.303D+00 0.130D+01
 Coeff-En:   0.000D+00 0.100D+01
 Coeff:     -0.256D+00 0.126D+01
 RMSDP=4.67D-03 MaxDP=5.06D-02 DE=-2.60D-01 OVMax= 0.00D+00

 Cycle   3  Pass 1  IDiag  3:
 E=-0.767865260056908E-01 Delta-E=       -0.022208786183 Rises=F Damp=F
 DIIS: error= 4.22D-03 at cycle   3 NSaved=   3.
 NSaved= 3 IEnMin= 3 EnMin=-0.767865260056908E-01 IErMin= 3 ErrMin= 4.22D-03
 ErrMax= 4.22D-03  0.00D+00 EMaxC= 1.00D-01 BMatC= 2.43D-04 BMatP= 7.10D-03
 IDIUse=3 WtCom= 9.58D-01 WtEn= 4.22D-02
 Coeff-Com:  0.148D+00-0.731D+00 0.158D+01
 Coeff-En:   0.000D+00 0.000D+00 0.100D+01
 Coeff:      0.142D+00-0.700D+00 0.156D+01
 Gap=     0.518 Goal=   None    Shift=    0.000
 RMSDP=1.44D-03 MaxDP=2.30D-02 DE=-2.22D-02 OVMax= 1.09D-02

 Cycle   4  Pass 1  IDiag  3:
 E=-0.781116858856876E-01 Delta-E=       -0.001325159880 Rises=F Damp=F
 DIIS: error= 8.83D-04 at cycle   4 NSaved=   4.
 NSaved= 4 IEnMin= 4 EnMin=-0.781116858856876E-01 IErMin= 4 ErrMin= 8.83D-04
 ErrMax= 8.83D-04  0.00D+00 EMaxC= 1.00D-01 BMatC= 1.06D-05 BMatP= 2.43D-04
 IDIUse=3 WtCom= 9.91D-01 WtEn= 8.83D-03
 Coeff-Com: -0.322D-01 0.177D+00-0.573D+00 0.143D+01
 Coeff-En:   0.000D+00 0.000D+00 0.000D+00 0.100D+01
 Coeff:     -0.319D-01 0.175D+00-0.568D+00 0.142D+01
 Gap=     0.519 Goal=   None    Shift=    0.000
 RMSDP=3.51D-04 MaxDP=5.41D-03 DE=-1.33D-03 OVMax= 2.81D-03

 Cycle   5  Pass 1  IDiag  3:
 E=-0.781756129879909E-01 Delta-E=       -0.000063927102 Rises=F Damp=F
 DIIS: error= 1.27D-04 at cycle   5 NSaved=   5.
 NSaved= 5 IEnMin= 5 EnMin=-0.781756129879909E-01 IErMin= 5 ErrMin= 1.27D-04
 ErrMax= 1.27D-04  0.00D+00 EMaxC= 1.00D-01 BMatC= 3.44D-07 BMatP= 1.06D-05
 IDIUse=3 WtCom= 9.99D-01 WtEn= 1.27D-03
 Coeff-Com:  0.242D-02-0.170D-01 0.883D-01-0.387D+00 0.131D+01
 Coeff-En:   0.000D+00 0.000D+00 0.000D+00 0.000D+00 0.100D+01
 Coeff:      0.242D-02-0.170D-01 0.882D-01-0.386D+00 0.131D+01
 Gap=     0.519 Goal=   None    Shift=    0.000
 RMSDP=5.73D-05 MaxDP=6.90D-04 DE=-6.39D-05 OVMax= 4.34D-04

 Cycle   6  Pass 1  IDiag  3:
 E=-0.781775773476454E-01 Delta-E=       -0.000001964360 Rises=F Damp=F
 DIIS: error= 3.26D-05 at cycle   6 NSaved=   6.
 NSaved= 6 IEnMin= 6 EnMin=-0.781775773476454E-01 IErMin= 6 ErrMin= 3.26D-05
 ErrMax= 3.26D-05  0.00D+00 EMaxC= 1.00D-01 BMatC= 2.65D-08 BMatP= 3.44D-07
 IDIUse=1 WtCom= 1.00D+00 WtEn= 0.00D+00
 Coeff-Com: -0.433D-03 0.422D-02-0.296D-01 0.156D+00-0.719D+00 0.159D+01
 Coeff:     -0.433D-03 0.422D-02-0.296D-01 0.156D+00-0.719D+00 0.159D+01
 Gap=     0.519 Goal=   None    Shift=    0.000
 RMSDP=1.76D-05 MaxDP=2.25D-04 DE=-1.96D-06 OVMax= 1.40D-04

 Cycle   7  Pass 1  IDiag  3:
 E=-0.781777442052771E-01 Delta-E=       -0.000000166858 Rises=F Damp=F
 DIIS: error= 5.78D-06 at cycle   7 NSaved=   7.
 NSaved= 7 IEnMin= 7 EnMin=-0.781777442052771E-01 IErMin= 7 ErrMin= 5.78D-06
 ErrMax= 5.78D-06  0.00D+00 EMaxC= 1.00D-01 BMatC= 1.69D-09 BMatP= 2.65D-08
 IDIUse=1 WtCom= 1.00D+00 WtEn= 0.00D+00
 Coeff-Com:  0.190D-03-0.194D-02 0.141D-01-0.755D-01 0.368D+00-0.986D+00
 Coeff-Com:  0.168D+01
 Coeff:      0.190D-03-0.194D-02 0.141D-01-0.755D-01 0.368D+00-0.986D+00
 Coeff:      0.168D+01
 Gap=     0.519 Goal=   None    Shift=    0.000
 RMSDP=4.87D-06 MaxDP=4.61D-05 DE=-1.67D-07 OVMax= 3.60D-05

 Cycle   8  Pass 1  IDiag  3:
 E=-0.781777549766502E-01 Delta-E=       -0.000000010771 Rises=F Damp=F
 DIIS: error= 9.71D-07 at cycle   8 NSaved=   8.
 NSaved= 8 IEnMin= 8 EnMin=-0.781777549766502E-01 IErMin= 8 ErrMin= 9.71D-07
 ErrMax= 9.71D-07  0.00D+00 EMaxC= 1.00D-01 BMatC= 5.18D-11 BMatP= 1.69D-09
 IDIUse=1 WtCom= 1.00D+00 WtEn= 0.00D+00
 Coeff-Com: -0.649D-04 0.736D-03-0.562D-02 0.307D-01-0.153D+00 0.426D+00
 Coeff-Com: -0.829D+00 0.153D+01
 Coeff:     -0.649D-04 0.736D-03-0.562D-02 0.307D-01-0.153D+00 0.426D+00
 Coeff:     -0.829D+00 0.153D+01
 Gap=     0.519 Goal=   None    Shift=    0.000
 RMSDP=7.66D-07 MaxDP=6.49D-06 DE=-1.08D-08 OVMax= 4.52D-06

 Cycle   9  Pass 1  IDiag  3:
 E=-0.781777552917333E-01 Delta-E=       -0.000000000315 Rises=F Damp=F
 DIIS: error= 2.25D-07 at cycle   9 NSaved=   9.
 NSaved= 9 IEnMin= 9 EnMin=-0.781777552917333E-01 IErMin= 9 ErrMin= 2.25D-07
 ErrMax= 2.25D-07  0.00D+00 EMaxC= 1.00D-01 BMatC= 3.14D-12 BMatP= 5.18D-11
 IDIUse=1 WtCom= 1.00D+00 WtEn= 0.00D+00
 Coeff-Com:  0.236D-04-0.307D-03 0.250D-02-0.139D-01 0.703D-01-0.199D+00
 Coeff-Com:  0.400D+00-0.890D+00 0.163D+01
 Coeff:      0.236D-04-0.307D-03 0.250D-02-0.139D-01 0.703D-01-0.199D+00
 Coeff:      0.400D+00-0.890D+00 0.163D+01
 Gap=     0.519 Goal=   None    Shift=    0.000
 RMSDP=1.96D-07 MaxDP=1.62D-06 DE=-3.15D-10 OVMax= 1.11D-06

 Cycle  10  Pass 1  IDiag  3:
 E=-0.781777553117138E-01 Delta-E=       -0.000000000020 Rises=F Damp=F
 DIIS: error= 6.79D-08 at cycle  10 NSaved=  10.
 NSaved=10 IEnMin=10 EnMin=-0.781777553117138E-01 IErMin=10 ErrMin= 6.79D-08
 ErrMax= 6.79D-08  0.00D+00 EMaxC= 1.00D-01 BMatC= 1.79D-13 BMatP= 3.14D-12
 IDIUse=1 WtCom= 1.00D+00 WtEn= 0.00D+00
 Coeff-Com: -0.808D-05 0.112D-03-0.931D-03 0.523D-02-0.266D-01 0.760D-01
 Coeff-Com: -0.155D+00 0.360D+00-0.825D+00 0.157D+01
 Coeff:     -0.808D-05 0.112D-03-0.931D-03 0.523D-02-0.266D-01 0.760D-01
 Coeff:     -0.155D+00 0.360D+00-0.825D+00 0.157D+01
 Gap=     0.519 Goal=   None    Shift=    0.000
 RMSDP=4.80D-08 MaxDP=4.53D-07 DE=-2.00D-11 OVMax= 2.53D-07

 Cycle  11  Pass 1  IDiag  3:
 E=-0.781777553127370E-01 Delta-E=       -0.000000000001 Rises=F Damp=F
 DIIS: error= 1.69D-08 at cycle  11 NSaved=  11.
 NSaved=11 IEnMin=11 EnMin=-0.781777553127370E-01 IErMin=11 ErrMin= 1.69D-08
 ErrMax= 1.69D-08  0.00D+00 EMaxC= 1.00D-01 BMatC= 9.85D-15 BMatP= 1.79D-13
 IDIUse=1 WtCom= 1.00D+00 WtEn= 0.00D+00
 Coeff-Com:  0.234D-05-0.314D-04 0.257D-03-0.144D-02 0.736D-02-0.211D-01
 Coeff-Com:  0.430D-01-0.101D+00 0.252D+00-0.663D+00 0.148D+01
 Coeff:      0.234D-05-0.314D-04 0.257D-03-0.144D-02 0.736D-02-0.211D-01
 Coeff:      0.430D-01-0.101D+00 0.252D+00-0.663D+00 0.148D+01
 Gap=     0.519 Goal=   None    Shift=    0.000
 RMSDP=1.10D-08 MaxDP=1.18D-07 DE=-1.02D-12 OVMax= 6.80D-08

 Cycle  12  Pass 1  IDiag  3:
 E=-0.781777553129075E-01 Delta-E=       -0.000000000000 Rises=F Damp=F
 DIIS: error= 3.04D-09 at cycle  12 NSaved=  12.
 NSaved=12 IEnMin=12 EnMin=-0.781777553129075E-01 IErMin=12 ErrMin= 3.04D-09
 ErrMax= 3.04D-09  0.00D+00 EMaxC= 1.00D-01 BMatC= 4.80D-16 BMatP= 9.85D-15
 IDIUse=1 WtCom= 1.00D+00 WtEn= 0.00D+00
 Coeff-Com: -0.435D-06 0.579D-05-0.470D-04 0.263D-03-0.135D-02 0.389D-02
 Coeff-Com: -0.796D-02 0.186D-01-0.496D-01 0.165D+00-0.578D+00 0.145D+01
 Coeff:     -0.435D-06 0.579D-05-0.470D-04 0.263D-03-0.135D-02 0.389D-02
 Coeff:     -0.796D-02 0.186D-01-0.496D-01 0.165D+00-0.578D+00 0.145D+01
 Gap=     0.519 Goal=   None    Shift=    0.000
 RMSDP=2.37D-09 MaxDP=2.25D-08 DE=-1.71D-13 OVMax= 1.32D-08

 Cycle  13  Pass 2  IDiag  1:
 SCF Done:  E(RPM3) = -0.781777553129E-01 A.U. after   13 cycles
            NFock= 12  Conv=0.24D-08     -V/T= 0.9987
 KE=-5.973742585949D+01 PE=-2.587916886737D+02 EE= 1.462008881350D+02
 Leave Link  502 at Wed Sep  7 15:34:39 2022, MaxMem=   131072000 cpu:               0.0 elap:               0.0
 (Enter /opt/g16/l601.exe)
 Copying SCF densities to generalized density rwf, IOpCl= 0 IROHF=0.

 **********************************************************************

            Population analysis using the SCF density.

 **********************************************************************

 Orbital symmetries:
       Occupied  (A) (A) (A) (A) (A) (A) (A) (A) (A) (A) (A) (A)
                 (A) (A) (A) (A) (A) (A) (A)
       Virtual   (A) (A) (A) (A) (A) (A) (A) (A) (A) (A) (A) (A)
                 (A) (A) (A) (A) (A)
 The electronic state is 1-A.
 Alpha  occ. eigenvalues --   -1.51107  -1.26053  -1.18108  -0.95506  -0.83122
 Alpha  occ. eigenvalues --   -0.73071  -0.67053  -0.60833  -0.58551  -0.54929
 Alpha  occ. eigenvalues --   -0.53769  -0.49972  -0.49129  -0.47703  -0.46650
 Alpha  occ. eigenvalues --   -0.44966  -0.43438  -0.42133  -0.40274
 Alpha virt. eigenvalues --    0.11533   0.11968   0.12355   0.13154   0.14130
 Alpha virt. eigenvalues --    0.14846   0.15075   0.15545   0.15870   0.16195
 Alpha virt. eigenvalues --    0.16940   0.17247   0.17896   0.18012   0.18208
 Alpha virt. eigenvalues --    0.19601   0.21618
          Condensed to atoms (all electrons):
               1          2          3          4          5          6
     1  C    4.105998   0.000000   0.000000   0.000000   0.000000   0.000000
     2  H    0.000000   0.955930   0.000000   0.000000   0.000000   0.000000
     3  H    0.000000   0.000000   0.949014   0.000000   0.000000   0.000000
     4  H    0.000000   0.000000   0.000000   0.968322   0.000000   0.000000
     5  C    0.000000   0.000000   0.000000   0.000000   4.157894   0.000000
     6  H    0.000000   0.000000   0.000000   0.000000   0.000000   0.942103
     7  H    0.000000   0.000000   0.000000   0.000000   0.000000   0.000000
     8  C    0.000000   0.000000   0.000000   0.000000   0.000000   0.000000
     9  H    0.000000   0.000000   0.000000   0.000000   0.000000   0.000000
    10  O    0.000000   0.000000   0.000000   0.000000   0.000000   0.000000
    11  C    0.000000   0.000000   0.000000   0.000000   0.000000   0.000000
    12  H    0.000000   0.000000   0.000000   0.000000   0.000000   0.000000
    13  H    0.000000   0.000000   0.000000   0.000000   0.000000   0.000000
    14  H    0.000000   0.000000   0.000000   0.000000   0.000000   0.000000
    15  C    0.000000   0.000000   0.000000   0.000000   0.000000   0.000000
    16  H    0.000000   0.000000   0.000000   0.000000   0.000000   0.000000
    17  H    0.000000   0.000000   0.000000   0.000000   0.000000   0.000000
    18  H    0.000000   0.000000   0.000000   0.000000   0.000000   0.000000
               7          8          9         10         11         12
     1  C    0.000000   0.000000   0.000000   0.000000   0.000000   0.000000
     2  H    0.000000   0.000000   0.000000   0.000000   0.000000   0.000000
     3  H    0.000000   0.000000   0.000000   0.000000   0.000000   0.000000
     4  H    0.000000   0.000000   0.000000   0.000000   0.000000   0.000000
     5  C    0.000000   0.000000   0.000000   0.000000   0.000000   0.000000
     6  H    0.000000   0.000000   0.000000   0.000000   0.000000   0.000000
     7  H    0.939741   0.000000   0.000000   0.000000   0.000000   0.000000
     8  C    0.000000   3.908693   0.000000   0.000000   0.000000   0.000000
     9  H    0.000000   0.000000   0.961018   0.000000   0.000000   0.000000
    10  O    0.000000   0.000000   0.000000   6.329509   0.000000   0.000000
    11  C    0.000000   0.000000   0.000000   0.000000   4.115781   0.000000
    12  H    0.000000   0.000000   0.000000   0.000000   0.000000   0.811483
    13  H    0.000000   0.000000   0.000000   0.000000   0.000000   0.000000
    14  H    0.000000   0.000000   0.000000   0.000000   0.000000   0.000000
    15  C    0.000000   0.000000   0.000000   0.000000   0.000000   0.000000
    16  H    0.000000   0.000000   0.000000   0.000000   0.000000   0.000000
    17  H    0.000000   0.000000   0.000000   0.000000   0.000000   0.000000
    18  H    0.000000   0.000000   0.000000   0.000000   0.000000   0.000000
              13         14         15         16         17         18
     1  C    0.000000   0.000000   0.000000   0.000000   0.000000   0.000000
     2  H    0.000000   0.000000   0.000000   0.000000   0.000000   0.000000
     3  H    0.000000   0.000000   0.000000   0.000000   0.000000   0.000000
     4  H    0.000000   0.000000   0.000000   0.000000   0.000000   0.000000
     5  C    0.000000   0.000000   0.000000   0.000000   0.000000   0.000000
     6  H    0.000000   0.000000   0.000000   0.000000   0.000000   0.000000
     7  H    0.000000   0.000000   0.000000   0.000000   0.000000   0.000000
     8  C    0.000000   0.000000   0.000000   0.000000   0.000000   0.000000
     9  H    0.000000   0.000000   0.000000   0.000000   0.000000   0.000000
    10  O    0.000000   0.000000   0.000000   0.000000   0.000000   0.000000
    11  C    0.000000   0.000000   0.000000   0.000000   0.000000   0.000000
    12  H    0.000000   0.000000   0.000000   0.000000   0.000000   0.000000
    13  H    0.942921   0.000000   0.000000   0.000000   0.000000   0.000000
    14  H    0.000000   0.918173   0.000000   0.000000   0.000000   0.000000
    15  C    0.000000   0.000000   4.109176   0.000000   0.000000   0.000000
    16  H    0.000000   0.000000   0.000000   0.966804   0.000000   0.000000
    17  H    0.000000   0.000000   0.000000   0.000000   0.955917   0.000000
    18  H    0.000000   0.000000   0.000000   0.000000   0.000000   0.961523
 Mulliken charges:
               1
     1  C   -0.105998
     2  H    0.044070
     3  H    0.050986
     4  H    0.031678
     5  C   -0.157894
     6  H    0.057897
     7  H    0.060259
     8  C    0.091307
     9  H    0.038982
    10  O   -0.329509
    11  C   -0.115781
    12  H    0.188517
    13  H    0.057079
    14  H    0.081827
    15  C   -0.109176
    16  H    0.033196
    17  H    0.044083
    18  H    0.038477
 Sum of Mulliken charges =   0.00000
 Mulliken charges with hydrogens summed into heavy atoms:
               1
     1  C    0.020736
     5  C   -0.039738
     8  C    0.130289
    10  O   -0.140992
    11  C    0.023125
    15  C    0.006580
 Charge=              0.0000 electrons
 Dipole moment (field-independent basis, Debye):
    X=              0.1107    Y=             -0.6987    Z=              1.1861  Tot=              1.3811
 N-N= 1.722500486429D+02 E-N=-2.587916887274D+02  KE=-5.973742585949D+01
 Leave Link  601 at Wed Sep  7 15:34:39 2022, MaxMem=   131072000 cpu:               0.0 elap:               0.0
 (Enter /opt/g16/l701.exe)
 ... and contract with generalized density number  0.
 Compute integral first derivatives.
 Leave Link  701 at Wed Sep  7 15:34:39 2022, MaxMem=   131072000 cpu:               0.0 elap:               0.0
 (Enter /opt/g16/l702.exe)
 L702 exits ... SP integral derivatives will be done elsewhere.
 Leave Link  702 at Wed Sep  7 15:34:39 2022, MaxMem=   131072000 cpu:               0.0 elap:               0.0
 (Enter /opt/g16/l703.exe)
 Integral derivatives from FoFJK, PRISM(SPDF).
 Compute integral first derivatives, UseDBF=F ICtDFT=           0.
 Calling FoFJK, ICntrl=      2127 FMM=F ISym2X=0 I1Cent= 0 IOpClX= 0 NMat=1 NMatS=1 NMatT=0.
 FoFJK:  IHMeth= 9 ICntrl=    2127 DoSepK=F KAlg= 0 I1Cent=           0 FoldK=F
 IRaf=         0 NMat=       1 IRICut=       1 DoRegI=T DoRafI=F ISym2E= 0 IDoP0=3 IntGTp=3.
 FoFCou: FMM=F IPFlag=           0 FMFlag=      100000 FMFlg1=         800
         NFxFlg=           0 DoJE=F BraDBF=F KetDBF=F FulRan=T
         wScrn=  0.000000 ICntrl=      2127 IOpCl=  0 I1Cent=           0 NGrid=           0
         NMat0=    1 NMatS0=      1 NMatT0=    0 NMatD0=    1 NMtDS0=    0 NMtDT0=    0
 Symmetry not used in FoFCou.
 Leave Link  703 at Wed Sep  7 15:34:39 2022, MaxMem=   131072000 cpu:               0.0 elap:               0.0
 (Enter /opt/g16/l716.exe)
 Dipole        = 4.35704890D-02-2.74879107D-01 4.66659258D-01
 ***** Axes restored to original set *****
 -------------------------------------------------------------------
 Center     Atomic                   Forces (Hartrees/Bohr)
 Number     Number              X              Y              Z
 -------------------------------------------------------------------
      1        6          -0.004197611    0.040895508    0.016621577
      2        1          -0.002816120   -0.019125889   -0.013916629
      3        1           0.007691114   -0.001242723   -0.004397537
      4        1          -0.012384916   -0.001739578    0.005454240
      5        6          -0.022613216   -0.060189409    0.044481998
      6        1           0.007710242   -0.001926836    0.000419403
      7        1          -0.004673957    0.000817562   -0.003529149
      8        6           0.071146220   -0.039469743   -0.004303119
      9        1          -0.017351595   -0.002378510   -0.003863323
     10        8           0.000345723    0.012033881   -0.032254998
     11        6           0.022954106    0.087944505    0.000942670
     12        1           0.008487320   -0.002118081    0.003656371
     13        1          -0.050625872   -0.019908119    0.010130457
     14        1          -0.002998817    0.003177520   -0.013448249
     15        6          -0.003849449   -0.010755869   -0.019808436
     16        1           0.024340972   -0.001044933    0.016597056
     17        1          -0.007232753   -0.000161237    0.001037026
     18        1          -0.013931392    0.015191951   -0.003819357
 -------------------------------------------------------------------
 Cartesian Forces:  Max     0.087944505 RMS     0.023826046
 Leave Link  716 at Wed Sep  7 15:34:39 2022, MaxMem=   131072000 cpu:               0.0 elap:               0.0
 (Enter /opt/g16/l103.exe)

 GradGradGradGradGradGradGradGradGradGradGradGradGradGradGradGradGradGrad
 Berny optimization.
 FormGI is forming the generalized inverse of G from B-inverse, IUseBI=4.
 Internal  Forces:  Max     0.080289569 RMS     0.015190422
 Search for a local minimum.
 Step number   1 out of a maximum of   97
 All quantities printed in internal units (Hartrees-Bohrs-Radians)
 RMS Force = .15190D-01 SwitMx=.10000D-02 MixMth= 1
 Mixed Optimization -- RFO/linear search
 Second derivative matrix not updated -- first step.
 ITU=  0
     Eigenvalues ---    0.00230   0.00433   0.01251   0.01466   0.01529
     Eigenvalues ---    0.03487   0.04155   0.04606   0.05048   0.05266
     Eigenvalues ---    0.05485   0.05566   0.05664   0.05888   0.06208
     Eigenvalues ---    0.08373   0.08432   0.08855   0.12208   0.12599
     Eigenvalues ---    0.16000   0.16000   0.16000   0.16000   0.16000
     Eigenvalues ---    0.16000   0.16000   0.17000   0.19074   0.21750
     Eigenvalues ---    0.21794   0.22268   0.25885   0.27896   0.29878
     Eigenvalues ---    0.32141   0.32163   0.32966   0.33881   0.34603
     Eigenvalues ---    0.34976   0.36546   0.36983   0.37145   0.38221
     Eigenvalues ---    0.39272   0.42908   0.60502
 RFO step:  Lambda=-6.01329833D-02 EMin= 2.30000000D-03
 Linear search not attempted -- first point.
 Maximum step size (   0.300) exceeded in Quadratic search.
    -- Step size scaled by   0.740
 Iteration  1 RMS(Cart)=  0.07634111 RMS(Int)=  0.00212277
 Iteration  2 RMS(Cart)=  0.00234003 RMS(Int)=  0.00022187
 Iteration  3 RMS(Cart)=  0.00000479 RMS(Int)=  0.00022182
 Iteration  4 RMS(Cart)=  0.00000000 RMS(Int)=  0.00022182
 ITry= 1 IFail=0 DXMaxC= 2.89D-01 DCOld= 1.00D+10 DXMaxT= 3.00D-01 DXLimC= 3.00D+00 Rises=F
 Variable       Old X    -DE/DX   Delta X   Delta X   Delta X     New X
                                 (Linear)    (Quad)   (Total)
    R1        2.02328   0.01836   0.00000   0.03148   0.03148   2.05475
    R2        2.07531  -0.00573   0.00000  -0.01062  -0.01062   2.06468
    R3        2.10546  -0.01028   0.00000  -0.01992  -0.01992   2.08554
    R4        2.97010  -0.02205   0.00000  -0.05114  -0.05114   2.91896
    R5        2.10586  -0.00228   0.00000  -0.00442  -0.00442   2.10144
    R6        2.09111   0.00546   0.00000   0.01037   0.01037   2.10148
    R7        2.76537   0.06831   0.00000   0.11874   0.11874   2.88411
    R8        2.19067  -0.01752   0.00000  -0.03823  -0.03823   2.15243
    R9        2.67783   0.02298   0.00000   0.03475   0.03475   2.71258
   R10        2.72554   0.08029   0.00000   0.13117   0.13117   2.85671
   R11        1.77245   0.00849   0.00000   0.00944   0.00944   1.78189
   R12        2.34834  -0.05237   0.00000  -0.13932  -0.13932   2.20902
   R13        2.05714   0.00999   0.00000   0.01803   0.01803   2.07517
   R14        2.88208  -0.00360   0.00000  -0.00743  -0.00743   2.87466
   R15        2.00745   0.02854   0.00000   0.04773   0.04773   2.05519
   R16        2.06324   0.00553   0.00000   0.01007   0.01007   2.07332
   R17        2.02572   0.01960   0.00000   0.03372   0.03372   2.05944
    A1        1.99485  -0.01176   0.00000  -0.04209  -0.04258   1.95227
    A2        1.81283   0.00050   0.00000   0.01730   0.01695   1.82978
    A3        1.83863   0.01624   0.00000   0.06070   0.06028   1.89891
    A4        1.96838  -0.00576   0.00000  -0.02998  -0.03005   1.93833
    A5        1.88734   0.00565   0.00000   0.01178   0.01149   1.89883
    A6        1.95860  -0.00404   0.00000  -0.01312  -0.01332   1.94528
    A7        1.95893  -0.00892   0.00000  -0.03735  -0.03718   1.92175
    A8        1.83527   0.00073   0.00000   0.01662   0.01635   1.85162
    A9        1.98302   0.01128   0.00000   0.02867   0.02841   2.01144
   A10        1.77776   0.00365   0.00000   0.01371   0.01396   1.79172
   A11        1.95998  -0.00406   0.00000  -0.01973  -0.01966   1.94032
   A12        1.93354  -0.00329   0.00000  -0.00063  -0.00123   1.93230
   A13        1.93327  -0.00429   0.00000  -0.01809  -0.01866   1.91462
   A14        1.80594   0.02329   0.00000   0.08652   0.08670   1.89264
   A15        2.01241  -0.00668   0.00000  -0.01548  -0.01556   1.99685
   A16        1.88378  -0.00277   0.00000  -0.00773  -0.00813   1.87566
   A17        1.94004   0.00335   0.00000  -0.00902  -0.00970   1.93034
   A18        1.87859  -0.01181   0.00000  -0.02990  -0.03004   1.84855
   A19        1.90937  -0.00742   0.00000  -0.02494  -0.02494   1.88443
   A20        1.72401   0.01138   0.00000   0.05804   0.05813   1.78213
   A21        1.97777  -0.00355   0.00000  -0.01204  -0.01197   1.96580
   A22        1.97337   0.00091   0.00000   0.01038   0.01024   1.98361
   A23        2.02668  -0.00753   0.00000  -0.04686  -0.04693   1.97975
   A24        1.89110  -0.00516   0.00000  -0.01868  -0.01946   1.87164
   A25        1.87024   0.00378   0.00000   0.00976   0.00967   1.87992
   A26        2.00571  -0.00899   0.00000  -0.02758  -0.02753   1.97818
   A27        1.93423   0.00207   0.00000   0.00379   0.00378   1.93802
   A28        1.89846   0.00269   0.00000   0.00960   0.00968   1.90814
   A29        1.85487   0.00335   0.00000   0.01056   0.01053   1.86540
   A30        1.82089   0.00547   0.00000   0.02460   0.02473   1.84563
   A31        1.94742  -0.00478   0.00000  -0.02137  -0.02136   1.92606
    D1        2.97521  -0.00205   0.00000  -0.00905  -0.00908   2.96614
    D2        1.05673  -0.00279   0.00000  -0.01759  -0.01733   1.03940
    D3       -1.06051  -0.00578   0.00000  -0.04476  -0.04489  -1.10540
    D4        0.83533  -0.00035   0.00000   0.00008  -0.00009   0.83523
    D5       -1.08316  -0.00110   0.00000  -0.00846  -0.00835  -1.09151
    D6        3.08278  -0.00409   0.00000  -0.03563  -0.03590   3.04688
    D7       -1.34676   0.00567   0.00000   0.03887   0.03888  -1.30787
    D8        3.01794   0.00493   0.00000   0.03033   0.03063   3.04857
    D9        0.90070   0.00193   0.00000   0.00316   0.00307   0.90377
   D10       -1.05737   0.00113   0.00000   0.01518   0.01534  -1.04203
   D11        0.95734   0.00844   0.00000   0.04436   0.04432   1.00165
   D12        3.00370   0.00587   0.00000   0.05664   0.05661   3.06031
   D13        1.18955  -0.00508   0.00000  -0.02952  -0.02941   1.16015
   D14       -3.07893   0.00223   0.00000  -0.00034  -0.00043  -3.07936
   D15       -1.03256  -0.00035   0.00000   0.01194   0.01187  -1.02070
   D16       -3.11873  -0.00498   0.00000  -0.02464  -0.02452   3.13993
   D17       -1.10403   0.00232   0.00000   0.00454   0.00446  -1.09957
   D18        0.94234  -0.00025   0.00000   0.01682   0.01675   0.95909
   D19       -1.62074  -0.00245   0.00000  -0.00468  -0.00504  -1.62578
   D20        0.42892   0.00284   0.00000   0.01365   0.01382   0.44274
   D21        2.52438  -0.00131   0.00000  -0.01804  -0.01784   2.50654
   D22        2.97381  -0.00653   0.00000  -0.02141  -0.02102   2.95280
   D23       -1.15423  -0.01008   0.00000  -0.04673  -0.04667  -1.20090
   D24        0.97835  -0.00706   0.00000  -0.03495  -0.03511   0.94323
   D25        0.75511   0.00210   0.00000   0.02480   0.02517   0.78028
   D26        2.91026  -0.00145   0.00000  -0.00052  -0.00048   2.90977
   D27       -1.24036   0.00157   0.00000   0.01126   0.01107  -1.22928
   D28       -1.30436   0.01074   0.00000   0.05743   0.05756  -1.24680
   D29        0.85079   0.00719   0.00000   0.03211   0.03191   0.88269
   D30        2.98336   0.01021   0.00000   0.04389   0.04346   3.02682
   D31        0.93317   0.00281   0.00000   0.01328   0.01319   0.94637
   D32       -1.16970   0.00325   0.00000   0.01622   0.01609  -1.15361
   D33        2.96644   0.00607   0.00000   0.03405   0.03389   3.00033
   D34       -0.95915  -0.00833   0.00000  -0.05062  -0.05039  -1.00954
   D35       -3.06203  -0.00789   0.00000  -0.04767  -0.04749  -3.10952
   D36        1.07411  -0.00507   0.00000  -0.02984  -0.02969   1.04442
   D37        3.12482   0.00170   0.00000   0.01217   0.01215   3.13698
   D38        1.02195   0.00213   0.00000   0.01512   0.01505   1.03700
   D39       -1.12510   0.00496   0.00000   0.03294   0.03285  -1.09225
         Item               Value     Threshold  Converged?
 Maximum Force            0.080290     0.000450     NO 
 RMS     Force            0.015190     0.000300     NO 
 Maximum Displacement     0.288697     0.001800     NO 
 RMS     Displacement     0.075874     0.001200     NO 
 Predicted change in Energy=-3.173149D-02
 Lowest energy point so far.  Saving SCF results.
 GradGradGradGradGradGradGradGradGradGradGradGradGradGradGradGradGradGrad

 Leave Link  103 at Wed Sep  7 15:34:39 2022, MaxMem=   131072000 cpu:               0.0 elap:               0.0
 (Enter /opt/g16/l202.exe)
                          Input orientation:                          
 ---------------------------------------------------------------------
 Center     Atomic      Atomic             Coordinates (Angstroms)
 Number     Number       Type             X           Y           Z
 ---------------------------------------------------------------------
      1          6           0       13.433519    6.873073    2.671796
      2          1           0       13.527112    6.467228    1.667398
      3          1           0       12.866027    6.208661    3.327729
      4          1           0       14.471748    6.989513    3.027461
      5          6           0       12.707239    8.234051    2.593071
      6          1           0       12.438186    8.583431    3.613936
      7          1           0       11.714417    8.027629    2.136608
      8          6           0       13.443726    9.320859    1.814779
      9          1           0       14.456133    9.519574    2.297385
     10          8           0       13.687518    8.840455    0.484269
     11          6           0       12.668720   10.608901    1.654892
     12          1           0       14.543449    8.445099    0.469997
     13          1           0       13.483762   11.335223    1.237000
     14          1           0       11.799875   10.499822    0.992244
     15          6           0       12.176791   11.192518    2.970739
     16          1           0       12.969222   11.335356    3.701787
     17          1           0       11.428132   10.539220    3.435985
     18          1           0       11.757423   12.182388    2.791924
 ---------------------------------------------------------------------
                    Distance matrix (angstroms):
                    1          2          3          4          5
     1  C    0.000000
     2  H    1.087329   0.000000
     3  H    1.092584   1.805711   0.000000
     4  H    1.103620   1.736345   1.810589   0.000000
     5  C    1.544649   2.156554   2.160357   2.202513   0.000000
     6  H    2.191721   3.074587   2.429917   2.649510   1.112034
     7  H    2.138863   2.437390   2.460411   3.078016   1.112054
     8  C    2.593498   2.858650   3.508351   2.821808   1.526205
     9  H    2.861798   3.252196   3.814733   2.633337   2.190578
    10  O    2.953029   2.656639   3.960613   3.241733   2.403273
    11  C    3.946570   4.229709   4.711626   4.270225   2.553737
    12  H    2.924231   2.525605   3.997754   2.943552   2.814899
    13  H    4.687424   4.887176   5.570851   4.802818   3.472634
    14  H    4.317753   4.438580   5.000524   4.858321   2.918848
    15  C    4.508473   5.084331   5.043939   4.789081   3.029279
    16  H    4.603088   5.305530   5.141358   4.647434   3.303934
    17  H    4.248081   4.910676   4.564319   4.693710   2.767747
    18  H    5.568891   6.087644   6.099303   5.864212   4.065840
                    6          7          8          9         10
     6  H    0.000000
     7  H    1.736449   0.000000
     8  C    2.189035   2.183237   0.000000
     9  H    2.584914   3.125501   1.139019   0.000000
    10  O    3.379601   2.698896   1.435437   2.083113   0.000000
    11  C    2.827282   2.793869   1.511704   2.189584   2.352808
    12  H    3.786241   3.309878   1.945453   2.121667   0.942936
    13  H    3.783571   3.857467   2.095971   2.316572   2.613807
    14  H    3.309572   2.725548   2.183750   3.117689   2.564124
    15  C    2.699882   3.305463   2.538597   2.906467   3.741260
    16  H    2.804069   3.868511   2.800741   2.735016   4.134356
    17  H    2.208390   2.842258   2.859254   3.391885   4.086961
    18  H    3.753882   4.206341   3.462193   3.823373   4.496559
                   11         12         13         14         15
    11  C    0.000000
    12  H    3.098487   0.000000
    13  H    1.168962   3.172388   0.000000
    14  H    1.098131   3.467251   1.895593   0.000000
    15  C    1.521202   4.404894   2.175866   2.129868   0.000000
    16  H    2.192674   4.612618   2.517922   3.067102   1.087557
    17  H    2.171683   4.784102   3.113643   2.472168   1.097152
    18  H    2.144566   5.207746   2.472999   2.464077   1.089811
                   16         17         18
    16  H    0.000000
    17  H    1.754834   0.000000
    18  H    1.736022   1.795340   0.000000
 Stoichiometry    C5H12O
 Framework group  C1[X(C5H12O)]
 Deg. of freedom    48
 Full point group                 C1      NOp   1
 RotChk:  IX=0 Diff= 4.42D-02
 Largest Abelian subgroup         C1      NOp   1
 Largest concise Abelian subgroup C1      NOp   1
                         Standard orientation:                         
 ---------------------------------------------------------------------
 Center     Atomic      Atomic             Coordinates (Angstroms)
 Number     Number       Type             X           Y           Z
 ---------------------------------------------------------------------
      1          6           0        2.277893   -0.770802    0.098902
      2          1           0        2.747274    0.106971   -0.338683
      3          1           0        2.725697   -1.697243   -0.268412
      4          1           0        2.430600   -0.660471    1.186323
      5          6           0        0.776545   -0.765616   -0.264232
      6          1           0        0.312570   -1.737199    0.013928
      7          1           0        0.728088   -0.781606   -1.375115
      8          6           0       -0.024193    0.407545    0.294172
      9          1           0        0.035611    0.406449    1.431619
     10          8           0        0.575374    1.627274   -0.167632
     11          6           0       -1.464439    0.454735   -0.162682
     12          1           0        1.189720    1.915523    0.487058
     13          1           0       -1.916869    1.274693    0.536923
     14          1           0       -1.561426    0.690106   -1.230898
     15          6           0       -2.230145   -0.833445    0.098741
     16          1           0       -2.190138   -1.155417    1.136776
     17          1           0       -1.832260   -1.657846   -0.506066
     18          1           0       -3.285826   -0.676654   -0.121806
 ---------------------------------------------------------------------
 Rotational constants (GHZ):           5.1152966           2.2906091           1.7111551
 Leave Link  202 at Wed Sep  7 15:34:39 2022, MaxMem=   131072000 cpu:               0.0 elap:               0.0
 (Enter /opt/g16/l301.exe)
 Standard basis: VSTO-6G (5D, 7F)
 Ernie: Thresh=  0.10000D-02 Tol=  0.10000D-05 Strict=F.
  NNHCO=     0 NNPyr=     0 NCTC=     0               EPep=         0.000000000
    EC=       128.077326307  ECS=         2.182266796   EG=         0.561664651
   EHC=         0.000000000  EAt=       -36.836480110  AtH=         2.452923921
 EPDDG=         0.000000000  ECC=       130.821257755 EAtT=        39.289404030
 There are    36 symmetry adapted cartesian basis functions of A   symmetry.
 There are    36 symmetry adapted basis functions of A   symmetry.
    36 basis functions,   216 primitive gaussians,    36 cartesian basis functions
    19 alpha electrons       19 beta electrons
       nuclear repulsion energy       170.1106617850 Hartrees.
 IExCor=    0 DFT=F Ex=HF Corr=None ExCW=0 ScaHFX=  1.000000
 ScaDFX=  1.000000  1.000000  1.000000  1.000000 ScalE2=  1.000000  1.000000
 IRadAn=      5 IRanWt=     -1 IRanGd=            0 ICorTp=0 IEmpDi=  4
 Integral buffers will be    131072 words long.
 Regular integral format.
 Two-electron integral symmetry is turned off.
 Leave Link  301 at Wed Sep  7 15:34:39 2022, MaxMem=   131072000 cpu:               0.0 elap:               0.0
 (Enter /opt/g16/l302.exe)
 Do NDO integrals.
 NPDir=0 NMtPBC=     1 NCelOv=     1 NCel=       1 NClECP=     1 NCelD=      1
         NCelK=      1 NCelE2=     1 NClLst=     1 CellRange=     0.0.
 One-electron integrals computed using PRISM.
 NBasis=    36 RedAO= F EigKep=  0.00D+00  NBF=    36
 NBsUse=    36 1.00D-04 EigRej=  0.00D+00 NBFU=    36
 Leave Link  302 at Wed Sep  7 15:34:39 2022, MaxMem=   131072000 cpu:               0.0 elap:               0.0
 (Enter /opt/g16/l303.exe)
 DipDrv:  MaxL=1.
 Leave Link  303 at Wed Sep  7 15:34:39 2022, MaxMem=   131072000 cpu:               0.0 elap:               0.0
 (Enter /opt/g16/l401.exe)
 Initial guess from the checkpoint file:  "MD_extract_013_gaussian.chk"
 B after Tr=    -0.000000    0.000000   -0.000000
         Rot=    0.999861   -0.000212   -0.000407   -0.016650 Ang=  -1.91 deg.
 Guess basis will be translated and rotated to current coordinates.
 JPrj=0 DoOrth=T DoCkMO=T.
 Leave Link  401 at Wed Sep  7 15:34:39 2022, MaxMem=   131072000 cpu:               0.0 elap:               0.0
 (Enter /opt/g16/l502.exe)
 Keep J ints in memory in canonical form, NReq=862161.
 FoFCou: FMM=F IPFlag=           0 FMFlag=           0 FMFlg1=           0
         NFxFlg=           0 DoJE=F BraDBF=F KetDBF=F FulRan=T
         wScrn=  0.000000 ICntrl=       600 IOpCl=  2 I1Cent=           0 NGrid=           0
         NMat0=    1 NMatS0=     72 NMatT0=    0 NMatD0=    1 NMtDS0=    0 NMtDT0=    0
 Symmetry not used in FoFCou.
 Two-electron integral symmetry not used.
 Closed shell SCF:
 Using DIIS extrapolation, IDIIS=  1040.
 Overlap will be assumed to be unity.
 NGot=   131072000 LenX=   131006778 LenY=   131005041
 Requested convergence on RMS density matrix=1.00D-08 within 128 cycles.
 Requested convergence on MAX density matrix=1.00D-06.
 Requested convergence on             energy=1.00D-06.
 No special actions if energy rises.

 Cycle   1  Pass 1  IDiag  1:
 E=-0.970469786536512E-01
 DIIS: error= 6.64D-03 at cycle   1 NSaved=   1.
 NSaved= 1 IEnMin= 1 EnMin=-0.970469786536512E-01 IErMin= 1 ErrMin= 6.64D-03
 ErrMax= 6.64D-03  0.00D+00 EMaxC= 1.00D-01 BMatC= 2.27D-03 BMatP= 2.27D-03
 IDIUse=3 WtCom= 9.34D-01 WtEn= 6.64D-02
 Coeff-Com:  0.100D+01
 Coeff-En:   0.100D+01
 Coeff:      0.100D+01
 GapD=    2.000 DampG=2.000 DampE=1.000 DampFc=2.0000 IDamp=-1.
 RMSDP=2.32D-03 MaxDP=1.77D-02              OVMax= 0.00D+00

 Cycle   2  Pass 1  IDiag  3:
 E=-0.104479554576983     Delta-E=       -0.007432575923 Rises=F Damp=F
 DIIS: error= 2.91D-03 at cycle   2 NSaved=   2.
 NSaved= 2 IEnMin= 2 EnMin=-0.104479554576983     IErMin= 2 ErrMin= 2.91D-03
 ErrMax= 2.91D-03  0.00D+00 EMaxC= 1.00D-01 BMatC= 3.05D-04 BMatP= 2.27D-03
 IDIUse=3 WtCom= 9.71D-01 WtEn= 2.91D-02
 Coeff-Com: -0.466D+00 0.147D+01
 Coeff-En:   0.000D+00 0.100D+01
 Coeff:     -0.452D+00 0.145D+01
 Gap=     0.522 Goal=   None    Shift=    0.000
 RMSDP=1.41D-03 MaxDP=1.18D-02 DE=-7.43D-03 OVMax= 6.81D-03

 Cycle   3  Pass 1  IDiag  3:
 E=-0.105949059478661     Delta-E=       -0.001469504902 Rises=F Damp=F
 DIIS: error= 8.68D-04 at cycle   3 NSaved=   3.
 NSaved= 3 IEnMin= 3 EnMin=-0.105949059478661     IErMin= 3 ErrMin= 8.68D-04
 ErrMax= 8.68D-04  0.00D+00 EMaxC= 1.00D-01 BMatC= 1.66D-05 BMatP= 3.05D-04
 IDIUse=3 WtCom= 9.91D-01 WtEn= 8.68D-03
 Coeff-Com:  0.206D+00-0.785D+00 0.158D+01
 Coeff-En:   0.000D+00 0.000D+00 0.100D+01
 Coeff:      0.204D+00-0.778D+00 0.157D+01
 Gap=     0.522 Goal=   None    Shift=    0.000
 RMSDP=4.44D-04 MaxDP=4.98D-03 DE=-1.47D-03 OVMax= 3.55D-03

 Cycle   4  Pass 1  IDiag  3:
 E=-0.106055808316114     Delta-E=       -0.000106748837 Rises=F Damp=F
 DIIS: error= 2.12D-04 at cycle   4 NSaved=   4.
 NSaved= 4 IEnMin= 4 EnMin=-0.106055808316114     IErMin= 4 ErrMin= 2.12D-04
 ErrMax= 2.12D-04  0.00D+00 EMaxC= 1.00D-01 BMatC= 1.02D-06 BMatP= 1.66D-05
 IDIUse=3 WtCom= 9.98D-01 WtEn= 2.12D-03
 Coeff-Com: -0.116D+00 0.457D+00-0.107D+01 0.173D+01
 Coeff-En:   0.000D+00 0.000D+00 0.000D+00 0.100D+01
 Coeff:     -0.116D+00 0.456D+00-0.107D+01 0.173D+01
 Gap=     0.522 Goal=   None    Shift=    0.000
 RMSDP=1.32D-04 MaxDP=1.65D-03 DE=-1.07D-04 OVMax= 1.46D-03

 Cycle   5  Pass 1  IDiag  3:
 E=-0.106063631944210     Delta-E=       -0.000007823628 Rises=F Damp=F
 DIIS: error= 3.60D-05 at cycle   5 NSaved=   5.
 NSaved= 5 IEnMin= 5 EnMin=-0.106063631944210     IErMin= 5 ErrMin= 3.60D-05
 ErrMax= 3.60D-05  0.00D+00 EMaxC= 1.00D-01 BMatC= 5.78D-08 BMatP= 1.02D-06
 IDIUse=1 WtCom= 1.00D+00 WtEn= 0.00D+00
 Coeff-Com:  0.530D-01-0.211D+00 0.512D+00-0.991D+00 0.164D+01
 Coeff:      0.530D-01-0.211D+00 0.512D+00-0.991D+00 0.164D+01
 Gap=     0.522 Goal=   None    Shift=    0.000
 RMSDP=3.32D-05 MaxDP=3.74D-04 DE=-7.82D-06 OVMax= 4.36D-04

 Cycle   6  Pass 1  IDiag  3:
 E=-0.106064080353718     Delta-E=       -0.000000448410 Rises=F Damp=F
 DIIS: error= 8.98D-06 at cycle   6 NSaved=   6.
 NSaved= 6 IEnMin= 6 EnMin=-0.106064080353718     IErMin= 6 ErrMin= 8.98D-06
 ErrMax= 8.98D-06  0.00D+00 EMaxC= 1.00D-01 BMatC= 2.63D-09 BMatP= 5.78D-08
 IDIUse=1 WtCom= 1.00D+00 WtEn= 0.00D+00
 Coeff-Com: -0.182D-01 0.722D-01-0.177D+00 0.357D+00-0.726D+00 0.149D+01
 Coeff:     -0.182D-01 0.722D-01-0.177D+00 0.357D+00-0.726D+00 0.149D+01
 Gap=     0.522 Goal=   None    Shift=    0.000
 RMSDP=6.23D-06 MaxDP=5.76D-05 DE=-4.48D-07 OVMax= 8.40D-05

 Cycle   7  Pass 1  IDiag  3:
 E=-0.106064098837095     Delta-E=       -0.000000018483 Rises=F Damp=F
 DIIS: error= 3.16D-06 at cycle   7 NSaved=   7.
 NSaved= 7 IEnMin= 7 EnMin=-0.106064098837095     IErMin= 7 ErrMin= 3.16D-06
 ErrMax= 3.16D-06  0.00D+00 EMaxC= 1.00D-01 BMatC= 2.07D-10 BMatP= 2.63D-09
 IDIUse=1 WtCom= 1.00D+00 WtEn= 0.00D+00
 Coeff-Com:  0.623D-02-0.246D-01 0.604D-01-0.123D+00 0.270D+00-0.739D+00
 Coeff-Com:  0.155D+01
 Coeff:      0.623D-02-0.246D-01 0.604D-01-0.123D+00 0.270D+00-0.739D+00
 Coeff:      0.155D+01
 Gap=     0.522 Goal=   None    Shift=    0.000
 RMSDP=1.69D-06 MaxDP=1.91D-05 DE=-1.85D-08 OVMax= 1.84D-05

 Cycle   8  Pass 1  IDiag  3:
 E=-0.106064100308657     Delta-E=       -0.000000001472 Rises=F Damp=F
 DIIS: error= 9.35D-07 at cycle   8 NSaved=   8.
 NSaved= 8 IEnMin= 8 EnMin=-0.106064100308657     IErMin= 8 ErrMin= 9.35D-07
 ErrMax= 9.35D-07  0.00D+00 EMaxC= 1.00D-01 BMatC= 1.71D-11 BMatP= 2.07D-10
 IDIUse=1 WtCom= 1.00D+00 WtEn= 0.00D+00
 Coeff-Com: -0.176D-02 0.693D-02-0.170D-01 0.348D-01-0.794D-01 0.247D+00
 Coeff-Com: -0.761D+00 0.157D+01
 Coeff:     -0.176D-02 0.693D-02-0.170D-01 0.348D-01-0.794D-01 0.247D+00
 Coeff:     -0.761D+00 0.157D+01
 Gap=     0.522 Goal=   None    Shift=    0.000
 RMSDP=5.36D-07 MaxDP=6.85D-06 DE=-1.47D-09 OVMax= 5.19D-06

 Cycle   9  Pass 1  IDiag  3:
 E=-0.106064100435020     Delta-E=       -0.000000000126 Rises=F Damp=F
 DIIS: error= 1.89D-07 at cycle   9 NSaved=   9.
 NSaved= 9 IEnMin= 9 EnMin=-0.106064100435020     IErMin= 9 ErrMin= 1.89D-07
 ErrMax= 1.89D-07  0.00D+00 EMaxC= 1.00D-01 BMatC= 9.39D-13 BMatP= 1.71D-11
 IDIUse=1 WtCom= 1.00D+00 WtEn= 0.00D+00
 Coeff-Com:  0.334D-03-0.131D-02 0.321D-02-0.668D-02 0.167D-01-0.606D-01
 Coeff-Com:  0.237D+00-0.699D+00 0.151D+01
 Coeff:      0.334D-03-0.131D-02 0.321D-02-0.668D-02 0.167D-01-0.606D-01
 Coeff:      0.237D+00-0.699D+00 0.151D+01
 Gap=     0.522 Goal=   None    Shift=    0.000
 RMSDP=1.17D-07 MaxDP=1.43D-06 DE=-1.26D-10 OVMax= 1.26D-06

 Cycle  10  Pass 1  IDiag  3:
 E=-0.106064100441586     Delta-E=       -0.000000000007 Rises=F Damp=F
 DIIS: error= 2.51D-08 at cycle  10 NSaved=  10.
 NSaved=10 IEnMin=10 EnMin=-0.106064100441586     IErMin=10 ErrMin= 2.51D-08
 ErrMax= 2.51D-08  0.00D+00 EMaxC= 1.00D-01 BMatC= 3.38D-14 BMatP= 9.39D-13
 IDIUse=1 WtCom= 1.00D+00 WtEn= 0.00D+00
 Coeff-Com: -0.331D-04 0.127D-03-0.315D-03 0.697D-03-0.228D-02 0.110D-01
 Coeff-Com: -0.537D-01 0.189D+00-0.560D+00 0.142D+01
 Coeff:     -0.331D-04 0.127D-03-0.315D-03 0.697D-03-0.228D-02 0.110D-01
 Coeff:     -0.537D-01 0.189D+00-0.560D+00 0.142D+01
 Gap=     0.522 Goal=   None    Shift=    0.000
 RMSDP=2.00D-08 MaxDP=1.83D-07 DE=-6.57D-12 OVMax= 1.64D-07

 Cycle  11  Pass 1  IDiag  3:
 E=-0.106064100441927     Delta-E=       -0.000000000000 Rises=F Damp=F
 DIIS: error= 3.73D-09 at cycle  11 NSaved=  11.
 NSaved=11 IEnMin=11 EnMin=-0.106064100441927     IErMin=11 ErrMin= 3.73D-09
 ErrMax= 3.73D-09  0.00D+00 EMaxC= 1.00D-01 BMatC= 9.62D-16 BMatP= 3.38D-14
 IDIUse=1 WtCom= 1.00D+00 WtEn= 0.00D+00
 Coeff-Com:  0.264D-05-0.929D-05 0.246D-04-0.670D-04 0.360D-03-0.230D-02
 Coeff-Com:  0.127D-01-0.473D-01 0.152D+00-0.494D+00 0.138D+01
 Coeff:      0.264D-05-0.929D-05 0.246D-04-0.670D-04 0.360D-03-0.230D-02
 Coeff:      0.127D-01-0.473D-01 0.152D+00-0.494D+00 0.138D+01
 Gap=     0.522 Goal=   None    Shift=    0.000
 RMSDP=3.02D-09 MaxDP=1.81D-08 DE=-3.41D-13 OVMax= 2.24D-08

 Cycle  12  Pass 2  IDiag  1:
 SCF Done:  E(RPM3) = -0.106064100442     A.U. after   12 cycles
            NFock= 11  Conv=0.30D-08     -V/T= 0.9982
 KE=-5.965540304207D+01 PE=-2.547506146629D+02 EE= 1.441892918195D+02
 Leave Link  502 at Wed Sep  7 15:34:39 2022, MaxMem=   131072000 cpu:               0.0 elap:               0.0
 (Enter /opt/g16/l701.exe)
 ... and contract with generalized density number  0.
 Compute integral first derivatives.
 Leave Link  701 at Wed Sep  7 15:34:40 2022, MaxMem=   131072000 cpu:               0.0 elap:               0.0
 (Enter /opt/g16/l702.exe)
 L702 exits ... SP integral derivatives will be done elsewhere.
 Leave Link  702 at Wed Sep  7 15:34:40 2022, MaxMem=   131072000 cpu:               0.0 elap:               0.0
 (Enter /opt/g16/l703.exe)
 Integral derivatives from FoFJK, PRISM(SPDF).
 Compute integral first derivatives, UseDBF=F ICtDFT=           0.
 Calling FoFJK, ICntrl=      2127 FMM=F ISym2X=0 I1Cent= 0 IOpClX= 0 NMat=1 NMatS=1 NMatT=0.
 FoFJK:  IHMeth= 9 ICntrl=    2127 DoSepK=F KAlg= 0 I1Cent=           0 FoldK=F
 IRaf=         0 NMat=       1 IRICut=       1 DoRegI=T DoRafI=F ISym2E= 0 IDoP0=3 IntGTp=3.
 FoFCou: FMM=F IPFlag=           0 FMFlag=      100000 FMFlg1=         800
         NFxFlg=           0 DoJE=F BraDBF=F KetDBF=F FulRan=T
         wScrn=  0.000000 ICntrl=      2127 IOpCl=  0 I1Cent=           0 NGrid=           0
         NMat0=    1 NMatS0=      1 NMatT0=    0 NMatD0=    1 NMtDS0=    0 NMtDT0=    0
 Symmetry not used in FoFCou.
 Leave Link  703 at Wed Sep  7 15:34:40 2022, MaxMem=   131072000 cpu:               0.0 elap:               0.0
 (Enter /opt/g16/l716.exe)
 Dipole        = 7.17463827D-02-2.99534262D-01 4.75155946D-01
 ***** Axes restored to original set *****
 -------------------------------------------------------------------
 Center     Atomic                   Forces (Hartrees/Bohr)
 Number     Number              X              Y              Z
 -------------------------------------------------------------------
      1        6           0.000911620    0.030901119   -0.000485510
      2        1          -0.002706896   -0.008418670   -0.004267660
      3        1           0.003579634   -0.003614380   -0.001176103
      4        1          -0.005266287   -0.001318916    0.004235484
      5        6          -0.007249173   -0.019585984    0.006982082
      6        1           0.005909083    0.001550427   -0.000804054
      7        1           0.000848939    0.003086827   -0.002840774
      8        6           0.021492627   -0.022691634   -0.006068104
      9        1          -0.011324063   -0.001195034   -0.001391488
     10        8          -0.005379110    0.007214094    0.001601058
     11        6           0.024711476    0.029458206    0.009015018
     12        1           0.002050576   -0.001450398    0.004025615
     13        1          -0.029855964   -0.013421835    0.002294040
     14        1           0.002062813    0.001165355   -0.007443163
     15        6           0.001582790   -0.005618277   -0.008213532
     16        1           0.007515689   -0.001544489    0.004076945
     17        1          -0.002672485    0.002223284    0.000265641
     18        1          -0.006211270    0.003260304    0.000194506
 -------------------------------------------------------------------
 Cartesian Forces:  Max     0.030901119 RMS     0.010413215
 Leave Link  716 at Wed Sep  7 15:34:40 2022, MaxMem=   131072000 cpu:               0.0 elap:               0.0
 (Enter /opt/g16/l103.exe)

 GradGradGradGradGradGradGradGradGradGradGradGradGradGradGradGradGradGrad
 Berny optimization.
 Using GEDIIS/GDIIS optimizer.
 FormGI is forming the generalized inverse of G from B-inverse, IUseBI=4.
 Internal  Forces:  Max     0.029976259 RMS     0.005306426
 Search for a local minimum.
 Step number   2 out of a maximum of   97
 All quantities printed in internal units (Hartrees-Bohrs-Radians)
 RMS Force = .53064D-02 SwitMx=.10000D-02 MixMth= 1
 Mixed Optimization -- RFO/linear search
 Update second derivatives using D2CorX and points    1    2
 DE= -2.79D-02 DEPred=-3.17D-02 R= 8.79D-01
 TightC=F SS=  1.41D+00  RLast= 3.51D-01 DXNew= 5.0454D-01 1.0536D+00
 Trust test= 8.79D-01 RLast= 3.51D-01 DXMaxT set to 5.05D-01
 ITU=  1  0
 Use linear search instead of GDIIS.
     Eigenvalues ---    0.00230   0.00433   0.01254   0.01466   0.01530
     Eigenvalues ---    0.03484   0.04054   0.04835   0.04962   0.05386
     Eigenvalues ---    0.05431   0.05536   0.05650   0.05758   0.05854
     Eigenvalues ---    0.08251   0.08638   0.09061   0.12154   0.12709
     Eigenvalues ---    0.15313   0.16000   0.16000   0.16000   0.16000
     Eigenvalues ---    0.16000   0.16067   0.17816   0.19052   0.19596
     Eigenvalues ---    0.22126   0.22682   0.25370   0.27710   0.29851
     Eigenvalues ---    0.32124   0.32155   0.32979   0.33890   0.34608
     Eigenvalues ---    0.34965   0.36771   0.37065   0.37727   0.38365
     Eigenvalues ---    0.41440   0.54174   0.60532
 RFO step:  Lambda=-1.46722195D-02 EMin= 2.30217233D-03
 Quartic linear search produced a step of  0.48115.
 Iteration  1 RMS(Cart)=  0.05779297 RMS(Int)=  0.00359226
 Iteration  2 RMS(Cart)=  0.00406890 RMS(Int)=  0.00070322
 Iteration  3 RMS(Cart)=  0.00001554 RMS(Int)=  0.00070297
 Iteration  4 RMS(Cart)=  0.00000003 RMS(Int)=  0.00070297
 ITry= 1 IFail=0 DXMaxC= 2.43D-01 DCOld= 1.00D+10 DXMaxT= 5.05D-01 DXLimC= 3.00D+00 Rises=F
 Variable       Old X    -DE/DX   Delta X   Delta X   Delta X     New X
                                 (Linear)    (Quad)   (Total)
    R1        2.05475   0.00685   0.01515   0.01224   0.02738   2.08214
    R2        2.06468  -0.00037  -0.00511   0.00308  -0.00203   2.06266
    R3        2.08554  -0.00373  -0.00958  -0.00747  -0.01706   2.06848
    R4        2.91896  -0.01719  -0.02461  -0.06882  -0.09343   2.82554
    R5        2.10144  -0.00168  -0.00213  -0.00535  -0.00748   2.09396
    R6        2.10148  -0.00016   0.00499  -0.00519  -0.00020   2.10128
    R7        2.88411   0.00090   0.05713  -0.04769   0.00944   2.89355
    R8        2.15243  -0.01086  -0.01840  -0.03704  -0.05543   2.09700
    R9        2.71258  -0.00771   0.01672  -0.04010  -0.02338   2.68920
   R10        2.85671   0.01468   0.06311  -0.00394   0.05917   2.91587
   R11        1.78189   0.00241   0.00454   0.00167   0.00621   1.78810
   R12        2.20902  -0.02998  -0.06704  -0.12521  -0.19225   2.01677
   R13        2.07517   0.00274   0.00868   0.00316   0.01183   2.08700
   R14        2.87466  -0.00389  -0.00357  -0.01482  -0.01839   2.85627
   R15        2.05519   0.00801   0.02297   0.00883   0.03180   2.08698
   R16        2.07332   0.00061   0.00485  -0.00188   0.00296   2.07628
   R17        2.05944   0.00532   0.01622   0.00559   0.02181   2.08126
    A1        1.95227  -0.00638  -0.02049  -0.04182  -0.06298   1.88929
    A2        1.82978   0.00116   0.00815   0.03157   0.03840   1.86818
    A3        1.89891   0.00543   0.02901   0.02780   0.05574   1.95466
    A4        1.93833  -0.00436  -0.01446  -0.04065  -0.05500   1.88333
    A5        1.89883   0.00516   0.00553   0.02350   0.02872   1.92755
    A6        1.94528  -0.00115  -0.00641  -0.00011  -0.00717   1.93811
    A7        1.92175   0.00139  -0.01789   0.00966  -0.01142   1.91033
    A8        1.85162   0.00542   0.00787   0.05919   0.06694   1.91856
    A9        2.01144  -0.00622   0.01367  -0.06289  -0.05051   1.96093
   A10        1.79172   0.00115   0.00672   0.04300   0.04944   1.84116
   A11        1.94032   0.00003  -0.00946  -0.02578  -0.03709   1.90323
   A12        1.93230  -0.00069  -0.00059  -0.00705  -0.00661   1.92569
   A13        1.91462  -0.00048  -0.00898  -0.00696  -0.01700   1.89762
   A14        1.89264   0.00324   0.04171  -0.00904   0.03286   1.92550
   A15        1.99685  -0.00339  -0.00749  -0.02096  -0.02882   1.96803
   A16        1.87566   0.00033  -0.00391   0.02656   0.02253   1.89819
   A17        1.93034   0.00074  -0.00467  -0.00253  -0.00823   1.92211
   A18        1.84855  -0.00013  -0.01445   0.01680   0.00265   1.85120
   A19        1.88443  -0.00682  -0.01200  -0.04532  -0.05732   1.82711
   A20        1.78213   0.00792   0.02797   0.08252   0.11022   1.89235
   A21        1.96580  -0.00243  -0.00576  -0.03391  -0.03887   1.92693
   A22        1.98361  -0.00429   0.00493  -0.01336  -0.00952   1.97409
   A23        1.97975  -0.00626  -0.02258  -0.08275  -0.10398   1.87577
   A24        1.87164  -0.00039  -0.00936   0.02111   0.00941   1.88105
   A25        1.87992   0.00506   0.00466   0.02611   0.03053   1.91045
   A26        1.97818  -0.00438  -0.01325  -0.01790  -0.03099   1.94720
   A27        1.93802   0.00230   0.00182   0.01073   0.01259   1.95061
   A28        1.90814   0.00268   0.00466   0.01860   0.02340   1.93155
   A29        1.86540   0.00095   0.00507   0.00216   0.00728   1.87268
   A30        1.84563   0.00219   0.01190   0.01997   0.03213   1.87775
   A31        1.92606  -0.00397  -0.01028  -0.03506  -0.04531   1.88076
    D1        2.96614   0.00109  -0.00437   0.03631   0.03178   2.99792
    D2        1.03940  -0.00356  -0.00834  -0.04706  -0.05603   0.98337
    D3       -1.10540  -0.00270  -0.02160  -0.04153  -0.06284  -1.16824
    D4        0.83523   0.00237  -0.00004   0.05586   0.05562   0.89085
    D5       -1.09151  -0.00228  -0.00402  -0.02751  -0.03220  -1.12370
    D6        3.04688  -0.00142  -0.01727  -0.02198  -0.03901   3.00787
    D7       -1.30787   0.00508   0.01871   0.09100   0.11010  -1.19777
    D8        3.04857   0.00043   0.01474   0.00764   0.02229   3.07086
    D9        0.90377   0.00129   0.00148   0.01317   0.01548   0.91925
   D10       -1.04203   0.00078   0.00738   0.02292   0.03002  -1.01201
   D11        1.00165   0.00277   0.02132   0.04572   0.06651   1.06816
   D12        3.06031   0.00275   0.02724   0.04769   0.07407   3.13438
   D13        1.16015  -0.00240  -0.01415  -0.03798  -0.05108   1.10907
   D14       -3.07936  -0.00041  -0.00021  -0.01517  -0.01459  -3.09395
   D15       -1.02070  -0.00044   0.00571  -0.01321  -0.00702  -1.02772
   D16        3.13993  -0.00138  -0.01180  -0.00464  -0.01638   3.12356
   D17       -1.09957   0.00061   0.00214   0.01817   0.02011  -1.07946
   D18        0.95909   0.00058   0.00806   0.02013   0.02768   0.98676
   D19       -1.62578  -0.00041  -0.00243   0.03509   0.03232  -1.59346
   D20        0.44274   0.00095   0.00665   0.03660   0.04362   0.48636
   D21        2.50654   0.00190  -0.00858   0.05533   0.04673   2.55326
   D22        2.95280   0.00103  -0.01011   0.06034   0.05140   3.00420
   D23       -1.20090  -0.00276  -0.02246  -0.00465  -0.02749  -1.22839
   D24        0.94323  -0.00124  -0.01690  -0.00685  -0.02420   0.91903
   D25        0.78028   0.00368   0.01211   0.08779   0.10093   0.88122
   D26        2.90977  -0.00011  -0.00023   0.02280   0.02204   2.93181
   D27       -1.22928   0.00141   0.00533   0.02060   0.02533  -1.20396
   D28       -1.24680   0.00299   0.02770   0.04833   0.07701  -1.16979
   D29        0.88269  -0.00080   0.01535  -0.01666  -0.00188   0.88081
   D30        3.02682   0.00072   0.02091  -0.01886   0.00141   3.02823
   D31        0.94637   0.00242   0.00635   0.03259   0.03898   0.98534
   D32       -1.15361   0.00258   0.00774   0.03450   0.04224  -1.11137
   D33        3.00033   0.00424   0.01631   0.05898   0.07522   3.07555
   D34       -1.00954  -0.00470  -0.02424  -0.07271  -0.09678  -1.10632
   D35       -3.10952  -0.00455  -0.02285  -0.07080  -0.09352   3.08015
[...]
 ! A10   A(6,5,7)              105.7315         -DE/DX =    0.0                 !
 ! A11   A(6,5,8)              107.7532         -DE/DX =    0.0                 !
 ! A12   A(7,5,8)              110.1528         -DE/DX =    0.0                 !
 ! A13   A(5,8,9)              109.5763         -DE/DX =    0.0                 !
 ! A14   A(5,8,10)             112.3908         -DE/DX =    0.0                 !
 ! A15   A(5,8,11)             110.6565         -DE/DX =    0.0                 !
 ! A16   A(9,8,10)             108.3066         -DE/DX =    0.0                 !
 ! A17   A(9,8,11)             109.4052         -DE/DX =    0.0                 !
 ! A18   A(10,8,11)            106.4095         -DE/DX =    0.0                 !
 ! A19   A(8,10,12)            106.4314         -DE/DX =    0.0                 !
 ! A20   A(8,11,13)            109.9613         -DE/DX =    0.0                 !
 ! A21   A(8,11,14)            109.8234         -DE/DX =    0.0                 !
 ! A22   A(8,11,15)            111.0046         -DE/DX =    0.0                 !
 ! A23   A(13,11,14)           105.5734         -DE/DX =    0.0                 !
 ! A24   A(13,11,15)           110.1213         -DE/DX =    0.0                 !
 ! A25   A(14,11,15)           110.2187         -DE/DX =    0.0                 !
 ! A26   A(11,15,16)           111.844          -DE/DX =    0.0                 !
 ! A27   A(11,15,17)           110.6124         -DE/DX =    0.0                 !
 ! A28   A(11,15,18)           111.4892         -DE/DX =    0.0                 !
 ! A29   A(16,15,17)           107.2899         -DE/DX =    0.0                 !
 ! A30   A(16,15,18)           107.5468         -DE/DX =    0.0                 !
 ! A31   A(17,15,18)           107.8592         -DE/DX =    0.0                 !
 ! D1    D(2,1,5,6)            177.7978         -DE/DX =    0.0                 !
 ! D2    D(2,1,5,7)             61.4758         -DE/DX =    0.0                 !
 ! D3    D(2,1,5,8)            -61.9813         -DE/DX =    0.0                 !
 ! D4    D(3,1,5,6)             58.0686         -DE/DX =    0.0                 !
 ! D5    D(3,1,5,7)            -58.2534         -DE/DX =    0.0                 !
 ! D6    D(3,1,5,8)            178.2896         -DE/DX =    0.0                 !
 ! D7    D(4,1,5,6)            -61.809          -DE/DX =    0.0                 !
 ! D8    D(4,1,5,7)           -178.131          -DE/DX =    0.0                 !
 ! D9    D(4,1,5,8)             58.4119         -DE/DX =    0.0                 !
 ! D10   D(1,5,8,9)            -44.1965         -DE/DX =    0.0                 !
 ! D11   D(1,5,8,10)            76.272          -DE/DX =    0.0                 !
 ! D12   D(1,5,8,11)          -164.922          -DE/DX =    0.0                 !
 ! D13   D(6,5,8,9)             77.3718         -DE/DX =    0.0                 !
 ! D14   D(6,5,8,10)          -162.1597         -DE/DX =    0.0                 !
 ! D15   D(6,5,8,11)           -43.3537         -DE/DX =    0.0                 !
 ! D16   D(7,5,8,9)           -167.7462         -DE/DX =    0.0                 !
 ! D17   D(7,5,8,10)           -47.2777         -DE/DX =    0.0                 !
 ! D18   D(7,5,8,11)            71.5283         -DE/DX =    0.0                 !
 ! D19   D(5,8,10,12)          -50.0824         -DE/DX =    0.0                 !
 ! D20   D(9,8,10,12)           71.1161         -DE/DX =    0.0                 !
 ! D21   D(11,8,10,12)        -171.3515         -DE/DX =    0.0                 !
 ! D22   D(5,8,11,13)         -171.5787         -DE/DX =    0.0                 !
 ! D23   D(5,8,11,14)          -55.8219         -DE/DX =    0.0                 !
 ! D24   D(5,8,11,15)           66.3142         -DE/DX =    0.0                 !
 ! D25   D(9,8,11,13)           67.594          -DE/DX =    0.0                 !
 ! D26   D(9,8,11,14)         -176.6491         -DE/DX =    0.0                 !
 ! D27   D(9,8,11,15)          -54.513          -DE/DX =    0.0                 !
 ! D28   D(10,8,11,13)         -49.2074         -DE/DX =    0.0                 !
 ! D29   D(10,8,11,14)          66.5495         -DE/DX =    0.0                 !
 ! D30   D(10,8,11,15)        -171.3144         -DE/DX =    0.0                 !
 ! D31   D(8,11,15,16)          66.4977         -DE/DX =    0.0                 !
 ! D32   D(8,11,15,17)         -53.0318         -DE/DX =    0.0                 !
 ! D33   D(8,11,15,18)        -173.0456         -DE/DX =    0.0                 !
 ! D34   D(13,11,15,16)        -55.5161         -DE/DX =    0.0                 !
 ! D35   D(13,11,15,17)       -175.0456         -DE/DX =    0.0                 !
 ! D36   D(13,11,15,18)         64.9406         -DE/DX =    0.0                 !
 ! D37   D(14,11,15,16)       -171.5965         -DE/DX =    0.0                 !
 ! D38   D(14,11,15,17)         68.874          -DE/DX =    0.0                 !
 ! D39   D(14,11,15,18)        -51.1399         -DE/DX =    0.0                 !
 --------------------------------------------------------------------------------
 Lowest energy point so far.  Saving SCF results.
 Largest change from initial coordinates is atom    4       0.533 Angstoms.
 GradGradGradGradGradGradGradGradGradGradGradGradGradGradGradGradGradGrad

 Leave Link  103 at Wed Sep  7 15:34:45 2022, MaxMem=   131072000 cpu:               0.0 elap:               0.0
 (Enter /opt/g16/l202.exe)
                          Input orientation:                          
 ---------------------------------------------------------------------
 Center     Atomic      Atomic             Coordinates (Angstroms)
 Number     Number       Type             X           Y           Z
 ---------------------------------------------------------------------
      1          6           0       13.425554    6.999986    2.770262
      2          1           0       13.931451    6.532261    1.913943
      3          1           0       12.798692    6.228141    3.235089
      4          1           0       14.202131    7.272875    3.497626
      5          6           0       12.599510    8.195910    2.357227
      6          1           0       12.070783    8.619816    3.241313
      7          1           0       11.803762    7.888240    1.650359
      8          6           0       13.453220    9.316912    1.739138
      9          1           0       14.377188    9.466232    2.352681
     10          8           0       13.844430    9.026267    0.409224
     11          6           0       12.660827   10.632395    1.680937
     12          1           0       14.213104    8.152411    0.422890
     13          1           0       13.225374   11.388665    1.100406
     14          1           0       11.714326   10.476787    1.125695
     15          6           0       12.371753   11.153077    3.071113
     16          1           0       13.288894   11.456473    3.592550
     17          1           0       11.887936   10.374072    3.684899
     18          1           0       11.704064   12.022480    3.043647
 ---------------------------------------------------------------------
                    Distance matrix (angstroms):
                    1          2          3          4          5
     1  C    0.000000
     2  H    1.099082   0.000000
     3  H    1.097618   1.766652   0.000000
     4  H    1.098453   1.769132   1.769191   0.000000
     5  C    1.511020   2.176763   2.163893   2.172764   0.000000
     6  H    2.163595   3.095462   2.500001   2.534283   1.113937
     7  H    2.161802   2.536773   2.501437   3.089214   1.107943
     8  C    2.536163   2.830820   3.493821   2.798434   1.538668
     9  H    2.676257   2.999894   3.708845   2.480395   2.184921
    10  O    3.139390   2.914073   4.112006   3.569392   2.456427
    11  C    3.868570   4.298823   4.672457   4.118538   2.529345
    12  H    2.731021   2.219787   3.689423   3.198078   2.519372
    13  H    4.699893   4.974439   5.600887   4.862144   3.487834
    14  H    4.209637   4.593067   4.865839   4.698966   2.739091
    15  C    4.295249   5.012349   4.946126   4.311399   3.050629
    16  H    4.533773   5.241990   5.263414   4.283165   3.554228
    17  H    3.819068   4.698058   4.268553   3.874015   2.648290
    18  H    5.316363   6.031583   5.899935   5.385646   3.989440
                    6          7          8          9         10
     6  H    0.000000
     7  H    1.771338   0.000000
     8  C    2.157221   2.183963   0.000000
     9  H    2.612583   3.099329   1.119129   0.000000
    10  O    3.366267   2.645722   1.416401   2.062626   0.000000
    11  C    2.614077   2.875045   1.536806   2.181071   2.365971
    12  H    3.570926   2.716872   1.914678   2.340330   0.948541
    13  H    3.685523   3.817905   2.179921   2.567220   2.538087
    14  H    2.837471   2.642697   2.178388   3.101218   2.674823
    15  C    2.556748   3.605595   2.513012   2.717234   3.711839
    16  H    3.107053   4.325506   2.835465   2.585095   4.043276
    17  H    1.818684   3.213378   2.711768   2.965696   4.046541
    18  H    3.428072   4.363844   3.475830   3.762636   4.527543
                   11         12         13         14         15
    11  C    0.000000
    12  H    3.184739   0.000000
    13  H    1.108004   3.450793   0.000000
    14  H    1.108319   3.484329   1.765056   0.000000
    15  C    1.512370   4.405411   2.160522   2.161997   0.000000
    16  H    2.174359   4.670945   2.493875   3.086166   1.097767
    17  H    2.163321   4.580708   3.081841   2.567141   1.103477
    18  H    2.169035   5.304817   2.547997   2.463293   1.096552
                   16         17         18
    16  H    0.000000
    17  H    1.772795   0.000000
    18  H    1.770126   1.778276   0.000000
 Stoichiometry    C5H12O
 Framework group  C1[X(C5H12O)]
 Deg. of freedom    48
 Full point group                 C1      NOp   1
 RotChk:  IX=2 Diff= 1.31D-15
 Largest Abelian subgroup         C1      NOp   1
 Largest concise Abelian subgroup C1      NOp   1
                         Standard orientation:                         
 ---------------------------------------------------------------------
 Center     Atomic      Atomic             Coordinates (Angstroms)
 Number     Number       Type             X           Y           Z
 ---------------------------------------------------------------------
      1          6           0        2.175469   -0.856537    0.184025
      2          1           0        2.799144    0.048334    0.198803
      3          1           0        2.745807   -1.632423   -0.342741
      4          1           0        2.057012   -1.187112    1.224836
      5          6           0        0.841107   -0.615074   -0.482575
      6          1           0        0.252808   -1.560426   -0.515302
      7          1           0        0.987479   -0.315617   -1.539191
      8          6           0       -0.004138    0.438238    0.254714
      9          1           0        0.039108    0.249197    1.356913
     10          8           0        0.447191    1.758639    0.011743
     11          6           0       -1.466352    0.385830   -0.215344
     12          1           0        1.381922    1.756629    0.173002
     13          1           0       -2.030056    1.241571    0.206101
     14          1           0       -1.512245    0.512141   -1.315485
     15          6           0       -2.119352   -0.917036    0.188876
     16          1           0       -2.221803   -1.001745    1.278564
     17          1           0       -1.516047   -1.775979   -0.151567
     18          1           0       -3.121063   -1.016204   -0.246057
 ---------------------------------------------------------------------
 Rotational constants (GHZ):           4.6652631           2.4160360           1.7540651
 Leave Link  202 at Wed Sep  7 15:34:45 2022, MaxMem=   131072000 cpu:               0.0 elap:               0.0
 (Enter /opt/g16/l601.exe)
 Copying SCF densities to generalized density rwf, IOpCl= 0 IROHF=0.

 **********************************************************************

            Population analysis using the SCF density.

 **********************************************************************

 Orbital symmetries:
       Occupied  (A) (A) (A) (A) (A) (A) (A) (A) (A) (A) (A) (A)
                 (A) (A) (A) (A) (A) (A) (A)
       Virtual   (A) (A) (A) (A) (A) (A) (A) (A) (A) (A) (A) (A)
                 (A) (A) (A) (A) (A)
 The electronic state is 1-A.
 Alpha  occ. eigenvalues --   -1.48808  -1.26198  -1.19650  -0.93580  -0.82946
 Alpha  occ. eigenvalues --   -0.74483  -0.64726  -0.61266  -0.58736  -0.55696
 Alpha  occ. eigenvalues --   -0.53078  -0.51098  -0.49604  -0.48756  -0.47702
 Alpha  occ. eigenvalues --   -0.44356  -0.43961  -0.42577  -0.40115
 Alpha virt. eigenvalues --    0.11615   0.12651   0.13076   0.13451   0.13610
 Alpha virt. eigenvalues --    0.14650   0.14723   0.15278   0.15381   0.15725
 Alpha virt. eigenvalues --    0.16728   0.16977   0.17439   0.17845   0.18507
 Alpha virt. eigenvalues --    0.18578   0.21235
          Condensed to atoms (all electrons):
               1          2          3          4          5          6
     1  C    4.106901   0.000000   0.000000   0.000000   0.000000   0.000000
     2  H    0.000000   0.967229   0.000000   0.000000   0.000000   0.000000
     3  H    0.000000   0.000000   0.958310   0.000000   0.000000   0.000000
     4  H    0.000000   0.000000   0.000000   0.960053   0.000000   0.000000
     5  C    0.000000   0.000000   0.000000   0.000000   4.156106   0.000000
     6  H    0.000000   0.000000   0.000000   0.000000   0.000000   0.931182
     7  H    0.000000   0.000000   0.000000   0.000000   0.000000   0.000000
     8  C    0.000000   0.000000   0.000000   0.000000   0.000000   0.000000
     9  H    0.000000   0.000000   0.000000   0.000000   0.000000   0.000000
    10  O    0.000000   0.000000   0.000000   0.000000   0.000000   0.000000
    11  C    0.000000   0.000000   0.000000   0.000000   0.000000   0.000000
    12  H    0.000000   0.000000   0.000000   0.000000   0.000000   0.000000
    13  H    0.000000   0.000000   0.000000   0.000000   0.000000   0.000000
    14  H    0.000000   0.000000   0.000000   0.000000   0.000000   0.000000
    15  C    0.000000   0.000000   0.000000   0.000000   0.000000   0.000000
    16  H    0.000000   0.000000   0.000000   0.000000   0.000000   0.000000
    17  H    0.000000   0.000000   0.000000   0.000000   0.000000   0.000000
    18  H    0.000000   0.000000   0.000000   0.000000   0.000000   0.000000
               7          8          9         10         11         12
     1  C    0.000000   0.000000   0.000000   0.000000   0.000000   0.000000
     2  H    0.000000   0.000000   0.000000   0.000000   0.000000   0.000000
     3  H    0.000000   0.000000   0.000000   0.000000   0.000000   0.000000
     4  H    0.000000   0.000000   0.000000   0.000000   0.000000   0.000000
     5  C    0.000000   0.000000   0.000000   0.000000   0.000000   0.000000
     6  H    0.000000   0.000000   0.000000   0.000000   0.000000   0.000000
     7  H    0.935005   0.000000   0.000000   0.000000   0.000000   0.000000
     8  C    0.000000   3.920792   0.000000   0.000000   0.000000   0.000000
     9  H    0.000000   0.000000   0.956558   0.000000   0.000000   0.000000
    10  O    0.000000   0.000000   0.000000   6.313515   0.000000   0.000000
    11  C    0.000000   0.000000   0.000000   0.000000   4.111975   0.000000
    12  H    0.000000   0.000000   0.000000   0.000000   0.000000   0.811820
    13  H    0.000000   0.000000   0.000000   0.000000   0.000000   0.000000
    14  H    0.000000   0.000000   0.000000   0.000000   0.000000   0.000000
    15  C    0.000000   0.000000   0.000000   0.000000   0.000000   0.000000
    16  H    0.000000   0.000000   0.000000   0.000000   0.000000   0.000000
    17  H    0.000000   0.000000   0.000000   0.000000   0.000000   0.000000
    18  H    0.000000   0.000000   0.000000   0.000000   0.000000   0.000000
              13         14         15         16         17         18
     1  C    0.000000   0.000000   0.000000   0.000000   0.000000   0.000000
     2  H    0.000000   0.000000   0.000000   0.000000   0.000000   0.000000
     3  H    0.000000   0.000000   0.000000   0.000000   0.000000   0.000000
     4  H    0.000000   0.000000   0.000000   0.000000   0.000000   0.000000
     5  C    0.000000   0.000000   0.000000   0.000000   0.000000   0.000000
     6  H    0.000000   0.000000   0.000000   0.000000   0.000000   0.000000
     7  H    0.000000   0.000000   0.000000   0.000000   0.000000   0.000000
     8  C    0.000000   0.000000   0.000000   0.000000   0.000000   0.000000
     9  H    0.000000   0.000000   0.000000   0.000000   0.000000   0.000000
    10  O    0.000000   0.000000   0.000000   0.000000   0.000000   0.000000
    11  C    0.000000   0.000000   0.000000   0.000000   0.000000   0.000000
    12  H    0.000000   0.000000   0.000000   0.000000   0.000000   0.000000
    13  H    0.935994   0.000000   0.000000   0.000000   0.000000   0.000000
    14  H    0.000000   0.941508   0.000000   0.000000   0.000000   0.000000
    15  C    0.000000   0.000000   4.114749   0.000000   0.000000   0.000000
    16  H    0.000000   0.000000   0.000000   0.961273   0.000000   0.000000
    17  H    0.000000   0.000000   0.000000   0.000000   0.958294   0.000000
    18  H    0.000000   0.000000   0.000000   0.000000   0.000000   0.958737
 Mulliken charges:
               1
     1  C   -0.106901
     2  H    0.032771
     3  H    0.041690
     4  H    0.039947
     5  C   -0.156106
     6  H    0.068818
     7  H    0.064995
     8  C    0.079208
     9  H    0.043442
    10  O   -0.313515
    11  C   -0.111975
    12  H    0.188180
    13  H    0.064006
    14  H    0.058492
    15  C   -0.114749
    16  H    0.038727
    17  H    0.041706
    18  H    0.041263
 Sum of Mulliken charges =   0.00000
 Mulliken charges with hydrogens summed into heavy atoms:
               1
     1  C    0.007506
     5  C   -0.022292
     8  C    0.122650
    10  O   -0.125335
    11  C    0.010523
    15  C    0.006948
 Charge=              0.0000 electrons
 Dipole moment (field-independent basis, Debye):
    X=              0.7653    Y=             -1.3359    Z=              0.3248  Tot=              1.5735
 N-N= 1.705283714839D+02 E-N=-2.554477295340D+02  KE=-5.969925419043D+01
 Leave Link  601 at Wed Sep  7 15:34:45 2022, MaxMem=   131072000 cpu:               0.0 elap:               0.0
 (Enter /opt/g16/l9999.exe)
 1\1\GINC-TOTEM2\FOpt\RPM3\ZDO\C5H12O1\JRAMOS\07-Sep-2022\0\\#p opt pm3
 \\Conformer number 013. Energy MM = 0.000 kcal/mol\\0,1\C,13.425554344
 7,6.9999864316,2.7702624677\H,13.931450656,6.5322607104,1.9139431086\H
 ,12.7986922541,6.2281407471,3.2350894659\H,14.2021313449,7.2728751565,
 3.497626142\C,12.5995096555,8.1959103868,2.3572265987\H,12.0707833422,
 8.6198164616,3.2413129433\H,11.8037621285,7.8882399594,1.6503587731\C,
 13.4532202665,9.3169115244,1.7391381345\H,14.3771884787,9.4662324232,2
 .3526814446\O,13.8444298704,9.0262668548,0.409224051\C,12.6608271663,1
 0.6323951322,1.6809369414\H,14.2131040865,8.1524113402,0.4228902985\H,
 13.2253736363,11.3886647522,1.1004060683\H,11.7143264866,10.4767869149
 ,1.125694997\C,12.3717531957,11.1530768194,3.0711130863\H,13.288893746
 3,11.4564726063,3.5925498564\H,11.8879357814,10.374071615,3.684898921\
 H,11.7040635594,12.0224801639,3.0436467017\\Version=ES64L-G16RevA.03\S
 tate=1-A\HF=-0.1184833\RMSD=3.920e-09\RMSF=1.706e-05\Dipole=-0.0120542
 ,-0.3439115,0.5145843\PG=C01 [X(C5H12O1)]\\@


 IF AT FIRST YOU DON'T SUCCEED, TRY LOOKING IN 
 THE WASTEBASKET FOR THE DIRECTIONS.
 Job cpu time:       0 days  0 hours  0 minutes  5.8 seconds.
 Elapsed time:       0 days  0 hours  0 minutes  9.7 seconds.
 File lengths (MBytes):  RWF=      6 Int=      0 D2E=      0 Chk=      2 Scr=      1
 Normal termination of Gaussian 16 at Wed Sep  7 15:34:45 2022.
