 Entering Gaussian System, Link 0=/opt/g16/g16
 Input=MD_extract_007_gaussian.com
 Output=MD_extract_007_gaussian.log
 Initial command:
 /opt/g16/l1.exe "/tmp/Gau-316855.inp" -scrdir="/tmp/"
 Entering Link 1 = /opt/g16/l1.exe PID=    316857.
  
 Copyright (c) 1988,1990,1992,1993,1995,1998,2003,2009,2016,
            Gaussian, Inc.  All Rights Reserved.
  
 This is part of the Gaussian(R) 16 program.  It is based on
 the Gaussian(R) 09 system (copyright 2009, Gaussian, Inc.),
 the Gaussian(R) 03 system (copyright 2003, Gaussian, Inc.),
 the Gaussian(R) 98 system (copyright 1998, Gaussian, Inc.),
 the Gaussian(R) 94 system (copyright 1995, Gaussian, Inc.),
 the Gaussian 92(TM) system (copyright 1992, Gaussian, Inc.),
 the Gaussian 90(TM) system (copyright 1990, Gaussian, Inc.),
 the Gaussian 88(TM) system (copyright 1988, Gaussian, Inc.),
 the Gaussian 86(TM) system (copyright 1986, Carnegie Mellon
 University), and the Gaussian 82(TM) system (copyright 1983,
 Carnegie Mellon University). Gaussian is a federally registered
 trademark of Gaussian, Inc.
  
 This software contains proprietary and confidential information,
 including trade secrets, belonging to Gaussian, Inc.
  
 This software is provided under written license and may be
 used, copied, transmitted, or stored only in accord with that
 written license.
  
 The following legend is applicable only to US Government
 contracts under FAR:
  
                    RESTRICTED RIGHTS LEGEND
  
 Use, reproduction and disclosure by the US Government is
 subject to restrictions as set forth in subparagraphs (a)
 and (c) of the Commercial Computer Software - Restricted
 Rights clause in FAR 52.227-19.
  
 Gaussian, Inc.
 340 Quinnipiac St., Bldg. 40, Wallingford CT 06492
  
  
 ---------------------------------------------------------------
 Warning -- This program may not be used in any manner that
 competes with the business of Gaussian, Inc. or will provide
 assistance to any competitor of Gaussian, Inc.  The licensee
 of this program is prohibited from giving any competitor of
 Gaussian, Inc. access to this program.  By using this program,
 the user acknowledges that Gaussian, Inc. is engaged in the
 business of creating and licensing software in the field of
 computational chemistry and represents and warrants to the
 licensee that it is not a competitor of Gaussian, Inc. and that
 it will not use this program in any manner prohibited above.
 ---------------------------------------------------------------
  

 Cite this work as:
 Gaussian 16, Revision A.03,
 M. J. Frisch, G. W. Trucks, H. B. Schlegel, G. E. Scuseria, 
 M. A. Robb, J. R. Cheeseman, G. Scalmani, V. Barone, 
 G. A. Petersson, H. Nakatsuji, X. Li, M. Caricato, A. V. Marenich, 
 J. Bloino, B. G. Janesko, R. Gomperts, B. Mennucci, H. P. Hratchian, 
 J. V. Ortiz, A. F. Izmaylov, J. L. Sonnenberg, D. Williams-Young, 
 F. Ding, F. Lipparini, F. Egidi, J. Goings, B. Peng, A. Petrone, 
 T. Henderson, D. Ranasinghe, V. G. Zakrzewski, J. Gao, N. Rega, 
 G. Zheng, W. Liang, M. Hada, M. Ehara, K. Toyota, R. Fukuda, 
 J. Hasegawa, M. Ishida, T. Nakajima, Y. Honda, O. Kitao, H. Nakai, 
 T. Vreven, K. Throssell, J. A. Montgomery, Jr., J. E. Peralta, 
 F. Ogliaro, M. J. Bearpark, J. J. Heyd, E. N. Brothers, K. N. Kudin, 
 V. N. Staroverov, T. A. Keith, R. Kobayashi, J. Normand, 
 K. Raghavachari, A. P. Rendell, J. C. Burant, S. S. Iyengar, 
 J. Tomasi, M. Cossi, J. M. Millam, M. Klene, C. Adamo, R. Cammi, 
 J. W. Ochterski, R. L. Martin, K. Morokuma, O. Farkas, 
 J. B. Foresman, and D. J. Fox, Gaussian, Inc., Wallingford CT, 2016.
 
 ******************************************
 Gaussian 16:  ES64L-G16RevA.03 25-Dec-2016
                 7-Sep-2022 
 ******************************************
 %chk=MD_extract_007_gaussian.chk
 %nproc=1
 Will use up to    1 processors via shared memory.
 %mem=1000Mb
 ----------
 #p opt pm3
 ----------
 1/18=20,19=15,26=1,38=1/1,3;
 2/9=110,12=2,17=6,18=5,40=1/2;
 3/5=2,25=1,41=800000,71=1/1,2,3;
 4/35=1/1;
 5/5=2,35=1,38=5/2;
 6/7=2,8=2,9=2,10=2,28=1/1;
 7//1,2,3,16;
 1/18=20,19=15,26=1/3(2);
 2/9=110/2;
 99//99;
 2/9=110/2;
 3/5=2,25=1,41=800000,71=1,135=20/1,2,3;
 4/5=5,16=3,35=1/1;
 5/5=2,35=1,38=5/2;
 7//1,2,3,16;
 1/18=20,19=15,26=1/3(-5);
 2/9=110/2;
 6/7=2,8=2,9=2,10=2,19=2,28=1/1;
 99/9=1/99;
 Leave Link    1 at Wed Sep  7 15:33:40 2022, MaxMem=   131072000 cpu:               0.0 elap:               0.0
 (Enter /opt/g16/l101.exe)
 ------------------------------------------------
 Conformer number 007. Energy MM = 0.000 kcal/mol
 ------------------------------------------------
 Symbolic Z-matrix:
 Charge =  0 Multiplicity = 1
 C                     5.041     6.718     15.338 
 H                     5.337     7.661     15.849 
 H                     5.014     5.89      16.045 
 H                     4.044     6.818     14.929 
 C                     6.093     6.274     14.325 
 H                     7.091     6.159     14.839 
 H                     6.171     7.051     13.585 
 C                     5.819     5.087     13.568 
 H                     5.473     4.318     14.246 
 O                     4.845     5.289     12.555 
 C                     6.963     4.474     12.905 
 H                     4.006     5.271     13.012 
 H                     7.691     5.203     12.429 
 H                     7.566     4.066     13.728 
 C                     6.519     3.294     12. 
 H                     6.045     3.547     11.056 
 H                     5.912     2.727     12.717 
 H                     7.542     2.754     11.809 
 
 ITRead=  0  0  0  0  0  0  0  0  0  0  0  0  0  0  0  0  0  0
 MicOpt= -1 -1 -1 -1 -1 -1 -1 -1 -1 -1 -1 -1 -1 -1 -1 -1 -1 -1
 NAtoms=     18 NQM=       18 NQMF=       0 NMMI=      0 NMMIF=      0
                NMic=       0 NMicF=      0.
                    Isotopes and Nuclear Properties:
 (Nuclear quadrupole moments (NQMom) in fm**2, nuclear magnetic moments (NMagM)
  in nuclear magnetons)

  Atom         1           2           3           4           5           6           7           8           9          10
 IAtWgt=          12           1           1           1          12           1           1          12           1          16
 AtmWgt=  12.0000000   1.0078250   1.0078250   1.0078250  12.0000000   1.0078250   1.0078250  12.0000000   1.0078250  15.9949146
 NucSpn=           0           1           1           1           0           1           1           0           1           0
 AtZEff=  -0.0000000  -0.0000000  -0.0000000  -0.0000000  -0.0000000  -0.0000000  -0.0000000  -0.0000000  -0.0000000  -0.0000000
 NQMom=    0.0000000   0.0000000   0.0000000   0.0000000   0.0000000   0.0000000   0.0000000   0.0000000   0.0000000   0.0000000
 NMagM=    0.0000000   2.7928460   2.7928460   2.7928460   0.0000000   2.7928460   2.7928460   0.0000000   2.7928460   0.0000000
 AtZNuc=   6.0000000   1.0000000   1.0000000   1.0000000   6.0000000   1.0000000   1.0000000   6.0000000   1.0000000   8.0000000

  Atom        11          12          13          14          15          16          17          18
 IAtWgt=          12           1           1           1          12           1           1           1
 AtmWgt=  12.0000000   1.0078250   1.0078250   1.0078250  12.0000000   1.0078250   1.0078250   1.0078250
 NucSpn=           0           1           1           1           0           1           1           1
 AtZEff=  -0.0000000  -0.0000000  -0.0000000  -0.0000000  -0.0000000  -0.0000000  -0.0000000  -0.0000000
 NQMom=    0.0000000   0.0000000   0.0000000   0.0000000   0.0000000   0.0000000   0.0000000   0.0000000
 NMagM=    0.0000000   2.7928460   2.7928460   2.7928460   0.0000000   2.7928460   2.7928460   2.7928460
 AtZNuc=   6.0000000   1.0000000   1.0000000   1.0000000   6.0000000   1.0000000   1.0000000   1.0000000
 Leave Link  101 at Wed Sep  7 15:33:40 2022, MaxMem=   131072000 cpu:               0.1 elap:               0.1
 (Enter /opt/g16/l103.exe)

 GradGradGradGradGradGradGradGradGradGradGradGradGradGradGradGradGradGrad
 Berny optimization.
 Initialization pass.
                           ----------------------------
                           !    Initial Parameters    !
                           ! (Angstroms and Degrees)  !
 --------------------------                            --------------------------
 ! Name  Definition              Value          Derivative Info.                !
 --------------------------------------------------------------------------------
 ! R1    R(1,2)                  1.1126         estimate D2E/DX2                !
 ! R2    R(1,3)                  1.0891         estimate D2E/DX2                !
 ! R3    R(1,4)                  1.0823         estimate D2E/DX2                !
 ! R4    R(1,5)                  1.5264         estimate D2E/DX2                !
 ! R5    R(5,6)                  1.1285         estimate D2E/DX2                !
 ! R6    R(5,7)                  1.0758         estimate D2E/DX2                !
 ! R7    R(5,8)                  1.4343         estimate D2E/DX2                !
 ! R8    R(8,9)                  1.082          estimate D2E/DX2                !
 ! R9    R(8,10)                 1.4197         estimate D2E/DX2                !
 ! R10   R(8,11)                 1.4574         estimate D2E/DX2                !
 ! R11   R(10,12)                0.9556         estimate D2E/DX2                !
 ! R12   R(11,13)                1.1349         estimate D2E/DX2                !
 ! R13   R(11,14)                1.0988         estimate D2E/DX2                !
 ! R14   R(11,15)                1.552          estimate D2E/DX2                !
 ! R15   R(15,16)                1.0862         estimate D2E/DX2                !
 ! R16   R(15,17)                1.0973         estimate D2E/DX2                !
 ! R17   R(15,18)                1.1724         estimate D2E/DX2                !
 ! A1    A(2,1,3)              110.6585         estimate D2E/DX2                !
 ! A2    A(2,1,4)              109.8967         estimate D2E/DX2                !
 ! A3    A(2,1,5)              111.59           estimate D2E/DX2                !
 ! A4    A(3,1,4)              107.0216         estimate D2E/DX2                !
 ! A5    A(3,1,5)              103.1058         estimate D2E/DX2                !
 ! A6    A(4,1,5)              114.2659         estimate D2E/DX2                !
 ! A7    A(1,5,6)              109.6865         estimate D2E/DX2                !
 ! A8    A(1,5,7)              107.2394         estimate D2E/DX2                !
 ! A9    A(1,5,8)              117.3441         estimate D2E/DX2                !
 ! A10   A(6,5,7)              108.8314         estimate D2E/DX2                !
 ! A11   A(6,5,8)              108.9667         estimate D2E/DX2                !
 ! A12   A(7,5,8)              104.3907         estimate D2E/DX2                !
 ! A13   A(5,8,9)              108.5755         estimate D2E/DX2                !
 ! A14   A(5,8,10)             112.9484         estimate D2E/DX2                !
 ! A15   A(5,8,11)             115.9918         estimate D2E/DX2                !
 ! A16   A(9,8,10)             109.198          estimate D2E/DX2                !
 ! A17   A(9,8,11)             103.7171         estimate D2E/DX2                !
 ! A18   A(10,8,11)            105.8885         estimate D2E/DX2                !
 ! A19   A(8,10,12)            104.9775         estimate D2E/DX2                !
 ! A20   A(8,11,13)            115.0964         estimate D2E/DX2                !
 ! A21   A(8,11,14)            104.2532         estimate D2E/DX2                !
 ! A22   A(8,11,15)            111.1315         estimate D2E/DX2                !
 ! A23   A(13,11,14)           101.5738         estimate D2E/DX2                !
 ! A24   A(13,11,15)           115.2986         estimate D2E/DX2                !
 ! A25   A(14,11,15)           108.1462         estimate D2E/DX2                !
 ! A26   A(11,15,16)           117.0356         estimate D2E/DX2                !
 ! A27   A(11,15,17)            99.7941         estimate D2E/DX2                !
 ! A28   A(11,15,18)           101.2777         estimate D2E/DX2                !
 ! A29   A(16,15,17)           116.5416         estimate D2E/DX2                !
 ! A30   A(16,15,18)           110.2711         estimate D2E/DX2                !
 ! A31   A(17,15,18)           110.5565         estimate D2E/DX2                !
 ! D1    D(2,1,5,6)             56.5913         estimate D2E/DX2                !
 ! D2    D(2,1,5,7)            -61.4412         estimate D2E/DX2                !
 ! D3    D(2,1,5,8)           -178.4046         estimate D2E/DX2                !
 ! D4    D(3,1,5,6)            -62.2049         estimate D2E/DX2                !
 ! D5    D(3,1,5,7)            179.7627         estimate D2E/DX2                !
 ! D6    D(3,1,5,8)             62.7993         estimate D2E/DX2                !
 ! D7    D(4,1,5,6)           -177.9674         estimate D2E/DX2                !
 ! D8    D(4,1,5,7)             64.0001         estimate D2E/DX2                !
 ! D9    D(4,1,5,8)            -52.9633         estimate D2E/DX2                !
 ! D10   D(1,5,8,9)            -46.8524         estimate D2E/DX2                !
 ! D11   D(1,5,8,10)            74.4137         estimate D2E/DX2                !
 ! D12   D(1,5,8,11)          -163.0941         estimate D2E/DX2                !
 ! D13   D(6,5,8,9)             78.5098         estimate D2E/DX2                !
 ! D14   D(6,5,8,10)          -160.2241         estimate D2E/DX2                !
 ! D15   D(6,5,8,11)           -37.7319         estimate D2E/DX2                !
 ! D16   D(7,5,8,9)           -165.351          estimate D2E/DX2                !
 ! D17   D(7,5,8,10)           -44.0849         estimate D2E/DX2                !
 ! D18   D(7,5,8,11)            78.4073         estimate D2E/DX2                !
 ! D19   D(5,8,10,12)          -78.9919         estimate D2E/DX2                !
 ! D20   D(9,8,10,12)           41.921          estimate D2E/DX2                !
 ! D21   D(11,8,10,12)         153.0321         estimate D2E/DX2                !
 ! D22   D(5,8,11,13)          -40.5334         estimate D2E/DX2                !
 ! D23   D(5,8,11,14)           69.8046         estimate D2E/DX2                !
 ! D24   D(5,8,11,15)         -173.9203         estimate D2E/DX2                !
 ! D25   D(9,8,11,13)         -159.468          estimate D2E/DX2                !
 ! D26   D(9,8,11,14)          -49.13           estimate D2E/DX2                !
 ! D27   D(9,8,11,15)           67.145          estimate D2E/DX2                !
 ! D28   D(10,8,11,13)          85.6082         estimate D2E/DX2                !
 ! D29   D(10,8,11,14)        -164.0538         estimate D2E/DX2                !
 ! D30   D(10,8,11,15)         -47.7787         estimate D2E/DX2                !
 ! D31   D(8,11,15,16)          75.4292         estimate D2E/DX2                !
 ! D32   D(8,11,15,17)         -51.2389         estimate D2E/DX2                !
 ! D33   D(8,11,15,18)        -164.6774         estimate D2E/DX2                !
 ! D34   D(13,11,15,16)        -57.857          estimate D2E/DX2                !
 ! D35   D(13,11,15,17)        175.4749         estimate D2E/DX2                !
 ! D36   D(13,11,15,18)         62.0364         estimate D2E/DX2                !
 ! D37   D(14,11,15,16)       -170.7145         estimate D2E/DX2                !
 ! D38   D(14,11,15,17)         62.6174         estimate D2E/DX2                !
 ! D39   D(14,11,15,18)        -50.8211         estimate D2E/DX2                !
 --------------------------------------------------------------------------------
 Trust Radius=3.00D-01 FncErr=1.00D-07 GrdErr=1.00D-07 EigMax=2.50D+02 EigMin=1.00D-04
 Number of steps in this run=     97 maximum allowed number of steps=    108.
 GradGradGradGradGradGradGradGradGradGradGradGradGradGradGradGradGradGrad

 Leave Link  103 at Wed Sep  7 15:33:40 2022, MaxMem=   131072000 cpu:               0.0 elap:               0.0
 (Enter /opt/g16/l202.exe)
                          Input orientation:                          
 ---------------------------------------------------------------------
 Center     Atomic      Atomic             Coordinates (Angstroms)
 Number     Number       Type             X           Y           Z
 ---------------------------------------------------------------------
      1          6           0        5.041000    6.718000   15.338000
      2          1           0        5.337000    7.661000   15.849000
      3          1           0        5.014000    5.890000   16.045000
      4          1           0        4.044000    6.818000   14.929000
      5          6           0        6.093000    6.274000   14.325000
      6          1           0        7.091000    6.159000   14.839000
      7          1           0        6.171000    7.051000   13.585000
      8          6           0        5.819000    5.087000   13.568000
      9          1           0        5.473000    4.318000   14.246000
     10          8           0        4.845000    5.289000   12.555000
     11          6           0        6.963000    4.474000   12.905000
     12          1           0        4.006000    5.271000   13.012000
     13          1           0        7.691000    5.203000   12.429000
     14          1           0        7.566000    4.066000   13.728000
     15          6           0        6.519000    3.294000   12.000000
     16          1           0        6.045000    3.547000   11.056000
     17          1           0        5.912000    2.727000   12.717000
     18          1           0        7.542000    2.754000   11.809000
 ---------------------------------------------------------------------
                    Distance matrix (angstroms):
                    1          2          3          4          5
     1  C    0.000000
     2  H    1.112648   0.000000
     3  H    1.089111   1.810852   0.000000
     4  H    1.082262   1.796913   1.745720   0.000000
     5  C    1.526437   2.194967   2.066421   2.204349   0.000000
     6  H    2.182655   2.520440   2.416759   3.118748   1.128461
     7  H    2.112060   2.488645   2.956040   2.526807   1.075831
     8  C    2.529495   3.472861   2.725502   2.828305   1.434257
     9  H    2.671907   3.709953   2.432749   2.959481   2.053431
    10  O    3.134573   4.088873   3.545400   2.935186   2.379208
    11  C    3.827415   4.633355   3.957683   4.255758   2.452203
    12  H    2.928363   3.941095   3.255505   2.463644   2.661869
    13  H    4.216634   4.824881   4.551237   4.707317   2.701011
    14  H    4.000104   4.731924   3.899765   4.628217   2.720552
    15  C    5.005048   5.939917   5.036493   5.207998   3.803617
    16  H    5.422064   6.356029   5.607382   5.450098   4.257369
    17  H    4.853490   5.872342   4.678307   5.011851   3.898671
    18  H    5.867038   6.727724   5.845424   6.203749   4.562922
                    6          7          8          9         10
     6  H    0.000000
     7  H    1.792925   0.000000
     8  C    2.093468   1.995367   0.000000
     9  H    2.521677   2.897139   1.082017   0.000000
    10  O    3.319348   2.433890   1.419736   2.048586   0.000000
    11  C    2.568261   2.780394   1.457420   2.010651   2.296225
    12  H    3.693738   2.860761   1.905246   2.140807   0.955560
    13  H    2.661209   2.657412   2.194348   3.000706   2.850086
    14  H    2.416732   3.297984   2.029791   2.170824   3.205542
    15  C    4.073737   4.092478   2.482634   2.680897   2.662767
    16  H    4.714631   4.323162   2.955135   3.331325   2.592598
    17  H    4.203754   4.417859   2.510468   2.249854   2.780032
    18  H    4.580210   4.847476   3.392005   3.558908   3.775785
                   11         12         13         14         15
    11  C    0.000000
    12  H    3.064393   0.000000
    13  H    1.134901   3.731453   0.000000
    14  H    1.098818   3.826001   1.730837   0.000000
    15  C    1.551954   3.353780   2.280769   2.162909   0.000000
    16  H    2.262930   3.309929   2.708649   3.118074   1.086196
    17  H    2.047426   3.192459   3.062411   2.356005   1.097282
    18  H    2.120108   4.503975   2.530652   2.324754   1.172438
                   16         17         18
    16  H    0.000000
    17  H    1.857151   0.000000
    18  H    1.853879   1.866037   0.000000
 Stoichiometry    C5H12O
 Framework group  C1[X(C5H12O)]
 Deg. of freedom    48
 Full point group                 C1      NOp   1
 Largest Abelian subgroup         C1      NOp   1
 Largest concise Abelian subgroup C1      NOp   1
                         Standard orientation:                         
 ---------------------------------------------------------------------
 Center     Atomic      Atomic             Coordinates (Angstroms)
 Number     Number       Type             X           Y           Z
 ---------------------------------------------------------------------
      1          6           0        2.540980   -0.029223    0.292386
      2          1           0        3.439423   -0.501809   -0.163078
      3          1           0        2.443747   -0.317346    1.338184
      4          1           0        2.639492    1.048280    0.268469
      5          6           0        1.251688   -0.555319   -0.332882
      6          1           0        1.211715   -1.678669   -0.233319
      7          1           0        1.276699   -0.299968   -1.377670
      8          6           0        0.016233   -0.001159    0.140035
      9          1           0        0.036269    0.012445    1.221781
     10          8           0       -0.219775    1.314276   -0.339112
     11          6           0       -1.186613   -0.761910   -0.173802
     12          1           0        0.320570    1.878269    0.211372
     13          1           0       -1.215713   -1.207679   -1.217087
     14          1           0       -1.106633   -1.663606    0.449054
     15          6           0       -2.463772    0.009184    0.253796
     16          1           0       -2.769096    0.843622   -0.370952
     17          1           0       -2.200411    0.245031    1.292567
     18          1           0       -3.268960   -0.842216    0.216374
 ---------------------------------------------------------------------
 Rotational constants (GHZ):           7.6056298           1.9776724           1.7243268
 Leave Link  202 at Wed Sep  7 15:33:40 2022, MaxMem=   131072000 cpu:               0.0 elap:               0.0
 (Enter /opt/g16/l301.exe)
 Standard basis: VSTO-6G (5D, 7F)
 Ernie: Thresh=  0.10000D-02 Tol=  0.10000D-05 Strict=F.
  NNHCO=     0 NNPyr=     0 NCTC=     0               EPep=         0.000000000
    EC=       129.617834525  ECS=         2.283100273   EG=         0.571652322
   EHC=         0.000000000  EAt=       -36.836480110  AtH=         2.452923921
 EPDDG=         0.000000000  ECC=       132.472587119 EAtT=        39.289404030
 There are    36 symmetry adapted cartesian basis functions of A   symmetry.
 There are    36 symmetry adapted basis functions of A   symmetry.
    36 basis functions,   216 primitive gaussians,    36 cartesian basis functions
    19 alpha electrons       19 beta electrons
       nuclear repulsion energy       171.7619911497 Hartrees.
 IExCor=    0 DFT=F Ex=HF Corr=None ExCW=0 ScaHFX=  1.000000
 ScaDFX=  1.000000  1.000000  1.000000  1.000000 ScalE2=  1.000000  1.000000
 IRadAn=      5 IRanWt=     -1 IRanGd=            0 ICorTp=0 IEmpDi=  4
 Integral buffers will be    131072 words long.
 Regular integral format.
 Two-electron integral symmetry is turned off.
 Leave Link  301 at Wed Sep  7 15:33:40 2022, MaxMem=   131072000 cpu:               0.0 elap:               0.0
 (Enter /opt/g16/l302.exe)
 Do NDO integrals.
 NPDir=0 NMtPBC=     1 NCelOv=     1 NCel=       1 NClECP=     1 NCelD=      1
         NCelK=      1 NCelE2=     1 NClLst=     1 CellRange=     0.0.
 One-electron integrals computed using PRISM.
 NBasis=    36 RedAO= F EigKep=  0.00D+00  NBF=    36
 NBsUse=    36 1.00D-04 EigRej=  0.00D+00 NBFU=    36
 Leave Link  302 at Wed Sep  7 15:33:40 2022, MaxMem=   131072000 cpu:               0.0 elap:               0.0
 (Enter /opt/g16/l303.exe)
 DipDrv:  MaxL=1.
 Leave Link  303 at Wed Sep  7 15:33:40 2022, MaxMem=   131072000 cpu:               0.0 elap:               0.0
 (Enter /opt/g16/l401.exe)
 Simple Huckel Guess.
 JPrj=0 DoOrth=F DoCkMO=F.
 Leave Link  401 at Wed Sep  7 15:33:40 2022, MaxMem=   131072000 cpu:               0.0 elap:               0.0
 (Enter /opt/g16/l502.exe)
 Keep J ints in memory in canonical form, NReq=862161.
 FoFCou: FMM=F IPFlag=           0 FMFlag=           0 FMFlg1=           0
         NFxFlg=           0 DoJE=F BraDBF=F KetDBF=F FulRan=T
         wScrn=  0.000000 ICntrl=       600 IOpCl=  2 I1Cent=           0 NGrid=           0
         NMat0=    1 NMatS0=     72 NMatT0=    0 NMatD0=    1 NMtDS0=    0 NMtDT0=    0
 Symmetry not used in FoFCou.
 Two-electron integral symmetry not used.
 Closed shell SCF:
 Using DIIS extrapolation, IDIIS=  1040.
 Overlap will be assumed to be unity.
 NGot=   131072000 LenX=   131006778 LenY=   131005041
 Requested convergence on RMS density matrix=1.00D-08 within 128 cycles.
 Requested convergence on MAX density matrix=1.00D-06.
 Requested convergence on             energy=1.00D-06.
 No special actions if energy rises.

 Cycle   1  Pass 1  IDiag  1:
 E= 0.206951674546531    
 DIIS: error= 7.16D-02 at cycle   1 NSaved=   1.
 NSaved= 1 IEnMin= 1 EnMin= 0.206951674546531     IErMin= 1 ErrMin= 7.16D-02
 ErrMax= 7.16D-02  0.00D+00 EMaxC= 1.00D-01 BMatC= 1.09D-01 BMatP= 1.09D-01
 IDIUse=3 WtCom= 2.84D-01 WtEn= 7.16D-01
 Coeff-Com:  0.100D+01
 Coeff-En:   0.100D+01
 Coeff:      0.100D+01
 GapD=    2.000 DampG=2.000 DampE=0.500 DampFc=1.0000 IDamp=-1.
 RMSDP=1.29D-02 MaxDP=1.51D-01              OVMax= 0.00D+00

 Cycle   2  Pass 1  IDiag  1:
 E=-0.565891129558906E-01 Delta-E=       -0.263540787502 Rises=F Damp=F
 DIIS: error= 1.41D-02 at cycle   2 NSaved=   2.
 NSaved= 2 IEnMin= 2 EnMin=-0.565891129558906E-01 IErMin= 2 ErrMin= 1.41D-02
 ErrMax= 1.41D-02  0.00D+00 EMaxC= 1.00D-01 BMatC= 7.14D-03 BMatP= 1.09D-01
 IDIUse=3 WtCom= 8.59D-01 WtEn= 1.41D-01
 Coeff-Com: -0.306D+00 0.131D+01
 Coeff-En:   0.000D+00 0.100D+01
 Coeff:     -0.263D+00 0.126D+01
 RMSDP=4.68D-03 MaxDP=3.81D-02 DE=-2.64D-01 OVMax= 0.00D+00

 Cycle   3  Pass 1  IDiag  3:
 E=-0.787049546209175E-01 Delta-E=       -0.022115841665 Rises=F Damp=F
 DIIS: error= 3.20D-03 at cycle   3 NSaved=   3.
 NSaved= 3 IEnMin= 3 EnMin=-0.787049546209175E-01 IErMin= 3 ErrMin= 3.20D-03
 ErrMax= 3.20D-03  0.00D+00 EMaxC= 1.00D-01 BMatC= 2.15D-04 BMatP= 7.14D-03
 IDIUse=3 WtCom= 9.68D-01 WtEn= 3.20D-02
 Coeff-Com:  0.140D+00-0.684D+00 0.154D+01
 Coeff-En:   0.000D+00 0.000D+00 0.100D+01
 Coeff:      0.136D+00-0.662D+00 0.153D+01
 Gap=     0.520 Goal=   None    Shift=    0.000
 RMSDP=1.30D-03 MaxDP=1.41D-02 DE=-2.21D-02 OVMax= 7.07D-03

 Cycle   4  Pass 1  IDiag  3:
 E=-0.798303622714229E-01 Delta-E=       -0.001125407651 Rises=F Damp=F
 DIIS: error= 6.57D-04 at cycle   4 NSaved=   4.
 NSaved= 4 IEnMin= 4 EnMin=-0.798303622714229E-01 IErMin= 4 ErrMin= 6.57D-04
 ErrMax= 6.57D-04  0.00D+00 EMaxC= 1.00D-01 BMatC= 9.53D-06 BMatP= 2.15D-04
 IDIUse=3 WtCom= 9.93D-01 WtEn= 6.57D-03
 Coeff-Com: -0.296D-01 0.160D+00-0.551D+00 0.142D+01
 Coeff-En:   0.000D+00 0.000D+00 0.000D+00 0.100D+01
 Coeff:     -0.294D-01 0.159D+00-0.547D+00 0.142D+01
 Gap=     0.521 Goal=   None    Shift=    0.000
 RMSDP=3.22D-04 MaxDP=3.18D-03 DE=-1.13D-03 OVMax= 1.72D-03

 Cycle   5  Pass 1  IDiag  3:
 E=-0.798863504091685E-01 Delta-E=       -0.000055988138 Rises=F Damp=F
 DIIS: error= 1.29D-04 at cycle   5 NSaved=   5.
 NSaved= 5 IEnMin= 5 EnMin=-0.798863504091685E-01 IErMin= 5 ErrMin= 1.29D-04
 ErrMax= 1.29D-04  0.00D+00 EMaxC= 1.00D-01 BMatC= 3.08D-07 BMatP= 9.53D-06
 IDIUse=3 WtCom= 9.99D-01 WtEn= 1.29D-03
 Coeff-Com:  0.162D-02-0.120D-01 0.757D-01-0.370D+00 0.130D+01
 Coeff-En:   0.000D+00 0.000D+00 0.000D+00 0.000D+00 0.100D+01
 Coeff:      0.162D-02-0.120D-01 0.756D-01-0.369D+00 0.130D+01
 Gap=     0.521 Goal=   None    Shift=    0.000
 RMSDP=5.39D-05 MaxDP=6.56D-04 DE=-5.60D-05 OVMax= 3.82D-04

 Cycle   6  Pass 1  IDiag  3:
 E=-0.798880801968096E-01 Delta-E=       -0.000001729788 Rises=F Damp=F
 DIIS: error= 3.73D-05 at cycle   6 NSaved=   6.
 NSaved= 6 IEnMin= 6 EnMin=-0.798880801968096E-01 IErMin= 6 ErrMin= 3.73D-05
 ErrMax= 3.73D-05  0.00D+00 EMaxC= 1.00D-01 BMatC= 2.21D-08 BMatP= 3.08D-07
 IDIUse=1 WtCom= 1.00D+00 WtEn= 0.00D+00
 Coeff-Com: -0.303D-03 0.320D-02-0.277D-01 0.159D+00-0.726D+00 0.159D+01
 Coeff:     -0.303D-03 0.320D-02-0.277D-01 0.159D+00-0.726D+00 0.159D+01
 Gap=     0.521 Goal=   None    Shift=    0.000
 RMSDP=1.57D-05 MaxDP=2.29D-04 DE=-1.73D-06 OVMax= 1.28D-04

 Cycle   7  Pass 1  IDiag  3:
 E=-0.798882174979951E-01 Delta-E=       -0.000000137301 Rises=F Damp=F
 DIIS: error= 6.46D-06 at cycle   7 NSaved=   7.
 NSaved= 7 IEnMin= 7 EnMin=-0.798882174979951E-01 IErMin= 7 ErrMin= 6.46D-06
 ErrMax= 6.46D-06  0.00D+00 EMaxC= 1.00D-01 BMatC= 1.53D-09 BMatP= 2.21D-08
 IDIUse=1 WtCom= 1.00D+00 WtEn= 0.00D+00
 Coeff-Com:  0.160D-03-0.165D-02 0.141D-01-0.812D-01 0.389D+00-0.103D+01
 Coeff-Com:  0.171D+01
 Coeff:      0.160D-03-0.165D-02 0.141D-01-0.812D-01 0.389D+00-0.103D+01
 Coeff:      0.171D+01
 Gap=     0.521 Goal=   None    Shift=    0.000
 RMSDP=4.67D-06 MaxDP=5.21D-05 DE=-1.37D-07 OVMax= 3.20D-05

 Cycle   8  Pass 1  IDiag  3:
 E=-0.798882274363280E-01 Delta-E=       -0.000000009938 Rises=F Damp=F
 DIIS: error= 9.91D-07 at cycle   8 NSaved=   8.
 NSaved= 8 IEnMin= 8 EnMin=-0.798882274363280E-01 IErMin= 8 ErrMin= 9.91D-07
 ErrMax= 9.91D-07  0.00D+00 EMaxC= 1.00D-01 BMatC= 5.23D-11 BMatP= 1.53D-09
 IDIUse=1 WtCom= 1.00D+00 WtEn= 0.00D+00
 Coeff-Com: -0.560D-04 0.644D-03-0.589D-02 0.344D-01-0.168D+00 0.463D+00
 Coeff-Com: -0.883D+00 0.156D+01
 Coeff:     -0.560D-04 0.644D-03-0.589D-02 0.344D-01-0.168D+00 0.463D+00
 Coeff:     -0.883D+00 0.156D+01
 Gap=     0.521 Goal=   None    Shift=    0.000
 RMSDP=7.95D-07 MaxDP=7.53D-06 DE=-9.94D-09 OVMax= 4.39D-06

 Cycle   9  Pass 1  IDiag  3:
 E=-0.798882277651387E-01 Delta-E=       -0.000000000329 Rises=F Damp=F
 DIIS: error= 2.20D-07 at cycle   9 NSaved=   9.
 NSaved= 9 IEnMin= 9 EnMin=-0.798882277651387E-01 IErMin= 9 ErrMin= 2.20D-07
 ErrMax= 2.20D-07  0.00D+00 EMaxC= 1.00D-01 BMatC= 2.97D-12 BMatP= 5.23D-11
 IDIUse=1 WtCom= 1.00D+00 WtEn= 0.00D+00
 Coeff-Com:  0.178D-04-0.248D-03 0.248D-02-0.148D-01 0.731D-01-0.206D+00
 Coeff-Com:  0.406D+00-0.874D+00 0.161D+01
 Coeff:      0.178D-04-0.248D-03 0.248D-02-0.148D-01 0.731D-01-0.206D+00
 Coeff:      0.406D+00-0.874D+00 0.161D+01
 Gap=     0.521 Goal=   None    Shift=    0.000
 RMSDP=1.95D-07 MaxDP=1.71D-06 DE=-3.29D-10 OVMax= 1.23D-06

 Cycle  10  Pass 1  IDiag  3:
 E=-0.798882277837833E-01 Delta-E=       -0.000000000019 Rises=F Damp=F
 DIIS: error= 5.32D-08 at cycle  10 NSaved=  10.
 NSaved=10 IEnMin=10 EnMin=-0.798882277837833E-01 IErMin=10 ErrMin= 5.32D-08
 ErrMax= 5.32D-08  0.00D+00 EMaxC= 1.00D-01 BMatC= 1.36D-13 BMatP= 2.97D-12
 IDIUse=1 WtCom= 1.00D+00 WtEn= 0.00D+00
 Coeff-Com: -0.574D-05 0.873D-04-0.902D-03 0.543D-02-0.270D-01 0.765D-01
 Coeff-Com: -0.153D+00 0.341D+00-0.769D+00 0.153D+01
 Coeff:     -0.574D-05 0.873D-04-0.902D-03 0.543D-02-0.270D-01 0.765D-01
 Coeff:     -0.153D+00 0.341D+00-0.769D+00 0.153D+01
 Gap=     0.521 Goal=   None    Shift=    0.000
 RMSDP=4.05D-08 MaxDP=3.43D-07 DE=-1.86D-11 OVMax= 1.90D-07

 Cycle  11  Pass 1  IDiag  3:
 E=-0.798882277848634E-01 Delta-E=       -0.000000000001 Rises=F Damp=F
 DIIS: error= 1.56D-08 at cycle  11 NSaved=  11.
 NSaved=11 IEnMin=11 EnMin=-0.798882277848634E-01 IErMin=11 ErrMin= 1.56D-08
 ErrMax= 1.56D-08  0.00D+00 EMaxC= 1.00D-01 BMatC= 7.83D-15 BMatP= 1.36D-13
 IDIUse=1 WtCom= 1.00D+00 WtEn= 0.00D+00
 Coeff-Com:  0.160D-05-0.237D-04 0.244D-03-0.147D-02 0.732D-02-0.208D-01
 Coeff-Com:  0.416D-01-0.936D-01 0.228D+00-0.633D+00 0.147D+01
 Coeff:      0.160D-05-0.237D-04 0.244D-03-0.147D-02 0.732D-02-0.208D-01
 Coeff:      0.416D-01-0.936D-01 0.228D+00-0.633D+00 0.147D+01
 Gap=     0.521 Goal=   None    Shift=    0.000
 RMSDP=9.48D-09 MaxDP=9.36D-08 DE=-1.08D-12 OVMax= 4.39D-08

 Cycle  12  Pass 2  IDiag  1:
 SCF Done:  E(RPM3) = -0.798882277849E-01 A.U. after   12 cycles
            NFock= 11  Conv=0.95D-08     -V/T= 0.9987
 KE=-5.969337548755D+01 PE=-2.578234544817D+02 EE= 1.456749505918D+02
 Leave Link  502 at Wed Sep  7 15:33:40 2022, MaxMem=   131072000 cpu:               0.0 elap:               0.0
 (Enter /opt/g16/l601.exe)
 Copying SCF densities to generalized density rwf, IOpCl= 0 IROHF=0.

 **********************************************************************

            Population analysis using the SCF density.

 **********************************************************************

 Orbital symmetries:
       Occupied  (A) (A) (A) (A) (A) (A) (A) (A) (A) (A) (A) (A)
                 (A) (A) (A) (A) (A) (A) (A)
       Virtual   (A) (A) (A) (A) (A) (A) (A) (A) (A) (A) (A) (A)
                 (A) (A) (A) (A) (A)
 The electronic state is 1-A.
 Alpha  occ. eigenvalues --   -1.51677  -1.24103  -1.20943  -0.96354  -0.79195
 Alpha  occ. eigenvalues --   -0.75054  -0.68202  -0.61064  -0.57221  -0.55603
 Alpha  occ. eigenvalues --   -0.53628  -0.51493  -0.48927  -0.46999  -0.46701
 Alpha  occ. eigenvalues --   -0.44281  -0.43470  -0.42987  -0.40446
 Alpha virt. eigenvalues --    0.11574   0.12418   0.13293   0.13792   0.14245
 Alpha virt. eigenvalues --    0.14600   0.14995   0.15162   0.15410   0.16183
 Alpha virt. eigenvalues --    0.16425   0.17056   0.17757   0.18388   0.18740
 Alpha virt. eigenvalues --    0.19473   0.21070
          Condensed to atoms (all electrons):
               1          2          3          4          5          6
     1  C    4.100012   0.000000   0.000000   0.000000   0.000000   0.000000
     2  H    0.000000   0.949295   0.000000   0.000000   0.000000   0.000000
     3  H    0.000000   0.000000   0.971037   0.000000   0.000000   0.000000
     4  H    0.000000   0.000000   0.000000   0.960136   0.000000   0.000000
     5  C    0.000000   0.000000   0.000000   0.000000   4.152642   0.000000
     6  H    0.000000   0.000000   0.000000   0.000000   0.000000   0.932750
     7  H    0.000000   0.000000   0.000000   0.000000   0.000000   0.000000
     8  C    0.000000   0.000000   0.000000   0.000000   0.000000   0.000000
     9  H    0.000000   0.000000   0.000000   0.000000   0.000000   0.000000
    10  O    0.000000   0.000000   0.000000   0.000000   0.000000   0.000000
    11  C    0.000000   0.000000   0.000000   0.000000   0.000000   0.000000
    12  H    0.000000   0.000000   0.000000   0.000000   0.000000   0.000000
    13  H    0.000000   0.000000   0.000000   0.000000   0.000000   0.000000
    14  H    0.000000   0.000000   0.000000   0.000000   0.000000   0.000000
    15  C    0.000000   0.000000   0.000000   0.000000   0.000000   0.000000
    16  H    0.000000   0.000000   0.000000   0.000000   0.000000   0.000000
    17  H    0.000000   0.000000   0.000000   0.000000   0.000000   0.000000
    18  H    0.000000   0.000000   0.000000   0.000000   0.000000   0.000000
               7          8          9         10         11         12
     1  C    0.000000   0.000000   0.000000   0.000000   0.000000   0.000000
     2  H    0.000000   0.000000   0.000000   0.000000   0.000000   0.000000
     3  H    0.000000   0.000000   0.000000   0.000000   0.000000   0.000000
     4  H    0.000000   0.000000   0.000000   0.000000   0.000000   0.000000
     5  C    0.000000   0.000000   0.000000   0.000000   0.000000   0.000000
     6  H    0.000000   0.000000   0.000000   0.000000   0.000000   0.000000
     7  H    0.936009   0.000000   0.000000   0.000000   0.000000   0.000000
     8  C    0.000000   3.922570   0.000000   0.000000   0.000000   0.000000
     9  H    0.000000   0.000000   0.969960   0.000000   0.000000   0.000000
    10  O    0.000000   0.000000   0.000000   6.305392   0.000000   0.000000
    11  C    0.000000   0.000000   0.000000   0.000000   4.127649   0.000000
    12  H    0.000000   0.000000   0.000000   0.000000   0.000000   0.820290
    13  H    0.000000   0.000000   0.000000   0.000000   0.000000   0.000000
    14  H    0.000000   0.000000   0.000000   0.000000   0.000000   0.000000
    15  C    0.000000   0.000000   0.000000   0.000000   0.000000   0.000000
    16  H    0.000000   0.000000   0.000000   0.000000   0.000000   0.000000
    17  H    0.000000   0.000000   0.000000   0.000000   0.000000   0.000000
    18  H    0.000000   0.000000   0.000000   0.000000   0.000000   0.000000
              13         14         15         16         17         18
     1  C    0.000000   0.000000   0.000000   0.000000   0.000000   0.000000
     2  H    0.000000   0.000000   0.000000   0.000000   0.000000   0.000000
     3  H    0.000000   0.000000   0.000000   0.000000   0.000000   0.000000
     4  H    0.000000   0.000000   0.000000   0.000000   0.000000   0.000000
     5  C    0.000000   0.000000   0.000000   0.000000   0.000000   0.000000
     6  H    0.000000   0.000000   0.000000   0.000000   0.000000   0.000000
     7  H    0.000000   0.000000   0.000000   0.000000   0.000000   0.000000
     8  C    0.000000   0.000000   0.000000   0.000000   0.000000   0.000000
     9  H    0.000000   0.000000   0.000000   0.000000   0.000000   0.000000
    10  O    0.000000   0.000000   0.000000   0.000000   0.000000   0.000000
    11  C    0.000000   0.000000   0.000000   0.000000   0.000000   0.000000
    12  H    0.000000   0.000000   0.000000   0.000000   0.000000   0.000000
    13  H    0.938382   0.000000   0.000000   0.000000   0.000000   0.000000
    14  H    0.000000   0.962398   0.000000   0.000000   0.000000   0.000000
    15  C    0.000000   0.000000   4.088215   0.000000   0.000000   0.000000
    16  H    0.000000   0.000000   0.000000   0.931026   0.000000   0.000000
    17  H    0.000000   0.000000   0.000000   0.000000   0.960427   0.000000
    18  H    0.000000   0.000000   0.000000   0.000000   0.000000   0.971810
 Mulliken charges:
               1
     1  C   -0.100012
     2  H    0.050705
     3  H    0.028963
     4  H    0.039864
     5  C   -0.152642
     6  H    0.067250
     7  H    0.063991
     8  C    0.077430
     9  H    0.030040
    10  O   -0.305392
    11  C   -0.127649
    12  H    0.179710
    13  H    0.061618
    14  H    0.037602
    15  C   -0.088215
    16  H    0.068974
    17  H    0.039573
    18  H    0.028190
 Sum of Mulliken charges =  -0.00000
 Mulliken charges with hydrogens summed into heavy atoms:
               1
     1  C    0.019519
     5  C   -0.021400
     8  C    0.107471
    10  O   -0.125682
    11  C   -0.028429
    15  C    0.048522
 Charge=             -0.0000 electrons
 Dipole moment (field-independent basis, Debye):
    X=              0.8996    Y=             -0.5092    Z=              1.0959  Tot=              1.5065
 N-N= 1.717619911497D+02 E-N=-2.578234546768D+02  KE=-5.969337548755D+01
 Leave Link  601 at Wed Sep  7 15:33:40 2022, MaxMem=   131072000 cpu:               0.0 elap:               0.0
 (Enter /opt/g16/l701.exe)
 ... and contract with generalized density number  0.
 Compute integral first derivatives.
 Leave Link  701 at Wed Sep  7 15:33:40 2022, MaxMem=   131072000 cpu:               0.0 elap:               0.0
 (Enter /opt/g16/l702.exe)
 L702 exits ... SP integral derivatives will be done elsewhere.
 Leave Link  702 at Wed Sep  7 15:33:41 2022, MaxMem=   131072000 cpu:               0.0 elap:               0.0
 (Enter /opt/g16/l703.exe)
 Integral derivatives from FoFJK, PRISM(SPDF).
 Compute integral first derivatives, UseDBF=F ICtDFT=           0.
 Calling FoFJK, ICntrl=      2127 FMM=F ISym2X=0 I1Cent= 0 IOpClX= 0 NMat=1 NMatS=1 NMatT=0.
 FoFJK:  IHMeth= 9 ICntrl=    2127 DoSepK=F KAlg= 0 I1Cent=           0 FoldK=F
 IRaf=         0 NMat=       1 IRICut=       1 DoRegI=T DoRafI=F ISym2E= 0 IDoP0=3 IntGTp=3.
 FoFCou: FMM=F IPFlag=           0 FMFlag=      100000 FMFlg1=         800
         NFxFlg=           0 DoJE=F BraDBF=F KetDBF=F FulRan=T
         wScrn=  0.000000 ICntrl=      2127 IOpCl=  0 I1Cent=           0 NGrid=           0
         NMat0=    1 NMatS0=      1 NMatT0=    0 NMatD0=    1 NMtDS0=    0 NMtDT0=    0
 Symmetry not used in FoFCou.
 Leave Link  703 at Wed Sep  7 15:33:41 2022, MaxMem=   131072000 cpu:               0.0 elap:               0.0
 (Enter /opt/g16/l716.exe)
 Dipole        = 3.53912976D-01-2.00327251D-01 4.31173243D-01
 ***** Axes restored to original set *****
 -------------------------------------------------------------------
 Center     Atomic                   Forces (Hartrees/Bohr)
 Number     Number              X              Y              Z
 -------------------------------------------------------------------
      1        6           0.020325814   -0.010661097    0.002202617
      2        1          -0.004353172   -0.010132050   -0.005269067
      3        1          -0.005649667    0.001629367    0.012816114
      4        1          -0.006797246    0.004549677   -0.005629110
      5        6           0.019202387    0.064761659    0.043469660
      6        1          -0.009311911    0.004964696   -0.003547909
      7        1           0.010114816    0.022533739   -0.010003154
      8        6          -0.053462270   -0.034723068   -0.022169233
      9        1          -0.015442645   -0.016951429    0.016431936
     10        8          -0.021484277    0.005737801    0.002945746
     11        6           0.051772131   -0.019529403   -0.037379378
     12        1           0.006016457    0.002329822   -0.005744819
     13        1          -0.015701897   -0.008689737   -0.002119523
     14        1           0.009365662   -0.005952714    0.004073672
     15        6           0.061550921    0.002485945    0.025450549
     16        1          -0.002150696    0.000032226    0.002109108
     17        1          -0.003882409   -0.011701533   -0.016505712
     18        1          -0.040111998    0.009316099   -0.001131497
 -------------------------------------------------------------------
 Cartesian Forces:  Max     0.064761659 RMS     0.021812419
 Leave Link  716 at Wed Sep  7 15:33:41 2022, MaxMem=   131072000 cpu:               0.0 elap:               0.0
 (Enter /opt/g16/l103.exe)

 GradGradGradGradGradGradGradGradGradGradGradGradGradGradGradGradGradGrad
 Berny optimization.
 FormGI is forming the generalized inverse of G from B-inverse, IUseBI=4.
 Internal  Forces:  Max     0.086721489 RMS     0.015526110
 Search for a local minimum.
 Step number   1 out of a maximum of   97
 All quantities printed in internal units (Hartrees-Bohrs-Radians)
 RMS Force = .15526D-01 SwitMx=.10000D-02 MixMth= 1
 Mixed Optimization -- RFO/linear search
 Second derivative matrix not updated -- first step.
 ITU=  0
     Eigenvalues ---    0.00230   0.00416   0.01329   0.01431   0.01636
     Eigenvalues ---    0.03439   0.03699   0.04737   0.05158   0.05255
     Eigenvalues ---    0.05277   0.05297   0.05513   0.06323   0.06950
     Eigenvalues ---    0.08099   0.08558   0.09356   0.12532   0.12857
     Eigenvalues ---    0.16000   0.16000   0.16000   0.16000   0.16000
     Eigenvalues ---    0.16000   0.16000   0.17836   0.20288   0.21724
     Eigenvalues ---    0.22112   0.26792   0.27486   0.29755   0.30100
     Eigenvalues ---    0.30721   0.32321   0.33813   0.33985   0.34916
     Eigenvalues ---    0.35256   0.35722   0.35752   0.36503   0.37289
     Eigenvalues ---    0.40384   0.42500   0.56440
 RFO step:  Lambda=-5.90665681D-02 EMin= 2.30000000D-03
 Linear search not attempted -- first point.
 Maximum step size (   0.300) exceeded in Quadratic search.
    -- Step size scaled by   0.730
 Iteration  1 RMS(Cart)=  0.07598192 RMS(Int)=  0.00260884
 Iteration  2 RMS(Cart)=  0.00276426 RMS(Int)=  0.00086149
 Iteration  3 RMS(Cart)=  0.00000681 RMS(Int)=  0.00086147
 Iteration  4 RMS(Cart)=  0.00000004 RMS(Int)=  0.00086147
 ITry= 1 IFail=0 DXMaxC= 2.93D-01 DCOld= 1.00D+10 DXMaxT= 3.00D-01 DXLimC= 3.00D+00 Rises=F
 Variable       Old X    -DE/DX   Delta X   Delta X   Delta X     New X
                                 (Linear)    (Quad)   (Total)
    R1        2.10260  -0.01217   0.00000  -0.02323  -0.02323   2.07937
    R2        2.05812   0.00722   0.00000   0.01291   0.01291   2.07103
    R3        2.04518   0.00881   0.00000   0.01545   0.01545   2.06063
    R4        2.88455  -0.00395   0.00000  -0.00808  -0.00808   2.87647
    R5        2.13248  -0.01036   0.00000  -0.02064  -0.02064   2.11184
    R6        2.03303   0.02389   0.00000   0.04112   0.04112   2.07414
    R7        2.71035   0.08672   0.00000   0.13675   0.13675   2.84711
    R8        2.04472   0.02728   0.00000   0.04781   0.04781   2.09252
    R9        2.68291   0.01376   0.00000   0.02074   0.02074   2.70366
   R10        2.75413   0.07368   0.00000   0.12450   0.12450   2.87863
   R11        1.80575  -0.00807   0.00000  -0.00945  -0.00945   1.79629
   R12        2.14465  -0.01477   0.00000  -0.02993  -0.02993   2.11472
   R13        2.07647   0.01040   0.00000   0.01911   0.01911   2.09558
   R14        2.93277  -0.01029   0.00000  -0.02250  -0.02250   2.91026
   R15        2.05261  -0.00089   0.00000  -0.00157  -0.00157   2.05104
   R16        2.07356  -0.00259   0.00000  -0.00474  -0.00474   2.06882
   R17        2.21559  -0.03911   0.00000  -0.08730  -0.08730   2.12829
    A1        1.93136  -0.00764   0.00000  -0.02290  -0.02304   1.90832
    A2        1.91806  -0.00065   0.00000  -0.01188  -0.01230   1.90576
    A3        1.94761  -0.00119   0.00000  -0.00889  -0.00920   1.93842
    A4        1.86788  -0.00345   0.00000  -0.00176  -0.00180   1.86608
    A5        1.79954   0.01822   0.00000   0.06696   0.06686   1.86640
    A6        1.99432  -0.00478   0.00000  -0.01782  -0.01807   1.97625
    A7        1.91439   0.00180   0.00000  -0.00637  -0.00643   1.90797
    A8        1.87168   0.00228   0.00000   0.00736   0.00785   1.87953
    A9        2.04804  -0.01435   0.00000  -0.03527  -0.03518   2.01286
   A10        1.89947  -0.00531   0.00000  -0.02178  -0.02213   1.87734
   A11        1.90183   0.00585   0.00000   0.01368   0.01319   1.91502
   A12        1.82196   0.01011   0.00000   0.04391   0.04398   1.86594
   A13        1.89500   0.00309   0.00000   0.00424   0.00445   1.89945
   A14        1.97132  -0.00476   0.00000  -0.01994  -0.01969   1.95163
   A15        2.02444  -0.01201   0.00000  -0.03294  -0.03271   1.99173
   A16        1.90587  -0.00333   0.00000  -0.01091  -0.01160   1.89427
   A17        1.81021   0.00516   0.00000   0.02716   0.02708   1.83728
   A18        1.84810   0.01275   0.00000   0.03644   0.03598   1.88408
   A19        1.83220   0.00447   0.00000   0.01488   0.01488   1.84709
   A20        2.00881  -0.00873   0.00000  -0.03059  -0.03011   1.97870
   A21        1.81956   0.00119   0.00000   0.02561   0.02537   1.84493
   A22        1.93961   0.01834   0.00000   0.04803   0.04780   1.98741
   A23        1.77280   0.00452   0.00000   0.01226   0.01230   1.78510
   A24        2.01234  -0.01011   0.00000  -0.04001  -0.03991   1.97243
   A25        1.88751  -0.00570   0.00000  -0.01107  -0.01238   1.87512
   A26        2.04266  -0.01078   0.00000  -0.03758  -0.03700   2.00565
   A27        1.74174   0.03047   0.00000   0.10196   0.10020   1.84194
   A28        1.76763   0.02095   0.00000   0.07015   0.06834   1.83597
   A29        2.03403  -0.01428   0.00000  -0.04943  -0.04883   1.98520
   A30        1.92459  -0.00839   0.00000  -0.02986  -0.02929   1.89531
   A31        1.92958  -0.01146   0.00000  -0.03269  -0.03825   1.89132
    D1        0.98770   0.00150   0.00000   0.01180   0.01161   0.99932
    D2       -1.07235   0.00556   0.00000   0.03702   0.03697  -1.03538
    D3       -3.11375  -0.00031   0.00000  -0.00311  -0.00307  -3.11682
    D4       -1.08568   0.00052   0.00000   0.00429   0.00414  -1.08154
    D5        3.13745   0.00458   0.00000   0.02951   0.02950  -3.11624
    D6        1.09605  -0.00129   0.00000  -0.01062  -0.01054   1.08551
    D7       -3.10612  -0.00425   0.00000  -0.02617  -0.02619  -3.13231
    D8        1.11701  -0.00019   0.00000  -0.00095  -0.00084   1.11618
    D9       -0.92438  -0.00605   0.00000  -0.04107  -0.04087  -0.96526
   D10       -0.81773   0.00381   0.00000   0.02632   0.02630  -0.79142
   D11        1.29876  -0.00133   0.00000   0.00251   0.00224   1.30100
   D12       -2.84653   0.00245   0.00000   0.00905   0.00910  -2.83743
   D13        1.37025   0.00010   0.00000   0.00177   0.00168   1.37193
   D14       -2.79644  -0.00504   0.00000  -0.02204  -0.02239  -2.81883
   D15       -0.65855  -0.00126   0.00000  -0.01550  -0.01553  -0.67407
   D16       -2.88592   0.00179   0.00000   0.00527   0.00557  -2.88035
   D17       -0.76943  -0.00335   0.00000  -0.01854  -0.01850  -0.78793
   D18        1.36847   0.00043   0.00000  -0.01201  -0.01163   1.35683
   D19       -1.37867  -0.00145   0.00000   0.00617   0.00589  -1.37278
   D20        0.73166  -0.00299   0.00000  -0.00925  -0.00897   0.72269
   D21        2.67091   0.00762   0.00000   0.03471   0.03470   2.70562
   D22       -0.70744  -0.00145   0.00000  -0.01857  -0.01843  -0.72587
   D23        1.21832   0.00075   0.00000  -0.00237  -0.00278   1.21554
   D24       -3.03548   0.00343   0.00000   0.02168   0.02208  -3.01340
   D25       -2.78324  -0.00226   0.00000  -0.02456  -0.02413  -2.80737
   D26       -0.85748  -0.00006   0.00000  -0.00835  -0.00848  -0.86596
   D27        1.17190   0.00262   0.00000   0.01569   0.01638   1.18829
   D28        1.49415  -0.00588   0.00000  -0.03864  -0.03892   1.45523
   D29       -2.86328  -0.00368   0.00000  -0.02243  -0.02327  -2.88655
   D30       -0.83390  -0.00100   0.00000   0.00161   0.00159  -0.83230
   D31        1.31649  -0.00428   0.00000  -0.03161  -0.03160   1.28488
   D32       -0.89429  -0.00302   0.00000  -0.02440  -0.02260  -0.91688
   D33       -2.87416  -0.00558   0.00000  -0.03894  -0.04074  -2.91491
   D34       -1.00979  -0.00011   0.00000   0.00391   0.00407  -1.00572
   D35        3.06261   0.00115   0.00000   0.01112   0.01308   3.07570
   D36        1.08274  -0.00141   0.00000  -0.00342  -0.00506   1.07768
   D37       -2.97953   0.00362   0.00000   0.01815   0.01799  -2.96154
   D38        1.09288   0.00488   0.00000   0.02535   0.02700   1.11988
   D39       -0.88699   0.00232   0.00000   0.01082   0.00885  -0.87815
         Item               Value     Threshold  Converged?
 Maximum Force            0.086721     0.000450     NO 
 RMS     Force            0.015526     0.000300     NO 
 Maximum Displacement     0.293395     0.001800     NO 
 RMS     Displacement     0.075590     0.001200     NO 
 Predicted change in Energy=-3.051399D-02
 Lowest energy point so far.  Saving SCF results.
 GradGradGradGradGradGradGradGradGradGradGradGradGradGradGradGradGradGrad

 Leave Link  103 at Wed Sep  7 15:33:41 2022, MaxMem=   131072000 cpu:               0.0 elap:               0.0
 (Enter /opt/g16/l202.exe)
                          Input orientation:                          
 ---------------------------------------------------------------------
 Center     Atomic      Atomic             Coordinates (Angstroms)
 Number     Number       Type             X           Y           Z
 ---------------------------------------------------------------------
      1          6           0        5.049391    6.755784   15.363055
      2          1           0        5.347291    7.690244   15.861877
      3          1           0        4.975503    5.954703   16.107300
      4          1           0        4.055757    6.880744   14.931629
      5          6           0        6.095188    6.321108   14.346029
      6          1           0        7.081910    6.203904   14.857434
      7          1           0        6.198189    7.127208   13.608265
      8          6           0        5.767009    5.065667   13.580469
      9          1           0        5.392849    4.302055   14.289727
     10          8           0        4.762559    5.295332   12.587859
     11          6           0        6.966133    4.423199   12.895053
     12          1           0        3.935008    5.311416   13.055256
     13          1           0        7.649693    5.164397   12.409597
     14          1           0        7.598069    4.019370   13.711944
     15          6           0        6.599436    3.247119   11.970872
     16          1           0        6.128854    3.530652   11.034830
     17          1           0        5.992570    2.571742   12.582514
     18          1           0        7.576590    2.736355   11.741288
 ---------------------------------------------------------------------
                    Distance matrix (angstroms):
                    1          2          3          4          5
     1  C    0.000000
     2  H    1.100356   0.000000
     3  H    1.095943   1.791804   0.000000
     4  H    1.090436   1.785696   1.756612   0.000000
     5  C    1.522162   2.175242   2.118968   2.194402   0.000000
     6  H    2.165955   2.495399   2.461954   3.101809   1.117538
     7  H    2.130019   2.473824   3.019090   2.530227   1.097590
     8  C    2.559118   3.502768   2.793160   2.836991   1.506624
     9  H    2.700145   3.735446   2.491786   2.974809   2.138463
    10  O    3.149112   4.098378   3.587002   2.916566   2.432957
    11  C    3.899473   4.700667   4.077578   4.319427   2.542820
    12  H    2.941766   3.940874   3.288073   2.449111   2.711448
    13  H    4.244644   4.857900   4.631295   4.714114   2.739386
    14  H    4.087774   4.812851   4.044886   4.714135   2.821119
    15  C    5.120574   6.037313   5.203673   5.332880   3.917275
    16  H    5.504566   6.419769   5.739007   5.541289   4.330337
    17  H    5.111478   6.113074   4.990288   5.276086   4.144667
    18  H    5.971578   6.818361   6.015437   6.304799   4.672224
                    6          7          8          9         10
     6  H    0.000000
     7  H    1.787143   0.000000
     8  C    2.157589   2.106333   0.000000
     9  H    2.606195   3.015701   1.107314   0.000000
    10  O    3.369846   2.541265   1.430713   2.068869   0.000000
    11  C    2.652406   2.900013   1.523305   2.105947   2.389711
    12  H    3.734619   2.953795   1.921579   2.160562   0.950557
    13  H    2.719349   2.719613   2.219277   3.061351   2.895594
    14  H    2.520071   3.410143   2.113009   2.297116   3.306322
    15  C    4.160240   4.230502   2.567266   2.818835   2.819569
    16  H    4.760977   4.422962   2.994576   3.425072   2.718963
    17  H    4.422050   4.674047   2.695637   2.503643   2.988461
    18  H    4.688174   4.966405   3.476042   3.703334   3.896642
                   11         12         13         14         15
    11  C    0.000000
    12  H    3.162643   0.000000
    13  H    1.119061   3.773245   0.000000
    14  H    1.108934   3.939371   1.734895   0.000000
    15  C    1.540045   3.540676   2.229680   2.150574   0.000000
    16  H    2.226680   3.473644   2.621462   3.092633   1.085363
    17  H    2.115041   3.458737   3.081854   2.439030   1.094773
    18  H    2.132903   4.649577   2.519399   2.351611   1.126240
                   16         17         18
    16  H    0.000000
    17  H    1.825762   0.000000
    18  H    1.796087   1.801077   0.000000
 Stoichiometry    C5H12O
 Framework group  C1[X(C5H12O)]
 Deg. of freedom    48
 Full point group                 C1      NOp   1
 RotChk:  IX=0 Diff= 2.43D-02
 Largest Abelian subgroup         C1      NOp   1
 Largest concise Abelian subgroup C1      NOp   1
                         Standard orientation:                         
 ---------------------------------------------------------------------
 Center     Atomic      Atomic             Coordinates (Angstroms)
 Number     Number       Type             X           Y           Z
 ---------------------------------------------------------------------
      1          6           0        2.573581   -0.075693    0.289040
      2          1           0        3.455579   -0.559576   -0.156738
      3          1           0        2.523130   -0.324533    1.355166
      4          1           0        2.685768    1.006809    0.220809
      5          6           0        1.288856   -0.587428   -0.347031
      6          1           0        1.236156   -1.697781   -0.232003
      7          1           0        1.338050   -0.367696   -1.421276
      8          6           0        0.019742    0.038149    0.170577
      9          1           0        0.064975    0.075781    1.276327
     10          8           0       -0.156629    1.369424   -0.322923
     11          6           0       -1.241096   -0.753229   -0.152636
     12          1           0        0.412854    1.918795    0.203803
     13          1           0       -1.251662   -1.166096   -1.192698
     14          1           0       -1.185364   -1.672293    0.465383
     15          6           0       -2.546273   -0.025353    0.219450
     16          1           0       -2.812682    0.798763   -0.434670
     17          1           0       -2.431555    0.264227    1.268979
     18          1           0       -3.351079   -0.810470    0.153909
 ---------------------------------------------------------------------
 Rotational constants (GHZ):           7.3024028           1.8857443           1.6388190
 Leave Link  202 at Wed Sep  7 15:33:41 2022, MaxMem=   131072000 cpu:               0.0 elap:               0.0
 (Enter /opt/g16/l301.exe)
 Standard basis: VSTO-6G (5D, 7F)
 Ernie: Thresh=  0.10000D-02 Tol=  0.10000D-05 Strict=F.
  NNHCO=     0 NNPyr=     0 NCTC=     0               EPep=         0.000000000
    EC=       127.594416174  ECS=         2.198737288   EG=         0.564092359
   EHC=         0.000000000  EAt=       -36.836480110  AtH=         2.452923921
 EPDDG=         0.000000000  ECC=       130.357245821 EAtT=        39.289404030
 There are    36 symmetry adapted cartesian basis functions of A   symmetry.
 There are    36 symmetry adapted basis functions of A   symmetry.
    36 basis functions,   216 primitive gaussians,    36 cartesian basis functions
    19 alpha electrons       19 beta electrons
       nuclear repulsion energy       169.6466498517 Hartrees.
 IExCor=    0 DFT=F Ex=HF Corr=None ExCW=0 ScaHFX=  1.000000
 ScaDFX=  1.000000  1.000000  1.000000  1.000000 ScalE2=  1.000000  1.000000
 IRadAn=      5 IRanWt=     -1 IRanGd=            0 ICorTp=0 IEmpDi=  4
 Integral buffers will be    131072 words long.
 Regular integral format.
 Two-electron integral symmetry is turned off.
 Leave Link  301 at Wed Sep  7 15:33:41 2022, MaxMem=   131072000 cpu:               0.0 elap:               0.0
 (Enter /opt/g16/l302.exe)
 Do NDO integrals.
 NPDir=0 NMtPBC=     1 NCelOv=     1 NCel=       1 NClECP=     1 NCelD=      1
         NCelK=      1 NCelE2=     1 NClLst=     1 CellRange=     0.0.
 One-electron integrals computed using PRISM.
 NBasis=    36 RedAO= F EigKep=  0.00D+00  NBF=    36
 NBsUse=    36 1.00D-04 EigRej=  0.00D+00 NBFU=    36
 Leave Link  302 at Wed Sep  7 15:33:41 2022, MaxMem=   131072000 cpu:               0.1 elap:               0.0
 (Enter /opt/g16/l303.exe)
 DipDrv:  MaxL=1.
 Leave Link  303 at Wed Sep  7 15:33:41 2022, MaxMem=   131072000 cpu:               0.0 elap:               0.0
 (Enter /opt/g16/l401.exe)
 Initial guess from the checkpoint file:  "MD_extract_007_gaussian.chk"
 B after Tr=     0.000000   -0.000000    0.000000
         Rot=    0.999979   -0.000265    0.002788    0.005786 Ang=  -0.74 deg.
 Guess basis will be translated and rotated to current coordinates.
 JPrj=0 DoOrth=T DoCkMO=T.
 Leave Link  401 at Wed Sep  7 15:33:41 2022, MaxMem=   131072000 cpu:               0.0 elap:               0.0
 (Enter /opt/g16/l502.exe)
 Keep J ints in memory in canonical form, NReq=862161.
 FoFCou: FMM=F IPFlag=           0 FMFlag=           0 FMFlg1=           0
         NFxFlg=           0 DoJE=F BraDBF=F KetDBF=F FulRan=T
         wScrn=  0.000000 ICntrl=       600 IOpCl=  2 I1Cent=           0 NGrid=           0
         NMat0=    1 NMatS0=     72 NMatT0=    0 NMatD0=    1 NMtDS0=    0 NMtDT0=    0
 Symmetry not used in FoFCou.
 Two-electron integral symmetry not used.
 Closed shell SCF:
 Using DIIS extrapolation, IDIIS=  1040.
 Overlap will be assumed to be unity.
 NGot=   131072000 LenX=   131006778 LenY=   131005041
 Requested convergence on RMS density matrix=1.00D-08 within 128 cycles.
 Requested convergence on MAX density matrix=1.00D-06.
 Requested convergence on             energy=1.00D-06.
 No special actions if energy rises.

 Cycle   1  Pass 1  IDiag  1:
 E=-0.100151961278272    
 DIIS: error= 7.23D-03 at cycle   1 NSaved=   1.
 NSaved= 1 IEnMin= 1 EnMin=-0.100151961278272     IErMin= 1 ErrMin= 7.23D-03
 ErrMax= 7.23D-03  0.00D+00 EMaxC= 1.00D-01 BMatC= 1.79D-03 BMatP= 1.79D-03
 IDIUse=3 WtCom= 9.28D-01 WtEn= 7.23D-02
 Coeff-Com:  0.100D+01
 Coeff-En:   0.100D+01
 Coeff:      0.100D+01
 GapD=    2.000 DampG=2.000 DampE=1.000 DampFc=2.0000 IDamp=-1.
 RMSDP=2.06D-03 MaxDP=1.97D-02              OVMax= 0.00D+00

 Cycle   2  Pass 1  IDiag  3:
 E=-0.106025625905602     Delta-E=       -0.005873664627 Rises=F Damp=F
 DIIS: error= 3.17D-03 at cycle   2 NSaved=   2.
 NSaved= 2 IEnMin= 2 EnMin=-0.106025625905602     IErMin= 2 ErrMin= 3.17D-03
 ErrMax= 3.17D-03  0.00D+00 EMaxC= 1.00D-01 BMatC= 2.34D-04 BMatP= 1.79D-03
 IDIUse=3 WtCom= 9.68D-01 WtEn= 3.17D-02
 Coeff-Com: -0.469D+00 0.147D+01
 Coeff-En:   0.000D+00 0.100D+01
 Coeff:     -0.454D+00 0.145D+01
 Gap=     0.519 Goal=   None    Shift=    0.000
 RMSDP=1.22D-03 MaxDP=1.30D-02 DE=-5.87D-03 OVMax= 7.02D-03

 Cycle   3  Pass 1  IDiag  3:
 E=-0.107116183074567     Delta-E=       -0.001090557169 Rises=F Damp=F
 DIIS: error= 6.23D-04 at cycle   3 NSaved=   3.
 NSaved= 3 IEnMin= 3 EnMin=-0.107116183074567     IErMin= 3 ErrMin= 6.23D-04
 ErrMax= 6.23D-04  0.00D+00 EMaxC= 1.00D-01 BMatC= 9.30D-06 BMatP= 2.34D-04
 IDIUse=3 WtCom= 9.94D-01 WtEn= 6.23D-03
 Coeff-Com:  0.181D+00-0.690D+00 0.151D+01
 Coeff-En:   0.000D+00 0.000D+00 0.100D+01
 Coeff:      0.180D+00-0.685D+00 0.151D+01
 Gap=     0.519 Goal=   None    Shift=    0.000
 RMSDP=3.10D-04 MaxDP=3.19D-03 DE=-1.09D-03 OVMax= 2.57D-03

 Cycle   4  Pass 1  IDiag  3:
 E=-0.107169591964777     Delta-E=       -0.000053408890 Rises=F Damp=F
 DIIS: error= 1.19D-04 at cycle   4 NSaved=   4.
 NSaved= 4 IEnMin= 4 EnMin=-0.107169591964777     IErMin= 4 ErrMin= 1.19D-04
 ErrMax= 1.19D-04  0.00D+00 EMaxC= 1.00D-01 BMatC= 3.73D-07 BMatP= 9.30D-06
 IDIUse=3 WtCom= 9.99D-01 WtEn= 1.19D-03
 Coeff-Com: -0.865D-01 0.339D+00-0.845D+00 0.159D+01
 Coeff-En:   0.000D+00 0.000D+00 0.000D+00 0.100D+01
 Coeff:     -0.864D-01 0.338D+00-0.844D+00 0.159D+01
 Gap=     0.519 Goal=   None    Shift=    0.000
 RMSDP=6.60D-05 MaxDP=6.73D-04 DE=-5.34D-05 OVMax= 8.95D-04

 Cycle   5  Pass 1  IDiag  3:
 E=-0.107171984969540     Delta-E=       -0.000002393005 Rises=F Damp=F
 DIIS: error= 3.53D-05 at cycle   5 NSaved=   5.
 NSaved= 5 IEnMin= 5 EnMin=-0.107171984969540     IErMin= 5 ErrMin= 3.53D-05
 ErrMax= 3.53D-05  0.00D+00 EMaxC= 1.00D-01 BMatC= 2.58D-08 BMatP= 3.73D-07
 IDIUse=1 WtCom= 1.00D+00 WtEn= 0.00D+00
 Coeff-Com:  0.440D-01-0.173D+00 0.444D+00-0.100D+01 0.169D+01
 Coeff:      0.440D-01-0.173D+00 0.444D+00-0.100D+01 0.169D+01
 Gap=     0.519 Goal=   None    Shift=    0.000
 RMSDP=1.96D-05 MaxDP=2.26D-04 DE=-2.39D-06 OVMax= 2.88D-04

 Cycle   6  Pass 1  IDiag  3:
 E=-0.107172164237227     Delta-E=       -0.000000179268 Rises=F Damp=F
 DIIS: error= 7.23D-06 at cycle   6 NSaved=   6.
 NSaved= 6 IEnMin= 6 EnMin=-0.107172164237227     IErMin= 6 ErrMin= 7.23D-06
 ErrMax= 7.23D-06  0.00D+00 EMaxC= 1.00D-01 BMatC= 1.12D-09 BMatP= 2.58D-08
 IDIUse=1 WtCom= 1.00D+00 WtEn= 0.00D+00
 Coeff-Com: -0.120D-01 0.475D-01-0.123D+00 0.298D+00-0.652D+00 0.144D+01
 Coeff:     -0.120D-01 0.475D-01-0.123D+00 0.298D+00-0.652D+00 0.144D+01
 Gap=     0.519 Goal=   None    Shift=    0.000
 RMSDP=3.75D-06 MaxDP=4.25D-05 DE=-1.79D-07 OVMax= 4.46D-05

 Cycle   7  Pass 1  IDiag  3:
 E=-0.107172171251989     Delta-E=       -0.000000007015 Rises=F Damp=F
 DIIS: error= 1.36D-06 at cycle   7 NSaved=   7.
 NSaved= 7 IEnMin= 7 EnMin=-0.107172171251989     IErMin= 7 ErrMin= 1.36D-06
 ErrMax= 1.36D-06  0.00D+00 EMaxC= 1.00D-01 BMatC= 5.64D-11 BMatP= 1.12D-09
 IDIUse=1 WtCom= 1.00D+00 WtEn= 0.00D+00
 Coeff-Com:  0.326D-02-0.128D-01 0.334D-01-0.820D-01 0.193D+00-0.570D+00
 Coeff-Com:  0.143D+01
 Coeff:      0.326D-02-0.128D-01 0.334D-01-0.820D-01 0.193D+00-0.570D+00
 Coeff:      0.143D+01
 Gap=     0.519 Goal=   None    Shift=    0.000
 RMSDP=7.87D-07 MaxDP=7.79D-06 DE=-7.01D-09 OVMax= 5.82D-06

 Cycle   8  Pass 1  IDiag  3:
 E=-0.107172171600780     Delta-E=       -0.000000000349 Rises=F Damp=F
 DIIS: error= 3.64D-07 at cycle   8 NSaved=   8.
 NSaved= 8 IEnMin= 8 EnMin=-0.107172171600780     IErMin= 8 ErrMin= 3.64D-07
 ErrMax= 3.64D-07  0.00D+00 EMaxC= 1.00D-01 BMatC= 3.68D-12 BMatP= 5.64D-11
 IDIUse=1 WtCom= 1.00D+00 WtEn= 0.00D+00
 Coeff-Com: -0.972D-03 0.382D-02-0.997D-02 0.247D-01-0.594D-01 0.188D+00
 Coeff-Com: -0.648D+00 0.150D+01
 Coeff:     -0.972D-03 0.382D-02-0.997D-02 0.247D-01-0.594D-01 0.188D+00
 Coeff:     -0.648D+00 0.150D+01
 Gap=     0.519 Goal=   None    Shift=    0.000
 RMSDP=2.21D-07 MaxDP=2.32D-06 DE=-3.49D-10 OVMax= 1.68D-06

 Cycle   9  Pass 1  IDiag  3:
 E=-0.107172171626388     Delta-E=       -0.000000000026 Rises=F Damp=F
 DIIS: error= 1.15D-07 at cycle   9 NSaved=   9.
 NSaved= 9 IEnMin= 9 EnMin=-0.107172171626388     IErMin= 9 ErrMin= 1.15D-07
 ErrMax= 1.15D-07  0.00D+00 EMaxC= 1.00D-01 BMatC= 3.15D-13 BMatP= 3.68D-12
 IDIUse=1 WtCom= 1.00D+00 WtEn= 0.00D+00
 Coeff-Com:  0.317D-03-0.124D-02 0.326D-02-0.819D-02 0.203D-01-0.680D-01
 Coeff-Com:  0.269D+00-0.835D+00 0.162D+01
 Coeff:      0.317D-03-0.124D-02 0.326D-02-0.819D-02 0.203D-01-0.680D-01
 Coeff:      0.269D+00-0.835D+00 0.162D+01
 Gap=     0.519 Goal=   None    Shift=    0.000
 RMSDP=7.16D-08 MaxDP=8.13D-07 DE=-2.56D-11 OVMax= 6.78D-07

 Cycle  10  Pass 1  IDiag  3:
 E=-0.107172171629060     Delta-E=       -0.000000000003 Rises=F Damp=F
 DIIS: error= 2.97D-08 at cycle  10 NSaved=  10.
 NSaved=10 IEnMin=10 EnMin=-0.107172171629060     IErMin=10 ErrMin= 2.97D-08
 ErrMax= 2.97D-08  0.00D+00 EMaxC= 1.00D-01 BMatC= 2.84D-14 BMatP= 3.15D-13
 IDIUse=1 WtCom= 1.00D+00 WtEn= 0.00D+00
 Coeff-Com: -0.787D-04 0.308D-03-0.812D-03 0.210D-02-0.549D-02 0.201D-01
 Coeff-Com: -0.883D-01 0.318D+00-0.891D+00 0.165D+01
 Coeff:     -0.787D-04 0.308D-03-0.812D-03 0.210D-02-0.549D-02 0.201D-01
 Coeff:     -0.883D-01 0.318D+00-0.891D+00 0.165D+01
 Gap=     0.519 Goal=   None    Shift=    0.000
 RMSDP=2.45D-08 MaxDP=2.77D-07 DE=-2.67D-12 OVMax= 2.61D-07

 Cycle  11  Pass 1  IDiag  3:
 E=-0.107172171629088     Delta-E=       -0.000000000000 Rises=F Damp=F
 DIIS: error= 4.21D-09 at cycle  11 NSaved=  11.
 NSaved=11 IEnMin=11 EnMin=-0.107172171629088     IErMin=11 ErrMin= 4.21D-09
 ErrMax= 4.21D-09  0.00D+00 EMaxC= 1.00D-01 BMatC= 1.01D-15 BMatP= 2.84D-14
 IDIUse=1 WtCom= 1.00D+00 WtEn= 0.00D+00
 Coeff-Com:  0.829D-05-0.322D-04 0.870D-04-0.244D-03 0.732D-03-0.317D-02
 Coeff-Com:  0.158D-01-0.642D-01 0.220D+00-0.579D+00 0.141D+01
 Coeff:      0.829D-05-0.322D-04 0.870D-04-0.244D-03 0.732D-03-0.317D-02
 Coeff:      0.158D-01-0.642D-01 0.220D+00-0.579D+00 0.141D+01
 Gap=     0.519 Goal=   None    Shift=    0.000
 RMSDP=4.04D-09 MaxDP=4.40D-08 DE=-2.84D-14 OVMax= 4.08D-08

 Cycle  12  Pass 2  IDiag  1:
 SCF Done:  E(RPM3) = -0.107172171629     A.U. after   12 cycles
            NFock= 11  Conv=0.40D-08     -V/T= 0.9982
 KE=-5.962661788187D+01 PE=-2.538280039612D+02 EE= 1.437007998198D+02
 Leave Link  502 at Wed Sep  7 15:33:41 2022, MaxMem=   131072000 cpu:               0.0 elap:               0.0
 (Enter /opt/g16/l701.exe)
 ... and contract with generalized density number  0.
 Compute integral first derivatives.
 Leave Link  701 at Wed Sep  7 15:33:41 2022, MaxMem=   131072000 cpu:               0.0 elap:               0.0
 (Enter /opt/g16/l702.exe)
 L702 exits ... SP integral derivatives will be done elsewhere.
 Leave Link  702 at Wed Sep  7 15:33:41 2022, MaxMem=   131072000 cpu:               0.0 elap:               0.0
 (Enter /opt/g16/l703.exe)
 Integral derivatives from FoFJK, PRISM(SPDF).
 Compute integral first derivatives, UseDBF=F ICtDFT=           0.
 Calling FoFJK, ICntrl=      2127 FMM=F ISym2X=0 I1Cent= 0 IOpClX= 0 NMat=1 NMatS=1 NMatT=0.
 FoFJK:  IHMeth= 9 ICntrl=    2127 DoSepK=F KAlg= 0 I1Cent=           0 FoldK=F
 IRaf=         0 NMat=       1 IRICut=       1 DoRegI=T DoRafI=F ISym2E= 0 IDoP0=3 IntGTp=3.
 FoFCou: FMM=F IPFlag=           0 FMFlag=      100000 FMFlg1=         800
         NFxFlg=           0 DoJE=F BraDBF=F KetDBF=F FulRan=T
         wScrn=  0.000000 ICntrl=      2127 IOpCl=  0 I1Cent=           0 NGrid=           0
         NMat0=    1 NMatS0=      1 NMatT0=    0 NMatD0=    1 NMtDS0=    0 NMtDT0=    0
 Symmetry not used in FoFCou.
 Leave Link  703 at Wed Sep  7 15:33:41 2022, MaxMem=   131072000 cpu:               0.0 elap:               0.0
 (Enter /opt/g16/l716.exe)
 Dipole        = 3.49356657D-01-2.13148159D-01 4.24870107D-01
 ***** Axes restored to original set *****
 -------------------------------------------------------------------
 Center     Atomic                   Forces (Hartrees/Bohr)
 Number     Number              X              Y              Z
 -------------------------------------------------------------------
      1        6           0.010966959   -0.012944244   -0.001222154
      2        1          -0.002264629   -0.002951213   -0.001331008
      3        1          -0.003061644    0.002510649    0.005795442
      4        1          -0.002755141    0.002909087   -0.002831799
      5        6           0.005516569    0.018977388    0.005272388
      6        1          -0.004963648    0.001018353   -0.003375196
      7        1           0.005871101    0.007076634   -0.002815608
      8        6          -0.018984157   -0.015929708   -0.011948413
      9        1          -0.006216968   -0.004354157    0.005337152
     10        8           0.002825199    0.000954155    0.006891869
     11        6           0.011246004   -0.003228692   -0.007746871
     12        1           0.003874860    0.001369562   -0.001282378
     13        1          -0.010234236   -0.002853098   -0.002656287
     14        1           0.002335973   -0.000918070    0.001547764
     15        6           0.032040982    0.008601885    0.021524780
     16        1          -0.004489547    0.000806310   -0.000589721
     17        1          -0.003954342   -0.004277595   -0.009113113
     18        1          -0.017753335    0.003232756   -0.001456845
 -------------------------------------------------------------------
 Cartesian Forces:  Max     0.032040982 RMS     0.008818632
 Leave Link  716 at Wed Sep  7 15:33:41 2022, MaxMem=   131072000 cpu:               0.0 elap:               0.0
 (Enter /opt/g16/l103.exe)

 GradGradGradGradGradGradGradGradGradGradGradGradGradGradGradGradGradGrad
 Berny optimization.
 Using GEDIIS/GDIIS optimizer.
 FormGI is forming the generalized inverse of G from B-inverse, IUseBI=4.
 Internal  Forces:  Max     0.016572337 RMS     0.005055051
 Search for a local minimum.
 Step number   2 out of a maximum of   97
 All quantities printed in internal units (Hartrees-Bohrs-Radians)
 RMS Force = .50551D-02 SwitMx=.10000D-02 MixMth= 1
 Mixed Optimization -- RFO/linear search
 Update second derivatives using D2CorX and points    1    2
 DE= -2.73D-02 DEPred=-3.05D-02 R= 8.94D-01
 TightC=F SS=  1.41D+00  RLast= 3.26D-01 DXNew= 5.0454D-01 9.7665D-01
 Trust test= 8.94D-01 RLast= 3.26D-01 DXMaxT set to 5.05D-01
 ITU=  1  0
 Use linear search instead of GDIIS.
     Eigenvalues ---    0.00230   0.00416   0.01330   0.01431   0.01636
     Eigenvalues ---    0.03390   0.03843   0.04847   0.05146   0.05213
     Eigenvalues ---    0.05284   0.05343   0.05598   0.05977   0.06364
     Eigenvalues ---    0.07893   0.08959   0.09141   0.12649   0.12712
     Eigenvalues ---    0.14943   0.16000   0.16000   0.16000   0.16000
     Eigenvalues ---    0.16000   0.16073   0.17706   0.19868   0.21642
     Eigenvalues ---    0.22255   0.25896   0.27478   0.29694   0.30032
     Eigenvalues ---    0.30658   0.32320   0.33814   0.33987   0.34905
     Eigenvalues ---    0.35215   0.35612   0.35738   0.36423   0.38746
     Eigenvalues ---    0.41552   0.54023   0.56396
 RFO step:  Lambda=-1.28943920D-02 EMin= 2.30051283D-03
 Quartic linear search produced a step of  0.51414.
 Iteration  1 RMS(Cart)=  0.07225474 RMS(Int)=  0.00549643
 Iteration  2 RMS(Cart)=  0.00633080 RMS(Int)=  0.00218933
 Iteration  3 RMS(Cart)=  0.00003467 RMS(Int)=  0.00218915
 Iteration  4 RMS(Cart)=  0.00000029 RMS(Int)=  0.00218915
 ITry= 1 IFail=0 DXMaxC= 2.13D-01 DCOld= 1.00D+10 DXMaxT= 5.05D-01 DXLimC= 3.00D+00 Rises=F
 Variable       Old X    -DE/DX   Delta X   Delta X   Delta X     New X
                                 (Linear)    (Quad)   (Total)
    R1        2.07937  -0.00372  -0.01194  -0.00408  -0.01602   2.06335
    R2        2.07103   0.00231   0.00664   0.00261   0.00924   2.08028
    R3        2.06063   0.00396   0.00794   0.00773   0.01567   2.07630
    R4        2.87647  -0.00470  -0.00415  -0.01824  -0.02239   2.85408
    R5        2.11184  -0.00603  -0.01061  -0.01704  -0.02765   2.08419
    R6        2.07414   0.00764   0.02114   0.00822   0.02936   2.10350
    R7        2.84711   0.01560   0.07031  -0.01691   0.05340   2.90051
    R8        2.09252   0.00852   0.02458   0.00879   0.03337   2.12589
    R9        2.70366  -0.00822   0.01067  -0.03902  -0.02836   2.67530
   R10        2.87863   0.00598   0.06401  -0.04325   0.02076   2.89939
   R11        1.79629  -0.00398  -0.00486  -0.00530  -0.01016   1.78614
   R12        2.11472  -0.00699  -0.01539  -0.01714  -0.03253   2.08219
   R13        2.09558   0.00281   0.00983   0.00170   0.01153   2.10711
   R14        2.91026  -0.01400  -0.01157  -0.06043  -0.07200   2.83826
   R15        2.05104   0.00267  -0.00081   0.01172   0.01091   2.06195
   R16        2.06882  -0.00026  -0.00244   0.00143  -0.00100   2.06782
   R17        2.12829  -0.01657  -0.04488  -0.04094  -0.08582   2.04246
    A1        1.90832  -0.00444  -0.01184  -0.01862  -0.03097   1.87735
    A2        1.90576  -0.00086  -0.00632  -0.02494  -0.03265   1.87311
    A3        1.93842   0.00001  -0.00473  -0.00604  -0.01178   1.92664
    A4        1.86608  -0.00171  -0.00093   0.00803   0.00676   1.87284
    A5        1.86640   0.00990   0.03438   0.06315   0.09708   1.96348
    A6        1.97625  -0.00292  -0.00929  -0.01957  -0.02977   1.94648
    A7        1.90797   0.00304  -0.00330   0.00482  -0.00007   1.90789
    A8        1.87953   0.00332   0.00404   0.03584   0.04110   1.92063
    A9        2.01286  -0.01021  -0.01809  -0.04380  -0.06217   1.95069
   A10        1.87734  -0.00327  -0.01138  -0.01897  -0.03035   1.84698
   A11        1.91502   0.00212   0.00678  -0.01621  -0.01094   1.90408
   A12        1.86594   0.00533   0.02261   0.04106   0.06456   1.93050
   A13        1.89945   0.00191   0.00229   0.01744   0.02152   1.92098
   A14        1.95163  -0.00013  -0.01012  -0.01557  -0.02695   1.92468
   A15        1.99173  -0.00869  -0.01682  -0.05479  -0.07190   1.91983
   A16        1.89427  -0.00128  -0.00596   0.01391   0.00694   1.90121
   A17        1.83728   0.00476   0.01392   0.05553   0.06978   1.90707
   A18        1.88408   0.00393   0.01850  -0.00951   0.00556   1.88964
   A19        1.84709  -0.00098   0.00765  -0.01669  -0.00904   1.83805
   A20        1.97870  -0.00223  -0.01548  -0.04148  -0.05991   1.91879
   A21        1.84493   0.00204   0.01304   0.04198   0.05508   1.90001
   A22        1.98741   0.00022   0.02458  -0.03651  -0.01515   1.97226
   A23        1.78510   0.00186   0.00633   0.04196   0.05033   1.83544
   A24        1.97243  -0.00171  -0.02052  -0.02627  -0.05043   1.92200
   A25        1.87512   0.00052  -0.00637   0.04226   0.03506   1.91019
   A26        2.00565  -0.00639  -0.01902  -0.04613  -0.06251   1.94314
   A27        1.84194   0.01396   0.05152   0.06167   0.10795   1.94989
   A28        1.83597   0.01115   0.03514   0.07178   0.10151   1.93748
   A29        1.98520  -0.00777  -0.02511  -0.06481  -0.08745   1.89775
   A30        1.89531  -0.00344  -0.01506  -0.01025  -0.02288   1.87242
   A31        1.89132  -0.00610  -0.01967   0.00050  -0.03184   1.85948
    D1        0.99932   0.00192   0.00597   0.03561   0.04111   1.04042
    D2       -1.03538   0.00235   0.01901   0.03578   0.05447  -0.98091
    D3       -3.11682  -0.00039  -0.00158  -0.01473  -0.01623  -3.13304
    D4       -1.08154   0.00124   0.00213   0.02294   0.02479  -1.05676
    D5       -3.11624   0.00167   0.01516   0.02311   0.03815  -3.07809
    D6        1.08551  -0.00107  -0.00542  -0.02740  -0.03255   1.05296
    D7       -3.13231  -0.00137  -0.01347  -0.01639  -0.02982   3.12105
    D8        1.11618  -0.00094  -0.00043  -0.01623  -0.01646   1.09972
    D9       -0.96526  -0.00368  -0.02102  -0.06674  -0.08715  -1.05241
   D10       -0.79142   0.00187   0.01352   0.03524   0.04837  -0.74305
   D11        1.30100   0.00145   0.00115   0.05432   0.05397   1.35497
   D12       -2.83743  -0.00006   0.00468  -0.01271  -0.00783  -2.84525
   D13        1.37193  -0.00000   0.00086  -0.00437  -0.00304   1.36889
   D14       -2.81883  -0.00042  -0.01151   0.01471   0.00255  -2.81628
   D15       -0.67407  -0.00193  -0.00798  -0.05232  -0.05925  -0.73332
   D16       -2.88035   0.00017   0.00286  -0.01254  -0.00923  -2.88958
   D17       -0.78793  -0.00026  -0.00951   0.00654  -0.00363  -0.79156
   D18        1.35683  -0.00177  -0.00598  -0.06049  -0.06543   1.29140
   D19       -1.37278  -0.00238   0.00303   0.00449   0.00700  -1.36577
   D20        0.72269  -0.00093  -0.00461   0.02565   0.02142   0.74411
   D21        2.70562   0.00598   0.01784   0.09261   0.11060   2.81621
   D22       -0.72587  -0.00154  -0.00947  -0.05202  -0.06091  -0.78678
   D23        1.21554   0.00079  -0.00143   0.00232  -0.00033   1.21522
   D24       -3.01340   0.00287   0.01135   0.06115   0.07157  -2.94183
   D25       -2.80737  -0.00216  -0.01241  -0.07961  -0.08999  -2.89736
   D26       -0.86596   0.00018  -0.00436  -0.02527  -0.02941  -0.89536
   D27        1.18829   0.00225   0.00842   0.03356   0.04249   1.23077
   D28        1.45523  -0.00484  -0.02001  -0.11850  -0.13779   1.31744
   D29       -2.88655  -0.00250  -0.01196  -0.06415  -0.07720  -2.96375
   D30       -0.83230  -0.00042   0.00082  -0.00533  -0.00531  -0.83761
   D31        1.28488  -0.00379  -0.01625  -0.09592  -0.11165   1.17323
   D32       -0.91688  -0.00020  -0.01162  -0.02831  -0.03542  -0.95230
   D33       -2.91491  -0.00407  -0.02095  -0.08587  -0.11029  -3.02519
   D34       -1.00572   0.00087   0.00210   0.02427   0.02568  -0.98004
   D35        3.07570   0.00446   0.00673   0.09188   0.10191  -3.10558
   D36        1.07768   0.00058  -0.00260   0.03432   0.02704   1.10472
   D37       -2.96154  -0.00080   0.00925  -0.03743  -0.02801  -2.98955
   D38        1.11988   0.00279   0.01388   0.03019   0.04823   1.16810
   D39       -0.87815  -0.00109   0.00455  -0.02737  -0.02664  -0.90479
         Item               Value     Threshold  Converged?
 Maximum Force            0.016572     0.000450     NO 
 RMS     Force            0.005055     0.000300     NO 
 Maximum Displacement     0.213054     0.001800     NO 
 RMS     Displacement     0.072339     0.001200     NO 
 Predicted change in Energy=-8.379404D-03
 Lowest energy point so far.  Saving SCF results.
 GradGradGradGradGradGradGradGradGradGradGradGradGradGradGradGradGradGrad

[...]
 ! A11   A(6,5,8)              109.3411         -DE/DX =    0.0                 !
 ! A12   A(7,5,8)              109.8348         -DE/DX =    0.0                 !
 ! A13   A(5,8,9)              109.3419         -DE/DX =    0.0                 !
 ! A14   A(5,8,10)             111.9575         -DE/DX =    0.0                 !
 ! A15   A(5,8,11)             110.4985         -DE/DX =    0.0                 !
 ! A16   A(9,8,10)             107.8113         -DE/DX =    0.0                 !
 ! A17   A(9,8,11)             109.7795         -DE/DX =    0.0                 !
 ! A18   A(10,8,11)            107.3885         -DE/DX =    0.0                 !
 ! A19   A(8,10,12)            106.0243         -DE/DX =    0.0                 !
 ! A20   A(8,11,13)            110.0605         -DE/DX =    0.0                 !
 ! A21   A(8,11,14)            108.8716         -DE/DX =    0.0                 !
 ! A22   A(8,11,15)            112.2194         -DE/DX =    0.0                 !
 ! A23   A(13,11,14)           105.7668         -DE/DX =    0.0                 !
 ! A24   A(13,11,15)           110.0454         -DE/DX =    0.0                 !
 ! A25   A(14,11,15)           109.6655         -DE/DX =    0.0                 !
 ! A26   A(11,15,16)           111.7259         -DE/DX =    0.0                 !
 ! A27   A(11,15,17)           111.7213         -DE/DX =    0.0                 !
 ! A28   A(11,15,18)           111.066          -DE/DX =    0.0                 !
 ! A29   A(16,15,17)           107.3045         -DE/DX =    0.0                 !
 ! A30   A(16,15,18)           107.4001         -DE/DX =    0.0                 !
 ! A31   A(17,15,18)           107.3861         -DE/DX =    0.0                 !
 ! D1    D(2,1,5,6)             66.0873         -DE/DX =    0.0                 !
 ! D2    D(2,1,5,7)            -50.1673         -DE/DX =    0.0                 !
 ! D3    D(2,1,5,8)           -172.4176         -DE/DX =    0.0                 !
 ! D4    D(3,1,5,6)            -54.3615         -DE/DX =    0.0                 !
 ! D5    D(3,1,5,7)           -170.6161         -DE/DX =    0.0                 !
 ! D6    D(3,1,5,8)             67.1336         -DE/DX =    0.0                 !
 ! D7    D(4,1,5,6)           -173.979          -DE/DX =    0.0                 !
 ! D8    D(4,1,5,7)             69.7664         -DE/DX =    0.0                 !
 ! D9    D(4,1,5,8)            -52.4839         -DE/DX =    0.0                 !
 ! D10   D(1,5,8,9)            -56.5449         -DE/DX =    0.0                 !
 ! D11   D(1,5,8,10)            62.8647         -DE/DX =    0.0                 !
 ! D12   D(1,5,8,11)          -177.4834         -DE/DX =    0.0                 !
 ! D13   D(6,5,8,9)             65.3389         -DE/DX =    0.0                 !
 ! D14   D(6,5,8,10)          -175.2514         -DE/DX =    0.0                 !
 ! D15   D(6,5,8,11)           -55.5995         -DE/DX =    0.0                 !
 ! D16   D(7,5,8,9)           -179.0039         -DE/DX =    0.0                 !
 ! D17   D(7,5,8,10)           -59.5943         -DE/DX =    0.0                 !
 ! D18   D(7,5,8,11)            60.0576         -DE/DX =    0.0                 !
 ! D19   D(5,8,10,12)          -42.8339         -DE/DX =    0.0                 !
 ! D20   D(9,8,10,12)           77.4719         -DE/DX =    0.0                 !
 ! D21   D(11,8,10,12)        -164.2942         -DE/DX =    0.0                 !
 ! D22   D(5,8,11,13)          -71.7694         -DE/DX =    0.0                 !
 ! D23   D(5,8,11,14)           43.7316         -DE/DX =    0.0                 !
 ! D24   D(5,8,11,15)          165.3193         -DE/DX =    0.0                 !
 ! D25   D(9,8,11,13)          167.5529         -DE/DX =    0.0                 !
 ! D26   D(9,8,11,14)          -76.9461         -DE/DX =    0.0                 !
 ! D27   D(9,8,11,15)           44.6416         -DE/DX =    0.0                 !
 ! D28   D(10,8,11,13)          50.6008         -DE/DX =    0.0                 !
 ! D29   D(10,8,11,14)         166.1018         -DE/DX =    0.0                 !
 ! D30   D(10,8,11,15)         -72.3105         -DE/DX =    0.0                 !
 ! D31   D(8,11,15,16)          60.9967         -DE/DX =    0.0                 !
 ! D32   D(8,11,15,17)         -59.2292         -DE/DX =    0.0                 !
 ! D33   D(8,11,15,18)        -179.1058         -DE/DX =    0.0                 !
 ! D34   D(13,11,15,16)        -61.9231         -DE/DX =    0.0                 !
 ! D35   D(13,11,15,17)        177.851          -DE/DX =    0.0                 !
 ! D36   D(13,11,15,18)         57.9744         -DE/DX =    0.0                 !
 ! D37   D(14,11,15,16)       -177.871          -DE/DX =    0.0                 !
 ! D38   D(14,11,15,17)         61.9031         -DE/DX =    0.0                 !
 ! D39   D(14,11,15,18)        -57.9735         -DE/DX =    0.0                 !
 --------------------------------------------------------------------------------
 Lowest energy point so far.  Saving SCF results.
 Largest change from initial coordinates is atom   13       0.399 Angstoms.
 GradGradGradGradGradGradGradGradGradGradGradGradGradGradGradGradGradGrad

 Leave Link  103 at Wed Sep  7 15:33:49 2022, MaxMem=   131072000 cpu:               0.0 elap:               0.0
 (Enter /opt/g16/l202.exe)
                          Input orientation:                          
 ---------------------------------------------------------------------
 Center     Atomic      Atomic             Coordinates (Angstroms)
 Number     Number       Type             X           Y           Z
 ---------------------------------------------------------------------
      1          6           0        4.993353    6.684493   15.305357
      2          1           0        5.247932    7.600420   15.852082
      3          1           0        4.684958    5.933121   16.044200
      4          1           0        4.113467    6.905083   14.678247
      5          6           0        6.152099    6.200306   14.462248
      6          1           0        6.988079    5.881544   15.114475
      7          1           0        6.550380    7.030958   13.846126
      8          6           0        5.738338    5.027869   13.553884
      9          1           0        5.320897    4.201570   14.182347
     10          8           0        4.742463    5.407304   12.619352
     11          6           0        6.945023    4.514531   12.755465
     12          1           0        4.119249    5.941997   13.101814
     13          1           0        7.223164    5.248458   11.972941
     14          1           0        7.820724    4.448928   13.431757
     15          6           0        6.683376    3.163419   12.129277
     16          1           0        5.843963    3.198711   11.422663
     17          1           0        6.441889    2.404665   12.885823
     18          1           0        7.562647    2.807623   11.576940
 ---------------------------------------------------------------------
                    Distance matrix (angstroms):
                    1          2          3          4          5
     1  C    0.000000
     2  H    1.096650   0.000000
     3  H    1.097977   1.770236   0.000000
     4  H    1.102781   1.774371   1.771197   0.000000
     5  C    1.512601   2.170132   2.174043   2.167807   0.000000
     6  H    2.158725   2.554743   2.484233   3.082421   1.107191
     7  H    2.161880   2.458560   3.084894   2.578142   1.108249
     8  C    2.523304   3.484283   2.851449   2.725496   1.539784
     9  H    2.744693   3.787548   2.620912   3.002130   2.182702
    10  O    2.984758   3.939009   3.465454   2.622599   2.451977
    11  C    3.875526   4.689549   4.235100   4.174870   2.526594
    12  H    2.484142   3.404154   2.996287   1.847352   2.459672
    13  H    4.259020   4.947828   4.846277   4.442218   2.872255
    14  H    4.062284   4.733828   4.342892   4.618462   2.629362
    15  C    5.034046   5.967139   5.195338   5.205932   3.866225
    16  H    5.286731   6.272961   5.493532   5.227871   4.282943
    17  H    5.125361   6.100828   5.050956   5.374765   4.120193
    18  H    5.960913   6.826833   6.164921   6.189033   4.671718
                    6          7          8          9         10
     6  H    0.000000
     7  H    1.766760   0.000000
     8  C    2.173950   2.181097   0.000000
     9  H    2.543752   3.103242   1.118924   0.000000
    10  O    3.390182   2.722093   1.417423   2.057020   0.000000
    11  C    2.726813   2.770865   1.535278   2.184428   2.380513
    12  H    3.504946   2.765906   1.913490   2.374993   0.952398
    13  H    3.213301   2.671847   2.180080   3.097752   2.568454
    14  H    2.361615   2.907293   2.164814   2.621776   3.324782
    15  C    4.048760   4.233570   2.529580   2.673799   3.007048
    16  H    4.704899   4.588934   2.810530   2.982479   2.742855
    17  H    4.165802   4.726155   2.796871   2.483237   3.460476
    18  H    4.721576   4.900046   3.487966   3.709000   3.974721
                   11         12         13         14         15
    11  C    0.000000
    12  H    3.184747   0.000000
    13  H    1.108311   3.374854   0.000000
    14  H    1.108390   4.004876   1.767617   0.000000
    15  C    1.511977   3.903981   2.159444   2.154657   0.000000
    16  H    2.172573   3.649631   2.531099   3.083356   1.097799
    17  H    2.172941   4.237219   3.087216   2.525518   1.098355
    18  H    2.164235   4.899646   2.495944   2.490147   1.097628
                   16         17         18
    16  H    0.000000
    17  H    1.768858   0.000000
    18  H    1.769358   1.769647   0.000000
 Stoichiometry    C5H12O
 Framework group  C1[X(C5H12O)]
 Deg. of freedom    48
 Full point group                 C1      NOp   1
 RotChk:  IX=0 Diff= 1.42D-15
 Largest Abelian subgroup         C1      NOp   1
 Largest concise Abelian subgroup C1      NOp   1
                         Standard orientation:                         
 ---------------------------------------------------------------------
 Center     Atomic      Atomic             Coordinates (Angstroms)
 Number     Number       Type             X           Y           Z
 ---------------------------------------------------------------------
      1          6           0        2.500432   -0.112849    0.305190
      2          1           0        3.394966   -0.590688   -0.112087
      3          1           0        2.551255   -0.212358    1.397467
      4          1           0        2.559318    0.963604    0.073010
      5          6           0        1.233425   -0.719683   -0.255532
      6          1           0        1.137279   -1.771191    0.077572
      7          1           0        1.284398   -0.757514   -1.361962
      8          6           0       -0.013264    0.070309    0.183342
      9          1           0       -0.046836    0.118911    1.300707
     10          8           0        0.001481    1.399688   -0.308209
     11          6           0       -1.288732   -0.600502   -0.346068
     12          1           0        0.891815    1.715170   -0.186399
     13          1           0       -1.368900   -0.453500   -1.441658
     14          1           0       -1.207416   -1.695431   -0.194260
     15          6           0       -2.533414   -0.082916    0.338729
     16          1           0       -2.667408    0.994739    0.177893
     17          1           0       -2.499495   -0.249562    1.423838
     18          1           0       -3.431510   -0.585843   -0.042420
 ---------------------------------------------------------------------
 Rotational constants (GHZ):           7.1085995           1.9153190           1.6724421
 Leave Link  202 at Wed Sep  7 15:33:49 2022, MaxMem=   131072000 cpu:               0.0 elap:               0.0
 (Enter /opt/g16/l601.exe)
 Copying SCF densities to generalized density rwf, IOpCl= 0 IROHF=0.

 **********************************************************************

            Population analysis using the SCF density.

 **********************************************************************

 Orbital symmetries:
       Occupied  (A) (A) (A) (A) (A) (A) (A) (A) (A) (A) (A) (A)
                 (A) (A) (A) (A) (A) (A) (A)
       Virtual   (A) (A) (A) (A) (A) (A) (A) (A) (A) (A) (A) (A)
                 (A) (A) (A) (A) (A)
 The electronic state is 1-A.
 Alpha  occ. eigenvalues --   -1.48625  -1.24038  -1.21329  -0.95407  -0.79118
 Alpha  occ. eigenvalues --   -0.76032  -0.65828  -0.61756  -0.56449  -0.55601
 Alpha  occ. eigenvalues --   -0.53680  -0.51710  -0.49721  -0.48172  -0.47036
 Alpha  occ. eigenvalues --   -0.44414  -0.43792  -0.42903  -0.40140
 Alpha virt. eigenvalues --    0.11495   0.12631   0.12926   0.13655   0.13780
 Alpha virt. eigenvalues --    0.14522   0.14728   0.15174   0.15567   0.15889
 Alpha virt. eigenvalues --    0.16802   0.17077   0.17338   0.18400   0.18570
 Alpha virt. eigenvalues --    0.18885   0.21164
          Condensed to atoms (all electrons):
               1          2          3          4          5          6
     1  C    4.110463   0.000000   0.000000   0.000000   0.000000   0.000000
     2  H    0.000000   0.955443   0.000000   0.000000   0.000000   0.000000
     3  H    0.000000   0.000000   0.958847   0.000000   0.000000   0.000000
     4  H    0.000000   0.000000   0.000000   0.966415   0.000000   0.000000
     5  C    0.000000   0.000000   0.000000   0.000000   4.145559   0.000000
     6  H    0.000000   0.000000   0.000000   0.000000   0.000000   0.939321
     7  H    0.000000   0.000000   0.000000   0.000000   0.000000   0.000000
     8  C    0.000000   0.000000   0.000000   0.000000   0.000000   0.000000
     9  H    0.000000   0.000000   0.000000   0.000000   0.000000   0.000000
    10  O    0.000000   0.000000   0.000000   0.000000   0.000000   0.000000
    11  C    0.000000   0.000000   0.000000   0.000000   0.000000   0.000000
    12  H    0.000000   0.000000   0.000000   0.000000   0.000000   0.000000
    13  H    0.000000   0.000000   0.000000   0.000000   0.000000   0.000000
    14  H    0.000000   0.000000   0.000000   0.000000   0.000000   0.000000
    15  C    0.000000   0.000000   0.000000   0.000000   0.000000   0.000000
    16  H    0.000000   0.000000   0.000000   0.000000   0.000000   0.000000
    17  H    0.000000   0.000000   0.000000   0.000000   0.000000   0.000000
    18  H    0.000000   0.000000   0.000000   0.000000   0.000000   0.000000
               7          8          9         10         11         12
     1  C    0.000000   0.000000   0.000000   0.000000   0.000000   0.000000
     2  H    0.000000   0.000000   0.000000   0.000000   0.000000   0.000000
     3  H    0.000000   0.000000   0.000000   0.000000   0.000000   0.000000
     4  H    0.000000   0.000000   0.000000   0.000000   0.000000   0.000000
     5  C    0.000000   0.000000   0.000000   0.000000   0.000000   0.000000
     6  H    0.000000   0.000000   0.000000   0.000000   0.000000   0.000000
     7  H    0.937689   0.000000   0.000000   0.000000   0.000000   0.000000
     8  C    0.000000   3.922985   0.000000   0.000000   0.000000   0.000000
     9  H    0.000000   0.000000   0.954962   0.000000   0.000000   0.000000
    10  O    0.000000   0.000000   0.000000   6.317142   0.000000   0.000000
    11  C    0.000000   0.000000   0.000000   0.000000   4.105384   0.000000
    12  H    0.000000   0.000000   0.000000   0.000000   0.000000   0.808880
    13  H    0.000000   0.000000   0.000000   0.000000   0.000000   0.000000
    14  H    0.000000   0.000000   0.000000   0.000000   0.000000   0.000000
    15  C    0.000000   0.000000   0.000000   0.000000   0.000000   0.000000
    16  H    0.000000   0.000000   0.000000   0.000000   0.000000   0.000000
    17  H    0.000000   0.000000   0.000000   0.000000   0.000000   0.000000
    18  H    0.000000   0.000000   0.000000   0.000000   0.000000   0.000000
              13         14         15         16         17         18
     1  C    0.000000   0.000000   0.000000   0.000000   0.000000   0.000000
     2  H    0.000000   0.000000   0.000000   0.000000   0.000000   0.000000
     3  H    0.000000   0.000000   0.000000   0.000000   0.000000   0.000000
     4  H    0.000000   0.000000   0.000000   0.000000   0.000000   0.000000
     5  C    0.000000   0.000000   0.000000   0.000000   0.000000   0.000000
     6  H    0.000000   0.000000   0.000000   0.000000   0.000000   0.000000
     7  H    0.000000   0.000000   0.000000   0.000000   0.000000   0.000000
     8  C    0.000000   0.000000   0.000000   0.000000   0.000000   0.000000
     9  H    0.000000   0.000000   0.000000   0.000000   0.000000   0.000000
    10  O    0.000000   0.000000   0.000000   0.000000   0.000000   0.000000
    11  C    0.000000   0.000000   0.000000   0.000000   0.000000   0.000000
    12  H    0.000000   0.000000   0.000000   0.000000   0.000000   0.000000
    13  H    0.938752   0.000000   0.000000   0.000000   0.000000   0.000000
    14  H    0.000000   0.951477   0.000000   0.000000   0.000000   0.000000
    15  C    0.000000   0.000000   4.106980   0.000000   0.000000   0.000000
    16  H    0.000000   0.000000   0.000000   0.949130   0.000000   0.000000
    17  H    0.000000   0.000000   0.000000   0.000000   0.965529   0.000000
    18  H    0.000000   0.000000   0.000000   0.000000   0.000000   0.965041
 Mulliken charges:
               1
     1  C   -0.110463
     2  H    0.044557
     3  H    0.041153
     4  H    0.033585
     5  C   -0.145559
     6  H    0.060679
     7  H    0.062311
     8  C    0.077015
     9  H    0.045038
    10  O   -0.317142
    11  C   -0.105384
    12  H    0.191120
    13  H    0.061248
    14  H    0.048523
    15  C   -0.106980
    16  H    0.050870
    17  H    0.034471
    18  H    0.034959
 Sum of Mulliken charges =  -0.00000
 Mulliken charges with hydrogens summed into heavy atoms:
               1
     1  C    0.008832
     5  C   -0.022570
     8  C    0.122053
    10  O   -0.126022
    11  C    0.004387
    15  C    0.013320
 Charge=             -0.0000 electrons
 Dipole moment (field-independent basis, Debye):
    X=              1.2453    Y=             -0.8612    Z=              0.5076  Tot=              1.5969
 N-N= 1.700402132885D+02 E-N=-2.545135257744D+02  KE=-5.968716275525D+01
 Leave Link  601 at Wed Sep  7 15:33:49 2022, MaxMem=   131072000 cpu:               0.0 elap:               0.0
 (Enter /opt/g16/l9999.exe)
 1\1\GINC-TOTEM2\FOpt\RPM3\ZDO\C5H12O1\JRAMOS\07-Sep-2022\0\\#p opt pm3
 \\Conformer number 007. Energy MM = 0.000 kcal/mol\\0,1\C,4.993353011,
 6.6844926546,15.3053574291\H,5.2479319082,7.6004201636,15.8520816332\H
 ,4.6849579567,5.9331212751,16.0441996652\H,4.1134672165,6.9050833951,1
 4.6782470434\C,6.1520992199,6.2003064692,14.4622482449\H,6.9880790388,
 5.8815442255,15.1144754044\H,6.5503801955,7.0309579818,13.8461264289\C
 ,5.7383375807,5.0278687276,13.5538843251\H,5.3208965229,4.2015701159,1
 4.1823471893\O,4.7424631543,5.407304131,12.619352365\C,6.9450229512,4.
 5145308968,12.755464664\H,4.1192490338,5.9419966037,13.1018144056\H,7.
 2231639336,5.2484577049,11.9729410443\H,7.8207238417,4.4489279044,13.4
 317571871\C,6.6833755432,3.163418721,12.1292774243\H,5.8439630273,3.19
 87108574,11.4226632472\H,6.441888504,2.4046649235,12.8858225474\H,7.56
 26473609,2.807623249,11.5769397514\\Version=ES64L-G16RevA.03\State=1-A
 \HF=-0.1176668\RMSD=5.732e-09\RMSF=6.090e-06\Dipole=0.0586142,0.192777
 1,0.5950842\PG=C01 [X(C5H12O1)]\\@


 The impersonal hand of government can
 never replace the helping hand of a neighbor.
                        -- Hubert H. Humphrey
 Job cpu time:       0 days  0 hours  0 minutes  8.9 seconds.
 Elapsed time:       0 days  0 hours  0 minutes  7.1 seconds.
 File lengths (MBytes):  RWF=      6 Int=      0 D2E=      0 Chk=      2 Scr=      1
 Normal termination of Gaussian 16 at Wed Sep  7 15:33:49 2022.
