 Entering Gaussian System, Link 0=/opt/g16/g16
 Input=MD_extract_004_gaussian.com
 Output=MD_extract_004_gaussian.log
 Initial command:
 /opt/g16/l1.exe "/tmp/Gau-316144.inp" -scrdir="/tmp/"
 Entering Link 1 = /opt/g16/l1.exe PID=    316146.
  
 Copyright (c) 1988,1990,1992,1993,1995,1998,2003,2009,2016,
            Gaussian, Inc.  All Rights Reserved.
  
 This is part of the Gaussian(R) 16 program.  It is based on
 the Gaussian(R) 09 system (copyright 2009, Gaussian, Inc.),
 the Gaussian(R) 03 system (copyright 2003, Gaussian, Inc.),
 the Gaussian(R) 98 system (copyright 1998, Gaussian, Inc.),
 the Gaussian(R) 94 system (copyright 1995, Gaussian, Inc.),
 the Gaussian 92(TM) system (copyright 1992, Gaussian, Inc.),
 the Gaussian 90(TM) system (copyright 1990, Gaussian, Inc.),
 the Gaussian 88(TM) system (copyright 1988, Gaussian, Inc.),
 the Gaussian 86(TM) system (copyright 1986, Carnegie Mellon
 University), and the Gaussian 82(TM) system (copyright 1983,
 Carnegie Mellon University). Gaussian is a federally registered
 trademark of Gaussian, Inc.
  
 This software contains proprietary and confidential information,
 including trade secrets, belonging to Gaussian, Inc.
  
 This software is provided under written license and may be
 used, copied, transmitted, or stored only in accord with that
 written license.
  
 The following legend is applicable only to US Government
 contracts under FAR:
  
                    RESTRICTED RIGHTS LEGEND
  
 Use, reproduction and disclosure by the US Government is
 subject to restrictions as set forth in subparagraphs (a)
 and (c) of the Commercial Computer Software - Restricted
 Rights clause in FAR 52.227-19.
  
 Gaussian, Inc.
 340 Quinnipiac St., Bldg. 40, Wallingford CT 06492
  
  
 ---------------------------------------------------------------
 Warning -- This program may not be used in any manner that
 competes with the business of Gaussian, Inc. or will provide
 assistance to any competitor of Gaussian, Inc.  The licensee
 of this program is prohibited from giving any competitor of
 Gaussian, Inc. access to this program.  By using this program,
 the user acknowledges that Gaussian, Inc. is engaged in the
 business of creating and licensing software in the field of
 computational chemistry and represents and warrants to the
 licensee that it is not a competitor of Gaussian, Inc. and that
 it will not use this program in any manner prohibited above.
 ---------------------------------------------------------------
  

 Cite this work as:
 Gaussian 16, Revision A.03,
 M. J. Frisch, G. W. Trucks, H. B. Schlegel, G. E. Scuseria, 
 M. A. Robb, J. R. Cheeseman, G. Scalmani, V. Barone, 
 G. A. Petersson, H. Nakatsuji, X. Li, M. Caricato, A. V. Marenich, 
 J. Bloino, B. G. Janesko, R. Gomperts, B. Mennucci, H. P. Hratchian, 
 J. V. Ortiz, A. F. Izmaylov, J. L. Sonnenberg, D. Williams-Young, 
 F. Ding, F. Lipparini, F. Egidi, J. Goings, B. Peng, A. Petrone, 
 T. Henderson, D. Ranasinghe, V. G. Zakrzewski, J. Gao, N. Rega, 
 G. Zheng, W. Liang, M. Hada, M. Ehara, K. Toyota, R. Fukuda, 
 J. Hasegawa, M. Ishida, T. Nakajima, Y. Honda, O. Kitao, H. Nakai, 
 T. Vreven, K. Throssell, J. A. Montgomery, Jr., J. E. Peralta, 
 F. Ogliaro, M. J. Bearpark, J. J. Heyd, E. N. Brothers, K. N. Kudin, 
 V. N. Staroverov, T. A. Keith, R. Kobayashi, J. Normand, 
 K. Raghavachari, A. P. Rendell, J. C. Burant, S. S. Iyengar, 
 J. Tomasi, M. Cossi, J. M. Millam, M. Klene, C. Adamo, R. Cammi, 
 J. W. Ochterski, R. L. Martin, K. Morokuma, O. Farkas, 
 J. B. Foresman, and D. J. Fox, Gaussian, Inc., Wallingford CT, 2016.
 
 ******************************************
 Gaussian 16:  ES64L-G16RevA.03 25-Dec-2016
                 7-Sep-2022 
 ******************************************
 %chk=MD_extract_004_gaussian.chk
 %nproc=1
 Will use up to    1 processors via shared memory.
 %mem=1000Mb
 ----------
 #p opt pm3
 ----------
 1/18=20,19=15,26=1,38=1/1,3;
 2/9=110,12=2,17=6,18=5,40=1/2;
 3/5=2,25=1,41=800000,71=1/1,2,3;
 4/35=1/1;
 5/5=2,35=1,38=5/2;
 6/7=2,8=2,9=2,10=2,28=1/1;
 7//1,2,3,16;
 1/18=20,19=15,26=1/3(2);
 2/9=110/2;
 99//99;
 2/9=110/2;
 3/5=2,25=1,41=800000,71=1,135=20/1,2,3;
 4/5=5,16=3,35=1/1;
 5/5=2,35=1,38=5/2;
 7//1,2,3,16;
 1/18=20,19=15,26=1/3(-5);
 2/9=110/2;
 6/7=2,8=2,9=2,10=2,19=2,28=1/1;
 99/9=1/99;
 Leave Link    1 at Wed Sep  7 15:33:30 2022, MaxMem=   131072000 cpu:               0.0 elap:               0.0
 (Enter /opt/g16/l101.exe)
 ------------------------------------------------
 Conformer number 004. Energy MM = 0.000 kcal/mol
 ------------------------------------------------
 Symbolic Z-matrix:
 Charge =  0 Multiplicity = 1
 C                    -1.232     15.615    3.771 
 H                    -1.845     14.715    3.524 
 H                    -1.286     16.266    2.893 
 H                    -1.818     16.262    4.493 
 C                     0.179     15.35     4.214 
 H                     0.163     14.711    5.105 
 H                     0.598     16.286    4.526 
 C                     0.952     14.784    3.128 
 H                     0.934     15.39     2.219 
 O                     2.325     14.736    3.57 
 C                     0.583     13.379    2.847 
 H                     2.888     14.769    2.772 
 H                     0.742     12.776    3.838 
 H                    -0.476     13.3      2.424 
 C                     1.586     12.632    1.974 
 H                     2.617     12.696    2.324 
 H                     1.607     12.98     0.916 
 H                     1.323     11.57     1.87 
 
 ITRead=  0  0  0  0  0  0  0  0  0  0  0  0  0  0  0  0  0  0
 MicOpt= -1 -1 -1 -1 -1 -1 -1 -1 -1 -1 -1 -1 -1 -1 -1 -1 -1 -1
 NAtoms=     18 NQM=       18 NQMF=       0 NMMI=      0 NMMIF=      0
                NMic=       0 NMicF=      0.
                    Isotopes and Nuclear Properties:
 (Nuclear quadrupole moments (NQMom) in fm**2, nuclear magnetic moments (NMagM)
  in nuclear magnetons)

  Atom         1           2           3           4           5           6           7           8           9          10
 IAtWgt=          12           1           1           1          12           1           1          12           1          16
 AtmWgt=  12.0000000   1.0078250   1.0078250   1.0078250  12.0000000   1.0078250   1.0078250  12.0000000   1.0078250  15.9949146
 NucSpn=           0           1           1           1           0           1           1           0           1           0
 AtZEff=  -0.0000000  -0.0000000  -0.0000000  -0.0000000  -0.0000000  -0.0000000  -0.0000000  -0.0000000  -0.0000000  -0.0000000
 NQMom=    0.0000000   0.0000000   0.0000000   0.0000000   0.0000000   0.0000000   0.0000000   0.0000000   0.0000000   0.0000000
 NMagM=    0.0000000   2.7928460   2.7928460   2.7928460   0.0000000   2.7928460   2.7928460   0.0000000   2.7928460   0.0000000
 AtZNuc=   6.0000000   1.0000000   1.0000000   1.0000000   6.0000000   1.0000000   1.0000000   6.0000000   1.0000000   8.0000000

  Atom        11          12          13          14          15          16          17          18
 IAtWgt=          12           1           1           1          12           1           1           1
 AtmWgt=  12.0000000   1.0078250   1.0078250   1.0078250  12.0000000   1.0078250   1.0078250   1.0078250
 NucSpn=           0           1           1           1           0           1           1           1
 AtZEff=  -0.0000000  -0.0000000  -0.0000000  -0.0000000  -0.0000000  -0.0000000  -0.0000000  -0.0000000
 NQMom=    0.0000000   0.0000000   0.0000000   0.0000000   0.0000000   0.0000000   0.0000000   0.0000000
 NMagM=    0.0000000   2.7928460   2.7928460   2.7928460   0.0000000   2.7928460   2.7928460   2.7928460
 AtZNuc=   6.0000000   1.0000000   1.0000000   1.0000000   6.0000000   1.0000000   1.0000000   1.0000000
 Leave Link  101 at Wed Sep  7 15:33:30 2022, MaxMem=   131072000 cpu:               0.1 elap:               0.1
 (Enter /opt/g16/l103.exe)

 GradGradGradGradGradGradGradGradGradGradGradGradGradGradGradGradGradGrad
 Berny optimization.
 Initialization pass.
                           ----------------------------
                           !    Initial Parameters    !
                           ! (Angstroms and Degrees)  !
 --------------------------                            --------------------------
 ! Name  Definition              Value          Derivative Info.                !
 --------------------------------------------------------------------------------
 ! R1    R(1,2)                  1.1166         estimate D2E/DX2                !
 ! R2    R(1,3)                  1.0943         estimate D2E/DX2                !
 ! R3    R(1,4)                  1.1328         estimate D2E/DX2                !
 ! R4    R(1,5)                  1.5025         estimate D2E/DX2                !
 ! R5    R(5,6)                  1.0966         estimate D2E/DX2                !
 ! R6    R(5,7)                  1.0719         estimate D2E/DX2                !
 ! R7    R(5,8)                  1.4482         estimate D2E/DX2                !
 ! R8    R(8,9)                  1.0926         estimate D2E/DX2                !
 ! R9    R(8,10)                 1.4432         estimate D2E/DX2                !
 ! R10   R(8,11)                 1.4796         estimate D2E/DX2                !
 ! R11   R(10,12)                0.9772         estimate D2E/DX2                !
 ! R12   R(11,13)                1.1709         estimate D2E/DX2                !
 ! R13   R(11,14)                1.1431         estimate D2E/DX2                !
 ! R14   R(11,15)                1.5252         estimate D2E/DX2                !
 ! R15   R(15,16)                1.0907         estimate D2E/DX2                !
 ! R16   R(15,17)                1.114          estimate D2E/DX2                !
 ! R17   R(15,18)                1.099          estimate D2E/DX2                !
 ! A1    A(2,1,3)              105.957          estimate D2E/DX2                !
 ! A2    A(2,1,4)              108.5027         estimate D2E/DX2                !
 ! A3    A(2,1,5)              116.0166         estimate D2E/DX2                !
 ! A4    A(3,1,4)               98.3988         estimate D2E/DX2                !
 ! A5    A(3,1,5)              112.819          estimate D2E/DX2                !
 ! A6    A(4,1,5)              113.4917         estimate D2E/DX2                !
 ! A7    A(1,5,6)              109.187          estimate D2E/DX2                !
 ! A8    A(1,5,7)              107.3917         estimate D2E/DX2                !
 ! A9    A(1,5,8)              110.4323         estimate D2E/DX2                !
 ! A10   A(6,5,7)              106.1433         estimate D2E/DX2                !
 ! A11   A(6,5,8)              112.9146         estimate D2E/DX2                !
 ! A12   A(7,5,8)              110.5425         estimate D2E/DX2                !
 ! A13   A(5,8,9)              113.4726         estimate D2E/DX2                !
 ! A14   A(5,8,10)             106.9261         estimate D2E/DX2                !
 ! A15   A(5,8,11)             112.3604         estimate D2E/DX2                !
 ! A16   A(9,8,10)             106.7929         estimate D2E/DX2                !
 ! A17   A(9,8,11)             111.3805         estimate D2E/DX2                !
 ! A18   A(10,8,11)            105.2986         estimate D2E/DX2                !
 ! A19   A(8,10,12)            107.2714         estimate D2E/DX2                !
 ! A20   A(8,11,13)            107.1233         estimate D2E/DX2                !
 ! A21   A(8,11,14)            111.528          estimate D2E/DX2                !
 ! A22   A(8,11,15)            114.1918         estimate D2E/DX2                !
 ! A23   A(13,11,14)           113.7917         estimate D2E/DX2                !
 ! A24   A(13,11,15)            98.2168         estimate D2E/DX2                !
 ! A25   A(14,11,15)           111.3208         estimate D2E/DX2                !
 ! A26   A(11,15,16)           114.1564         estimate D2E/DX2                !
 ! A27   A(11,15,17)           113.7678         estimate D2E/DX2                !
 ! A28   A(11,15,18)           111.7204         estimate D2E/DX2                !
 ! A29   A(16,15,17)           105.5828         estimate D2E/DX2                !
 ! A30   A(16,15,18)           108.2573         estimate D2E/DX2                !
 ! A31   A(17,15,18)           102.5043         estimate D2E/DX2                !
 ! D1    D(2,1,5,6)            -58.6067         estimate D2E/DX2                !
 ! D2    D(2,1,5,7)           -173.2831         estimate D2E/DX2                !
 ! D3    D(2,1,5,8)             66.1138         estimate D2E/DX2                !
 ! D4    D(3,1,5,6)            178.8962         estimate D2E/DX2                !
 ! D5    D(3,1,5,7)             64.2198         estimate D2E/DX2                !
 ! D6    D(3,1,5,8)            -56.3832         estimate D2E/DX2                !
 ! D7    D(4,1,5,6)             68.0622         estimate D2E/DX2                !
 ! D8    D(4,1,5,7)            -46.6142         estimate D2E/DX2                !
 ! D9    D(4,1,5,8)           -167.2172         estimate D2E/DX2                !
 ! D10   D(1,5,8,9)             54.6226         estimate D2E/DX2                !
 ! D11   D(1,5,8,10)           172.0994         estimate D2E/DX2                !
 ! D12   D(1,5,8,11)           -72.8509         estimate D2E/DX2                !
 ! D13   D(6,5,8,9)            177.1868         estimate D2E/DX2                !
 ! D14   D(6,5,8,10)           -65.3365         estimate D2E/DX2                !
 ! D15   D(6,5,8,11)            49.7133         estimate D2E/DX2                !
 ! D16   D(7,5,8,9)            -64.0779         estimate D2E/DX2                !
 ! D17   D(7,5,8,10)            53.3989         estimate D2E/DX2                !
 ! D18   D(7,5,8,11)           168.4487         estimate D2E/DX2                !
 ! D19   D(5,8,10,12)         -153.8865         estimate D2E/DX2                !
 ! D20   D(9,8,10,12)          -32.1018         estimate D2E/DX2                !
 ! D21   D(11,8,10,12)          86.41           estimate D2E/DX2                !
 ! D22   D(5,8,11,13)          -57.6484         estimate D2E/DX2                !
 ! D23   D(5,8,11,14)           67.4731         estimate D2E/DX2                !
 ! D24   D(5,8,11,15)         -165.2474         estimate D2E/DX2                !
 ! D25   D(9,8,11,13)          173.7739         estimate D2E/DX2                !
 ! D26   D(9,8,11,14)          -61.1046         estimate D2E/DX2                !
 ! D27   D(9,8,11,15)           66.175          estimate D2E/DX2                !
 ! D28   D(10,8,11,13)          58.3852         estimate D2E/DX2                !
 ! D29   D(10,8,11,14)        -176.4933         estimate D2E/DX2                !
 ! D30   D(10,8,11,15)         -49.2138         estimate D2E/DX2                !
 ! D31   D(8,11,15,16)          51.3239         estimate D2E/DX2                !
 ! D32   D(8,11,15,17)         -69.9553         estimate D2E/DX2                !
 ! D33   D(8,11,15,18)         174.5715         estimate D2E/DX2                !
 ! D34   D(13,11,15,16)        -61.6925         estimate D2E/DX2                !
 ! D35   D(13,11,15,17)        177.0282         estimate D2E/DX2                !
 ! D36   D(13,11,15,18)         61.5551         estimate D2E/DX2                !
 ! D37   D(14,11,15,16)        178.71           estimate D2E/DX2                !
 ! D38   D(14,11,15,17)         57.4308         estimate D2E/DX2                !
 ! D39   D(14,11,15,18)        -58.0424         estimate D2E/DX2                !
 --------------------------------------------------------------------------------
 Trust Radius=3.00D-01 FncErr=1.00D-07 GrdErr=1.00D-07 EigMax=2.50D+02 EigMin=1.00D-04
 Number of steps in this run=     97 maximum allowed number of steps=    108.
 GradGradGradGradGradGradGradGradGradGradGradGradGradGradGradGradGradGrad

 Leave Link  103 at Wed Sep  7 15:33:30 2022, MaxMem=   131072000 cpu:               0.0 elap:               0.0
 (Enter /opt/g16/l202.exe)
                          Input orientation:                          
 ---------------------------------------------------------------------
 Center     Atomic      Atomic             Coordinates (Angstroms)
 Number     Number       Type             X           Y           Z
 ---------------------------------------------------------------------
      1          6           0       -1.232000   15.615000    3.771000
      2          1           0       -1.845000   14.715000    3.524000
      3          1           0       -1.286000   16.266000    2.893000
      4          1           0       -1.818000   16.262000    4.493000
      5          6           0        0.179000   15.350000    4.214000
      6          1           0        0.163000   14.711000    5.105000
      7          1           0        0.598000   16.286000    4.526000
      8          6           0        0.952000   14.784000    3.128000
      9          1           0        0.934000   15.390000    2.219000
     10          8           0        2.325000   14.736000    3.570000
     11          6           0        0.583000   13.379000    2.847000
     12          1           0        2.888000   14.769000    2.772000
     13          1           0        0.742000   12.776000    3.838000
     14          1           0       -0.476000   13.300000    2.424000
     15          6           0        1.586000   12.632000    1.974000
     16          1           0        2.617000   12.696000    2.324000
     17          1           0        1.607000   12.980000    0.916000
     18          1           0        1.323000   11.570000    1.870000
 ---------------------------------------------------------------------
                    Distance matrix (angstroms):
                    1          2          3          4          5
     1  C    0.000000
     2  H    1.116592   0.000000
     3  H    1.094350   1.765288   0.000000
     4  H    1.132823   1.825623   1.686132   0.000000
     5  C    1.502463   2.230673   2.174930   2.213051   0.000000
     6  H    2.131384   2.555708   3.067665   2.589306   1.096566
     7  H    2.090255   3.072506   2.493300   2.416345   1.071915
     8  C    2.423606   2.825736   2.694475   3.423537   1.448199
     9  H    2.674114   3.143484   2.479930   3.674910   2.133460
    10  O    3.669508   4.170307   3.979768   4.510549   2.323155
    11  C    3.024516   2.852790   3.439483   4.097048   2.432436
    12  H    4.322975   4.792672   4.435981   5.228511   3.123397
    13  H    3.458480   3.248213   4.145589   4.374337   2.661545
    14  H    2.783015   2.255302   3.110180   3.854240   2.799219
    15  C    4.479802   4.302691   4.722171   5.577587   3.792726
    16  H    5.042734   5.042401   5.319969   6.090168   4.069356
    17  H    4.811878   4.661351   4.803725   5.941134   4.304984
    18  H    5.148189   4.760564   5.468622   6.225823   4.592545
                    6          7          8          9         10
     6  H    0.000000
     7  H    1.733520   0.000000
     8  C    2.129878   2.082240   0.000000
     9  H    3.063410   2.497591   1.092630   0.000000
    10  O    2.651621   2.509774   1.443190   2.046411   0.000000
    11  C    2.655031   3.357069   1.479577   2.135815   2.323519
    12  H    3.587740   3.259126   1.968516   2.123574   0.977170
    13  H    2.384272   3.579690   2.140155   3.080750   2.533636
    14  H    3.096289   3.806321   2.176478   2.529471   3.349778
    15  C    4.018747   4.565147   2.522851   2.844590   2.742290
    16  H    4.220936   4.670467   2.788976   3.178231   2.408190
    17  H    4.757018   4.997981   2.928547   2.821141   3.262327
    18  H    4.655825   5.460826   3.471311   3.855583   3.730625
                   11         12         13         14         15
    11  C    0.000000
    12  H    2.692722   0.000000
    13  H    1.170885   3.116684   0.000000
    14  H    1.143088   3.687216   1.938426   0.000000
    15  C    1.525171   2.626552   2.051236   2.213723   0.000000
    16  H    2.208432   2.138101   2.411270   3.153009   1.090668
    17  H    2.221832   2.878579   3.054165   2.591400   1.113961
    18  H    2.185088   3.673749   2.380130   2.556603   1.099013
                   16         17         18
    16  H    0.000000
    17  H    1.755910   0.000000
    18  H    1.774381   1.725941   0.000000
 Stoichiometry    C5H12O
 Framework group  C1[X(C5H12O)]
 Deg. of freedom    48
 Full point group                 C1      NOp   1
 Largest Abelian subgroup         C1      NOp   1
 Largest concise Abelian subgroup C1      NOp   1
                         Standard orientation:                         
 ---------------------------------------------------------------------
 Center     Atomic      Atomic             Coordinates (Angstroms)
 Number     Number       Type             X           Y           Z
 ---------------------------------------------------------------------
      1          6           0        2.261555   -0.688827    0.164099
      2          1           0        1.960643   -1.716907   -0.150988
      3          1           0        2.354209   -0.723216    1.253977
      4          1           0        3.355427   -0.540557   -0.090359
      5          6           0        1.379140    0.430712   -0.310635
      6          1           0        1.344088    0.422000   -1.406607
      7          1           0        1.853552    1.351538   -0.034930
      8          6           0        0.067873    0.333015    0.296254
      9          1           0        0.095468    0.291793    1.387758
     10          8           0       -0.649458    1.534264   -0.057631
     11          6           0       -0.730955   -0.778505   -0.265480
     12          1           0       -1.317270    1.689171    0.638711
     13          1           0       -0.811796   -0.596213   -1.419258
     14          1           0       -0.287486   -1.795197    0.010788
     15          6           0       -2.217206   -0.712052    0.070364
     16          1           0       -2.683119    0.248103   -0.154544
     17          1           0       -2.444545   -0.911139    1.142553
     18          1           0       -2.785941   -1.499542   -0.443670
 ---------------------------------------------------------------------
 Rotational constants (GHZ):           5.7002139           2.3064833           1.7937212
 Leave Link  202 at Wed Sep  7 15:33:30 2022, MaxMem=   131072000 cpu:               0.0 elap:               0.0
 (Enter /opt/g16/l301.exe)
 Standard basis: VSTO-6G (5D, 7F)
 Ernie: Thresh=  0.10000D-02 Tol=  0.10000D-05 Strict=F.
  NNHCO=     0 NNPyr=     0 NCTC=     0               EPep=         0.000000000
    EC=       129.741251223  ECS=         2.230597903   EG=         0.568997050
   EHC=         0.000000000  EAt=       -36.836480110  AtH=         2.452923921
 EPDDG=         0.000000000  ECC=       132.540846175 EAtT=        39.289404030
 There are    36 symmetry adapted cartesian basis functions of A   symmetry.
 There are    36 symmetry adapted basis functions of A   symmetry.
    36 basis functions,   216 primitive gaussians,    36 cartesian basis functions
    19 alpha electrons       19 beta electrons
       nuclear repulsion energy       171.8302502060 Hartrees.
 IExCor=    0 DFT=F Ex=HF Corr=None ExCW=0 ScaHFX=  1.000000
 ScaDFX=  1.000000  1.000000  1.000000  1.000000 ScalE2=  1.000000  1.000000
 IRadAn=      5 IRanWt=     -1 IRanGd=            0 ICorTp=0 IEmpDi=  4
 Integral buffers will be    131072 words long.
 Regular integral format.
 Two-electron integral symmetry is turned off.
 Leave Link  301 at Wed Sep  7 15:33:30 2022, MaxMem=   131072000 cpu:               0.0 elap:               0.0
 (Enter /opt/g16/l302.exe)
 Do NDO integrals.
 NPDir=0 NMtPBC=     1 NCelOv=     1 NCel=       1 NClECP=     1 NCelD=      1
         NCelK=      1 NCelE2=     1 NClLst=     1 CellRange=     0.0.
 One-electron integrals computed using PRISM.
 NBasis=    36 RedAO= F EigKep=  0.00D+00  NBF=    36
 NBsUse=    36 1.00D-04 EigRej=  0.00D+00 NBFU=    36
 Leave Link  302 at Wed Sep  7 15:33:30 2022, MaxMem=   131072000 cpu:               0.0 elap:               0.0
 (Enter /opt/g16/l303.exe)
 DipDrv:  MaxL=1.
 Leave Link  303 at Wed Sep  7 15:33:30 2022, MaxMem=   131072000 cpu:               0.0 elap:               0.0
 (Enter /opt/g16/l401.exe)
 Simple Huckel Guess.
 JPrj=0 DoOrth=F DoCkMO=F.
 Leave Link  401 at Wed Sep  7 15:33:30 2022, MaxMem=   131072000 cpu:               0.0 elap:               0.0
 (Enter /opt/g16/l502.exe)
 Keep J ints in memory in canonical form, NReq=862161.
 FoFCou: FMM=F IPFlag=           0 FMFlag=           0 FMFlg1=           0
         NFxFlg=           0 DoJE=F BraDBF=F KetDBF=F FulRan=T
         wScrn=  0.000000 ICntrl=       600 IOpCl=  2 I1Cent=           0 NGrid=           0
         NMat0=    1 NMatS0=     72 NMatT0=    0 NMatD0=    1 NMtDS0=    0 NMtDT0=    0
 Symmetry not used in FoFCou.
 Two-electron integral symmetry not used.
 Closed shell SCF:
 Using DIIS extrapolation, IDIIS=  1040.
 Overlap will be assumed to be unity.
 NGot=   131072000 LenX=   131006778 LenY=   131005041
 Requested convergence on RMS density matrix=1.00D-08 within 128 cycles.
 Requested convergence on MAX density matrix=1.00D-06.
 Requested convergence on             energy=1.00D-06.
 No special actions if energy rises.

 Cycle   1  Pass 1  IDiag  1:
 E= 0.191480734201889    
 DIIS: error= 7.13D-02 at cycle   1 NSaved=   1.
 NSaved= 1 IEnMin= 1 EnMin= 0.191480734201889     IErMin= 1 ErrMin= 7.13D-02
 ErrMax= 7.13D-02  0.00D+00 EMaxC= 1.00D-01 BMatC= 1.08D-01 BMatP= 1.08D-01
 IDIUse=3 WtCom= 2.87D-01 WtEn= 7.13D-01
 Coeff-Com:  0.100D+01
 Coeff-En:   0.100D+01
 Coeff:      0.100D+01
 GapD=    2.000 DampG=2.000 DampE=0.500 DampFc=1.0000 IDamp=-1.
 RMSDP=1.27D-02 MaxDP=1.50D-01              OVMax= 0.00D+00

 Cycle   2  Pass 1  IDiag  1:
 E=-0.672948540917275E-01 Delta-E=       -0.258775588294 Rises=F Damp=F
 DIIS: error= 1.43D-02 at cycle   2 NSaved=   2.
 NSaved= 2 IEnMin= 2 EnMin=-0.672948540917275E-01 IErMin= 2 ErrMin= 1.43D-02
 ErrMax= 1.43D-02  0.00D+00 EMaxC= 1.00D-01 BMatC= 7.04D-03 BMatP= 1.08D-01
 IDIUse=3 WtCom= 8.57D-01 WtEn= 1.43D-01
 Coeff-Com: -0.306D+00 0.131D+01
 Coeff-En:   0.000D+00 0.100D+01
 Coeff:     -0.263D+00 0.126D+01
 RMSDP=4.66D-03 MaxDP=4.36D-02 DE=-2.59D-01 OVMax= 0.00D+00

 Cycle   3  Pass 1  IDiag  3:
 E=-0.891851753407877E-01 Delta-E=       -0.021890321249 Rises=F Damp=F
 DIIS: error= 3.54D-03 at cycle   3 NSaved=   3.
 NSaved= 3 IEnMin= 3 EnMin=-0.891851753407877E-01 IErMin= 3 ErrMin= 3.54D-03
 ErrMax= 3.54D-03  0.00D+00 EMaxC= 1.00D-01 BMatC= 2.17D-04 BMatP= 7.04D-03
 IDIUse=3 WtCom= 9.65D-01 WtEn= 3.54D-02
 Coeff-Com:  0.144D+00-0.698D+00 0.155D+01
 Coeff-En:   0.000D+00 0.000D+00 0.100D+01
 Coeff:      0.138D+00-0.674D+00 0.154D+01
 Gap=     0.523 Goal=   None    Shift=    0.000
 RMSDP=1.34D-03 MaxDP=1.84D-02 DE=-2.19D-02 OVMax= 1.30D-02

 Cycle   4  Pass 1  IDiag  3:
 E=-0.903576206524406E-01 Delta-E=       -0.001172445312 Rises=F Damp=F
 DIIS: error= 7.20D-04 at cycle   4 NSaved=   4.
 NSaved= 4 IEnMin= 4 EnMin=-0.903576206524406E-01 IErMin= 4 ErrMin= 7.20D-04
 ErrMax= 7.20D-04  0.00D+00 EMaxC= 1.00D-01 BMatC= 9.77D-06 BMatP= 2.17D-04
 IDIUse=3 WtCom= 9.93D-01 WtEn= 7.20D-03
 Coeff-Com: -0.298D-01 0.162D+00-0.552D+00 0.142D+01
 Coeff-En:   0.000D+00 0.000D+00 0.000D+00 0.100D+01
 Coeff:     -0.296D-01 0.160D+00-0.548D+00 0.142D+01
 Gap=     0.525 Goal=   None    Shift=    0.000
 RMSDP=3.33D-04 MaxDP=4.34D-03 DE=-1.17D-03 OVMax= 3.49D-03

 Cycle   5  Pass 1  IDiag  3:
 E=-0.904160027698993E-01 Delta-E=       -0.000058382117 Rises=F Damp=F
 DIIS: error= 1.23D-04 at cycle   5 NSaved=   5.
 NSaved= 5 IEnMin= 5 EnMin=-0.904160027698993E-01 IErMin= 5 ErrMin= 1.23D-04
 ErrMax= 1.23D-04  0.00D+00 EMaxC= 1.00D-01 BMatC= 3.34D-07 BMatP= 9.77D-06
 IDIUse=3 WtCom= 9.99D-01 WtEn= 1.23D-03
 Coeff-Com:  0.165D-02-0.122D-01 0.752D-01-0.364D+00 0.130D+01
 Coeff-En:   0.000D+00 0.000D+00 0.000D+00 0.000D+00 0.100D+01
 Coeff:      0.165D-02-0.122D-01 0.751D-01-0.363D+00 0.130D+01
 Gap=     0.525 Goal=   None    Shift=    0.000
 RMSDP=5.52D-05 MaxDP=6.50D-04 DE=-5.84D-05 OVMax= 4.67D-04

 Cycle   6  Pass 1  IDiag  3:
 E=-0.904178740634336E-01 Delta-E=       -0.000001871294 Rises=F Damp=F
 DIIS: error= 3.44D-05 at cycle   6 NSaved=   6.
 NSaved= 6 IEnMin= 6 EnMin=-0.904178740634336E-01 IErMin= 6 ErrMin= 3.44D-05
 ErrMax= 3.44D-05  0.00D+00 EMaxC= 1.00D-01 BMatC= 2.80D-08 BMatP= 3.34D-07
 IDIUse=1 WtCom= 1.00D+00 WtEn= 0.00D+00
 Coeff-Com: -0.280D-03 0.311D-02-0.267D-01 0.156D+00-0.743D+00 0.161D+01
 Coeff:     -0.280D-03 0.311D-02-0.267D-01 0.156D+00-0.743D+00 0.161D+01
 Gap=     0.525 Goal=   None    Shift=    0.000
 RMSDP=1.78D-05 MaxDP=2.31D-04 DE=-1.87D-06 OVMax= 1.21D-04

 Cycle   7  Pass 1  IDiag  3:
 E=-0.904180493206752E-01 Delta-E=       -0.000000175257 Rises=F Damp=F
 DIIS: error= 5.91D-06 at cycle   7 NSaved=   7.
 NSaved= 7 IEnMin= 7 EnMin=-0.904180493206752E-01 IErMin= 7 ErrMin= 5.91D-06
 ErrMax= 5.91D-06  0.00D+00 EMaxC= 1.00D-01 BMatC= 1.88D-09 BMatP= 2.80D-08
 IDIUse=1 WtCom= 1.00D+00 WtEn= 0.00D+00
 Coeff-Com:  0.157D-03-0.161D-02 0.133D-01-0.775D-01 0.388D+00-0.102D+01
 Coeff-Com:  0.170D+01
 Coeff:      0.157D-03-0.161D-02 0.133D-01-0.775D-01 0.388D+00-0.102D+01
 Coeff:      0.170D+01
 Gap=     0.525 Goal=   None    Shift=    0.000
 RMSDP=5.17D-06 MaxDP=5.00D-05 DE=-1.75D-07 OVMax= 2.61D-05

 Cycle   8  Pass 1  IDiag  3:
 E=-0.904180615258099E-01 Delta-E=       -0.000000012205 Rises=F Damp=F
 DIIS: error= 1.16D-06 at cycle   8 NSaved=   8.
 NSaved= 8 IEnMin= 8 EnMin=-0.904180615258099E-01 IErMin= 8 ErrMin= 1.16D-06
 ErrMax= 1.16D-06  0.00D+00 EMaxC= 1.00D-01 BMatC= 6.34D-11 BMatP= 1.88D-09
 IDIUse=1 WtCom= 1.00D+00 WtEn= 0.00D+00
 Coeff-Com: -0.510D-04 0.578D-03-0.505D-02 0.298D-01-0.152D+00 0.417D+00
 Coeff-Com: -0.810D+00 0.152D+01
 Coeff:     -0.510D-04 0.578D-03-0.505D-02 0.298D-01-0.152D+00 0.417D+00
 Coeff:     -0.810D+00 0.152D+01
 Gap=     0.525 Goal=   None    Shift=    0.000
 RMSDP=8.66D-07 MaxDP=8.13D-06 DE=-1.22D-08 OVMax= 5.25D-06

 Cycle   9  Pass 1  IDiag  3:
 E=-0.904180619197064E-01 Delta-E=       -0.000000000394 Rises=F Damp=F
 DIIS: error= 2.11D-07 at cycle   9 NSaved=   9.
 NSaved= 9 IEnMin= 9 EnMin=-0.904180619197064E-01 IErMin= 9 ErrMin= 2.11D-07
 ErrMax= 2.11D-07  0.00D+00 EMaxC= 1.00D-01 BMatC= 3.80D-12 BMatP= 6.34D-11
 IDIUse=1 WtCom= 1.00D+00 WtEn= 0.00D+00
 Coeff-Com:  0.180D-04-0.243D-03 0.230D-02-0.139D-01 0.720D-01-0.200D+00
 Coeff-Com:  0.404D+00-0.916D+00 0.165D+01
 Coeff:      0.180D-04-0.243D-03 0.230D-02-0.139D-01 0.720D-01-0.200D+00
 Coeff:      0.404D+00-0.916D+00 0.165D+01
 Gap=     0.525 Goal=   None    Shift=    0.000
 RMSDP=2.22D-07 MaxDP=1.81D-06 DE=-3.94D-10 OVMax= 1.27D-06

 Cycle  10  Pass 1  IDiag  3:
 E=-0.904180619440069E-01 Delta-E=       -0.000000000024 Rises=F Damp=F
 DIIS: error= 6.94D-08 at cycle  10 NSaved=  10.
 NSaved=10 IEnMin=10 EnMin=-0.904180619440069E-01 IErMin=10 ErrMin= 6.94D-08
 ErrMax= 6.94D-08  0.00D+00 EMaxC= 1.00D-01 BMatC= 1.64D-13 BMatP= 3.80D-12
 IDIUse=1 WtCom= 1.00D+00 WtEn= 0.00D+00
 Coeff-Com: -0.636D-05 0.929D-04-0.904D-03 0.551D-02-0.288D-01 0.803D-01
 Coeff-Com: -0.163D+00 0.384D+00-0.826D+00 0.155D+01
 Coeff:     -0.636D-05 0.929D-04-0.904D-03 0.551D-02-0.288D-01 0.803D-01
 Coeff:     -0.163D+00 0.384D+00-0.826D+00 0.155D+01
 Gap=     0.525 Goal=   None    Shift=    0.000
 RMSDP=4.47D-08 MaxDP=4.31D-07 DE=-2.43D-11 OVMax= 3.32D-07

 Cycle  11  Pass 1  IDiag  3:
 E=-0.904180619449448E-01 Delta-E=       -0.000000000001 Rises=F Damp=F
 DIIS: error= 1.68D-08 at cycle  11 NSaved=  11.
 NSaved=11 IEnMin=11 EnMin=-0.904180619449448E-01 IErMin=11 ErrMin= 1.68D-08
 ErrMax= 1.68D-08  0.00D+00 EMaxC= 1.00D-01 BMatC= 7.90D-15 BMatP= 1.64D-13
 IDIUse=1 WtCom= 1.00D+00 WtEn= 0.00D+00
 Coeff-Com:  0.201D-05-0.283D-04 0.272D-03-0.165D-02 0.864D-02-0.242D-01
 Coeff-Com:  0.494D-01-0.117D+00 0.264D+00-0.647D+00 0.147D+01
 Coeff:      0.201D-05-0.283D-04 0.272D-03-0.165D-02 0.864D-02-0.242D-01
 Coeff:      0.494D-01-0.117D+00 0.264D+00-0.647D+00 0.147D+01
 Gap=     0.525 Goal=   None    Shift=    0.000
 RMSDP=9.41D-09 MaxDP=1.02D-07 DE=-9.38D-13 OVMax= 5.55D-08

 Cycle  12  Pass 2  IDiag  1:
 SCF Done:  E(RPM3) = -0.904180619449E-01 A.U. after   12 cycles
            NFock= 11  Conv=0.94D-08     -V/T= 0.9985
 KE=-5.971333020947D+01 PE=-2.580291075307D+02 EE= 1.458217694722D+02
 Leave Link  502 at Wed Sep  7 15:33:30 2022, MaxMem=   131072000 cpu:               0.0 elap:               0.0
 (Enter /opt/g16/l601.exe)
 Copying SCF densities to generalized density rwf, IOpCl= 0 IROHF=0.

 **********************************************************************

            Population analysis using the SCF density.

 **********************************************************************

 Orbital symmetries:
       Occupied  (A) (A) (A) (A) (A) (A) (A) (A) (A) (A) (A) (A)
                 (A) (A) (A) (A) (A) (A) (A)
       Virtual   (A) (A) (A) (A) (A) (A) (A) (A) (A) (A) (A) (A)
                 (A) (A) (A) (A) (A)
 The electronic state is 1-A.
 Alpha  occ. eigenvalues --   -1.50306  -1.25101  -1.18732  -0.94813  -0.82542
 Alpha  occ. eigenvalues --   -0.74113  -0.65748  -0.60525  -0.59806  -0.55407
 Alpha  occ. eigenvalues --   -0.53340  -0.50564  -0.49102  -0.47222  -0.46167
 Alpha  occ. eigenvalues --   -0.45249  -0.43281  -0.42163  -0.40765
 Alpha virt. eigenvalues --    0.11646   0.12420   0.12793   0.13387   0.14161
 Alpha virt. eigenvalues --    0.14232   0.14491   0.15205   0.15797   0.15866
 Alpha virt. eigenvalues --    0.16774   0.17374   0.17649   0.17801   0.18881
 Alpha virt. eigenvalues --    0.19092   0.20763
          Condensed to atoms (all electrons):
               1          2          3          4          5          6
     1  C    4.120254   0.000000   0.000000   0.000000   0.000000   0.000000
     2  H    0.000000   0.953063   0.000000   0.000000   0.000000   0.000000
     3  H    0.000000   0.000000   0.972108   0.000000   0.000000   0.000000
     4  H    0.000000   0.000000   0.000000   0.963820   0.000000   0.000000
     5  C    0.000000   0.000000   0.000000   0.000000   4.100917   0.000000
     6  H    0.000000   0.000000   0.000000   0.000000   0.000000   0.931618
     7  H    0.000000   0.000000   0.000000   0.000000   0.000000   0.000000
     8  C    0.000000   0.000000   0.000000   0.000000   0.000000   0.000000
     9  H    0.000000   0.000000   0.000000   0.000000   0.000000   0.000000
    10  O    0.000000   0.000000   0.000000   0.000000   0.000000   0.000000
    11  C    0.000000   0.000000   0.000000   0.000000   0.000000   0.000000
    12  H    0.000000   0.000000   0.000000   0.000000   0.000000   0.000000
    13  H    0.000000   0.000000   0.000000   0.000000   0.000000   0.000000
    14  H    0.000000   0.000000   0.000000   0.000000   0.000000   0.000000
    15  C    0.000000   0.000000   0.000000   0.000000   0.000000   0.000000
    16  H    0.000000   0.000000   0.000000   0.000000   0.000000   0.000000
    17  H    0.000000   0.000000   0.000000   0.000000   0.000000   0.000000
    18  H    0.000000   0.000000   0.000000   0.000000   0.000000   0.000000
               7          8          9         10         11         12
     1  C    0.000000   0.000000   0.000000   0.000000   0.000000   0.000000
     2  H    0.000000   0.000000   0.000000   0.000000   0.000000   0.000000
     3  H    0.000000   0.000000   0.000000   0.000000   0.000000   0.000000
     4  H    0.000000   0.000000   0.000000   0.000000   0.000000   0.000000
     5  C    0.000000   0.000000   0.000000   0.000000   0.000000   0.000000
     6  H    0.000000   0.000000   0.000000   0.000000   0.000000   0.000000
     7  H    0.938638   0.000000   0.000000   0.000000   0.000000   0.000000
     8  C    0.000000   3.907724   0.000000   0.000000   0.000000   0.000000
     9  H    0.000000   0.000000   0.955652   0.000000   0.000000   0.000000
    10  O    0.000000   0.000000   0.000000   6.331453   0.000000   0.000000
    11  C    0.000000   0.000000   0.000000   0.000000   4.146482   0.000000
    12  H    0.000000   0.000000   0.000000   0.000000   0.000000   0.812687
    13  H    0.000000   0.000000   0.000000   0.000000   0.000000   0.000000
    14  H    0.000000   0.000000   0.000000   0.000000   0.000000   0.000000
    15  C    0.000000   0.000000   0.000000   0.000000   0.000000   0.000000
    16  H    0.000000   0.000000   0.000000   0.000000   0.000000   0.000000
    17  H    0.000000   0.000000   0.000000   0.000000   0.000000   0.000000
    18  H    0.000000   0.000000   0.000000   0.000000   0.000000   0.000000
              13         14         15         16         17         18
     1  C    0.000000   0.000000   0.000000   0.000000   0.000000   0.000000
     2  H    0.000000   0.000000   0.000000   0.000000   0.000000   0.000000
     3  H    0.000000   0.000000   0.000000   0.000000   0.000000   0.000000
     4  H    0.000000   0.000000   0.000000   0.000000   0.000000   0.000000
     5  C    0.000000   0.000000   0.000000   0.000000   0.000000   0.000000
     6  H    0.000000   0.000000   0.000000   0.000000   0.000000   0.000000
     7  H    0.000000   0.000000   0.000000   0.000000   0.000000   0.000000
     8  C    0.000000   0.000000   0.000000   0.000000   0.000000   0.000000
     9  H    0.000000   0.000000   0.000000   0.000000   0.000000   0.000000
    10  O    0.000000   0.000000   0.000000   0.000000   0.000000   0.000000
    11  C    0.000000   0.000000   0.000000   0.000000   0.000000   0.000000
    12  H    0.000000   0.000000   0.000000   0.000000   0.000000   0.000000
    13  H    0.930858   0.000000   0.000000   0.000000   0.000000   0.000000
    14  H    0.000000   0.927502   0.000000   0.000000   0.000000   0.000000
    15  C    0.000000   0.000000   4.116907   0.000000   0.000000   0.000000
    16  H    0.000000   0.000000   0.000000   0.951161   0.000000   0.000000
    17  H    0.000000   0.000000   0.000000   0.000000   0.977526   0.000000
    18  H    0.000000   0.000000   0.000000   0.000000   0.000000   0.961629
 Mulliken charges:
               1
     1  C   -0.120254
     2  H    0.046937
     3  H    0.027892
     4  H    0.036180
     5  C   -0.100917
     6  H    0.068382
     7  H    0.061362
     8  C    0.092276
     9  H    0.044348
    10  O   -0.331453
    11  C   -0.146482
    12  H    0.187313
    13  H    0.069142
    14  H    0.072498
    15  C   -0.116907
    16  H    0.048839
    17  H    0.022474
    18  H    0.038371
 Sum of Mulliken charges =   0.00000
 Mulliken charges with hydrogens summed into heavy atoms:
               1
     1  C   -0.009246
     5  C    0.028827
     8  C    0.136623
    10  O   -0.144140
    11  C   -0.004841
    15  C   -0.007223
 Charge=              0.0000 electrons
 Dipole moment (field-independent basis, Debye):
    X=             -0.1346    Y=             -0.9176    Z=              1.1084  Tot=              1.4453
 N-N= 1.718302502060D+02 E-N=-2.580291078315D+02  KE=-5.971333020947D+01
 Leave Link  601 at Wed Sep  7 15:33:30 2022, MaxMem=   131072000 cpu:               0.0 elap:               0.0
 (Enter /opt/g16/l701.exe)
 ... and contract with generalized density number  0.
 Compute integral first derivatives.
 Leave Link  701 at Wed Sep  7 15:33:30 2022, MaxMem=   131072000 cpu:               0.0 elap:               0.0
 (Enter /opt/g16/l702.exe)
 L702 exits ... SP integral derivatives will be done elsewhere.
 Leave Link  702 at Wed Sep  7 15:33:30 2022, MaxMem=   131072000 cpu:               0.0 elap:               0.0
 (Enter /opt/g16/l703.exe)
 Integral derivatives from FoFJK, PRISM(SPDF).
 Compute integral first derivatives, UseDBF=F ICtDFT=           0.
 Calling FoFJK, ICntrl=      2127 FMM=F ISym2X=0 I1Cent= 0 IOpClX= 0 NMat=1 NMatS=1 NMatT=0.
 FoFJK:  IHMeth= 9 ICntrl=    2127 DoSepK=F KAlg= 0 I1Cent=           0 FoldK=F
 IRaf=         0 NMat=       1 IRICut=       1 DoRegI=T DoRafI=F ISym2E= 0 IDoP0=3 IntGTp=3.
 FoFCou: FMM=F IPFlag=           0 FMFlag=      100000 FMFlg1=         800
         NFxFlg=           0 DoJE=F BraDBF=F KetDBF=F FulRan=T
         wScrn=  0.000000 ICntrl=      2127 IOpCl=  0 I1Cent=           0 NGrid=           0
         NMat0=    1 NMatS0=      1 NMatT0=    0 NMatD0=    1 NMtDS0=    0 NMtDT0=    0
 Symmetry not used in FoFCou.
 Leave Link  703 at Wed Sep  7 15:33:30 2022, MaxMem=   131072000 cpu:               0.0 elap:               0.0
 (Enter /opt/g16/l716.exe)
 Dipole        =-5.29610631D-02-3.61020815D-01 4.36089600D-01
 ***** Axes restored to original set *****
 -------------------------------------------------------------------
 Center     Atomic                   Forces (Hartrees/Bohr)
 Number     Number              X              Y              Z
 -------------------------------------------------------------------
      1        6          -0.033815348    0.017517770    0.005595389
      2        1           0.008879073    0.007878428    0.006656784
      3        1           0.004866799   -0.001423085   -0.010595532
      4        1           0.009361699   -0.018280194   -0.002250238
      5        6          -0.047559582    0.014996330    0.032177883
      6        1           0.001231225   -0.006306256    0.007354369
      7        1           0.011898673    0.021991834    0.009399311
      8        6           0.066620258   -0.011622085   -0.027911768
      9        1          -0.003914214    0.009541024   -0.012045841
     10        8           0.018479171    0.016342176   -0.017048550
     11        6          -0.005301776   -0.065648983    0.005152938
     12        1          -0.019109394   -0.001264665    0.022417109
     13        1          -0.020370107    0.014679634   -0.020990228
     14        1           0.019640746   -0.001713086    0.011547998
     15        6          -0.013101986    0.003101230   -0.026542776
     16        1           0.003772884   -0.001986649    0.003713014
     17        1          -0.001333270    0.003303978    0.007945960
     18        1          -0.000244851   -0.001107400    0.005424179
 -------------------------------------------------------------------
 Cartesian Forces:  Max     0.066620258 RMS     0.019681285
 Leave Link  716 at Wed Sep  7 15:33:30 2022, MaxMem=   131072000 cpu:               0.0 elap:               0.0
 (Enter /opt/g16/l103.exe)

 GradGradGradGradGradGradGradGradGradGradGradGradGradGradGradGradGradGrad
 Berny optimization.
 FormGI is forming the generalized inverse of G from B-inverse, IUseBI=4.
 Internal  Forces:  Max     0.074557723 RMS     0.012755361
 Search for a local minimum.
 Step number   1 out of a maximum of   97
 All quantities printed in internal units (Hartrees-Bohrs-Radians)
 RMS Force = .12755D-01 SwitMx=.10000D-02 MixMth= 1
 Mixed Optimization -- RFO/linear search
 Second derivative matrix not updated -- first step.
 ITU=  0
     Eigenvalues ---    0.00433   0.00733   0.01036   0.01120   0.01451
     Eigenvalues ---    0.03681   0.04265   0.04581   0.04779   0.04955
     Eigenvalues ---    0.05364   0.05414   0.05484   0.05607   0.05959
     Eigenvalues ---    0.08024   0.08375   0.08512   0.12143   0.12428
     Eigenvalues ---    0.16000   0.16000   0.16000   0.16000   0.16000
     Eigenvalues ---    0.16000   0.16000   0.16458   0.18953   0.21839
     Eigenvalues ---    0.22233   0.26919   0.29334   0.29874   0.30298
     Eigenvalues ---    0.31912   0.32120   0.32184   0.33792   0.34065
     Eigenvalues ---    0.34315   0.34510   0.34618   0.34736   0.36989
     Eigenvalues ---    0.38482   0.39151   0.51938
 RFO step:  Lambda=-4.41836514D-02 EMin= 4.32981627D-03
 Linear search not attempted -- first point.
 Maximum step size (   0.300) exceeded in Quadratic search.
    -- Step size scaled by   0.875
 Iteration  1 RMS(Cart)=  0.07926024 RMS(Int)=  0.00238960
 Iteration  2 RMS(Cart)=  0.00259159 RMS(Int)=  0.00058028
 Iteration  3 RMS(Cart)=  0.00000484 RMS(Int)=  0.00058026
 Iteration  4 RMS(Cart)=  0.00000001 RMS(Int)=  0.00058026
 ITry= 1 IFail=0 DXMaxC= 2.59D-01 DCOld= 1.00D+10 DXMaxT= 3.00D-01 DXLimC= 3.00D+00 Rises=F
 Variable       Old X    -DE/DX   Delta X   Delta X   Delta X     New X
                                 (Linear)    (Quad)   (Total)
    R1        2.11005  -0.01270   0.00000  -0.03059  -0.03059   2.07946
    R2        2.06802   0.00741   0.00000   0.01676   0.01676   2.08478
    R3        2.14073  -0.01672   0.00000  -0.04215  -0.04215   2.09857
    R4        2.83924   0.01124   0.00000   0.02692   0.02692   2.86616
    R5        2.07221   0.00963   0.00000   0.02191   0.02191   2.09412
    R6        2.02563   0.02659   0.00000   0.05621   0.05621   2.08184
    R7        2.73670   0.07456   0.00000   0.15213   0.15213   2.88883
    R8        2.06477   0.01538   0.00000   0.03458   0.03458   2.09935
    R9        2.72723   0.00054   0.00000   0.00109   0.00109   2.72832
   R10        2.79599   0.05372   0.00000   0.12046   0.12046   2.91646
   R11        1.84658  -0.02936   0.00000  -0.04560  -0.04560   1.80098
   R12        2.21265  -0.02809   0.00000  -0.07847  -0.07847   2.13418
   R13        2.16012  -0.02235   0.00000  -0.05797  -0.05797   2.10216
   R14        2.88216  -0.00338   0.00000  -0.00863  -0.00863   2.87353
   R15        2.06106   0.00464   0.00000   0.01038   0.01038   2.07144
   R16        2.10508  -0.00654   0.00000  -0.01564  -0.01564   2.08944
   R17        2.07683   0.00062   0.00000   0.00141   0.00141   2.07824
    A1        1.84930   0.00355   0.00000   0.01277   0.01269   1.86198
    A2        1.89373   0.00166   0.00000  -0.00839  -0.00963   1.88410
    A3        2.02487  -0.00471   0.00000  -0.03143  -0.03220   1.99267
    A4        1.71738   0.01018   0.00000   0.06646   0.06656   1.78394
    A5        1.96906  -0.00299   0.00000  -0.00295  -0.00295   1.96612
    A6        1.98080  -0.00486   0.00000  -0.01970  -0.02039   1.96042
    A7        1.90567  -0.00233   0.00000  -0.00576  -0.00556   1.90011
    A8        1.87434  -0.00172   0.00000   0.00135   0.00125   1.87559
    A9        1.92741   0.00938   0.00000   0.03378   0.03376   1.96116
   A10        1.85255   0.00101   0.00000  -0.00443  -0.00457   1.84798
   A11        1.97073  -0.00430   0.00000  -0.02005  -0.02010   1.95063
   A12        1.92933  -0.00234   0.00000  -0.00559  -0.00589   1.92344
   A13        1.98047  -0.00070   0.00000  -0.02946  -0.03003   1.95044
   A14        1.86621  -0.00833   0.00000  -0.02367  -0.02479   1.84142
   A15        1.96106  -0.00065   0.00000   0.00309   0.00269   1.96375
   A16        1.86389  -0.00127   0.00000  -0.00528  -0.00581   1.85808
   A17        1.94396  -0.00386   0.00000  -0.02035  -0.02084   1.92312
   A18        1.83781   0.01594   0.00000   0.08446   0.08455   1.92236
   A19        1.87224  -0.00494   0.00000  -0.02119  -0.02119   1.85105
   A20        1.86965  -0.00010   0.00000   0.02201   0.01883   1.88848
   A21        1.94653  -0.00251   0.00000  -0.02628  -0.02614   1.92039
   A22        1.99302   0.00746   0.00000   0.03176   0.03043   2.02345
   A23        1.98604  -0.00533   0.00000  -0.05128  -0.05032   1.93572
   A24        1.71421   0.00852   0.00000   0.07558   0.07383   1.78804
   A25        1.94292  -0.00669   0.00000  -0.03977  -0.03918   1.90374
   A26        1.99241   0.00038   0.00000  -0.00187  -0.00195   1.99045
   A27        1.98562  -0.00521   0.00000  -0.01851  -0.01852   1.96710
   A28        1.94989  -0.00331   0.00000  -0.01457  -0.01465   1.93524
   A29        1.84277   0.00294   0.00000   0.01320   0.01319   1.85596
   A30        1.88945  -0.00009   0.00000  -0.00704  -0.00718   1.88227
   A31        1.78904   0.00626   0.00000   0.03361   0.03361   1.82265
    D1       -1.02288   0.00147   0.00000   0.01392   0.01360  -1.00928
    D2       -3.02436   0.00236   0.00000   0.02131   0.02109  -3.00327
    D3        1.15390   0.00079   0.00000   0.00755   0.00723   1.16113
    D4        3.12233   0.00293   0.00000   0.02430   0.02422  -3.13664
    D5        1.12085   0.00383   0.00000   0.03169   0.03171   1.15256
    D6       -0.98407   0.00226   0.00000   0.01793   0.01785  -0.96623
    D7        1.18791  -0.00496   0.00000  -0.04494  -0.04464   1.14327
    D8       -0.81357  -0.00406   0.00000  -0.03755  -0.03715  -0.85072
    D9       -2.91849  -0.00563   0.00000  -0.05132  -0.05102  -2.96951
   D10        0.95334   0.00060   0.00000  -0.00105  -0.00114   0.95221
   D11        3.00370  -0.00675   0.00000  -0.03964  -0.03921   2.96449
   D12       -1.27149   0.00711   0.00000   0.04951   0.04934  -1.22215
   D13        3.09249   0.00145   0.00000   0.00216   0.00191   3.09441
   D14       -1.14034  -0.00590   0.00000  -0.03643  -0.03616  -1.17649
   D15        0.86766   0.00796   0.00000   0.05273   0.05239   0.92005
   D16       -1.11837  -0.00171   0.00000  -0.02052  -0.02061  -1.13898
   D17        0.93199  -0.00906   0.00000  -0.05911  -0.05868   0.87330
   D18        2.93998   0.00480   0.00000   0.03005   0.02986   2.96984
   D19       -2.68583   0.00286   0.00000   0.02474   0.02467  -2.66116
   D20       -0.56028  -0.00318   0.00000  -0.02572  -0.02601  -0.58630
   D21        1.50814  -0.00038   0.00000  -0.01003  -0.00966   1.49848
   D22       -1.00616   0.00490   0.00000   0.01709   0.01697  -0.98918
   D23        1.17763  -0.00352   0.00000  -0.04925  -0.04947   1.12816
   D24       -2.88411  -0.00867   0.00000  -0.10025  -0.10075  -2.98486
   D25        3.03293   0.00964   0.00000   0.07173   0.07177   3.10469
   D26       -1.06648   0.00122   0.00000   0.00540   0.00532  -1.06115
   D27        1.15497  -0.00393   0.00000  -0.04560  -0.04595   1.10902
   D28        1.01901   0.00405   0.00000   0.04034   0.04092   1.05993
   D29       -3.08039  -0.00437   0.00000  -0.02599  -0.02553  -3.10591
   D30       -0.85894  -0.00952   0.00000  -0.07699  -0.07680  -0.93575
   D31        0.89577   0.00463   0.00000   0.05538   0.05613   0.95190
   D32       -1.22095   0.00449   0.00000   0.05371   0.05448  -1.16647
   D33        3.04685   0.00216   0.00000   0.03289   0.03370   3.08055
   D34       -1.07674  -0.00254   0.00000  -0.02250  -0.02359  -1.10033
   D35        3.08973  -0.00267   0.00000  -0.02418  -0.02524   3.06448
   D36        1.07434  -0.00501   0.00000  -0.04500  -0.04602   1.02832
   D37        3.11908   0.00162   0.00000   0.01132   0.01157   3.13065
   D38        1.00236   0.00149   0.00000   0.00965   0.00992   1.01228
   D39       -1.01303  -0.00085   0.00000  -0.01117  -0.01086  -1.02389
         Item               Value     Threshold  Converged?
 Maximum Force            0.074558     0.000450     NO 
 RMS     Force            0.012755     0.000300     NO 
 Maximum Displacement     0.258615     0.001800     NO 
 RMS     Displacement     0.078061     0.001200     NO 
 Predicted change in Energy=-2.511046D-02
 Lowest energy point so far.  Saving SCF results.
 GradGradGradGradGradGradGradGradGradGradGradGradGradGradGradGradGradGrad

 Leave Link  103 at Wed Sep  7 15:33:30 2022, MaxMem=   131072000 cpu:               0.0 elap:               0.0
 (Enter /opt/g16/l202.exe)
                          Input orientation:                          
 ---------------------------------------------------------------------
 Center     Atomic      Atomic             Coordinates (Angstroms)
 Number     Number       Type             X           Y           Z
 ---------------------------------------------------------------------
      1          6           0       -1.273476   15.639218    3.779892
      2          1           0       -1.840476   14.718174    3.577223
      3          1           0       -1.331224   16.254292    2.865870
      4          1           0       -1.853507   16.245044    4.507757
      5          6           0        0.153715   15.402404    4.235354
      6          1           0        0.138882   14.776986    5.150042
      7          1           0        0.568582   16.375698    4.542340
      8          6           0        1.019015   14.781922    3.138449
      9          1           0        0.995222   15.384176    2.205236
     10          8           0        2.373981   14.846768    3.632742
     11          6           0        0.632441   13.318364    2.837780
     12          1           0        2.933884   14.887310    2.862582
     13          1           0        0.705322   12.729681    3.798818
     14          1           0       -0.398570   13.274233    2.422412
     15          6           0        1.572681   12.558166    1.915670
     16          1           0        2.618335   12.559147    2.244566
     17          1           0        1.570926   12.954370    0.883412
     18          1           0        1.254267   11.511047    1.807854
 ---------------------------------------------------------------------
                    Distance matrix (angstroms):
                    1          2          3          4          5
     1  C    0.000000
     2  H    1.100402   0.000000
     3  H    1.103217   1.767772   0.000000
     4  H    1.110517   1.788126   1.722979   0.000000
     5  C    1.516707   2.208642   2.192314   2.193897   0.000000
     6  H    2.148373   2.528848   3.092100   2.556821   1.108161
     7  H    2.125302   3.079350   2.536643   2.425857   1.101661
     8  C    2.530201   2.893660   2.786717   3.502443   1.528705
     9  H    2.773370   3.219797   2.570193   3.762706   2.197691
    10  O    3.735448   4.216783   4.037048   4.537893   2.366739
    11  C    3.147452   2.936249   3.532200   4.187387   2.554527
    12  H    4.371350   4.830510   4.478816   5.241102   3.143114
    13  H    3.518722   3.237946   4.176217   4.405448   2.763744
    14  H    2.863802   2.344705   3.153925   3.910398   2.849716
    15  C    4.590077   4.367611   4.795507   5.661337   3.934982
    16  H    5.195214   5.130143   5.444183   6.221353   4.256959
    17  H    4.867096   4.690978   4.821005   5.974206   4.385985
    18  H    5.226874   4.795181   5.504773   6.273632   4.716633
                    6          7          8          9         10
     6  H    0.000000
     7  H    1.763469   0.000000
     8  C    2.195715   2.171156   0.000000
     9  H    3.126321   2.574334   1.110929   0.000000
    10  O    2.702358   2.534651   1.443767   2.056102   0.000000
    11  C    2.778081   3.500984   1.543322   2.190730   2.449683
    12  H    3.613403   3.260604   1.937507   2.106512   0.953038
    13  H    2.517563   3.723569   2.178574   3.109644   2.700752
    14  H    3.160235   3.879247   2.189836   2.538046   3.409517
    15  C    4.176135   4.741430   2.597465   2.898903   2.971215
    16  H    4.416819   4.903806   2.880553   3.258348   2.686997
    17  H    4.855596   5.108613   2.954614   2.825351   3.432912
    18  H    4.804234   5.622491   3.538990   3.902069   3.963712
                   11         12         13         14         15
    11  C    0.000000
    12  H    2.785471   0.000000
    13  H    1.129359   3.240122   0.000000
    14  H    1.112413   3.728407   1.846513   0.000000
    15  C    1.520605   2.859096   2.080378   2.157631   0.000000
    16  H    2.207281   2.429375   2.470708   3.105591   1.096159
    17  H    2.198363   3.083995   3.049483   2.519871   1.105684
    18  H    2.171131   3.915702   2.397988   2.493668   1.099759
                   16         17         18
    16  H    0.000000
    17  H    1.762387   0.000000
    18  H    1.774799   1.743000   0.000000
 Stoichiometry    C5H12O
 Framework group  C1[X(C5H12O)]
 Deg. of freedom    48
 Full point group                 C1      NOp   1
 RotChk:  IX=0 Diff= 4.54D-02
 Largest Abelian subgroup         C1      NOp   1
 Largest concise Abelian subgroup C1      NOp   1
                         Standard orientation:                         
 ---------------------------------------------------------------------
 Center     Atomic      Atomic             Coordinates (Angstroms)
 Number     Number       Type             X           Y           Z
 ---------------------------------------------------------------------
      1          6           0        2.282088   -0.788580    0.178097
      2          1           0        1.927105   -1.768643   -0.174535
      3          1           0        2.335783   -0.848306    1.278386
      4          1           0        3.351575   -0.690058   -0.104287
      5          6           0        1.448799    0.383741   -0.303246
      6          1           0        1.432766    0.381041   -1.411288
      7          1           0        1.976100    1.306004   -0.011626
      8          6           0        0.037443    0.374285    0.284056
      9          1           0        0.053658    0.328320    1.393915
     10          8           0       -0.534056    1.653601   -0.064091
     11          6           0       -0.831242   -0.768056   -0.283647
     12          1           0       -1.178485    1.846909    0.610908
     13          1           0       -0.856434   -0.666659   -1.408163
     14          1           0       -0.409724   -1.752687    0.016829
     15          6           0       -2.306570   -0.726500    0.082306
     16          1           0       -2.802830    0.217826   -0.169766
     17          1           0       -2.483589   -0.892638    1.161009
     18          1           0       -2.856594   -1.539260   -0.414045
 ---------------------------------------------------------------------
 Rotational constants (GHZ):           5.1795899           2.2090985           1.6842313
 Leave Link  202 at Wed Sep  7 15:33:30 2022, MaxMem=   131072000 cpu:               0.0 elap:               0.0
 (Enter /opt/g16/l301.exe)
 Standard basis: VSTO-6G (5D, 7F)
 Ernie: Thresh=  0.10000D-02 Tol=  0.10000D-05 Strict=F.
  NNHCO=     0 NNPyr=     0 NCTC=     0               EPep=         0.000000000
    EC=       127.415146851  ECS=         2.164745990   EG=         0.560828598
   EHC=         0.000000000  EAt=       -36.836480110  AtH=         2.452923921
 EPDDG=         0.000000000  ECC=       130.140721440 EAtT=        39.289404030
 There are    36 symmetry adapted cartesian basis functions of A   symmetry.
 There are    36 symmetry adapted basis functions of A   symmetry.
    36 basis functions,   216 primitive gaussians,    36 cartesian basis functions
    19 alpha electrons       19 beta electrons
       nuclear repulsion energy       169.4301254704 Hartrees.
 IExCor=    0 DFT=F Ex=HF Corr=None ExCW=0 ScaHFX=  1.000000
 ScaDFX=  1.000000  1.000000  1.000000  1.000000 ScalE2=  1.000000  1.000000
 IRadAn=      5 IRanWt=     -1 IRanGd=            0 ICorTp=0 IEmpDi=  4
 Integral buffers will be    131072 words long.
 Regular integral format.
 Two-electron integral symmetry is turned off.
 Leave Link  301 at Wed Sep  7 15:33:30 2022, MaxMem=   131072000 cpu:               0.0 elap:               0.0
 (Enter /opt/g16/l302.exe)
 Do NDO integrals.
 NPDir=0 NMtPBC=     1 NCelOv=     1 NCel=       1 NClECP=     1 NCelD=      1
         NCelK=      1 NCelE2=     1 NClLst=     1 CellRange=     0.0.
 One-electron integrals computed using PRISM.
 NBasis=    36 RedAO= F EigKep=  0.00D+00  NBF=    36
 NBsUse=    36 1.00D-04 EigRej=  0.00D+00 NBFU=    36
 Leave Link  302 at Wed Sep  7 15:33:30 2022, MaxMem=   131072000 cpu:               0.0 elap:               0.0
 (Enter /opt/g16/l303.exe)
 DipDrv:  MaxL=1.
 Leave Link  303 at Wed Sep  7 15:33:30 2022, MaxMem=   131072000 cpu:               0.0 elap:               0.0
 (Enter /opt/g16/l401.exe)
 Initial guess from the checkpoint file:  "MD_extract_004_gaussian.chk"
 B after Tr=    -0.000000   -0.000000   -0.000000
         Rot=    0.999833    0.003212    0.001009    0.017988 Ang=   2.10 deg.
 Guess basis will be translated and rotated to current coordinates.
 JPrj=0 DoOrth=T DoCkMO=T.
 Leave Link  401 at Wed Sep  7 15:33:30 2022, MaxMem=   131072000 cpu:               0.0 elap:               0.0
 (Enter /opt/g16/l502.exe)
 Keep J ints in memory in canonical form, NReq=862161.
 FoFCou: FMM=F IPFlag=           0 FMFlag=           0 FMFlg1=           0
         NFxFlg=           0 DoJE=F BraDBF=F KetDBF=F FulRan=T
         wScrn=  0.000000 ICntrl=       600 IOpCl=  2 I1Cent=           0 NGrid=           0
         NMat0=    1 NMatS0=     72 NMatT0=    0 NMatD0=    1 NMtDS0=    0 NMtDT0=    0
 Symmetry not used in FoFCou.
 Two-electron integral symmetry not used.
 Closed shell SCF:
 Using DIIS extrapolation, IDIIS=  1040.
 Overlap will be assumed to be unity.
 NGot=   131072000 LenX=   131006778 LenY=   131005041
 Requested convergence on RMS density matrix=1.00D-08 within 128 cycles.
 Requested convergence on MAX density matrix=1.00D-06.
 Requested convergence on             energy=1.00D-06.
 No special actions if energy rises.

 Cycle   1  Pass 1  IDiag  1:
 E=-0.100746883890878    
 DIIS: error= 6.83D-03 at cycle   1 NSaved=   1.
 NSaved= 1 IEnMin= 1 EnMin=-0.100746883890878     IErMin= 1 ErrMin= 6.83D-03
 ErrMax= 6.83D-03  0.00D+00 EMaxC= 1.00D-01 BMatC= 2.63D-03 BMatP= 2.63D-03
 IDIUse=3 WtCom= 9.32D-01 WtEn= 6.83D-02
 Coeff-Com:  0.100D+01
 Coeff-En:   0.100D+01
 Coeff:      0.100D+01
 GapD=    2.000 DampG=2.000 DampE=1.000 DampFc=2.0000 IDamp=-1.
 RMSDP=2.51D-03 MaxDP=1.69D-02              OVMax= 0.00D+00

 Cycle   2  Pass 1  IDiag  3:
 E=-0.109411472784018     Delta-E=       -0.008664588893 Rises=F Damp=F
 DIIS: error= 2.91D-03 at cycle   2 NSaved=   2.
 NSaved= 2 IEnMin= 2 EnMin=-0.109411472784018     IErMin= 2 ErrMin= 2.91D-03
 ErrMax= 2.91D-03  0.00D+00 EMaxC= 1.00D-01 BMatC= 3.55D-04 BMatP= 2.63D-03
 IDIUse=3 WtCom= 9.71D-01 WtEn= 2.91D-02
 Coeff-Com: -0.479D+00 0.148D+01
 Coeff-En:   0.000D+00 0.100D+01
 Coeff:     -0.465D+00 0.147D+01
 Gap=     0.520 Goal=   None    Shift=    0.000
 RMSDP=1.52D-03 MaxDP=1.14D-02 DE=-8.66D-03 OVMax= 7.80D-03

 Cycle   3  Pass 1  IDiag  3:
 E=-0.111096881913227     Delta-E=       -0.001685409129 Rises=F Damp=F
 DIIS: error= 8.42D-04 at cycle   3 NSaved=   3.
 NSaved= 3 IEnMin= 3 EnMin=-0.111096881913227     IErMin= 3 ErrMin= 8.42D-04
 ErrMax= 8.42D-04  0.00D+00 EMaxC= 1.00D-01 BMatC= 1.67D-05 BMatP= 3.55D-04
 IDIUse=3 WtCom= 9.92D-01 WtEn= 8.42D-03
 Coeff-Com:  0.211D+00-0.773D+00 0.156D+01
 Coeff-En:   0.000D+00 0.000D+00 0.100D+01
 Coeff:      0.209D+00-0.766D+00 0.156D+01
 Gap=     0.520 Goal=   None    Shift=    0.000
 RMSDP=4.41D-04 MaxDP=4.48D-03 DE=-1.69D-03 OVMax= 3.10D-03

 Cycle   4  Pass 1  IDiag  3:
 E=-0.111204195157455     Delta-E=       -0.000107313244 Rises=F Damp=F
 DIIS: error= 1.98D-04 at cycle   4 NSaved=   4.
 NSaved= 4 IEnMin= 4 EnMin=-0.111204195157455     IErMin= 4 ErrMin= 1.98D-04
 ErrMax= 1.98D-04  0.00D+00 EMaxC= 1.00D-01 BMatC= 1.12D-06 BMatP= 1.67D-05
 IDIUse=3 WtCom= 9.98D-01 WtEn= 1.98D-03
 Coeff-Com: -0.127D+00 0.481D+00-0.113D+01 0.177D+01
 Coeff-En:   0.000D+00 0.000D+00 0.000D+00 0.100D+01
 Coeff:     -0.127D+00 0.480D+00-0.113D+01 0.177D+01
 Gap=     0.520 Goal=   None    Shift=    0.000
 RMSDP=1.44D-04 MaxDP=1.55D-03 DE=-1.07D-04 OVMax= 1.62D-03

 Cycle   5  Pass 1  IDiag  3:
 E=-0.111213184878920     Delta-E=       -0.000008989721 Rises=F Damp=F
 DIIS: error= 4.53D-05 at cycle   5 NSaved=   5.
 NSaved= 5 IEnMin= 5 EnMin=-0.111213184878920     IErMin= 5 ErrMin= 4.53D-05
 ErrMax= 4.53D-05  0.00D+00 EMaxC= 1.00D-01 BMatC= 6.73D-08 BMatP= 1.12D-06
 IDIUse=1 WtCom= 1.00D+00 WtEn= 0.00D+00
 Coeff-Com:  0.626D-01-0.237D+00 0.573D+00-0.107D+01 0.167D+01
 Coeff:      0.626D-01-0.237D+00 0.573D+00-0.107D+01 0.167D+01
 Gap=     0.520 Goal=   None    Shift=    0.000
 RMSDP=3.71D-05 MaxDP=3.51D-04 DE=-8.99D-06 OVMax= 4.57D-04

 Cycle   6  Pass 1  IDiag  3:
 E=-0.111213721292984     Delta-E=       -0.000000536414 Rises=F Damp=F
 DIIS: error= 9.62D-06 at cycle   6 NSaved=   6.
 NSaved= 6 IEnMin= 6 EnMin=-0.111213721292984     IErMin= 6 ErrMin= 9.62D-06
 ErrMax= 9.62D-06  0.00D+00 EMaxC= 1.00D-01 BMatC= 2.87D-09 BMatP= 6.73D-08
 IDIUse=1 WtCom= 1.00D+00 WtEn= 0.00D+00
 Coeff-Com: -0.187D-01 0.707D-01-0.172D+00 0.334D+00-0.661D+00 0.145D+01
 Coeff:     -0.187D-01 0.707D-01-0.172D+00 0.334D+00-0.661D+00 0.145D+01
 Gap=     0.520 Goal=   None    Shift=    0.000
 RMSDP=6.43D-06 MaxDP=6.15D-05 DE=-5.36D-07 OVMax= 7.11D-05

 Cycle   7  Pass 1  IDiag  3:
 E=-0.111213740860478     Delta-E=       -0.000000019567 Rises=F Damp=F
 DIIS: error= 3.27D-06 at cycle   7 NSaved=   7.
 NSaved= 7 IEnMin= 7 EnMin=-0.111213740860478     IErMin= 7 ErrMin= 3.27D-06
 ErrMax= 3.27D-06  0.00D+00 EMaxC= 1.00D-01 BMatC= 2.08D-10 BMatP= 2.87D-09
 IDIUse=1 WtCom= 1.00D+00 WtEn= 0.00D+00
 Coeff-Com:  0.553D-02-0.209D-01 0.508D-01-0.996D-01 0.214D+00-0.652D+00
 Coeff-Com:  0.150D+01
 Coeff:      0.553D-02-0.209D-01 0.508D-01-0.996D-01 0.214D+00-0.652D+00
 Coeff:      0.150D+01
 Gap=     0.520 Goal=   None    Shift=    0.000
 RMSDP=1.60D-06 MaxDP=1.77D-05 DE=-1.96D-08 OVMax= 1.58D-05

 Cycle   8  Pass 1  IDiag  3:
 E=-0.111213742257547     Delta-E=       -0.000000001397 Rises=F Damp=F
 DIIS: error= 9.56D-07 at cycle   8 NSaved=   8.
 NSaved= 8 IEnMin= 8 EnMin=-0.111213742257547     IErMin= 8 ErrMin= 9.56D-07
 ErrMax= 9.56D-07  0.00D+00 EMaxC= 1.00D-01 BMatC= 1.76D-11 BMatP= 2.08D-10
 IDIUse=1 WtCom= 1.00D+00 WtEn= 0.00D+00
 Coeff-Com: -0.158D-02 0.595D-02-0.144D-01 0.283D-01-0.642D-01 0.225D+00
 Coeff-Com: -0.762D+00 0.158D+01
 Coeff:     -0.158D-02 0.595D-02-0.144D-01 0.283D-01-0.642D-01 0.225D+00
 Coeff:     -0.762D+00 0.158D+01
 Gap=     0.520 Goal=   None    Shift=    0.000
 RMSDP=5.24D-07 MaxDP=6.73D-06 DE=-1.40D-09 OVMax= 6.33D-06

 Cycle   9  Pass 1  IDiag  3:
 E=-0.111213742384592     Delta-E=       -0.000000000127 Rises=F Damp=F
 DIIS: error= 1.93D-07 at cycle   9 NSaved=   9.
 NSaved= 9 IEnMin= 9 EnMin=-0.111213742384592     IErMin= 9 ErrMin= 1.93D-07
 ErrMax= 1.93D-07  0.00D+00 EMaxC= 1.00D-01 BMatC= 1.01D-12 BMatP= 1.76D-11
 IDIUse=1 WtCom= 1.00D+00 WtEn= 0.00D+00
 Coeff-Com:  0.270D-03-0.101D-02 0.243D-02-0.482D-02 0.125D-01-0.530D-01
 Coeff-Com:  0.236D+00-0.709D+00 0.152D+01
 Coeff:      0.270D-03-0.101D-02 0.243D-02-0.482D-02 0.125D-01-0.530D-01
 Coeff:      0.236D+00-0.709D+00 0.152D+01
 Gap=     0.520 Goal=   None    Shift=    0.000
 RMSDP=1.21D-07 MaxDP=1.50D-06 DE=-1.27D-10 OVMax= 1.52D-06

 Cycle  10  Pass 1  IDiag  3:
 E=-0.111213742391300     Delta-E=       -0.000000000007 Rises=F Damp=F
 DIIS: error= 2.74D-08 at cycle  10 NSaved=  10.
 NSaved=10 IEnMin=10 EnMin=-0.111213742391300     IErMin=10 ErrMin= 2.74D-08
 ErrMax= 2.74D-08  0.00D+00 EMaxC= 1.00D-01 BMatC= 4.10D-14 BMatP= 1.01D-12
 IDIUse=1 WtCom= 1.00D+00 WtEn= 0.00D+00
 Coeff-Com: -0.134D-04 0.466D-04-0.109D-03 0.245D-03-0.127D-02 0.856D-02
 Coeff-Com: -0.504D-01 0.185D+00-0.563D+00 0.142D+01
 Coeff:     -0.134D-04 0.466D-04-0.109D-03 0.245D-03-0.127D-02 0.856D-02
 Coeff:     -0.504D-01 0.185D+00-0.563D+00 0.142D+01
 Gap=     0.520 Goal=   None    Shift=    0.000
 RMSDP=2.21D-08 MaxDP=2.02D-07 DE=-6.71D-12 OVMax= 2.12D-07

 Cycle  11  Pass 1  IDiag  3:
 E=-0.111213742391357     Delta-E=       -0.000000000000 Rises=F Damp=F
 DIIS: error= 4.37D-09 at cycle  11 NSaved=  11.
 NSaved=11 IEnMin=11 EnMin=-0.111213742391357     IErMin=11 ErrMin= 4.37D-09
 ErrMax= 4.37D-09  0.00D+00 EMaxC= 1.00D-01 BMatC= 1.15D-15 BMatP= 4.10D-14
 IDIUse=1 WtCom= 1.00D+00 WtEn= 0.00D+00
 Coeff-Com:  0.158D-05-0.490D-05 0.108D-04-0.293D-04 0.255D-03-0.196D-02
 Coeff-Com:  0.122D-01-0.461D-01 0.150D+00-0.483D+00 0.137D+01
 Coeff:      0.158D-05-0.490D-05 0.108D-04-0.293D-04 0.255D-03-0.196D-02
 Coeff:      0.122D-01-0.461D-01 0.150D+00-0.483D+00 0.137D+01
 Gap=     0.520 Goal=   None    Shift=    0.000
 RMSDP=3.26D-09 MaxDP=2.50D-08 DE=-5.68D-14 OVMax= 2.00D-08

 Cycle  12  Pass 2  IDiag  1:
 SCF Done:  E(RPM3) = -0.111213742391     A.U. after   12 cycles
            NFock= 11  Conv=0.33D-08     -V/T= 0.9981
 KE=-5.963152377396D+01 PE=-2.534307210785D+02 EE= 1.435209056396D+02
 Leave Link  502 at Wed Sep  7 15:33:30 2022, MaxMem=   131072000 cpu:               0.0 elap:               0.0
 (Enter /opt/g16/l701.exe)
 ... and contract with generalized density number  0.
 Compute integral first derivatives.
 Leave Link  701 at Wed Sep  7 15:33:30 2022, MaxMem=   131072000 cpu:               0.0 elap:               0.0
 (Enter /opt/g16/l702.exe)
 L702 exits ... SP integral derivatives will be done elsewhere.
 Leave Link  702 at Wed Sep  7 15:33:30 2022, MaxMem=   131072000 cpu:               0.0 elap:               0.0
 (Enter /opt/g16/l703.exe)
 Integral derivatives from FoFJK, PRISM(SPDF).
 Compute integral first derivatives, UseDBF=F ICtDFT=           0.
 Calling FoFJK, ICntrl=      2127 FMM=F ISym2X=0 I1Cent= 0 IOpClX= 0 NMat=1 NMatS=1 NMatT=0.
 FoFJK:  IHMeth= 9 ICntrl=    2127 DoSepK=F KAlg= 0 I1Cent=           0 FoldK=F
 IRaf=         0 NMat=       1 IRICut=       1 DoRegI=T DoRafI=F ISym2E= 0 IDoP0=3 IntGTp=3.
 FoFCou: FMM=F IPFlag=           0 FMFlag=      100000 FMFlg1=         800
         NFxFlg=           0 DoJE=F BraDBF=F KetDBF=F FulRan=T
         wScrn=  0.000000 ICntrl=      2127 IOpCl=  0 I1Cent=           0 NGrid=           0
         NMat0=    1 NMatS0=      1 NMatT0=    0 NMatD0=    1 NMtDS0=    0 NMtDT0=    0
 Symmetry not used in FoFCou.
 Leave Link  703 at Wed Sep  7 15:33:31 2022, MaxMem=   131072000 cpu:               0.0 elap:               0.0
 (Enter /opt/g16/l716.exe)
 Dipole        =-1.01573407D-01-3.67091931D-01 4.33522890D-01
 ***** Axes restored to original set *****
 -------------------------------------------------------------------
 Center     Atomic                   Forces (Hartrees/Bohr)
 Number     Number              X              Y              Z
 -------------------------------------------------------------------
      1        6          -0.006309477    0.010373300   -0.001740991
      2        1           0.002895999    0.000811724    0.002213151
      3        1           0.003837151   -0.003769462   -0.001966447
      4        1           0.004292045   -0.008123610    0.000709511
      5        6          -0.013932688   -0.000803331   -0.002007728
      6        1           0.002346389   -0.001274738   -0.001163742
      7        1           0.004387388    0.002651873    0.001467158
      8        6           0.022536536   -0.007928638    0.000820677
      9        1          -0.004335485    0.001458864   -0.001856686
     10        8          -0.010143581    0.000435975   -0.008235455
     11        6           0.011868339   -0.011037085    0.011153787
     12        1          -0.005354653   -0.001852837    0.004966098
     13        1          -0.010830826    0.008766438   -0.007729774
     14        1           0.003725632    0.000344733    0.006039198
     15        6          -0.005493115    0.007793582   -0.012591487
     16        1          -0.000192730    0.000187466    0.002745642
     17        1           0.000052356    0.002116081    0.004027828
     18        1           0.000650720   -0.000150337    0.003149259
 -------------------------------------------------------------------
 Cartesian Forces:  Max     0.022536536 RMS     0.006555881
 Leave Link  716 at Wed Sep  7 15:33:31 2022, MaxMem=   131072000 cpu:               0.0 elap:               0.0
 (Enter /opt/g16/l103.exe)

 GradGradGradGradGradGradGradGradGradGradGradGradGradGradGradGradGradGrad
 Berny optimization.
 Using GEDIIS/GDIIS optimizer.
 FormGI is forming the generalized inverse of G from B-inverse, IUseBI=4.
 Internal  Forces:  Max     0.015727937 RMS     0.003779405
 Search for a local minimum.
 Step number   2 out of a maximum of   97
 All quantities printed in internal units (Hartrees-Bohrs-Radians)
 RMS Force = .37794D-02 SwitMx=.10000D-02 MixMth= 1
 Mixed Optimization -- RFO/linear search
 Update second derivatives using D2CorX and points    1    2
 DE= -2.08D-02 DEPred=-2.51D-02 R= 8.28D-01
 TightC=F SS=  1.41D+00  RLast= 3.89D-01 DXNew= 5.0454D-01 1.1660D+00
 Trust test= 8.28D-01 RLast= 3.89D-01 DXMaxT set to 5.05D-01
 ITU=  1  0
 Use linear search instead of GDIIS.
     Eigenvalues ---    0.00433   0.00733   0.01041   0.01120   0.01451
     Eigenvalues ---    0.03666   0.04101   0.04757   0.05076   0.05163
     Eigenvalues ---    0.05192   0.05370   0.05463   0.05568   0.05752
     Eigenvalues ---    0.07989   0.08625   0.08804   0.12369   0.12543
     Eigenvalues ---    0.15498   0.16000   0.16000   0.16000   0.16000
     Eigenvalues ---    0.16000   0.16019   0.17058   0.19412   0.21739
     Eigenvalues ---    0.22290   0.25967   0.29027   0.29790   0.30174
     Eigenvalues ---    0.31846   0.32142   0.32222   0.33791   0.34068
     Eigenvalues ---    0.34318   0.34419   0.34730   0.36012   0.36849
     Eigenvalues ---    0.38022   0.50406   0.52044
 RFO step:  Lambda=-8.75682534D-03 EMin= 4.33241041D-03
 Quartic linear search produced a step of  0.16867.
 Iteration  1 RMS(Cart)=  0.06287434 RMS(Int)=  0.00210138
 Iteration  2 RMS(Cart)=  0.00285192 RMS(Int)=  0.00045539
 Iteration  3 RMS(Cart)=  0.00000422 RMS(Int)=  0.00045537
 Iteration  4 RMS(Cart)=  0.00000000 RMS(Int)=  0.00045537
 ITry= 1 IFail=0 DXMaxC= 2.43D-01 DCOld= 1.00D+10 DXMaxT= 5.05D-01 DXLimC= 3.00D+00 Rises=F
 Variable       Old X    -DE/DX   Delta X   Delta X   Delta X     New X
                                 (Linear)    (Quad)   (Total)
    R1        2.07946  -0.00258  -0.00516  -0.00768  -0.01284   2.06662
    R2        2.08478  -0.00067   0.00283  -0.00296  -0.00013   2.08465
    R3        2.09857  -0.00621  -0.00711  -0.02102  -0.02813   2.07044
    R4        2.86616  -0.00431   0.00454  -0.01626  -0.01172   2.85444
    R5        2.09412  -0.00027   0.00370  -0.00188   0.00181   2.09593
    R6        2.08184   0.00440   0.00948   0.01087   0.02035   2.10219
    R7        2.88883  -0.00043   0.02566  -0.00808   0.01758   2.90641
    R8        2.09935   0.00244   0.00583   0.00640   0.01223   2.11158
    R9        2.72832  -0.01573   0.00018  -0.04528  -0.04510   2.68323
   R10        2.91646  -0.00888   0.02032  -0.03419  -0.01388   2.90258
   R11        1.80098  -0.00724  -0.00769  -0.01375  -0.02144   1.77954
   R12        2.13418  -0.01185  -0.01324  -0.04551  -0.05874   2.07544
   R13        2.10216  -0.00572  -0.00978  -0.01918  -0.02896   2.07319
   R14        2.87353  -0.00644  -0.00146  -0.02370  -0.02516   2.84837
   R15        2.07144   0.00064   0.00175   0.00160   0.00335   2.07479
   R16        2.08944  -0.00300  -0.00264  -0.00975  -0.01239   2.07705
   R17        2.07824  -0.00035   0.00024  -0.00124  -0.00100   2.07724
    A1        1.86198   0.00242   0.00214   0.00923   0.01094   1.87293
    A2        1.88410   0.00134  -0.00162  -0.00876  -0.01204   1.87206
    A3        1.99267  -0.00286  -0.00543  -0.03269  -0.03924   1.95343
    A4        1.78394   0.00638   0.01123   0.06913   0.08047   1.86441
    A5        1.96612  -0.00288  -0.00050  -0.00883  -0.00951   1.95661
    A6        1.96042  -0.00309  -0.00344  -0.01659  -0.02086   1.93955
    A7        1.90011   0.00225  -0.00094   0.01835   0.01719   1.91730
    A8        1.87559   0.00248   0.00021   0.02920   0.02930   1.90489
    A9        1.96116  -0.00194   0.00569  -0.01132  -0.00557   1.95559
   A10        1.84798  -0.00029  -0.00077   0.00085  -0.00060   1.84738
   A11        1.95063  -0.00159  -0.00339  -0.02532  -0.02872   1.92191
   A12        1.92344  -0.00064  -0.00099  -0.00875  -0.00986   1.91358
   A13        1.95044  -0.00089  -0.00506  -0.02010  -0.02579   1.92465
   A14        1.84142   0.00157  -0.00418   0.01354   0.00944   1.85086
   A15        1.96375  -0.00255   0.00045  -0.02155  -0.02155   1.94220
   A16        1.85808   0.00118  -0.00098   0.03273   0.03177   1.88984
   A17        1.92312   0.00054  -0.00351  -0.00418  -0.00876   1.91436
   A18        1.92236   0.00041   0.01426   0.00381   0.01815   1.94051
   A19        1.85105  -0.00264  -0.00357  -0.01699  -0.02057   1.83049
   A20        1.88848   0.00109   0.00318   0.02103   0.02374   1.91222
   A21        1.92039   0.00165  -0.00441  -0.02777  -0.03330   1.88709
   A22        2.02345  -0.01103   0.00513  -0.04926  -0.04533   1.97812
   A23        1.93572  -0.00492  -0.00849  -0.05122  -0.06001   1.87570
   A24        1.78804   0.00958   0.01245   0.10546   0.11757   1.90561
   A25        1.90374   0.00379  -0.00661   0.00721  -0.00142   1.90232
   A26        1.99045  -0.00302  -0.00033  -0.02925  -0.02996   1.96049
   A27        1.96710  -0.00214  -0.00312  -0.00790  -0.01117   1.95594
   A28        1.93524  -0.00067  -0.00247  -0.00119  -0.00388   1.93135
   A29        1.85596   0.00240   0.00222   0.01093   0.01287   1.86883
   A30        1.88227   0.00083  -0.00121  -0.00475  -0.00639   1.87588
   A31        1.82265   0.00334   0.00567   0.03827   0.04397   1.86661
    D1       -1.00928   0.00176   0.00229   0.02211   0.02424  -0.98504
    D2       -3.00327  -0.00031   0.00356  -0.00313   0.00000  -3.00326
    D3        1.16113   0.00002   0.00122  -0.00488  -0.00404   1.15709
    D4       -3.13664   0.00299   0.00408   0.04189   0.04600  -3.09064
    D5        1.15256   0.00093   0.00535   0.01666   0.02177   1.17432
    D6       -0.96623   0.00125   0.00301   0.01490   0.01772  -0.94851
    D7        1.14327  -0.00119  -0.00753  -0.02882  -0.03572   1.10755
    D8       -0.85072  -0.00325  -0.00627  -0.05405  -0.05995  -0.91067
    D9       -2.96951  -0.00293  -0.00861  -0.05580  -0.06400  -3.03351
   D10        0.95221  -0.00104  -0.00019  -0.02274  -0.02277   0.92944
   D11        2.96449   0.00081  -0.00661   0.01385   0.00720   2.97170
   D12       -1.22215   0.00089   0.00832   0.01507   0.02309  -1.19907
   D13        3.09441  -0.00071   0.00032  -0.02596  -0.02545   3.06895
   D14       -1.17649   0.00115  -0.00610   0.01063   0.00452  -1.17198
   D15        0.92005   0.00123   0.00884   0.01185   0.02040   0.94045
   D16       -1.13898  -0.00247  -0.00348  -0.04626  -0.04941  -1.18840
   D17        0.87330  -0.00061  -0.00990  -0.00967  -0.01944   0.85386
   D18        2.96984  -0.00053   0.00504  -0.00845  -0.00356   2.96628
   D19       -2.66116  -0.00159   0.00416  -0.05450  -0.05037  -2.71153
   D20       -0.58630  -0.00128  -0.00439  -0.05522  -0.05977  -0.64607
   D21        1.49848   0.00029  -0.00163  -0.03890  -0.04034   1.45813
   D22       -0.98918   0.00207   0.00286   0.02145   0.02434  -0.96484
   D23        1.12816  -0.00227  -0.00834  -0.04496  -0.05373   1.07443
   D24       -2.98486  -0.00429  -0.01699  -0.09660  -0.11304  -3.09790
   D25        3.10469   0.00472   0.01210   0.06718   0.07918  -3.09931
   D26       -1.06115   0.00038   0.00090   0.00076   0.00111  -1.06004
   D27        1.10902  -0.00163  -0.00775  -0.05087  -0.05820   1.05082
   D28        1.05993   0.00270   0.00690   0.02736   0.03427   1.09420
   D29       -3.10591  -0.00164  -0.00431  -0.03905  -0.04381   3.13346
   D30       -0.93575  -0.00365  -0.01295  -0.09069  -0.10312  -1.03886
   D31        0.95190   0.00215   0.00947   0.06438   0.07391   1.02581
   D32       -1.16647   0.00292   0.00919   0.07823   0.08744  -1.07903
   D33        3.08055   0.00053   0.00568   0.03593   0.04183   3.12238
   D34       -1.10033   0.00001  -0.00398  -0.00653  -0.01059  -1.11093
   D35        3.06448   0.00078  -0.00426   0.00732   0.00293   3.06741
   D36        1.02832  -0.00162  -0.00776  -0.03499  -0.04268   0.98564
   D37        3.13065  -0.00084   0.00195  -0.00445  -0.00259   3.12806
   D38        1.01228  -0.00007   0.00167   0.00940   0.01094   1.02322
   D39       -1.02389  -0.00247  -0.00183  -0.03290  -0.03467  -1.05856
         Item               Value     Threshold  Converged?
 Maximum Force            0.015728     0.000450     NO 
 RMS     Force            0.003779     0.000300     NO 
 Maximum Displacement     0.242623     0.001800     NO 
 RMS     Displacement     0.063730     0.001200     NO 
 Predicted change in Energy=-4.639310D-03
 Lowest energy point so far.  Saving SCF results.
 GradGradGradGradGradGradGradGradGradGradGradGradGradGradGradGradGradGrad

[...]
 ! A10   A(6,5,7)              105.5911         -DE/DX =    0.0                 !
 ! A11   A(6,5,8)              109.8222         -DE/DX =    0.0                 !
 ! A12   A(7,5,8)              109.9555         -DE/DX =    0.0                 !
 ! A13   A(5,8,9)              109.3998         -DE/DX =    0.0                 !
 ! A14   A(5,8,10)             106.3982         -DE/DX =    0.0                 !
 ! A15   A(5,8,11)             110.6544         -DE/DX =    0.0                 !
 ! A16   A(9,8,10)             108.316          -DE/DX =    0.0                 !
 ! A17   A(9,8,11)             109.5777         -DE/DX =    0.0                 !
 ! A18   A(10,8,11)            112.3985         -DE/DX =    0.0                 !
 ! A19   A(8,10,12)            106.4197         -DE/DX =    0.0                 !
 ! A20   A(8,11,13)            110.1561         -DE/DX =    0.0                 !
 ! A21   A(8,11,14)            107.7449         -DE/DX =    0.0                 !
 ! A22   A(8,11,15)            112.5413         -DE/DX =    0.0                 !
 ! A23   A(13,11,14)           105.7308         -DE/DX =    0.0                 !
 ! A24   A(13,11,15)           110.323          -DE/DX =    0.0                 !
 ! A25   A(14,11,15)           110.0898         -DE/DX =    0.0                 !
 ! A26   A(11,15,16)           112.0642         -DE/DX =    0.0                 !
 ! A27   A(11,15,17)           111.763          -DE/DX =    0.0                 !
 ! A28   A(11,15,18)           111.1001         -DE/DX =    0.0                 !
 ! A29   A(16,15,17)           107.2316         -DE/DX =    0.0                 !
 ! A30   A(16,15,18)           107.0679         -DE/DX =    0.0                 !
 ! A31   A(17,15,18)           107.3452         -DE/DX =    0.0                 !
 ! D1    D(2,1,5,6)            -69.0196         -DE/DX =    0.0                 !
 ! D2    D(2,1,5,7)            174.881          -DE/DX =    0.0                 !
 ! D3    D(2,1,5,8)             52.8821         -DE/DX =    0.0                 !
 ! D4    D(3,1,5,6)            171.4432         -DE/DX =    0.0                 !
 ! D5    D(3,1,5,7)             55.3437         -DE/DX =    0.0                 !
 ! D6    D(3,1,5,8)            -66.6552         -DE/DX =    0.0                 !
 ! D7    D(4,1,5,6)             50.9803         -DE/DX =    0.0                 !
 ! D8    D(4,1,5,7)            -65.1192         -DE/DX =    0.0                 !
 ! D9    D(4,1,5,8)            172.8819         -DE/DX =    0.0                 !
 ! D10   D(1,5,8,9)             54.4809         -DE/DX =    0.0                 !
 ! D11   D(1,5,8,10)           171.2844         -DE/DX =    0.0                 !
 ! D12   D(1,5,8,11)           -66.3432         -DE/DX =    0.0                 !
 ! D13   D(6,5,8,9)            176.6144         -DE/DX =    0.0                 !
 ! D14   D(6,5,8,10)           -66.582          -DE/DX =    0.0                 !
 ! D15   D(6,5,8,11)            55.7904         -DE/DX =    0.0                 !
 ! D16   D(7,5,8,9)            -67.6112         -DE/DX =    0.0                 !
 ! D17   D(7,5,8,10)            49.1923         -DE/DX =    0.0                 !
 ! D18   D(7,5,8,11)           171.5647         -DE/DX =    0.0                 !
 ! D19   D(5,8,10,12)          171.4368         -DE/DX =    0.0                 !
 ! D20   D(9,8,10,12)          -71.0382         -DE/DX =    0.0                 !
 ! D21   D(11,8,10,12)          50.1732         -DE/DX =    0.0                 !
 ! D22   D(5,8,11,13)          -71.4391         -DE/DX =    0.0                 !
 ! D23   D(5,8,11,14)           43.4392         -DE/DX =    0.0                 !
 ! D24   D(5,8,11,15)          164.9932         -DE/DX =    0.0                 !
 ! D25   D(9,8,11,13)          167.8426         -DE/DX =    0.0                 !
 ! D26   D(9,8,11,14)          -77.2792         -DE/DX =    0.0                 !
 ! D27   D(9,8,11,15)           44.2748         -DE/DX =    0.0                 !
 ! D28   D(10,8,11,13)          47.3563         -DE/DX =    0.0                 !
 ! D29   D(10,8,11,14)         162.2345         -DE/DX =    0.0                 !
 ! D30   D(10,8,11,15)         -76.2115         -DE/DX =    0.0                 !
 ! D31   D(8,11,15,16)          62.0476         -DE/DX =    0.0                 !
 ! D32   D(8,11,15,17)         -58.3497         -DE/DX =    0.0                 !
 ! D33   D(8,11,15,18)        -178.2257         -DE/DX =    0.0                 !
 ! D34   D(13,11,15,16)        -61.4272         -DE/DX =    0.0                 !
 ! D35   D(13,11,15,17)        178.1755         -DE/DX =    0.0                 !
 ! D36   D(13,11,15,18)         58.2995         -DE/DX =    0.0                 !
 ! D37   D(14,11,15,16)       -177.7422         -DE/DX =    0.0                 !
 ! D38   D(14,11,15,17)         61.8605         -DE/DX =    0.0                 !
 ! D39   D(14,11,15,18)        -58.0155         -DE/DX =    0.0                 !
 --------------------------------------------------------------------------------
 Lowest energy point so far.  Saving SCF results.
 Largest change from initial coordinates is atom   14       0.172 Angstoms.
 GradGradGradGradGradGradGradGradGradGradGradGradGradGradGradGradGradGrad

 Leave Link  103 at Wed Sep  7 15:33:35 2022, MaxMem=   131072000 cpu:               0.0 elap:               0.0
 (Enter /opt/g16/l202.exe)
                          Input orientation:                          
 ---------------------------------------------------------------------
 Center     Atomic      Atomic             Coordinates (Angstroms)
 Number     Number       Type             X           Y           Z
 ---------------------------------------------------------------------
      1          6           0       -1.241457   15.561653    3.613672
      2          1           0       -1.583649   14.565730    3.283905
      3          1           0       -1.284132   16.226707    2.741343
      4          1           0       -1.960932   15.936999    4.351212
      5          6           0        0.153650   15.480933    4.192043
      6          1           0        0.138237   14.930987    5.154115
      7          1           0        0.524642   16.496260    4.435317
      8          6           0        1.116731   14.791236    3.212869
      9          1           0        1.080466   15.315228    2.224677
     10          8           0        2.416614   14.948826    3.752794
     11          6           0        0.734533   13.312553    3.026676
     12          1           0        2.993238   14.412022    3.224568
     13          1           0        0.974969   12.737782    3.942899
     14          1           0       -0.372880   13.259137    2.918550
     15          6           0        1.404148   12.688099    1.824551
     16          1           0        2.499439   12.687655    1.915899
     17          1           0        1.155199   13.221231    0.896994
     18          1           0        1.091185   11.643963    1.695916
 ---------------------------------------------------------------------
                    Distance matrix (angstroms):
                    1          2          3          4          5
     1  C    0.000000
     2  H    1.103496   0.000000
     3  H    1.097759   1.772831   0.000000
     4  H    1.096583   1.778163   1.770216   0.000000
     5  C    1.512399   2.163451   2.174379   2.169052   0.000000
     6  H    2.162003   2.568266   3.086015   2.462361   1.108269
     7  H    2.160485   3.081816   2.492763   2.549103   1.108020
     8  C    2.513013   2.710711   2.836734   3.475717   1.536877
     9  H    2.716865   2.963313   2.586322   3.762825   2.181049
    10  O    3.711656   4.045828   4.043703   4.527416   2.365816
    11  C    3.050828   2.647752   3.556504   3.988439   2.529304
    12  H    4.405190   4.579852   4.671454   5.304591   3.184626
    13  H    3.604883   3.212817   4.326647   4.361333   2.874285
    14  H    2.557186   1.818415   3.109382   3.427153   2.614459
    15  C    4.296218   3.818658   4.537522   5.316308   3.868939
    16  H    5.013641   4.697895   5.246109   6.031907   4.299530
    17  H    4.312988   3.873798   4.287755   5.386769   4.119065
    18  H    4.946443   4.267689   5.266554   5.898828   4.672468
                    6          7          8          9         10
     6  H    0.000000
     7  H    1.765237   0.000000
     8  C    2.178398   2.179921   0.000000
     9  H    3.101136   2.567237   1.119110   0.000000
    10  O    2.674887   2.537706   1.416350   2.062688   0.000000
    11  C    2.738776   3.487738   1.538586   2.184853   2.456426
    12  H    3.484754   3.450207   1.914476   2.339714   0.948513
    13  H    2.641460   3.817254   2.183967   3.099459   2.646355
    14  H    2.837970   3.685796   2.157056   2.611740   3.366346
    15  C    4.209404   4.700183   2.536380   2.677066   3.139123
    16  H    4.592805   4.975215   2.831796   3.002161   2.914436
    17  H    4.698995   4.862421   2.798155   2.480554   3.568100
    18  H    4.865365   5.600900   3.493870   3.709164   4.112132
                   11         12         13         14         15
    11  C    0.000000
    12  H    2.519869   0.000000
    13  H    1.107987   2.718913   0.000000
    14  H    1.113961   3.571210   1.771384   0.000000
    15  C    1.511103   2.730781   2.161959   2.163504   0.000000
    16  H    2.176974   2.220337   2.536780   3.095500   1.099094
    17  H    2.172750   3.195931   3.089295   2.534393   1.098438
    18  H    2.163866   3.690086   2.501776   2.499421   1.097594
                   16         17         18
    16  H    0.000000
    17  H    1.769139   0.000000
    18  H    1.766598   1.769223   0.000000
 Stoichiometry    C5H12O
 Framework group  C1[X(C5H12O)]
 Deg. of freedom    48
 Full point group                 C1      NOp   1
 RotChk:  IX=2 Diff= 1.12D-15
 Largest Abelian subgroup         C1      NOp   1
 Largest concise Abelian subgroup C1      NOp   1
                         Standard orientation:                         
 ---------------------------------------------------------------------
 Center     Atomic      Atomic             Coordinates (Angstroms)
 Number     Number       Type             X           Y           Z
 ---------------------------------------------------------------------
      1          6           0        2.119710   -0.916749    0.189101
      2          1           0        1.515181   -1.776098   -0.148192
      3          1           0        2.225025   -0.999475    1.278661
      4          1           0        3.120181   -1.017291   -0.248442
      5          6           0        1.466331    0.385743   -0.215823
      6          1           0        1.511786    0.511292   -1.316019
      7          1           0        2.029931    1.241811    0.205141
      8          6           0        0.004197    0.438069    0.254723
      9          1           0       -0.038569    0.249155    1.356944
     10          8           0       -0.447088    1.758402    0.011592
     11          6           0       -0.841076   -0.615430   -0.482093
     12          1           0       -1.381514    1.756621    0.174443
     13          1           0       -0.986499   -0.317010   -1.539181
     14          1           0       -0.253164   -1.561098   -0.513382
     15          6           0       -2.176075   -0.855993    0.183744
     16          1           0       -2.800095    0.048687    0.196443
     17          1           0       -2.058391   -1.184759    1.225200
     18          1           0       -2.745687   -1.632889   -0.342267
 ---------------------------------------------------------------------
 Rotational constants (GHZ):           4.6667747           2.4153982           1.7538976
 Leave Link  202 at Wed Sep  7 15:33:35 2022, MaxMem=   131072000 cpu:               0.0 elap:               0.0
 (Enter /opt/g16/l601.exe)
 Copying SCF densities to generalized density rwf, IOpCl= 0 IROHF=0.

 **********************************************************************

            Population analysis using the SCF density.

 **********************************************************************

 Orbital symmetries:
       Occupied  (A) (A) (A) (A) (A) (A) (A) (A) (A) (A) (A) (A)
                 (A) (A) (A) (A) (A) (A) (A)
       Virtual   (A) (A) (A) (A) (A) (A) (A) (A) (A) (A) (A) (A)
                 (A) (A) (A) (A) (A)
 The electronic state is 1-A.
 Alpha  occ. eigenvalues --   -1.48808  -1.26198  -1.19649  -0.93582  -0.82944
 Alpha  occ. eigenvalues --   -0.74482  -0.64729  -0.61265  -0.58735  -0.55696
 Alpha  occ. eigenvalues --   -0.53082  -0.51094  -0.49604  -0.48755  -0.47700
 Alpha  occ. eigenvalues --   -0.44359  -0.43960  -0.42576  -0.40116
 Alpha virt. eigenvalues --    0.11616   0.12653   0.13076   0.13452   0.13611
 Alpha virt. eigenvalues --    0.14651   0.14722   0.15278   0.15382   0.15725
 Alpha virt. eigenvalues --    0.16728   0.16978   0.17439   0.17845   0.18508
 Alpha virt. eigenvalues --    0.18577   0.21234
          Condensed to atoms (all electrons):
               1          2          3          4          5          6
     1  C    4.114792   0.000000   0.000000   0.000000   0.000000   0.000000
     2  H    0.000000   0.958282   0.000000   0.000000   0.000000   0.000000
     3  H    0.000000   0.000000   0.961264   0.000000   0.000000   0.000000
     4  H    0.000000   0.000000   0.000000   0.958750   0.000000   0.000000
     5  C    0.000000   0.000000   0.000000   0.000000   4.111964   0.000000
     6  H    0.000000   0.000000   0.000000   0.000000   0.000000   0.941493
     7  H    0.000000   0.000000   0.000000   0.000000   0.000000   0.000000
     8  C    0.000000   0.000000   0.000000   0.000000   0.000000   0.000000
     9  H    0.000000   0.000000   0.000000   0.000000   0.000000   0.000000
    10  O    0.000000   0.000000   0.000000   0.000000   0.000000   0.000000
    11  C    0.000000   0.000000   0.000000   0.000000   0.000000   0.000000
    12  H    0.000000   0.000000   0.000000   0.000000   0.000000   0.000000
    13  H    0.000000   0.000000   0.000000   0.000000   0.000000   0.000000
    14  H    0.000000   0.000000   0.000000   0.000000   0.000000   0.000000
    15  C    0.000000   0.000000   0.000000   0.000000   0.000000   0.000000
    16  H    0.000000   0.000000   0.000000   0.000000   0.000000   0.000000
    17  H    0.000000   0.000000   0.000000   0.000000   0.000000   0.000000
    18  H    0.000000   0.000000   0.000000   0.000000   0.000000   0.000000
               7          8          9         10         11         12
     1  C    0.000000   0.000000   0.000000   0.000000   0.000000   0.000000
     2  H    0.000000   0.000000   0.000000   0.000000   0.000000   0.000000
     3  H    0.000000   0.000000   0.000000   0.000000   0.000000   0.000000
     4  H    0.000000   0.000000   0.000000   0.000000   0.000000   0.000000
     5  C    0.000000   0.000000   0.000000   0.000000   0.000000   0.000000
     6  H    0.000000   0.000000   0.000000   0.000000   0.000000   0.000000
     7  H    0.935982   0.000000   0.000000   0.000000   0.000000   0.000000
     8  C    0.000000   3.920815   0.000000   0.000000   0.000000   0.000000
     9  H    0.000000   0.000000   0.956580   0.000000   0.000000   0.000000
    10  O    0.000000   0.000000   0.000000   6.313455   0.000000   0.000000
    11  C    0.000000   0.000000   0.000000   0.000000   4.156082   0.000000
    12  H    0.000000   0.000000   0.000000   0.000000   0.000000   0.811846
    13  H    0.000000   0.000000   0.000000   0.000000   0.000000   0.000000
    14  H    0.000000   0.000000   0.000000   0.000000   0.000000   0.000000
    15  C    0.000000   0.000000   0.000000   0.000000   0.000000   0.000000
    16  H    0.000000   0.000000   0.000000   0.000000   0.000000   0.000000
    17  H    0.000000   0.000000   0.000000   0.000000   0.000000   0.000000
    18  H    0.000000   0.000000   0.000000   0.000000   0.000000   0.000000
              13         14         15         16         17         18
     1  C    0.000000   0.000000   0.000000   0.000000   0.000000   0.000000
     2  H    0.000000   0.000000   0.000000   0.000000   0.000000   0.000000
     3  H    0.000000   0.000000   0.000000   0.000000   0.000000   0.000000
     4  H    0.000000   0.000000   0.000000   0.000000   0.000000   0.000000
     5  C    0.000000   0.000000   0.000000   0.000000   0.000000   0.000000
     6  H    0.000000   0.000000   0.000000   0.000000   0.000000   0.000000
     7  H    0.000000   0.000000   0.000000   0.000000   0.000000   0.000000
     8  C    0.000000   0.000000   0.000000   0.000000   0.000000   0.000000
     9  H    0.000000   0.000000   0.000000   0.000000   0.000000   0.000000
    10  O    0.000000   0.000000   0.000000   0.000000   0.000000   0.000000
    11  C    0.000000   0.000000   0.000000   0.000000   0.000000   0.000000
    12  H    0.000000   0.000000   0.000000   0.000000   0.000000   0.000000
    13  H    0.934985   0.000000   0.000000   0.000000   0.000000   0.000000
    14  H    0.000000   0.931219   0.000000   0.000000   0.000000   0.000000
    15  C    0.000000   0.000000   4.106899   0.000000   0.000000   0.000000
    16  H    0.000000   0.000000   0.000000   0.967213   0.000000   0.000000
    17  H    0.000000   0.000000   0.000000   0.000000   0.960070   0.000000
    18  H    0.000000   0.000000   0.000000   0.000000   0.000000   0.958309
 Mulliken charges:
               1
     1  C   -0.114792
     2  H    0.041718
     3  H    0.038736
     4  H    0.041250
     5  C   -0.111964
     6  H    0.058507
     7  H    0.064018
     8  C    0.079185
     9  H    0.043420
    10  O   -0.313455
    11  C   -0.156082
    12  H    0.188154
    13  H    0.065015
    14  H    0.068781
    15  C   -0.106899
    16  H    0.032787
    17  H    0.039930
    18  H    0.041691
 Sum of Mulliken charges =  -0.00000
 Mulliken charges with hydrogens summed into heavy atoms:
               1
     1  C    0.006911
     5  C    0.010562
     8  C    0.122605
    10  O   -0.125301
    11  C   -0.022286
    15  C    0.007509
 Charge=             -0.0000 electrons
 Dipole moment (field-independent basis, Debye):
    X=             -0.7650    Y=             -1.3353    Z=              0.3272  Tot=              1.5733
 N-N= 1.705270742158D+02 E-N=-2.554452808456D+02  KE=-5.969916379328D+01
 Leave Link  601 at Wed Sep  7 15:33:35 2022, MaxMem=   131072000 cpu:               0.0 elap:               0.0
 (Enter /opt/g16/l9999.exe)
 1\1\GINC-TOTEM2\FOpt\RPM3\ZDO\C5H12O1\JRAMOS\07-Sep-2022\0\\#p opt pm3
 \\Conformer number 004. Energy MM = 0.000 kcal/mol\\0,1\C,-1.241456875
 3,15.5616525018,3.6136718048\H,-1.5836493265,14.5657296571,3.283905427
 2\H,-1.2841318769,16.2267073457,2.7413434615\H,-1.9609320772,15.936999
 2696,4.3512117375\C,0.15364964,15.4809326878,4.1920430286\H,0.13823668
 09,14.9309869725,5.1541151504\H,0.5246418575,16.4962604987,4.435316565
 6\C,1.1167310797,14.7912357239,3.2128690651\H,1.0804658429,15.31522834
 36,2.2246767453\O,2.4166135359,14.9488255654,3.7527936588\C,0.73453313
 73,13.3125527384,3.0266759956\H,2.9932382279,14.4120217381,3.224568491
 6\H,0.9749690108,12.7377818747,3.9428993885\H,-0.3728799586,13.2591371
 075,2.918549628\C,1.4041483468,12.6880989812,1.8245505744\H,2.49943938
 23,12.6876547833,1.9158990857\H,1.1551986123,13.2212314613,0.896994313
 9\H,1.0911847602,11.6439627493,1.6959158773\\Version=ES64L-G16RevA.03\
 State=1-A\HF=-0.1184833\RMSD=8.261e-09\RMSF=2.124e-05\Dipole=-0.224074
 6,-0.3683602,-0.4441368\PG=C01 [X(C5H12O1)]\\@


 WOMEN HOLD UP HALF THE SKY. -- MAO TSE TUNG
 Job cpu time:       0 days  0 hours  0 minutes  4.8 seconds.
 Elapsed time:       0 days  0 hours  0 minutes  3.9 seconds.
 File lengths (MBytes):  RWF=      6 Int=      0 D2E=      0 Chk=      2 Scr=      1
 Normal termination of Gaussian 16 at Wed Sep  7 15:33:35 2022.
