 Entering Gaussian System, Link 0=/opt/g16/g16
 Input=MD_extract_017_gaussian.com
 Output=MD_extract_017_gaussian.log
 Initial command:
 /opt/g16/l1.exe "/tmp/Gau-318071.inp" -scrdir="/tmp/"
 Entering Link 1 = /opt/g16/l1.exe PID=    318073.
  
 Copyright (c) 1988,1990,1992,1993,1995,1998,2003,2009,2016,
            Gaussian, Inc.  All Rights Reserved.
  
 This is part of the Gaussian(R) 16 program.  It is based on
 the Gaussian(R) 09 system (copyright 2009, Gaussian, Inc.),
 the Gaussian(R) 03 system (copyright 2003, Gaussian, Inc.),
 the Gaussian(R) 98 system (copyright 1998, Gaussian, Inc.),
 the Gaussian(R) 94 system (copyright 1995, Gaussian, Inc.),
 the Gaussian 92(TM) system (copyright 1992, Gaussian, Inc.),
 the Gaussian 90(TM) system (copyright 1990, Gaussian, Inc.),
 the Gaussian 88(TM) system (copyright 1988, Gaussian, Inc.),
 the Gaussian 86(TM) system (copyright 1986, Carnegie Mellon
 University), and the Gaussian 82(TM) system (copyright 1983,
 Carnegie Mellon University). Gaussian is a federally registered
 trademark of Gaussian, Inc.
  
 This software contains proprietary and confidential information,
 including trade secrets, belonging to Gaussian, Inc.
  
 This software is provided under written license and may be
 used, copied, transmitted, or stored only in accord with that
 written license.
  
 The following legend is applicable only to US Government
 contracts under FAR:
  
                    RESTRICTED RIGHTS LEGEND
  
 Use, reproduction and disclosure by the US Government is
 subject to restrictions as set forth in subparagraphs (a)
 and (c) of the Commercial Computer Software - Restricted
 Rights clause in FAR 52.227-19.
  
 Gaussian, Inc.
 340 Quinnipiac St., Bldg. 40, Wallingford CT 06492
  
  
 ---------------------------------------------------------------
 Warning -- This program may not be used in any manner that
 competes with the business of Gaussian, Inc. or will provide
 assistance to any competitor of Gaussian, Inc.  The licensee
 of this program is prohibited from giving any competitor of
 Gaussian, Inc. access to this program.  By using this program,
 the user acknowledges that Gaussian, Inc. is engaged in the
 business of creating and licensing software in the field of
 computational chemistry and represents and warrants to the
 licensee that it is not a competitor of Gaussian, Inc. and that
 it will not use this program in any manner prohibited above.
 ---------------------------------------------------------------
  

 Cite this work as:
 Gaussian 16, Revision A.03,
 M. J. Frisch, G. W. Trucks, H. B. Schlegel, G. E. Scuseria, 
 M. A. Robb, J. R. Cheeseman, G. Scalmani, V. Barone, 
 G. A. Petersson, H. Nakatsuji, X. Li, M. Caricato, A. V. Marenich, 
 J. Bloino, B. G. Janesko, R. Gomperts, B. Mennucci, H. P. Hratchian, 
 J. V. Ortiz, A. F. Izmaylov, J. L. Sonnenberg, D. Williams-Young, 
 F. Ding, F. Lipparini, F. Egidi, J. Goings, B. Peng, A. Petrone, 
 T. Henderson, D. Ranasinghe, V. G. Zakrzewski, J. Gao, N. Rega, 
 G. Zheng, W. Liang, M. Hada, M. Ehara, K. Toyota, R. Fukuda, 
 J. Hasegawa, M. Ishida, T. Nakajima, Y. Honda, O. Kitao, H. Nakai, 
 T. Vreven, K. Throssell, J. A. Montgomery, Jr., J. E. Peralta, 
 F. Ogliaro, M. J. Bearpark, J. J. Heyd, E. N. Brothers, K. N. Kudin, 
 V. N. Staroverov, T. A. Keith, R. Kobayashi, J. Normand, 
 K. Raghavachari, A. P. Rendell, J. C. Burant, S. S. Iyengar, 
 J. Tomasi, M. Cossi, J. M. Millam, M. Klene, C. Adamo, R. Cammi, 
 J. W. Ochterski, R. L. Martin, K. Morokuma, O. Farkas, 
 J. B. Foresman, and D. J. Fox, Gaussian, Inc., Wallingford CT, 2016.
 
 ******************************************
 Gaussian 16:  ES64L-G16RevA.03 25-Dec-2016
                 7-Sep-2022 
 ******************************************
 %chk=MD_extract_017_gaussian.chk
 %nproc=1
 Will use up to    1 processors via shared memory.
 %mem=1000Mb
 ----------
 #p opt pm3
 ----------
 1/18=20,19=15,26=1,38=1/1,3;
 2/9=110,12=2,17=6,18=5,40=1/2;
 3/5=2,25=1,41=800000,71=1/1,2,3;
 4/35=1/1;
 5/5=2,35=1,38=5/2;
 6/7=2,8=2,9=2,10=2,28=1/1;
 7//1,2,3,16;
 1/18=20,19=15,26=1/3(2);
 2/9=110/2;
 99//99;
 2/9=110/2;
 3/5=2,25=1,41=800000,71=1,135=20/1,2,3;
 4/5=5,16=3,35=1/1;
 5/5=2,35=1,38=5/2;
 7//1,2,3,16;
 1/18=20,19=15,26=1/3(-5);
 2/9=110/2;
 6/7=2,8=2,9=2,10=2,19=2,28=1/1;
 99/9=1/99;
 Leave Link    1 at Wed Sep  7 15:35:27 2022, MaxMem=   131072000 cpu:               0.0 elap:               3.5
 (Enter /opt/g16/l101.exe)
 ------------------------------------------------
 Conformer number 017. Energy MM = 0.000 kcal/mol
 ------------------------------------------------
 Symbolic Z-matrix:
 Charge =  0 Multiplicity = 1
 C                     15.159    10.806    5.32 
 H                     15.316    10.511    4.261 
 H                     16.148    10.558    5.85 
 H                     14.999    11.907    5.419 
 C                     14.02     10.12     6.095 
 H                     13.077    10.603    5.768 
 H                     14.12     10.428    7.146 
 C                     13.849    8.698     5.951 
 H                     13.736    8.345     4.865 
 O                     14.916    8.027     6.596 
 C                     12.518    8.383     6.527 
 H                     14.741    7.092     6.505 
 H                     12.663    8.194     7.576 
 H                     11.748    9.136     6.417 
 C                     11.951    7.026     6.095 
 H                     11.545    7.251     5.148 
 H                     11.104    6.672     6.623 
 H                     12.634    6.152     6.013 
 
 ITRead=  0  0  0  0  0  0  0  0  0  0  0  0  0  0  0  0  0  0
 MicOpt= -1 -1 -1 -1 -1 -1 -1 -1 -1 -1 -1 -1 -1 -1 -1 -1 -1 -1
 NAtoms=     18 NQM=       18 NQMF=       0 NMMI=      0 NMMIF=      0
                NMic=       0 NMicF=      0.
                    Isotopes and Nuclear Properties:
 (Nuclear quadrupole moments (NQMom) in fm**2, nuclear magnetic moments (NMagM)
  in nuclear magnetons)

  Atom         1           2           3           4           5           6           7           8           9          10
 IAtWgt=          12           1           1           1          12           1           1          12           1          16
 AtmWgt=  12.0000000   1.0078250   1.0078250   1.0078250  12.0000000   1.0078250   1.0078250  12.0000000   1.0078250  15.9949146
 NucSpn=           0           1           1           1           0           1           1           0           1           0
 AtZEff=  -0.0000000  -0.0000000  -0.0000000  -0.0000000  -0.0000000  -0.0000000  -0.0000000  -0.0000000  -0.0000000  -0.0000000
 NQMom=    0.0000000   0.0000000   0.0000000   0.0000000   0.0000000   0.0000000   0.0000000   0.0000000   0.0000000   0.0000000
 NMagM=    0.0000000   2.7928460   2.7928460   2.7928460   0.0000000   2.7928460   2.7928460   0.0000000   2.7928460   0.0000000
 AtZNuc=   6.0000000   1.0000000   1.0000000   1.0000000   6.0000000   1.0000000   1.0000000   6.0000000   1.0000000   8.0000000

  Atom        11          12          13          14          15          16          17          18
 IAtWgt=          12           1           1           1          12           1           1           1
 AtmWgt=  12.0000000   1.0078250   1.0078250   1.0078250  12.0000000   1.0078250   1.0078250   1.0078250
 NucSpn=           0           1           1           1           0           1           1           1
 AtZEff=  -0.0000000  -0.0000000  -0.0000000  -0.0000000  -0.0000000  -0.0000000  -0.0000000  -0.0000000
 NQMom=    0.0000000   0.0000000   0.0000000   0.0000000   0.0000000   0.0000000   0.0000000   0.0000000
 NMagM=    0.0000000   2.7928460   2.7928460   2.7928460   0.0000000   2.7928460   2.7928460   2.7928460
 AtZNuc=   6.0000000   1.0000000   1.0000000   1.0000000   6.0000000   1.0000000   1.0000000   1.0000000
 Leave Link  101 at Wed Sep  7 15:35:27 2022, MaxMem=   131072000 cpu:               0.1 elap:               0.1
 (Enter /opt/g16/l103.exe)

 GradGradGradGradGradGradGradGradGradGradGradGradGradGradGradGradGradGrad
 Berny optimization.
 Initialization pass.
                           ----------------------------
                           !    Initial Parameters    !
                           ! (Angstroms and Degrees)  !
 --------------------------                            --------------------------
 ! Name  Definition              Value          Derivative Info.                !
 --------------------------------------------------------------------------------
 ! R1    R(1,2)                  1.1105         estimate D2E/DX2                !
 ! R2    R(1,3)                  1.1491         estimate D2E/DX2                !
 ! R3    R(1,4)                  1.117          estimate D2E/DX2                !
 ! R4    R(1,5)                  1.539          estimate D2E/DX2                !
 ! R5    R(5,6)                  1.1088         estimate D2E/DX2                !
 ! R6    R(5,7)                  1.0998         estimate D2E/DX2                !
 ! R7    R(5,8)                  1.4395         estimate D2E/DX2                !
 ! R8    R(8,9)                  1.1475         estimate D2E/DX2                !
 ! R9    R(8,10)                 1.4159         estimate D2E/DX2                !
 ! R10   R(8,11)                 1.4841         estimate D2E/DX2                !
 ! R11   R(10,12)                0.9556         estimate D2E/DX2                !
 ! R12   R(11,13)                1.0757         estimate D2E/DX2                !
 ! R13   R(11,14)                1.0826         estimate D2E/DX2                !
 ! R14   R(11,15)                1.5328         estimate D2E/DX2                !
 ! R15   R(15,16)                1.0546         estimate D2E/DX2                !
 ! R16   R(15,17)                1.059          estimate D2E/DX2                !
 ! R17   R(15,18)                1.1122         estimate D2E/DX2                !
 ! A1    A(2,1,3)              105.119          estimate D2E/DX2                !
 ! A2    A(2,1,4)              111.5081         estimate D2E/DX2                !
 ! A3    A(2,1,5)              117.8042         estimate D2E/DX2                !
 ! A4    A(3,1,4)              107.1656         estimate D2E/DX2                !
 ! A5    A(3,1,5)              107.9688         estimate D2E/DX2                !
 ! A6    A(4,1,5)              106.7816         estimate D2E/DX2                !
 ! A7    A(1,5,6)              106.6629         estimate D2E/DX2                !
 ! A8    A(1,5,7)              106.805          estimate D2E/DX2                !
 ! A9    A(1,5,8)              118.5468         estimate D2E/DX2                !
 ! A10   A(6,5,7)              103.7197         estimate D2E/DX2                !
 ! A11   A(6,5,8)              107.4446         estimate D2E/DX2                !
 ! A12   A(7,5,8)              112.5238         estimate D2E/DX2                !
 ! A13   A(5,8,9)              114.2214         estimate D2E/DX2                !
 ! A14   A(5,8,10)             109.4548         estimate D2E/DX2                !
 ! A15   A(5,8,11)             106.1043         estimate D2E/DX2                !
 ! A16   A(9,8,10)             111.0725         estimate D2E/DX2                !
 ! A17   A(9,8,11)             102.3394         estimate D2E/DX2                !
 ! A18   A(10,8,11)            113.4818         estimate D2E/DX2                !
 ! A19   A(8,10,12)            106.3981         estimate D2E/DX2                !
 ! A20   A(8,11,13)            107.1503         estimate D2E/DX2                !
 ! A21   A(8,11,14)            116.796          estimate D2E/DX2                !
 ! A22   A(8,11,15)            114.2214         estimate D2E/DX2                !
 ! A23   A(13,11,14)           108.4916         estimate D2E/DX2                !
 ! A24   A(13,11,15)            99.7385         estimate D2E/DX2                !
 ! A25   A(14,11,15)           108.907          estimate D2E/DX2                !
 ! A26   A(11,15,16)           101.923          estimate D2E/DX2                !
 ! A27   A(11,15,17)           116.8248         estimate D2E/DX2                !
 ! A28   A(11,15,18)           119.2939         estimate D2E/DX2                !
 ! A29   A(16,15,17)           102.1874         estimate D2E/DX2                !
 ! A30   A(16,15,18)           109.7454         estimate D2E/DX2                !
 ! A31   A(17,15,18)           105.3802         estimate D2E/DX2                !
 ! D1    D(2,1,5,6)            -77.8031         estimate D2E/DX2                !
 ! D2    D(2,1,5,7)            171.7704         estimate D2E/DX2                !
 ! D3    D(2,1,5,8)             43.4662         estimate D2E/DX2                !
 ! D4    D(3,1,5,6)            163.4454         estimate D2E/DX2                !
 ! D5    D(3,1,5,7)             53.0188         estimate D2E/DX2                !
 ! D6    D(3,1,5,8)            -75.2854         estimate D2E/DX2                !
 ! D7    D(4,1,5,6)             48.4925         estimate D2E/DX2                !
 ! D8    D(4,1,5,7)            -61.9341         estimate D2E/DX2                !
 ! D9    D(4,1,5,8)            169.7617         estimate D2E/DX2                !
 ! D10   D(1,5,8,9)            -54.725          estimate D2E/DX2                !
 ! D11   D(1,5,8,10)            70.5174         estimate D2E/DX2                !
 ! D12   D(1,5,8,11)          -166.6743         estimate D2E/DX2                !
 ! D13   D(6,5,8,9)             66.1462         estimate D2E/DX2                !
 ! D14   D(6,5,8,10)          -168.6113         estimate D2E/DX2                !
 ! D15   D(6,5,8,11)           -45.8031         estimate D2E/DX2                !
 ! D16   D(7,5,8,9)            179.69           estimate D2E/DX2                !
 ! D17   D(7,5,8,10)           -55.0675         estimate D2E/DX2                !
 ! D18   D(7,5,8,11)            67.7407         estimate D2E/DX2                !
 ! D19   D(5,8,10,12)          177.741          estimate D2E/DX2                !
 ! D20   D(9,8,10,12)          -55.2173         estimate D2E/DX2                !
 ! D21   D(11,8,10,12)          59.4337         estimate D2E/DX2                !
 ! D22   D(5,8,11,13)          -88.6396         estimate D2E/DX2                !
 ! D23   D(5,8,11,14)           33.2116         estimate D2E/DX2                !
 ! D24   D(5,8,11,15)          161.913          estimate D2E/DX2                !
 ! D25   D(9,8,11,13)          151.3421         estimate D2E/DX2                !
 ! D26   D(9,8,11,14)          -86.8067         estimate D2E/DX2                !
 ! D27   D(9,8,11,15)           41.8947         estimate D2E/DX2                !
 ! D28   D(10,8,11,13)          31.5854         estimate D2E/DX2                !
 ! D29   D(10,8,11,14)         153.4365         estimate D2E/DX2                !
 ! D30   D(10,8,11,15)         -77.8621         estimate D2E/DX2                !
 ! D31   D(8,11,15,16)         -81.409          estimate D2E/DX2                !
 ! D32   D(8,11,15,17)         168.1918         estimate D2E/DX2                !
 ! D33   D(8,11,15,18)          39.5472         estimate D2E/DX2                !
 ! D34   D(13,11,15,16)        164.6823         estimate D2E/DX2                !
 ! D35   D(13,11,15,17)         54.2831         estimate D2E/DX2                !
 ! D36   D(13,11,15,18)        -74.3615         estimate D2E/DX2                !
 ! D37   D(14,11,15,16)         51.1703         estimate D2E/DX2                !
 ! D38   D(14,11,15,17)        -59.2288         estimate D2E/DX2                !
 ! D39   D(14,11,15,18)        172.1266         estimate D2E/DX2                !
 --------------------------------------------------------------------------------
 Trust Radius=3.00D-01 FncErr=1.00D-07 GrdErr=1.00D-07 EigMax=2.50D+02 EigMin=1.00D-04
 Number of steps in this run=     97 maximum allowed number of steps=    108.
 GradGradGradGradGradGradGradGradGradGradGradGradGradGradGradGradGradGrad

 Leave Link  103 at Wed Sep  7 15:35:27 2022, MaxMem=   131072000 cpu:               0.0 elap:               0.0
 (Enter /opt/g16/l202.exe)
                          Input orientation:                          
 ---------------------------------------------------------------------
 Center     Atomic      Atomic             Coordinates (Angstroms)
 Number     Number       Type             X           Y           Z
 ---------------------------------------------------------------------
      1          6           0       15.159000   10.806000    5.320000
      2          1           0       15.316000   10.511000    4.261000
      3          1           0       16.148000   10.558000    5.850000
      4          1           0       14.999000   11.907000    5.419000
      5          6           0       14.020000   10.120000    6.095000
      6          1           0       13.077000   10.603000    5.768000
      7          1           0       14.120000   10.428000    7.146000
      8          6           0       13.849000    8.698000    5.951000
      9          1           0       13.736000    8.345000    4.865000
     10          8           0       14.916000    8.027000    6.596000
     11          6           0       12.518000    8.383000    6.527000
     12          1           0       14.741000    7.092000    6.505000
     13          1           0       12.663000    8.194000    7.576000
     14          1           0       11.748000    9.136000    6.417000
     15          6           0       11.951000    7.026000    6.095000
     16          1           0       11.545000    7.251000    5.148000
     17          1           0       11.104000    6.672000    6.623000
     18          1           0       12.634000    6.152000    6.013000
 ---------------------------------------------------------------------
                    Distance matrix (angstroms):
                    1          2          3          4          5
     1  C    0.000000
     2  H    1.110475   0.000000
     3  H    1.149141   1.794256   0.000000
     4  H    1.116961   1.841268   1.823667   0.000000
     5  C    1.539007   2.279485   2.186379   2.146808   0.000000
     6  H    2.139308   2.700488   3.072424   2.348681   1.108813
     7  H    2.134638   3.124185   2.410249   2.437747   1.099757
     8  C    2.560845   2.880132   2.958919   3.450102   1.439466
     9  H    2.878971   2.748231   3.418382   3.819677   2.178114
    10  O    3.067583   3.432562   2.912096   4.055443   2.331194
    11  C    3.781886   4.182337   4.285540   4.449899   2.336621
    12  H    3.920809   4.129857   3.797608   4.942690   3.139542
    13  H    4.259354   4.836954   4.551131   4.888345   2.782856
    14  H    3.953129   4.389714   4.658709   4.386735   2.496783
    15  C    5.017997   5.179962   5.490889   5.794087   3.722042
    16  H    5.072337   5.063083   5.711100   5.803610   3.905585
    17  H    5.935553   6.169109   6.414083   6.635199   4.546487
    18  H    5.339999   5.409576   5.638049   6.250287   4.203896
                    6          7          8          9         10
     6  H    0.000000
     7  H    1.737054   0.000000
     8  C    2.063613   2.119992   0.000000
     9  H    2.519574   3.112765   1.147508   0.000000
    10  O    3.271587   2.588613   1.415894   2.118935   0.000000
    11  C    2.411838   2.670504   1.484103   2.060877   2.425263
    12  H    3.954641   3.453320   1.918806   2.295568   0.955579
    13  H    3.040319   2.701575   2.073942   2.919529   2.462580
    14  H    2.083154   2.797694   2.196179   2.643204   3.361271
    15  C    3.764271   4.169264   2.533520   2.537496   3.169263
    16  H    3.737289   4.551479   2.836729   2.465240   3.750003
    17  H    4.480682   4.845340   3.477253   3.580072   4.045751
    18  H    4.479696   4.666483   2.821734   2.709531   3.010488
                   11         12         13         14         15
    11  C    0.000000
    12  H    2.570777   0.000000
    13  H    1.075708   2.584478   0.000000
    14  H    1.082594   3.625428   1.751534   0.000000
    15  C    1.532828   2.820737   2.016068   2.144060   0.000000
    16  H    2.032189   3.475794   2.834494   2.281402   1.054642
    17  H    2.221741   3.663072   2.378061   2.555087   1.059013
    18  H    2.292382   2.359049   2.571687   3.138864   1.112245
                   16         17         18
    16  H    0.000000
    17  H    1.644794   0.000000
    18  H    1.772554   1.727252   0.000000
 Stoichiometry    C5H12O
 Framework group  C1[X(C5H12O)]
 Deg. of freedom    48
 Full point group                 C1      NOp   1
 Largest Abelian subgroup         C1      NOp   1
 Largest concise Abelian subgroup C1      NOp   1
                         Standard orientation:                         
 ---------------------------------------------------------------------
 Center     Atomic      Atomic             Coordinates (Angstroms)
 Number     Number       Type             X           Y           Z
 ---------------------------------------------------------------------
      1          6           0        2.528479   -0.253392    0.338953
      2          1           0        2.568700   -0.157276    1.444529
      3          1           0        2.890956    0.760139   -0.063401
      4          1           0        3.241947   -1.029137   -0.030891
      5          6           0        1.165127   -0.560085   -0.305837
      6          1           0        0.978140   -1.642490   -0.154501
      7          1           0        1.299916   -0.468237   -1.393432
      8          6           0        0.005175    0.148582    0.167833
      9          1           0       -0.166487    0.067451    1.299524
     10          8           0        0.080583    1.502408   -0.239871
     11          6           0       -1.170176   -0.570475   -0.383589
     12          1           0       -0.722596    1.921021    0.064755
     13          1           0       -1.381380   -0.141121   -1.347018
     14          1           0       -1.076385   -1.642841   -0.498675
     15          6           0       -2.489508   -0.261335    0.332902
     16          1           0       -2.433330   -0.893475    1.175227
     17          1           0       -3.378113   -0.594023   -0.137427
     18          1           0       -2.700620    0.780955    0.658713
 ---------------------------------------------------------------------
 Rotational constants (GHZ):           6.7439939           1.9646904           1.6894911
 Leave Link  202 at Wed Sep  7 15:35:27 2022, MaxMem=   131072000 cpu:               0.0 elap:               0.0
 (Enter /opt/g16/l301.exe)
 Standard basis: VSTO-6G (5D, 7F)
 Ernie: Thresh=  0.10000D-02 Tol=  0.10000D-05 Strict=F.
  NNHCO=     0 NNPyr=     0 NCTC=     0               EPep=         0.000000000
    EC=       128.390212718  ECS=         2.280540604   EG=         0.570247867
   EHC=         0.000000000  EAt=       -36.836480110  AtH=         2.452923921
 EPDDG=         0.000000000  ECC=       131.241001188 EAtT=        39.289404030
 There are    36 symmetry adapted cartesian basis functions of A   symmetry.
 There are    36 symmetry adapted basis functions of A   symmetry.
    36 basis functions,   216 primitive gaussians,    36 cartesian basis functions
    19 alpha electrons       19 beta electrons
       nuclear repulsion energy       170.5304052187 Hartrees.
 IExCor=    0 DFT=F Ex=HF Corr=None ExCW=0 ScaHFX=  1.000000
 ScaDFX=  1.000000  1.000000  1.000000  1.000000 ScalE2=  1.000000  1.000000
 IRadAn=      5 IRanWt=     -1 IRanGd=            0 ICorTp=0 IEmpDi=  4
 Integral buffers will be    131072 words long.
 Regular integral format.
 Two-electron integral symmetry is turned off.
 Leave Link  301 at Wed Sep  7 15:35:27 2022, MaxMem=   131072000 cpu:               0.0 elap:               0.0
 (Enter /opt/g16/l302.exe)
 Do NDO integrals.
 NPDir=0 NMtPBC=     1 NCelOv=     1 NCel=       1 NClECP=     1 NCelD=      1
         NCelK=      1 NCelE2=     1 NClLst=     1 CellRange=     0.0.
 One-electron integrals computed using PRISM.
 NBasis=    36 RedAO= F EigKep=  0.00D+00  NBF=    36
 NBsUse=    36 1.00D-04 EigRej=  0.00D+00 NBFU=    36
 Leave Link  302 at Wed Sep  7 15:35:27 2022, MaxMem=   131072000 cpu:               0.0 elap:               0.0
 (Enter /opt/g16/l303.exe)
 DipDrv:  MaxL=1.
 Leave Link  303 at Wed Sep  7 15:35:27 2022, MaxMem=   131072000 cpu:               0.0 elap:               0.0
 (Enter /opt/g16/l401.exe)
 Simple Huckel Guess.
 JPrj=0 DoOrth=F DoCkMO=F.
 Leave Link  401 at Wed Sep  7 15:35:27 2022, MaxMem=   131072000 cpu:               0.0 elap:               0.0
 (Enter /opt/g16/l502.exe)
 Keep J ints in memory in canonical form, NReq=862161.
 FoFCou: FMM=F IPFlag=           0 FMFlag=           0 FMFlg1=           0
         NFxFlg=           0 DoJE=F BraDBF=F KetDBF=F FulRan=T
         wScrn=  0.000000 ICntrl=       600 IOpCl=  2 I1Cent=           0 NGrid=           0
         NMat0=    1 NMatS0=     72 NMatT0=    0 NMatD0=    1 NMtDS0=    0 NMtDT0=    0
 Symmetry not used in FoFCou.
 Two-electron integral symmetry not used.
 Closed shell SCF:
 Using DIIS extrapolation, IDIIS=  1040.
 Overlap will be assumed to be unity.
 NGot=   131072000 LenX=   131006778 LenY=   131005041
 Requested convergence on RMS density matrix=1.00D-08 within 128 cycles.
 Requested convergence on MAX density matrix=1.00D-06.
 Requested convergence on             energy=1.00D-06.
 No special actions if energy rises.

 Cycle   1  Pass 1  IDiag  1:
 E= 0.199495969051867    
 DIIS: error= 7.15D-02 at cycle   1 NSaved=   1.
 NSaved= 1 IEnMin= 1 EnMin= 0.199495969051867     IErMin= 1 ErrMin= 7.15D-02
 ErrMax= 7.15D-02  0.00D+00 EMaxC= 1.00D-01 BMatC= 1.09D-01 BMatP= 1.09D-01
 IDIUse=3 WtCom= 2.85D-01 WtEn= 7.15D-01
 Coeff-Com:  0.100D+01
 Coeff-En:   0.100D+01
 Coeff:      0.100D+01
 GapD=    2.000 DampG=2.000 DampE=0.500 DampFc=1.0000 IDamp=-1.
 RMSDP=1.27D-02 MaxDP=1.52D-01              OVMax= 0.00D+00

 Cycle   2  Pass 1  IDiag  1:
 E=-0.611555379147148E-01 Delta-E=       -0.260651506967 Rises=F Damp=F
 DIIS: error= 1.41D-02 at cycle   2 NSaved=   2.
 NSaved= 2 IEnMin= 2 EnMin=-0.611555379147148E-01 IErMin= 2 ErrMin= 1.41D-02
 ErrMax= 1.41D-02  0.00D+00 EMaxC= 1.00D-01 BMatC= 7.15D-03 BMatP= 1.09D-01
 IDIUse=3 WtCom= 8.59D-01 WtEn= 1.41D-01
 Coeff-Com: -0.306D+00 0.131D+01
 Coeff-En:   0.000D+00 0.100D+01
 Coeff:     -0.263D+00 0.126D+01
 RMSDP=4.67D-03 MaxDP=3.85D-02 DE=-2.61D-01 OVMax= 0.00D+00

 Cycle   3  Pass 1  IDiag  3:
 E=-0.832901290209520E-01 Delta-E=       -0.022134591106 Rises=F Damp=F
 DIIS: error= 3.20D-03 at cycle   3 NSaved=   3.
 NSaved= 3 IEnMin= 3 EnMin=-0.832901290209520E-01 IErMin= 3 ErrMin= 3.20D-03
 ErrMax= 3.20D-03  0.00D+00 EMaxC= 1.00D-01 BMatC= 2.21D-04 BMatP= 7.15D-03
 IDIUse=3 WtCom= 9.68D-01 WtEn= 3.20D-02
 Coeff-Com:  0.143D+00-0.697D+00 0.155D+01
 Coeff-En:   0.000D+00 0.000D+00 0.100D+01
 Coeff:      0.139D+00-0.674D+00 0.154D+01
 Gap=     0.515 Goal=   None    Shift=    0.000
 RMSDP=1.33D-03 MaxDP=1.53D-02 DE=-2.21D-02 OVMax= 1.11D-02

 Cycle   4  Pass 1  IDiag  3:
 E=-0.844505781711575E-01 Delta-E=       -0.001160449150 Rises=F Damp=F
 DIIS: error= 6.30D-04 at cycle   4 NSaved=   4.
 NSaved= 4 IEnMin= 4 EnMin=-0.844505781711575E-01 IErMin= 4 ErrMin= 6.30D-04
 ErrMax= 6.30D-04  0.00D+00 EMaxC= 1.00D-01 BMatC= 9.25D-06 BMatP= 2.21D-04
 IDIUse=3 WtCom= 9.94D-01 WtEn= 6.30D-03
 Coeff-Com: -0.312D-01 0.167D+00-0.554D+00 0.142D+01
 Coeff-En:   0.000D+00 0.000D+00 0.000D+00 0.100D+01
 Coeff:     -0.310D-01 0.166D+00-0.551D+00 0.142D+01
 Gap=     0.515 Goal=   None    Shift=    0.000
 RMSDP=3.17D-04 MaxDP=3.50D-03 DE=-1.16D-03 OVMax= 2.43D-03

 Cycle   5  Pass 1  IDiag  3:
 E=-0.845046689915705E-01 Delta-E=       -0.000054090820 Rises=F Damp=F
 DIIS: error= 1.20D-04 at cycle   5 NSaved=   5.
 NSaved= 5 IEnMin= 5 EnMin=-0.845046689915705E-01 IErMin= 5 ErrMin= 1.20D-04
 ErrMax= 1.20D-04  0.00D+00 EMaxC= 1.00D-01 BMatC= 2.99D-07 BMatP= 9.25D-06
 IDIUse=3 WtCom= 9.99D-01 WtEn= 1.20D-03
 Coeff-Com:  0.180D-02-0.128D-01 0.740D-01-0.358D+00 0.130D+01
 Coeff-En:   0.000D+00 0.000D+00 0.000D+00 0.000D+00 0.100D+01
 Coeff:      0.180D-02-0.128D-01 0.739D-01-0.358D+00 0.129D+01
 Gap=     0.515 Goal=   None    Shift=    0.000
 RMSDP=5.28D-05 MaxDP=6.20D-04 DE=-5.41D-05 OVMax= 3.59D-04

 Cycle   6  Pass 1  IDiag  3:
 E=-0.845063658093181E-01 Delta-E=       -0.000001696818 Rises=F Damp=F
 DIIS: error= 3.44D-05 at cycle   6 NSaved=   6.
 NSaved= 6 IEnMin= 6 EnMin=-0.845063658093181E-01 IErMin= 6 ErrMin= 3.44D-05
 ErrMax= 3.44D-05  0.00D+00 EMaxC= 1.00D-01 BMatC= 2.37D-08 BMatP= 2.99D-07
 IDIUse=1 WtCom= 1.00D+00 WtEn= 0.00D+00
 Coeff-Com: -0.248D-03 0.292D-02-0.254D-01 0.151D+00-0.731D+00 0.160D+01
 Coeff:     -0.248D-03 0.292D-02-0.254D-01 0.151D+00-0.731D+00 0.160D+01
 Gap=     0.515 Goal=   None    Shift=    0.000
 RMSDP=1.68D-05 MaxDP=2.24D-04 DE=-1.70D-06 OVMax= 1.32D-04

 Cycle   7  Pass 1  IDiag  3:
 E=-0.845065169406496E-01 Delta-E=       -0.000000151131 Rises=F Damp=F
 DIIS: error= 5.98D-06 at cycle   7 NSaved=   7.
 NSaved= 7 IEnMin= 7 EnMin=-0.845065169406496E-01 IErMin= 7 ErrMin= 5.98D-06
 ErrMax= 5.98D-06  0.00D+00 EMaxC= 1.00D-01 BMatC= 1.55D-09 BMatP= 2.37D-08
 IDIUse=1 WtCom= 1.00D+00 WtEn= 0.00D+00
 Coeff-Com:  0.135D-03-0.147D-02 0.124D-01-0.736D-01 0.372D+00-0.988D+00
 Coeff-Com:  0.168D+01
 Coeff:      0.135D-03-0.147D-02 0.124D-01-0.736D-01 0.372D+00-0.988D+00
 Coeff:      0.168D+01
 Gap=     0.515 Goal=   None    Shift=    0.000
 RMSDP=4.68D-06 MaxDP=4.60D-05 DE=-1.51D-07 OVMax= 3.90D-05

 Cycle   8  Pass 1  IDiag  3:
 E=-0.845065269087968E-01 Delta-E=       -0.000000009968 Rises=F Damp=F
 DIIS: error= 1.20D-06 at cycle   8 NSaved=   8.
 NSaved= 8 IEnMin= 8 EnMin=-0.845065269087968E-01 IErMin= 8 ErrMin= 1.20D-06
 ErrMax= 1.20D-06  0.00D+00 EMaxC= 1.00D-01 BMatC= 5.37D-11 BMatP= 1.55D-09
 IDIUse=1 WtCom= 1.00D+00 WtEn= 0.00D+00
 Coeff-Com: -0.528D-04 0.613D-03-0.534D-02 0.319D-01-0.163D+00 0.450D+00
 Coeff-Com: -0.873D+00 0.156D+01
 Coeff:     -0.528D-04 0.613D-03-0.534D-02 0.319D-01-0.163D+00 0.450D+00
 Coeff:     -0.873D+00 0.156D+01
 Gap=     0.515 Goal=   None    Shift=    0.000
 RMSDP=8.12D-07 MaxDP=7.81D-06 DE=-9.97D-09 OVMax= 5.96D-06

 Cycle   9  Pass 1  IDiag  3:
 E=-0.845065272530121E-01 Delta-E=       -0.000000000344 Rises=F Damp=F
 DIIS: error= 2.46D-07 at cycle   9 NSaved=   9.
 NSaved= 9 IEnMin= 9 EnMin=-0.845065272530121E-01 IErMin= 9 ErrMin= 2.46D-07
 ErrMax= 2.46D-07  0.00D+00 EMaxC= 1.00D-01 BMatC= 3.20D-12 BMatP= 5.37D-11
 IDIUse=1 WtCom= 1.00D+00 WtEn= 0.00D+00
 Coeff-Com:  0.172D-04-0.236D-03 0.221D-02-0.134D-01 0.697D-01-0.195D+00
 Coeff-Com:  0.392D+00-0.863D+00 0.161D+01
 Coeff:      0.172D-04-0.236D-03 0.221D-02-0.134D-01 0.697D-01-0.195D+00
 Coeff:      0.392D+00-0.863D+00 0.161D+01
 Gap=     0.515 Goal=   None    Shift=    0.000
 RMSDP=2.08D-07 MaxDP=1.80D-06 DE=-3.44D-10 OVMax= 1.36D-06

 Cycle  10  Pass 1  IDiag  3:
 E=-0.845065272742147E-01 Delta-E=       -0.000000000021 Rises=F Damp=F
 DIIS: error= 5.51D-08 at cycle  10 NSaved=  10.
 NSaved=10 IEnMin=10 EnMin=-0.845065272742147E-01 IErMin=10 ErrMin= 5.51D-08
 ErrMax= 5.51D-08  0.00D+00 EMaxC= 1.00D-01 BMatC= 1.64D-13 BMatP= 3.20D-12
 IDIUse=1 WtCom= 1.00D+00 WtEn= 0.00D+00
 Coeff-Com: -0.614D-05 0.913D-04-0.885D-03 0.544D-02-0.284D-01 0.799D-01
 Coeff-Com: -0.162D+00 0.371D+00-0.838D+00 0.157D+01
 Coeff:     -0.614D-05 0.913D-04-0.885D-03 0.544D-02-0.284D-01 0.799D-01
 Coeff:     -0.162D+00 0.371D+00-0.838D+00 0.157D+01
 Gap=     0.515 Goal=   None    Shift=    0.000
 RMSDP=4.69D-08 MaxDP=3.74D-07 DE=-2.12D-11 OVMax= 3.16D-07

 Cycle  11  Pass 1  IDiag  3:
 E=-0.845065272751810E-01 Delta-E=       -0.000000000001 Rises=F Damp=F
 DIIS: error= 1.69D-08 at cycle  11 NSaved=  11.
 NSaved=11 IEnMin=11 EnMin=-0.845065272751810E-01 IErMin=11 ErrMin= 1.69D-08
 ErrMax= 1.69D-08  0.00D+00 EMaxC= 1.00D-01 BMatC= 9.20D-15 BMatP= 1.64D-13
 IDIUse=1 WtCom= 1.00D+00 WtEn= 0.00D+00
 Coeff-Com:  0.182D-05-0.262D-04 0.251D-03-0.154D-02 0.806D-02-0.227D-01
 Coeff-Com:  0.463D-01-0.107D+00 0.259D+00-0.669D+00 0.149D+01
 Coeff:      0.182D-05-0.262D-04 0.251D-03-0.154D-02 0.806D-02-0.227D-01
 Coeff:      0.463D-01-0.107D+00 0.259D+00-0.669D+00 0.149D+01
 Gap=     0.515 Goal=   None    Shift=    0.000
 RMSDP=1.11D-08 MaxDP=1.11D-07 DE=-9.66D-13 OVMax= 7.55D-08

 Cycle  12  Pass 1  IDiag  3:
 E=-0.845065272752379E-01 Delta-E=       -0.000000000000 Rises=F Damp=F
 DIIS: error= 4.66D-09 at cycle  12 NSaved=  12.
 NSaved=12 IEnMin=12 EnMin=-0.845065272752379E-01 IErMin=12 ErrMin= 4.66D-09
 ErrMax= 4.66D-09  0.00D+00 EMaxC= 1.00D-01 BMatC= 5.42D-16 BMatP= 9.20D-15
 IDIUse=1 WtCom= 1.00D+00 WtEn= 0.00D+00
 Coeff-Com: -0.377D-06 0.523D-05-0.495D-04 0.304D-03-0.160D-02 0.453D-02
 Coeff-Com: -0.927D-02 0.211D-01-0.547D-01 0.180D+00-0.625D+00 0.148D+01
 Coeff:     -0.377D-06 0.523D-05-0.495D-04 0.304D-03-0.160D-02 0.453D-02
 Coeff:     -0.927D-02 0.211D-01-0.547D-01 0.180D+00-0.625D+00 0.148D+01
 Gap=     0.515 Goal=   None    Shift=    0.000
 RMSDP=2.71D-09 MaxDP=3.26D-08 DE=-5.68D-14 OVMax= 2.21D-08

 Cycle  13  Pass 2  IDiag  1:
 SCF Done:  E(RPM3) = -0.845065272752E-01 A.U. after   13 cycles
            NFock= 12  Conv=0.27D-08     -V/T= 0.9986
 KE=-5.969850592822D+01 PE=-2.553256334748D+02 EE= 1.444092276571D+02
 Leave Link  502 at Wed Sep  7 15:35:27 2022, MaxMem=   131072000 cpu:               0.0 elap:               0.0
 (Enter /opt/g16/l601.exe)
 Copying SCF densities to generalized density rwf, IOpCl= 0 IROHF=0.

 **********************************************************************

            Population analysis using the SCF density.

 **********************************************************************

 Orbital symmetries:
       Occupied  (A) (A) (A) (A) (A) (A) (A) (A) (A) (A) (A) (A)
                 (A) (A) (A) (A) (A) (A) (A)
       Virtual   (A) (A) (A) (A) (A) (A) (A) (A) (A) (A) (A) (A)
                 (A) (A) (A) (A) (A)
 The electronic state is 1-A.
 Alpha  occ. eigenvalues --   -1.50603  -1.25291  -1.20888  -0.96872  -0.79256
 Alpha  occ. eigenvalues --   -0.75675  -0.67339  -0.61539  -0.57301  -0.55623
 Alpha  occ. eigenvalues --   -0.53167  -0.52158  -0.49374  -0.47611  -0.46873
 Alpha  occ. eigenvalues --   -0.44938  -0.43316  -0.42209  -0.40253
 Alpha virt. eigenvalues --    0.11239   0.12289   0.12783   0.13485   0.14049
 Alpha virt. eigenvalues --    0.14578   0.15103   0.15399   0.15712   0.16283
 Alpha virt. eigenvalues --    0.16685   0.17144   0.17546   0.17891   0.18557
 Alpha virt. eigenvalues --    0.19462   0.21230
          Condensed to atoms (all electrons):
               1          2          3          4          5          6
     1  C    4.108130   0.000000   0.000000   0.000000   0.000000   0.000000
     2  H    0.000000   0.953776   0.000000   0.000000   0.000000   0.000000
     3  H    0.000000   0.000000   0.959741   0.000000   0.000000   0.000000
     4  H    0.000000   0.000000   0.000000   0.963769   0.000000   0.000000
     5  C    0.000000   0.000000   0.000000   0.000000   4.113370   0.000000
     6  H    0.000000   0.000000   0.000000   0.000000   0.000000   0.951810
     7  H    0.000000   0.000000   0.000000   0.000000   0.000000   0.000000
     8  C    0.000000   0.000000   0.000000   0.000000   0.000000   0.000000
     9  H    0.000000   0.000000   0.000000   0.000000   0.000000   0.000000
    10  O    0.000000   0.000000   0.000000   0.000000   0.000000   0.000000
    11  C    0.000000   0.000000   0.000000   0.000000   0.000000   0.000000
    12  H    0.000000   0.000000   0.000000   0.000000   0.000000   0.000000
    13  H    0.000000   0.000000   0.000000   0.000000   0.000000   0.000000
    14  H    0.000000   0.000000   0.000000   0.000000   0.000000   0.000000
    15  C    0.000000   0.000000   0.000000   0.000000   0.000000   0.000000
    16  H    0.000000   0.000000   0.000000   0.000000   0.000000   0.000000
    17  H    0.000000   0.000000   0.000000   0.000000   0.000000   0.000000
    18  H    0.000000   0.000000   0.000000   0.000000   0.000000   0.000000
               7          8          9         10         11         12
     1  C    0.000000   0.000000   0.000000   0.000000   0.000000   0.000000
     2  H    0.000000   0.000000   0.000000   0.000000   0.000000   0.000000
     3  H    0.000000   0.000000   0.000000   0.000000   0.000000   0.000000
     4  H    0.000000   0.000000   0.000000   0.000000   0.000000   0.000000
     5  C    0.000000   0.000000   0.000000   0.000000   0.000000   0.000000
     6  H    0.000000   0.000000   0.000000   0.000000   0.000000   0.000000
     7  H    0.935650   0.000000   0.000000   0.000000   0.000000   0.000000
     8  C    0.000000   3.902010   0.000000   0.000000   0.000000   0.000000
     9  H    0.000000   0.000000   0.955261   0.000000   0.000000   0.000000
    10  O    0.000000   0.000000   0.000000   6.301158   0.000000   0.000000
    11  C    0.000000   0.000000   0.000000   0.000000   4.159718   0.000000
    12  H    0.000000   0.000000   0.000000   0.000000   0.000000   0.814653
    13  H    0.000000   0.000000   0.000000   0.000000   0.000000   0.000000
    14  H    0.000000   0.000000   0.000000   0.000000   0.000000   0.000000
    15  C    0.000000   0.000000   0.000000   0.000000   0.000000   0.000000
    16  H    0.000000   0.000000   0.000000   0.000000   0.000000   0.000000
    17  H    0.000000   0.000000   0.000000   0.000000   0.000000   0.000000
    18  H    0.000000   0.000000   0.000000   0.000000   0.000000   0.000000
              13         14         15         16         17         18
     1  C    0.000000   0.000000   0.000000   0.000000   0.000000   0.000000
     2  H    0.000000   0.000000   0.000000   0.000000   0.000000   0.000000
     3  H    0.000000   0.000000   0.000000   0.000000   0.000000   0.000000
     4  H    0.000000   0.000000   0.000000   0.000000   0.000000   0.000000
     5  C    0.000000   0.000000   0.000000   0.000000   0.000000   0.000000
     6  H    0.000000   0.000000   0.000000   0.000000   0.000000   0.000000
     7  H    0.000000   0.000000   0.000000   0.000000   0.000000   0.000000
     8  C    0.000000   0.000000   0.000000   0.000000   0.000000   0.000000
     9  H    0.000000   0.000000   0.000000   0.000000   0.000000   0.000000
    10  O    0.000000   0.000000   0.000000   0.000000   0.000000   0.000000
    11  C    0.000000   0.000000   0.000000   0.000000   0.000000   0.000000
    12  H    0.000000   0.000000   0.000000   0.000000   0.000000   0.000000
    13  H    0.947890   0.000000   0.000000   0.000000   0.000000   0.000000
    14  H    0.000000   0.920959   0.000000   0.000000   0.000000   0.000000
    15  C    0.000000   0.000000   4.121234   0.000000   0.000000   0.000000
    16  H    0.000000   0.000000   0.000000   0.977157   0.000000   0.000000
    17  H    0.000000   0.000000   0.000000   0.000000   0.959597   0.000000
    18  H    0.000000   0.000000   0.000000   0.000000   0.000000   0.954116
 Mulliken charges:
               1
     1  C   -0.108130
     2  H    0.046224
     3  H    0.040259
     4  H    0.036231
     5  C   -0.113370
     6  H    0.048190
     7  H    0.064350
     8  C    0.097990
     9  H    0.044739
    10  O   -0.301158
    11  C   -0.159718
    12  H    0.185347
    13  H    0.052110
    14  H    0.079041
    15  C   -0.121234
    16  H    0.022843
    17  H    0.040403
    18  H    0.045884
 Sum of Mulliken charges =  -0.00000
 Mulliken charges with hydrogens summed into heavy atoms:
               1
     1  C    0.014583
     5  C   -0.000830
     8  C    0.142729
    10  O   -0.115811
    11  C   -0.028566
    15  C   -0.012105
 Charge=             -0.0000 electrons
 Dipole moment (field-independent basis, Debye):
    X=             -1.1386    Y=             -0.7498    Z=              0.6032  Tot=              1.4908
 N-N= 1.705304052187D+02 E-N=-2.553256335327D+02  KE=-5.969850592822D+01
 Leave Link  601 at Wed Sep  7 15:35:27 2022, MaxMem=   131072000 cpu:               0.0 elap:               0.0
 (Enter /opt/g16/l701.exe)
 ... and contract with generalized density number  0.
 Compute integral first derivatives.
 Leave Link  701 at Wed Sep  7 15:35:27 2022, MaxMem=   131072000 cpu:               0.0 elap:               0.0
 (Enter /opt/g16/l702.exe)
 L702 exits ... SP integral derivatives will be done elsewhere.
 Leave Link  702 at Wed Sep  7 15:35:27 2022, MaxMem=   131072000 cpu:               0.0 elap:               0.0
 (Enter /opt/g16/l703.exe)
 Integral derivatives from FoFJK, PRISM(SPDF).
 Compute integral first derivatives, UseDBF=F ICtDFT=           0.
 Calling FoFJK, ICntrl=      2127 FMM=F ISym2X=0 I1Cent= 0 IOpClX= 0 NMat=1 NMatS=1 NMatT=0.
 FoFJK:  IHMeth= 9 ICntrl=    2127 DoSepK=F KAlg= 0 I1Cent=           0 FoldK=F
 IRaf=         0 NMat=       1 IRICut=       1 DoRegI=T DoRafI=F ISym2E= 0 IDoP0=3 IntGTp=3.
 FoFCou: FMM=F IPFlag=           0 FMFlag=      100000 FMFlg1=         800
         NFxFlg=           0 DoJE=F BraDBF=F KetDBF=F FulRan=T
         wScrn=  0.000000 ICntrl=      2127 IOpCl=  0 I1Cent=           0 NGrid=           0
         NMat0=    1 NMatS0=      1 NMatT0=    0 NMatD0=    1 NMtDS0=    0 NMtDT0=    0
 Symmetry not used in FoFCou.
 Leave Link  703 at Wed Sep  7 15:35:27 2022, MaxMem=   131072000 cpu:               0.0 elap:               0.0
 (Enter /opt/g16/l716.exe)
 Dipole        =-4.47950480D-01-2.95005828D-01 2.37302346D-01
 ***** Axes restored to original set *****
 -------------------------------------------------------------------
 Center     Atomic                   Forces (Hartrees/Bohr)
 Number     Number              X              Y              Z
 -------------------------------------------------------------------
      1        6           0.019112186   -0.007749160    0.023860082
      2        1          -0.008776941    0.003068904    0.011289594
      3        1          -0.022324744    0.008200003   -0.015254426
      4        1           0.005908152   -0.012734039   -0.007456041
      5        6           0.023032260    0.086147810   -0.017789249
      6        1          -0.003159267    0.003245101   -0.002422413
      7        1           0.002308543   -0.000981085    0.008730010
      8        6           0.005780015   -0.055830984   -0.039989707
      9        1           0.012967308    0.007845644    0.007205221
     10        8           0.003060172   -0.010272948   -0.001248652
     11        6          -0.026728239   -0.064259931    0.030174705
     12        1           0.001204111    0.007275945    0.000680891
     13        1          -0.000528145    0.008211306    0.027836979
     14        1          -0.007529142    0.013873681   -0.005074290
     15        6           0.022191632    0.010067606   -0.011863378
     16        1          -0.008347615   -0.002999406   -0.039120127
     17        1          -0.020097854   -0.005826212    0.028189400
     18        1           0.001927566    0.012717765    0.002251403
 -------------------------------------------------------------------
 Cartesian Forces:  Max     0.086147810 RMS     0.022135041
 Leave Link  716 at Wed Sep  7 15:35:27 2022, MaxMem=   131072000 cpu:               0.0 elap:               0.0
 (Enter /opt/g16/l103.exe)

 GradGradGradGradGradGradGradGradGradGradGradGradGradGradGradGradGradGrad
 Berny optimization.
 FormGI is forming the generalized inverse of G from B-inverse, IUseBI=4.
 GSVD:  received Info=                   1 from GESDD.
 Internal  Forces:  Max     0.080245002 RMS     0.014232378
 Search for a local minimum.
 Step number   1 out of a maximum of   97
 All quantities printed in internal units (Hartrees-Bohrs-Radians)
 RMS Force = .14232D-01 SwitMx=.10000D-02 MixMth= 1
 Mixed Optimization -- RFO/linear search
 Second derivative matrix not updated -- first step.
 ITU=  0
     Eigenvalues ---    0.00250   0.00332   0.00976   0.01482   0.01567
     Eigenvalues ---    0.03376   0.03400   0.04121   0.04789   0.05087
     Eigenvalues ---    0.05286   0.05478   0.05805   0.06008   0.06026
     Eigenvalues ---    0.06815   0.08702   0.09643   0.12586   0.13068
     Eigenvalues ---    0.15919   0.16000   0.16000   0.16000   0.16000
     Eigenvalues ---    0.16000   0.16000   0.16000   0.20047   0.21923
     Eigenvalues ---    0.22027   0.28607   0.28784   0.28931   0.29164
     Eigenvalues ---    0.31874   0.32363   0.32550   0.32726   0.33709
     Eigenvalues ---    0.34104   0.35683   0.36518   0.38654   0.39241
     Eigenvalues ---    0.39659   0.43085   0.56435
 RFO step:  Lambda=-5.32277804D-02 EMin= 2.49962044D-03
 Linear search not attempted -- first point.
 Maximum step size (   0.300) exceeded in Quadratic search.
    -- Step size scaled by   0.788
 Iteration  1 RMS(Cart)=  0.08177188 RMS(Int)=  0.00309946
 Iteration  2 RMS(Cart)=  0.00351727 RMS(Int)=  0.00079106
 Iteration  3 RMS(Cart)=  0.00000858 RMS(Int)=  0.00079102
 Iteration  4 RMS(Cart)=  0.00000001 RMS(Int)=  0.00079102
 ITry= 1 IFail=0 DXMaxC= 2.78D-01 DCOld= 1.00D+10 DXMaxT= 3.00D-01 DXLimC= 3.00D+00 Rises=F
 Variable       Old X    -DE/DX   Delta X   Delta X   Delta X     New X
                                 (Linear)    (Quad)   (Total)
    R1        2.09849  -0.01282   0.00000  -0.02668  -0.02668   2.07182
    R2        2.17156  -0.02802   0.00000  -0.06473  -0.06473   2.10683
    R3        2.11075  -0.01406   0.00000  -0.02978  -0.02978   2.08097
    R4        2.90830  -0.01487   0.00000  -0.03454  -0.03454   2.87377
    R5        2.09535   0.00481   0.00000   0.00997   0.00997   2.10532
    R6        2.07824   0.00828   0.00000   0.01671   0.01671   2.09495
    R7        2.72020   0.08025   0.00000   0.14056   0.14056   2.86076
    R8        2.16848  -0.01051   0.00000  -0.02417  -0.02417   2.14430
    R9        2.67565   0.00438   0.00000   0.00712   0.00712   2.68277
   R10        2.80455   0.05364   0.00000   0.10719   0.10719   2.91174
   R11        1.80578  -0.00740   0.00000  -0.00945  -0.00945   1.79634
   R12        2.03279   0.02563   0.00000   0.04827   0.04827   2.08106
   R13        2.04581   0.01552   0.00000   0.02982   0.02982   2.07563
   R14        2.89663  -0.00497   0.00000  -0.01135  -0.01135   2.88527
   R15        1.99298   0.03770   0.00000   0.06666   0.06666   2.05964
   R16        2.00124   0.03208   0.00000   0.05747   0.05747   2.05871
   R17        2.10184  -0.00898   0.00000  -0.01877  -0.01877   2.08307
    A1        1.83467   0.00185   0.00000   0.00767   0.00810   1.84277
    A2        1.94618  -0.00297   0.00000  -0.01911  -0.01891   1.92727
    A3        2.05607  -0.01219   0.00000  -0.04917  -0.04884   2.00723
    A4        1.87039  -0.00418   0.00000  -0.00560  -0.00675   1.86364
    A5        1.88441   0.00725   0.00000   0.03140   0.03111   1.91552
    A6        1.86369   0.01065   0.00000   0.03835   0.03792   1.90161
    A7        1.86162   0.00322   0.00000   0.00961   0.00983   1.87145
    A8        1.86410   0.00641   0.00000   0.01605   0.01557   1.87967
    A9        2.06903  -0.01475   0.00000  -0.04538  -0.04546   2.02357
   A10        1.81025  -0.00113   0.00000   0.00719   0.00701   1.81726
   A11        1.87526   0.00616   0.00000   0.02303   0.02315   1.89842
   A12        1.96391   0.00169   0.00000  -0.00339  -0.00357   1.96034
   A13        1.99354  -0.00877   0.00000  -0.03970  -0.04197   1.95157
   A14        1.91035  -0.00593   0.00000  -0.01918  -0.01958   1.89076
   A15        1.85187   0.02163   0.00000   0.07727   0.07737   1.92924
   A16        1.93858   0.00157   0.00000  -0.01762  -0.01859   1.91999
   A17        1.78616   0.00191   0.00000   0.02939   0.03006   1.81622
   A18        1.98063  -0.00952   0.00000  -0.02457  -0.02426   1.95637
   A19        1.85700  -0.00026   0.00000  -0.00097  -0.00097   1.85602
   A20        1.87013   0.00299   0.00000   0.02390   0.02391   1.89403
   A21        2.03847  -0.00416   0.00000  -0.03634  -0.03663   2.00184
   A22        1.99354  -0.00592   0.00000  -0.01558  -0.01618   1.97736
   A23        1.89354  -0.00316   0.00000  -0.01607  -0.01616   1.87737
   A24        1.74077   0.00844   0.00000   0.05486   0.05463   1.79540
   A25        1.90079   0.00378   0.00000   0.00401   0.00296   1.90375
   A26        1.77889   0.01742   0.00000   0.07856   0.07990   1.85879
   A27        2.03898  -0.01212   0.00000  -0.04779  -0.04969   1.98929
   A28        2.08207  -0.01385   0.00000  -0.06319  -0.06475   2.01732
   A29        1.78351   0.00425   0.00000   0.04291   0.04389   1.82740
   A30        1.91542  -0.00506   0.00000  -0.01849  -0.01706   1.89836
   A31        1.83923   0.01193   0.00000   0.02655   0.02284   1.86208
    D1       -1.35792   0.00225   0.00000   0.01733   0.01730  -1.34062
    D2        2.99796  -0.00064   0.00000  -0.00190  -0.00204   2.99592
    D3        0.75863   0.00302   0.00000   0.02485   0.02484   0.78346
    D4        2.85266   0.00221   0.00000   0.01522   0.01568   2.86834
    D5        0.92535  -0.00067   0.00000  -0.00400  -0.00365   0.92170
    D6       -1.31398   0.00299   0.00000   0.02275   0.02322  -1.29076
    D7        0.84635  -0.00176   0.00000  -0.01257  -0.01291   0.83344
    D8       -1.08095  -0.00465   0.00000  -0.03180  -0.03224  -1.11320
    D9        2.96290  -0.00099   0.00000  -0.00505  -0.00537   2.95753
   D10       -0.95513   0.00613   0.00000   0.03517   0.03444  -0.92069
   D11        1.23076  -0.00311   0.00000  -0.03337  -0.03277   1.19800
   D12       -2.90902  -0.00485   0.00000  -0.02706  -0.02634  -2.93535
   D13        1.15447   0.00529   0.00000   0.03552   0.03451   1.18898
   D14       -2.94282  -0.00395   0.00000  -0.03302  -0.03270  -2.97552
   D15       -0.79941  -0.00569   0.00000  -0.02671  -0.02627  -0.82569
   D16        3.13618   0.00845   0.00000   0.05597   0.05492  -3.09208
   D17       -0.96111  -0.00079   0.00000  -0.01258  -0.01229  -0.97340
   D18        1.18230  -0.00254   0.00000  -0.00627  -0.00586   1.17644
   D19        3.10217   0.01059   0.00000   0.04882   0.04887  -3.13215
   D20       -0.96372  -0.00409   0.00000  -0.03001  -0.03039  -0.99411
   D21        1.03731  -0.00660   0.00000  -0.01996  -0.01963   1.01768
   D22       -1.54705   0.00446   0.00000   0.03419   0.03507  -1.51198
   D23        0.57965  -0.00013   0.00000   0.00734   0.00783   0.58748
   D24        2.82592  -0.00454   0.00000  -0.03804  -0.03698   2.78893
   D25        2.64142   0.00435   0.00000   0.03281   0.03198   2.67339
   D26       -1.51506  -0.00024   0.00000   0.00596   0.00473  -1.51033
   D27        0.73120  -0.00465   0.00000  -0.03942  -0.04008   0.69112
   D28        0.55127   0.00604   0.00000   0.04786   0.04803   0.59930
   D29        2.67797   0.00145   0.00000   0.02101   0.02079   2.69876
   D30       -1.35895  -0.00296   0.00000  -0.02437  -0.02402  -1.38297
   D31       -1.42086   0.00862   0.00000   0.06689   0.06709  -1.35377
   D32        2.93550  -0.00222   0.00000  -0.01316  -0.01192   2.92358
   D33        0.69023   0.00764   0.00000   0.06763   0.06647   0.75670
   D34        2.87425   0.00264   0.00000   0.01396   0.01413   2.88838
   D35        0.94742  -0.00820   0.00000  -0.06609  -0.06488   0.88254
   D36       -1.29785   0.00166   0.00000   0.01470   0.01351  -1.28434
   D37        0.89309   0.00108   0.00000   0.00585   0.00580   0.89889
   D38       -1.03374  -0.00975   0.00000  -0.07420  -0.07321  -1.10695
   D39        3.00418   0.00011   0.00000   0.00659   0.00518   3.00935
         Item               Value     Threshold  Converged?
 Maximum Force            0.080245     0.000450     NO 
 RMS     Force            0.014232     0.000300     NO 
 Maximum Displacement     0.277785     0.001800     NO 
 RMS     Displacement     0.081226     0.001200     NO 
 Predicted change in Energy=-2.890536D-02
 Lowest energy point so far.  Saving SCF results.
 GradGradGradGradGradGradGradGradGradGradGradGradGradGradGradGradGradGrad

 Leave Link  103 at Wed Sep  7 15:35:27 2022, MaxMem=   131072000 cpu:               0.0 elap:               0.0
 (Enter /opt/g16/l202.exe)
                          Input orientation:                          
 ---------------------------------------------------------------------
 Center     Atomic      Atomic             Coordinates (Angstroms)
 Number     Number       Type             X           Y           Z
 ---------------------------------------------------------------------
      1          6           0       15.195776   10.797405    5.318030
      2          1           0       15.268987   10.447515    4.281585
      3          1           0       16.160139   10.512121    5.799270
      4          1           0       15.137812   11.896634    5.349357
      5          6           0       14.034576   10.218722    6.111356
      6          1           0       13.112489   10.749997    5.781661
      7          1           0       14.161441   10.527715    7.168438
      8          6           0       13.814302    8.727603    5.970734
      9          1           0       13.737105    8.413443    4.883112
     10          8           0       14.897861    8.055347    6.594762
     11          6           0       12.455904    8.322523    6.574731
     12          1           0       14.735835    7.125396    6.482773
     13          1           0       12.593771    8.134426    7.651004
     14          1           0       11.663572    9.075779    6.468691
     15          6           0       11.941418    6.980988    6.058233
     16          1           0       11.538949    7.166394    5.062462
     17          1           0       11.101988    6.580605    6.625594
     18          1           0       12.692074    6.176386    5.993205
 ---------------------------------------------------------------------
                    Distance matrix (angstroms):
                    1          2          3          4          5
     1  C    0.000000
     2  H    1.096359   0.000000
     3  H    1.114889   1.761163   0.000000
     4  H    1.101202   1.804797   1.778891   0.000000
     5  C    1.520732   2.219049   2.168294   2.147827   0.000000
     6  H    2.134779   2.644278   3.056970   2.367191   1.114089
     7  H    2.136958   3.093058   2.422738   2.477154   1.108600
     8  C    2.572659   2.815570   2.952432   3.490064   1.513847
     9  H    2.828453   2.616476   3.333900   3.783118   2.203657
    10  O    3.039355   3.348281   2.874350   4.045256   2.378894
    11  C    3.900158   4.205657   4.372304   4.633405   2.510477
    12  H    3.879668   4.020691   3.737074   4.920460   3.193490
    13  H    4.393706   4.884685   4.669190   5.091555   2.964916
    14  H    4.094444   4.434423   4.767632   4.613076   2.656250
    15  C    5.069890   5.123086   5.507592   5.906185   3.855782
    16  H    5.159645   5.028788   5.752580   5.950571   4.079833
    17  H    6.020816   6.149086   6.459452   6.795353   4.701107
    18  H    5.298887   5.273771   5.555509   6.254391   4.261074
                    6          7          8          9         10
     6  H    0.000000
     7  H    1.752957   0.000000
     8  C    2.149039   2.189840   0.000000
     9  H    2.580120   3.142120   1.134715   0.000000
    10  O    3.333141   2.642730   1.419662   2.098889   0.000000
    11  C    2.636796   2.850301   1.540827   2.123987   2.456612
    12  H    4.032932   3.517931   1.917935   2.283734   0.950580
    13  H    3.256490   2.901429   2.159829   3.007705   2.535889
    14  H    2.318270   2.972728   2.234910   2.693007   3.393789
    15  C    3.956429   4.329010   2.562424   2.580180   3.191029
    16  H    3.979383   4.755111   2.905092   2.533611   3.797429
    17  H    4.705122   5.023406   3.520666   3.652312   4.072403
    18  H    4.597762   4.740704   2.787222   2.707179   2.959368
                   11         12         13         14         15
    11  C    0.000000
    12  H    2.576753   0.000000
    13  H    1.101250   2.640330   0.000000
    14  H    1.098375   3.639092   1.774621   0.000000
    15  C    1.526821   2.830169   2.071932   2.152632   0.000000
    16  H    2.112912   3.498434   2.958088   2.374608   1.089916
    17  H    2.206797   3.677232   2.385632   2.562399   1.089425
    18  H    2.236035   2.305917   2.567466   3.112938   1.102314
                   16         17         18
    16  H    0.000000
    17  H    1.725534   0.000000
    18  H    1.782160   1.758318   0.000000
 Stoichiometry    C5H12O
 Framework group  C1[X(C5H12O)]
 Deg. of freedom    48
 Full point group                 C1      NOp   1
 RotChk:  IX=0 Diff= 3.03D-02
 Largest Abelian subgroup         C1      NOp   1
 Largest concise Abelian subgroup C1      NOp   1
                         Standard orientation:                         
 ---------------------------------------------------------------------
 Center     Atomic      Atomic             Coordinates (Angstroms)
 Number     Number       Type             X           Y           Z
 ---------------------------------------------------------------------
      1          6           0        2.545599   -0.208408    0.366080
      2          1           0        2.482933   -0.115885    1.456729
      3          1           0        2.874924    0.791519   -0.000891
      4          1           0        3.333274   -0.925119    0.085834
      5          6           0        1.248542   -0.606330   -0.320888
      6          1           0        1.109244   -1.699189   -0.155206
      7          1           0        1.405143   -0.516382   -1.414679
      8          6           0        0.003648    0.119315    0.143237
      9          1           0       -0.120555    0.065419    1.269846
     10          8           0        0.095884    1.474062   -0.271002
     11          6           0       -1.260223   -0.569870   -0.406126
     12          1           0       -0.692638    1.903478    0.041147
     13          1           0       -1.474516   -0.161723   -1.406249
     14          1           0       -1.182452   -1.661184   -0.503147
     15          6           0       -2.524239   -0.227492    0.378872
     16          1           0       -2.493090   -0.823297    1.290993
     17          1           0       -3.447425   -0.527274   -0.115806
     18          1           0       -2.641879    0.833850    0.652386
 ---------------------------------------------------------------------
 Rotational constants (GHZ):           6.7179265           1.8818279           1.6428326
 Leave Link  202 at Wed Sep  7 15:35:27 2022, MaxMem=   131072000 cpu:               0.0 elap:               0.0
 (Enter /opt/g16/l301.exe)
 Standard basis: VSTO-6G (5D, 7F)
 Ernie: Thresh=  0.10000D-02 Tol=  0.10000D-05 Strict=F.
  NNHCO=     0 NNPyr=     0 NCTC=     0               EPep=         0.000000000
    EC=       127.103994333  ECS=         2.197834454   EG=         0.563548042
   EHC=         0.000000000  EAt=       -36.836480110  AtH=         2.452923921
 EPDDG=         0.000000000  ECC=       129.865376830 EAtT=        39.289404030
 There are    36 symmetry adapted cartesian basis functions of A   symmetry.
 There are    36 symmetry adapted basis functions of A   symmetry.
    36 basis functions,   216 primitive gaussians,    36 cartesian basis functions
    19 alpha electrons       19 beta electrons
       nuclear repulsion energy       169.1547808600 Hartrees.
 IExCor=    0 DFT=F Ex=HF Corr=None ExCW=0 ScaHFX=  1.000000
 ScaDFX=  1.000000  1.000000  1.000000  1.000000 ScalE2=  1.000000  1.000000
 IRadAn=      5 IRanWt=     -1 IRanGd=            0 ICorTp=0 IEmpDi=  4
 Integral buffers will be    131072 words long.
 Regular integral format.
 Two-electron integral symmetry is turned off.
 Leave Link  301 at Wed Sep  7 15:35:27 2022, MaxMem=   131072000 cpu:               0.0 elap:               0.0
 (Enter /opt/g16/l302.exe)
 Do NDO integrals.
 NPDir=0 NMtPBC=     1 NCelOv=     1 NCel=       1 NClECP=     1 NCelD=      1
         NCelK=      1 NCelE2=     1 NClLst=     1 CellRange=     0.0.
 One-electron integrals computed using PRISM.
 NBasis=    36 RedAO= F EigKep=  0.00D+00  NBF=    36
 NBsUse=    36 1.00D-04 EigRej=  0.00D+00 NBFU=    36
 Leave Link  302 at Wed Sep  7 15:35:27 2022, MaxMem=   131072000 cpu:               0.1 elap:               0.0
 (Enter /opt/g16/l303.exe)
 DipDrv:  MaxL=1.
 Leave Link  303 at Wed Sep  7 15:35:27 2022, MaxMem=   131072000 cpu:               0.0 elap:               0.0
 (Enter /opt/g16/l401.exe)
 Initial guess from the checkpoint file:  "MD_extract_017_gaussian.chk"
 B after Tr=     0.000000   -0.000000    0.000000
         Rot=    0.999931    0.011661    0.000536    0.001346 Ang=   1.35 deg.
 Guess basis will be translated and rotated to current coordinates.
 JPrj=0 DoOrth=T DoCkMO=T.
 Leave Link  401 at Wed Sep  7 15:35:27 2022, MaxMem=   131072000 cpu:               0.1 elap:               0.0
 (Enter /opt/g16/l502.exe)
 Keep J ints in memory in canonical form, NReq=862161.
 FoFCou: FMM=F IPFlag=           0 FMFlag=           0 FMFlg1=           0
         NFxFlg=           0 DoJE=F BraDBF=F KetDBF=F FulRan=T
         wScrn=  0.000000 ICntrl=       600 IOpCl=  2 I1Cent=           0 NGrid=           0
         NMat0=    1 NMatS0=     72 NMatT0=    0 NMatD0=    1 NMtDS0=    0 NMtDT0=    0
 Symmetry not used in FoFCou.
 Two-electron integral symmetry not used.
 Closed shell SCF:
 Using DIIS extrapolation, IDIIS=  1040.
 Overlap will be assumed to be unity.
 NGot=   131072000 LenX=   131006778 LenY=   131005041
 Requested convergence on RMS density matrix=1.00D-08 within 128 cycles.
 Requested convergence on MAX density matrix=1.00D-06.
 Requested convergence on             energy=1.00D-06.
 No special actions if energy rises.

 Cycle   1  Pass 1  IDiag  1:
 E=-0.986943364971467E-01
 DIIS: error= 7.64D-03 at cycle   1 NSaved=   1.
 NSaved= 1 IEnMin= 1 EnMin=-0.986943364971467E-01 IErMin= 1 ErrMin= 7.64D-03
 ErrMax= 7.64D-03  0.00D+00 EMaxC= 1.00D-01 BMatC= 2.81D-03 BMatP= 2.81D-03
 IDIUse=3 WtCom= 9.24D-01 WtEn= 7.64D-02
 Coeff-Com:  0.100D+01
 Coeff-En:   0.100D+01
 Coeff:      0.100D+01
 GapD=    2.000 DampG=2.000 DampE=1.000 DampFc=2.0000 IDamp=-1.
 RMSDP=2.63D-03 MaxDP=1.81D-02              OVMax= 0.00D+00

 Cycle   2  Pass 1  IDiag  3:
 E=-0.108176990219675     Delta-E=       -0.009482653723 Rises=F Damp=F
 DIIS: error= 3.23D-03 at cycle   2 NSaved=   2.
 NSaved= 2 IEnMin= 2 EnMin=-0.108176990219675     IErMin= 2 ErrMin= 3.23D-03
 ErrMax= 3.23D-03  0.00D+00 EMaxC= 1.00D-01 BMatC= 3.78D-04 BMatP= 2.81D-03
 IDIUse=3 WtCom= 9.68D-01 WtEn= 3.23D-02
 Coeff-Com: -0.504D+00 0.150D+01
 Coeff-En:   0.000D+00 0.100D+01
 Coeff:     -0.487D+00 0.149D+01
 Gap=     0.515 Goal=   None    Shift=    0.000
 RMSDP=1.57D-03 MaxDP=1.16D-02 DE=-9.48D-03 OVMax= 8.98D-03

 Cycle   3  Pass 1  IDiag  3:
 E=-0.109908810706003     Delta-E=       -0.001731820486 Rises=F Damp=F
 DIIS: error= 4.89D-04 at cycle   3 NSaved=   3.
 NSaved= 3 IEnMin= 3 EnMin=-0.109908810706003     IErMin= 3 ErrMin= 4.89D-04
 ErrMax= 4.89D-04  0.00D+00 EMaxC= 1.00D-01 BMatC= 9.35D-06 BMatP= 3.78D-04
 IDIUse=3 WtCom= 9.95D-01 WtEn= 4.89D-03
 Coeff-Com:  0.172D+00-0.609D+00 0.144D+01
 Coeff-En:   0.000D+00 0.000D+00 0.100D+01
 Coeff:      0.171D+00-0.606D+00 0.144D+01
 Gap=     0.515 Goal=   None    Shift=    0.000
 RMSDP=2.94D-04 MaxDP=2.20D-03 DE=-1.73D-03 OVMax= 1.77D-03

 Cycle   4  Pass 1  IDiag  3:
 E=-0.109958254938618     Delta-E=       -0.000049444233 Rises=F Damp=F
 DIIS: error= 8.86D-05 at cycle   4 NSaved=   4.
 NSaved= 4 IEnMin= 4 EnMin=-0.109958254938618     IErMin= 4 ErrMin= 8.86D-05
 ErrMax= 8.86D-05  0.00D+00 EMaxC= 1.00D-01 BMatC= 2.83D-07 BMatP= 9.35D-06
 IDIUse=1 WtCom= 1.00D+00 WtEn= 0.00D+00
 Coeff-Com: -0.803D-01 0.291D+00-0.767D+00 0.156D+01
 Coeff:     -0.803D-01 0.291D+00-0.767D+00 0.156D+01
 Gap=     0.515 Goal=   None    Shift=    0.000
 RMSDP=5.40D-05 MaxDP=4.80D-04 DE=-4.94D-05 OVMax= 6.62D-04

 Cycle   5  Pass 1  IDiag  3:
 E=-0.109959949206029     Delta-E=       -0.000001694267 Rises=F Damp=F
 DIIS: error= 2.97D-05 at cycle   5 NSaved=   5.
 NSaved= 5 IEnMin= 5 EnMin=-0.109959949206029     IErMin= 5 ErrMin= 2.97D-05
 ErrMax= 2.97D-05  0.00D+00 EMaxC= 1.00D-01 BMatC= 1.74D-08 BMatP= 2.83D-07
 IDIUse=1 WtCom= 1.00D+00 WtEn= 0.00D+00
 Coeff-Com:  0.364D-01-0.133D+00 0.358D+00-0.874D+00 0.161D+01
 Coeff:      0.364D-01-0.133D+00 0.358D+00-0.874D+00 0.161D+01
 Gap=     0.515 Goal=   None    Shift=    0.000
 RMSDP=1.51D-05 MaxDP=1.80D-04 DE=-1.69D-06 OVMax= 2.27D-04

 Cycle   6  Pass 1  IDiag  3:
 E=-0.109960065481545     Delta-E=       -0.000000116276 Rises=F Damp=F
 DIIS: error= 7.36D-06 at cycle   6 NSaved=   6.
 NSaved= 6 IEnMin= 6 EnMin=-0.109960065481545     IErMin= 6 ErrMin= 7.36D-06
 ErrMax= 7.36D-06  0.00D+00 EMaxC= 1.00D-01 BMatC= 9.87D-10 BMatP= 1.74D-08
 IDIUse=1 WtCom= 1.00D+00 WtEn= 0.00D+00
 Coeff-Com: -0.122D-01 0.444D-01-0.121D+00 0.313D+00-0.754D+00 0.153D+01
 Coeff:     -0.122D-01 0.444D-01-0.121D+00 0.313D+00-0.754D+00 0.153D+01
 Gap=     0.515 Goal=   None    Shift=    0.000
 RMSDP=3.67D-06 MaxDP=4.71D-05 DE=-1.16D-07 OVMax= 5.25D-05

 Cycle   7  Pass 1  IDiag  3:
 E=-0.109960072062506     Delta-E=       -0.000000006581 Rises=F Damp=F
 DIIS: error= 1.44D-06 at cycle   7 NSaved=   7.
 NSaved= 7 IEnMin= 7 EnMin=-0.109960072062506     IErMin= 7 ErrMin= 1.44D-06
 ErrMax= 1.44D-06  0.00D+00 EMaxC= 1.00D-01 BMatC= 4.87D-11 BMatP= 9.87D-10
 IDIUse=1 WtCom= 1.00D+00 WtEn= 0.00D+00
 Coeff-Com:  0.288D-02-0.105D-01 0.287D-01-0.770D-01 0.209D+00-0.596D+00
 Coeff-Com:  0.144D+01
 Coeff:      0.288D-02-0.105D-01 0.287D-01-0.770D-01 0.209D+00-0.596D+00
 Coeff:      0.144D+01
 Gap=     0.515 Goal=   None    Shift=    0.000
 RMSDP=7.63D-07 MaxDP=8.95D-06 DE=-6.58D-09 OVMax= 8.29D-06

 Cycle   8  Pass 1  IDiag  3:
 E=-0.109960072363862     Delta-E=       -0.000000000301 Rises=F Damp=F
 DIIS: error= 2.91D-07 at cycle   8 NSaved=   8.
 NSaved= 8 IEnMin= 8 EnMin=-0.109960072363862     IErMin= 8 ErrMin= 2.91D-07
 ErrMax= 2.91D-07  0.00D+00 EMaxC= 1.00D-01 BMatC= 2.19D-12 BMatP= 4.87D-11
 IDIUse=1 WtCom= 1.00D+00 WtEn= 0.00D+00
 Coeff-Com: -0.484D-03 0.176D-02-0.486D-02 0.134D-01-0.402D-01 0.138D+00
 Coeff-Com: -0.503D+00 0.140D+01
 Coeff:     -0.484D-03 0.176D-02-0.486D-02 0.134D-01-0.402D-01 0.138D+00
 Coeff:     -0.503D+00 0.140D+01
 Gap=     0.515 Goal=   None    Shift=    0.000
 RMSDP=1.56D-07 MaxDP=1.69D-06 DE=-3.01D-10 OVMax= 1.10D-06

 Cycle   9  Pass 1  IDiag  3:
 E=-0.109960072376964     Delta-E=       -0.000000000013 Rises=F Damp=F
 DIIS: error= 6.63D-08 at cycle   9 NSaved=   9.
 NSaved= 9 IEnMin= 9 EnMin=-0.109960072376964     IErMin= 9 ErrMin= 6.63D-08
 ErrMax= 6.63D-08  0.00D+00 EMaxC= 1.00D-01 BMatC= 1.16D-13 BMatP= 2.19D-12
 IDIUse=1 WtCom= 1.00D+00 WtEn= 0.00D+00
 Coeff-Com:  0.102D-03-0.372D-03 0.103D-02-0.295D-02 0.979D-02-0.384D-01
 Coeff-Com:  0.164D+00-0.595D+00 0.146D+01
 Coeff:      0.102D-03-0.372D-03 0.103D-02-0.295D-02 0.979D-02-0.384D-01
 Coeff:      0.164D+00-0.595D+00 0.146D+01
 Gap=     0.515 Goal=   None    Shift=    0.000
 RMSDP=3.67D-08 MaxDP=3.81D-07 DE=-1.31D-11 OVMax= 2.94D-07

 Cycle  10  Pass 1  IDiag  3:
 E=-0.109960072377817     Delta-E=       -0.000000000001 Rises=F Damp=F
 DIIS: error= 2.60D-08 at cycle  10 NSaved=  10.
 NSaved=10 IEnMin=10 EnMin=-0.109960072377817     IErMin=10 ErrMin= 2.60D-08
 ErrMax= 2.60D-08  0.00D+00 EMaxC= 1.00D-01 BMatC= 1.33D-14 BMatP= 1.16D-13
 IDIUse=1 WtCom= 1.00D+00 WtEn= 0.00D+00
 Coeff-Com: -0.275D-04 0.100D-03-0.282D-03 0.857D-03-0.331D-02 0.149D-01
 Coeff-Com: -0.705D-01 0.288D+00-0.966D+00 0.174D+01
 Coeff:     -0.275D-04 0.100D-03-0.282D-03 0.857D-03-0.331D-02 0.149D-01
 Coeff:     -0.705D-01 0.288D+00-0.966D+00 0.174D+01
 Gap=     0.515 Goal=   None    Shift=    0.000
 RMSDP=1.58D-08 MaxDP=1.86D-07 DE=-8.53D-13 OVMax= 1.94D-07

 Cycle  11  Pass 1  IDiag  3:
 E=-0.109960072377817     Delta-E=        0.000000000000 Rises=F Damp=F
 DIIS: error= 5.56D-09 at cycle  11 NSaved=  11.
 NSaved=11 IEnMin=10 EnMin=-0.109960072377817     IErMin=11 ErrMin= 5.56D-09
 ErrMax= 5.56D-09  0.00D+00 EMaxC= 1.00D-01 BMatC= 9.02D-16 BMatP= 1.33D-14
 IDIUse=1 WtCom= 1.00D+00 WtEn= 0.00D+00
 Coeff-Com:  0.424D-05-0.154D-04 0.451D-04-0.160D-03 0.806D-03-0.431D-02
 Coeff-Com:  0.223D-01-0.974D-01 0.370D+00-0.898D+00 0.161D+01
 Coeff:      0.424D-05-0.154D-04 0.451D-04-0.160D-03 0.806D-03-0.431D-02
 Coeff:      0.223D-01-0.974D-01 0.370D+00-0.898D+00 0.161D+01
 Gap=     0.515 Goal=   None    Shift=    0.000
 RMSDP=4.43D-09 MaxDP=4.86D-08 DE= 0.00D+00 OVMax= 6.33D-08

 Cycle  12  Pass 2  IDiag  1:
 SCF Done:  E(RPM3) = -0.109960072378     A.U. after   12 cycles
            NFock= 11  Conv=0.44D-08     -V/T= 0.9982
 KE=-5.964095226177D+01 PE=-2.528009320604D+02 EE= 1.431771433898D+02
 Leave Link  502 at Wed Sep  7 15:35:27 2022, MaxMem=   131072000 cpu:               0.0 elap:               0.0
 (Enter /opt/g16/l701.exe)
 ... and contract with generalized density number  0.
 Compute integral first derivatives.
 Leave Link  701 at Wed Sep  7 15:35:27 2022, MaxMem=   131072000 cpu:               0.0 elap:               0.0
 (Enter /opt/g16/l702.exe)
 L702 exits ... SP integral derivatives will be done elsewhere.
 Leave Link  702 at Wed Sep  7 15:35:28 2022, MaxMem=   131072000 cpu:               0.0 elap:               0.0
 (Enter /opt/g16/l703.exe)
 Integral derivatives from FoFJK, PRISM(SPDF).
 Compute integral first derivatives, UseDBF=F ICtDFT=           0.
 Calling FoFJK, ICntrl=      2127 FMM=F ISym2X=0 I1Cent= 0 IOpClX= 0 NMat=1 NMatS=1 NMatT=0.
 FoFJK:  IHMeth= 9 ICntrl=    2127 DoSepK=F KAlg= 0 I1Cent=           0 FoldK=F
 IRaf=         0 NMat=       1 IRICut=       1 DoRegI=T DoRafI=F ISym2E= 0 IDoP0=3 IntGTp=3.
 FoFCou: FMM=F IPFlag=           0 FMFlag=      100000 FMFlg1=         800
         NFxFlg=           0 DoJE=F BraDBF=F KetDBF=F FulRan=T
         wScrn=  0.000000 ICntrl=      2127 IOpCl=  0 I1Cent=           0 NGrid=           0
         NMat0=    1 NMatS0=      1 NMatT0=    0 NMatD0=    1 NMtDS0=    0 NMtDT0=    0
 Symmetry not used in FoFCou.
 Leave Link  703 at Wed Sep  7 15:35:28 2022, MaxMem=   131072000 cpu:               0.0 elap:               0.0
 (Enter /opt/g16/l716.exe)
 Dipole        =-4.39856842D-01-2.75247534D-01 2.57664115D-01
 ***** Axes restored to original set *****
 -------------------------------------------------------------------
 Center     Atomic                   Forces (Hartrees/Bohr)
 Number     Number              X              Y              Z
 -------------------------------------------------------------------
      1        6           0.009702187   -0.007604183    0.013888944
      2        1          -0.004795584    0.001644993    0.000356394
      3        1          -0.007096376    0.003047106   -0.004998575
      4        1           0.001510814   -0.003111070   -0.004409793
      5        6          -0.000287180    0.019368824   -0.006079139
      6        1           0.000000534   -0.003075473    0.000167106
      7        1          -0.000031122   -0.004253456    0.001798792
      8        6          -0.008777142   -0.013005510   -0.013214001
      9        1           0.007479233    0.005901547    0.004859527
     10        8          -0.002966270    0.000820789   -0.002124114
     11        6           0.004580785   -0.027549075    0.015800828
     12        1          -0.000047859    0.002621143    0.000370504
     13        1          -0.000542001    0.008293376    0.007729881
     14        1           0.001207989    0.005527139   -0.002440658
     15        6           0.002338731    0.011088552   -0.011549854
     16        1           0.000051116   -0.005011099   -0.009553072
     17        1          -0.002697514    0.000033666    0.008385568
     18        1           0.000369658    0.005262731    0.001011662
 -------------------------------------------------------------------
 Cartesian Forces:  Max     0.027549075 RMS     0.007658138
 Leave Link  716 at Wed Sep  7 15:35:28 2022, MaxMem=   131072000 cpu:               0.0 elap:               0.0
 (Enter /opt/g16/l103.exe)

 GradGradGradGradGradGradGradGradGradGradGradGradGradGradGradGradGradGrad
 Berny optimization.
 Using GEDIIS/GDIIS optimizer.
 FormGI is forming the generalized inverse of G from B-inverse, IUseBI=4.
 Internal  Forces:  Max     0.010530260 RMS     0.003923959
 Search for a local minimum.
 Step number   2 out of a maximum of   97
 All quantities printed in internal units (Hartrees-Bohrs-Radians)
 RMS Force = .39240D-02 SwitMx=.10000D-02 MixMth= 1
 Mixed Optimization -- RFO/linear search
 Update second derivatives using D2CorX and points    1    2
 DE= -2.55D-02 DEPred=-2.89D-02 R= 8.81D-01
 TightC=F SS=  1.41D+00  RLast= 3.66D-01 DXNew= 5.0454D-01 1.0969D+00
 Trust test= 8.81D-01 RLast= 3.66D-01 DXMaxT set to 5.05D-01
 ITU=  1  0
 Use linear search instead of GDIIS.
     Eigenvalues ---    0.00250   0.00332   0.00977   0.01482   0.01567
     Eigenvalues ---    0.03578   0.03597   0.04768   0.04995   0.05099
     Eigenvalues ---    0.05149   0.05205   0.05645   0.05738   0.05865
     Eigenvalues ---    0.07235   0.08451   0.09215   0.12393   0.12771
     Eigenvalues ---    0.15163   0.16000   0.16000   0.16000   0.16000
     Eigenvalues ---    0.16000   0.16017   0.16761   0.20566   0.21320
     Eigenvalues ---    0.21954   0.28204   0.28655   0.28923   0.29158
     Eigenvalues ---    0.31860   0.32322   0.32575   0.32740   0.33714
     Eigenvalues ---    0.35291   0.35835   0.36615   0.38632   0.39151
     Eigenvalues ---    0.42733   0.50585   0.56404
 RFO step:  Lambda=-1.12884003D-02 EMin= 2.49953375D-03
 Quartic linear search produced a step of  0.40508.
 Iteration  1 RMS(Cart)=  0.06690725 RMS(Int)=  0.00346093
 Iteration  2 RMS(Cart)=  0.00375885 RMS(Int)=  0.00169163
 Iteration  3 RMS(Cart)=  0.00001286 RMS(Int)=  0.00169158
 Iteration  4 RMS(Cart)=  0.00000003 RMS(Int)=  0.00169158
 ITry= 1 IFail=0 DXMaxC= 2.44D-01 DCOld= 1.00D+10 DXMaxT= 5.05D-01 DXLimC= 3.00D+00 Rises=F
 Variable       Old X    -DE/DX   Delta X   Delta X   Delta X     New X
                                 (Linear)    (Quad)   (Total)
    R1        2.07182  -0.00118  -0.01081   0.00516  -0.00565   2.06617
    R2        2.10683  -0.00908  -0.02622  -0.01745  -0.04367   2.06317
    R3        2.08097  -0.00331  -0.01206  -0.00265  -0.01472   2.06625
    R4        2.87377  -0.00533  -0.01399  -0.01171  -0.02570   2.84806
    R5        2.10532  -0.00152   0.00404  -0.00990  -0.00586   2.09946
    R6        2.09495   0.00053   0.00677  -0.00417   0.00260   2.09755
    R7        2.86076   0.00585   0.05694  -0.03260   0.02433   2.88509
    R8        2.14430  -0.00680  -0.00979  -0.02206  -0.03186   2.11244
    R9        2.68277  -0.00470   0.00288  -0.01729  -0.01440   2.66837
   R10        2.91174  -0.00038   0.04342  -0.04158   0.00185   2.91359
   R11        1.79634  -0.00260  -0.00383  -0.00273  -0.00655   1.78978
   R12        2.08106   0.00607   0.01955   0.00419   0.02374   2.10480
   R13        2.07563   0.00315   0.01208   0.00066   0.01274   2.08837
   R14        2.88527  -0.00605  -0.00460  -0.02325  -0.02785   2.85742
   R15        2.05964   0.00786   0.02700   0.00196   0.02897   2.08861
   R16        2.05871   0.00643   0.02328   0.00085   0.02413   2.08284
   R17        2.08307  -0.00365  -0.00760  -0.00797  -0.01558   2.06750
    A1        1.84277   0.00181   0.00328   0.01758   0.02188   1.86465
    A2        1.92727  -0.00208  -0.00766  -0.03365  -0.04148   1.88580
    A3        2.00723  -0.00644  -0.01978  -0.04327  -0.06260   1.94464
    A4        1.86364  -0.00177  -0.00273   0.01105   0.00592   1.86956
    A5        1.91552   0.00337   0.01260   0.02888   0.04075   1.95627
    A6        1.90161   0.00526   0.01536   0.02336   0.03734   1.93895
    A7        1.87145   0.00448   0.00398   0.03973   0.04310   1.91454
    A8        1.87967   0.00578   0.00631   0.03387   0.03724   1.91691
    A9        2.02357  -0.00997  -0.01841  -0.04966  -0.06835   1.95522
   A10        1.81726  -0.00041   0.00284   0.02465   0.02602   1.84328
   A11        1.89842   0.00175   0.00938  -0.00512   0.00551   1.90393
   A12        1.96034  -0.00045  -0.00145  -0.03248  -0.03376   1.92657
   A13        1.95157  -0.00328  -0.01700  -0.02421  -0.04341   1.90816
   A14        1.89076  -0.00054  -0.00793  -0.01516  -0.02374   1.86703
   A15        1.92924   0.00086   0.03134  -0.02352   0.00770   1.93694
   A16        1.91999  -0.00049  -0.00753  -0.00442  -0.01379   1.90620
   A17        1.81622   0.00502   0.01218   0.07199   0.08487   1.90109
   A18        1.95637  -0.00153  -0.00983  -0.00284  -0.01248   1.94388
   A19        1.85602  -0.00072  -0.00039  -0.00539  -0.00579   1.85024
   A20        1.89403   0.00125   0.00968   0.02782   0.03671   1.93075
   A21        2.00184  -0.00331  -0.01484  -0.07259  -0.08912   1.91272
   A22        1.97736  -0.00570  -0.00655  -0.02525  -0.03476   1.94260
   A23        1.87737  -0.00218  -0.00655  -0.01638  -0.02363   1.85374
   A24        1.79540   0.00732   0.02213   0.10110   0.12196   1.91736
   A25        1.90375   0.00386   0.00120   0.00510   0.00067   1.90441
   A26        1.85879   0.01053   0.03236   0.07618   0.11044   1.96922
   A27        1.98929  -0.00656  -0.02013  -0.03824  -0.06203   1.92726
   A28        2.01732  -0.00660  -0.02623  -0.04748  -0.07620   1.94112
   A29        1.82740   0.00143   0.01778   0.03527   0.05381   1.88121
   A30        1.89836  -0.00308  -0.00691  -0.01595  -0.02012   1.87824
   A31        1.86208   0.00496   0.00925  -0.00103   0.00031   1.86238
    D1       -1.34062   0.00320   0.00701   0.06719   0.07475  -1.26587
    D2        2.99592  -0.00106  -0.00083   0.00490   0.00282   2.99874
    D3        0.78346   0.00226   0.01006   0.05787   0.06771   0.85117
    D4        2.86834   0.00271   0.00635   0.05229   0.06040   2.92874
    D5        0.92170  -0.00155  -0.00148  -0.01000  -0.01153   0.91017
    D6       -1.29076   0.00177   0.00941   0.04297   0.05335  -1.23741
    D7        0.83344  -0.00008  -0.00523   0.00932   0.00437   0.83782
    D8       -1.11320  -0.00434  -0.01306  -0.05297  -0.06756  -1.18075
    D9        2.95753  -0.00103  -0.00218  -0.00000  -0.00267   2.95486
   D10       -0.92069   0.00231   0.01395   0.02084   0.03437  -0.88631
   D11        1.19800  -0.00074  -0.01327  -0.01017  -0.02223   1.17577
   D12       -2.93535  -0.00245  -0.01067  -0.03885  -0.04835  -2.98370
   D13        1.18898   0.00266   0.01398   0.03472   0.04785   1.23683
   D14       -2.97552  -0.00039  -0.01325   0.00371  -0.00875  -2.98427
   D15       -0.82569  -0.00210  -0.01064  -0.02497  -0.03487  -0.86056
   D16       -3.09208   0.00296   0.02225   0.04336   0.06366  -3.02842
   D17       -0.97340  -0.00009  -0.00498   0.01236   0.00706  -0.96634
   D18        1.17644  -0.00180  -0.00237  -0.01632  -0.01906   1.15737
   D19       -3.13215   0.00130   0.01980  -0.00881   0.01108  -3.12107
   D20       -0.99411  -0.00340  -0.01231  -0.05119  -0.06359  -1.05771
   D21        1.01768   0.00158  -0.00795   0.03307   0.02510   1.04279
   D22       -1.51198   0.00395   0.01421   0.08249   0.09760  -1.41438
   D23        0.58748  -0.00011   0.00317   0.03409   0.03634   0.62382
   D24        2.78893  -0.00260  -0.01498  -0.04414  -0.05696   2.73197
   D25        2.67339   0.00448   0.01295   0.08136   0.09382   2.76722
   D26       -1.51033   0.00042   0.00192   0.03296   0.03257  -1.47776
   D27        0.69112  -0.00207  -0.01623  -0.04527  -0.06074   0.63038
   D28        0.59930   0.00283   0.01946   0.04480   0.06441   0.66371
   D29        2.69876  -0.00123   0.00842  -0.00360   0.00316   2.70192
   D30       -1.38297  -0.00373  -0.00973  -0.08183  -0.09015  -1.47312
   D31       -1.35377   0.00494   0.02718   0.10700   0.13521  -1.21856
   D32        2.92358   0.00009  -0.00483   0.03661   0.03462   2.95820
   D33        0.75670   0.00459   0.02693   0.11267   0.13729   0.89399
   D34        2.88838   0.00178   0.00572   0.02539   0.03171   2.92009
   D35        0.88254  -0.00307  -0.02628  -0.04501  -0.06888   0.81366
[...]
 ! A11   A(6,5,8)              108.8673         -DE/DX =    0.0                 !
 ! A12   A(7,5,8)              110.0558         -DE/DX =    0.0                 !
 ! A13   A(5,8,9)              109.779          -DE/DX =    0.0                 !
 ! A14   A(5,8,10)             107.3894         -DE/DX =    0.0                 !
 ! A15   A(5,8,11)             110.4919         -DE/DX =    0.0                 !
 ! A16   A(9,8,10)             107.8091         -DE/DX =    0.0                 !
 ! A17   A(9,8,11)             109.3433         -DE/DX =    0.0                 !
 ! A18   A(10,8,11)            111.9645         -DE/DX =    0.0                 !
 ! A19   A(8,10,12)            106.0395         -DE/DX =    0.0                 !
 ! A20   A(8,11,13)            109.8331         -DE/DX =    0.0                 !
 ! A21   A(8,11,14)            109.3414         -DE/DX =    0.0                 !
 ! A22   A(8,11,15)            111.5163         -DE/DX =    0.0                 !
 ! A23   A(13,11,14)           105.7768         -DE/DX =    0.0                 !
 ! A24   A(13,11,15)           110.1971         -DE/DX =    0.0                 !
 ! A25   A(14,11,15)           110.0128         -DE/DX =    0.0                 !
 ! A26   A(11,15,16)           111.7898         -DE/DX =    0.0                 !
 ! A27   A(11,15,17)           111.556          -DE/DX =    0.0                 !
 ! A28   A(11,15,18)           110.9981         -DE/DX =    0.0                 !
 ! A29   A(16,15,17)           107.5328         -DE/DX =    0.0                 !
 ! A30   A(16,15,18)           107.1819         -DE/DX =    0.0                 !
 ! A31   A(17,15,18)           107.5558         -DE/DX =    0.0                 !
 ! D1    D(2,1,5,6)            -61.9494         -DE/DX =    0.0                 !
 ! D2    D(2,1,5,7)           -177.9055         -DE/DX =    0.0                 !
 ! D3    D(2,1,5,8)             59.1791         -DE/DX =    0.0                 !
 ! D4    D(3,1,5,6)            177.827          -DE/DX =    0.0                 !
 ! D5    D(3,1,5,7)             61.871          -DE/DX =    0.0                 !
 ! D6    D(3,1,5,8)            -61.0444         -DE/DX =    0.0                 !
 ! D7    D(4,1,5,6)             57.9283         -DE/DX =    0.0                 !
 ! D8    D(4,1,5,7)            -58.0278         -DE/DX =    0.0                 !
 ! D9    D(4,1,5,8)            179.0568         -DE/DX =    0.0                 !
 ! D10   D(1,5,8,9)            -44.6637         -DE/DX =    0.0                 !
 ! D11   D(1,5,8,10)            72.2861         -DE/DX =    0.0                 !
 ! D12   D(1,5,8,11)          -165.3385         -DE/DX =    0.0                 !
 ! D13   D(6,5,8,9)             76.9239         -DE/DX =    0.0                 !
 ! D14   D(6,5,8,10)          -166.1263         -DE/DX =    0.0                 !
 ! D15   D(6,5,8,11)           -43.7509         -DE/DX =    0.0                 !
 ! D16   D(7,5,8,9)           -167.5743         -DE/DX =    0.0                 !
 ! D17   D(7,5,8,10)           -50.6245         -DE/DX =    0.0                 !
 ! D18   D(7,5,8,11)            71.7509         -DE/DX =    0.0                 !
 ! D19   D(5,8,10,12)          164.2275         -DE/DX =    0.0                 !
 ! D20   D(9,8,10,12)          -77.5399         -DE/DX =    0.0                 !
 ! D21   D(11,8,10,12)          42.7705         -DE/DX =    0.0                 !
 ! D22   D(5,8,11,13)          -60.0273         -DE/DX =    0.0                 !
 ! D23   D(5,8,11,14)           55.6258         -DE/DX =    0.0                 !
 ! D24   D(5,8,11,15)          177.513          -DE/DX =    0.0                 !
 ! D25   D(9,8,11,13)          179.0382         -DE/DX =    0.0                 !
 ! D26   D(9,8,11,14)          -65.3086         -DE/DX =    0.0                 !
 ! D27   D(9,8,11,15)           56.5786         -DE/DX =    0.0                 !
 ! D28   D(10,8,11,13)          59.6259         -DE/DX =    0.0                 !
 ! D29   D(10,8,11,14)         175.279          -DE/DX =    0.0                 !
 ! D30   D(10,8,11,15)         -62.8338         -DE/DX =    0.0                 !
 ! D31   D(8,11,15,16)         -67.1301         -DE/DX =    0.0                 !
 ! D32   D(8,11,15,17)         172.4221         -DE/DX =    0.0                 !
 ! D33   D(8,11,15,18)          52.4873         -DE/DX =    0.0                 !
 ! D34   D(13,11,15,16)        170.6195         -DE/DX =    0.0                 !
 ! D35   D(13,11,15,17)         50.1717         -DE/DX =    0.0                 !
 ! D36   D(13,11,15,18)        -69.7631         -DE/DX =    0.0                 !
 ! D37   D(14,11,15,16)         54.3682         -DE/DX =    0.0                 !
 ! D38   D(14,11,15,17)        -66.0795         -DE/DX =    0.0                 !
 ! D39   D(14,11,15,18)        173.9857         -DE/DX =    0.0                 !
 --------------------------------------------------------------------------------
 Lowest energy point so far.  Saving SCF results.
 Largest change from initial coordinates is atom   16       0.630 Angstoms.
 GradGradGradGradGradGradGradGradGradGradGradGradGradGradGradGradGradGrad

 Leave Link  103 at Wed Sep  7 15:35:35 2022, MaxMem=   131072000 cpu:               0.0 elap:               0.0
 (Enter /opt/g16/l202.exe)
                          Input orientation:                          
 ---------------------------------------------------------------------
 Center     Atomic      Atomic             Coordinates (Angstroms)
 Number     Number       Type             X           Y           Z
 ---------------------------------------------------------------------
      1          6           0       15.185949   10.783327    5.361868
      2          1           0       14.965570   10.714325    4.288057
      3          1           0       16.122168   10.237967    5.538695
      4          1           0       15.373490   11.840277    5.590931
      5          6           0       14.053249   10.237908    6.201795
      6          1           0       13.136981   10.836341    6.026245
      7          1           0       14.288037   10.355327    7.278578
      8          6           0       13.752878    8.765793    5.885890
      9          1           0       13.739775    8.611381    4.777759
     10          8           0       14.814891    7.992947    6.418761
     11          6           0       12.390400    8.355394    6.474157
     12          1           0       14.501539    7.093793    6.439168
     13          1           0       12.400279    8.488824    7.574303
     14          1           0       11.606347    9.039087    6.095017
     15          6           0       12.043334    6.925250    6.124656
     16          1           0       11.863907    6.800686    5.048613
     17          1           0       11.141800    6.589251    6.650992
     18          1           0       12.863407    6.241122    6.399515
 ---------------------------------------------------------------------
                    Distance matrix (angstroms):
                    1          2          3          4          5
     1  C    0.000000
     2  H    1.098362   0.000000
     3  H    1.097812   1.768822   0.000000
     4  H    1.097627   1.769647   1.769363   0.000000
     5  C    1.511942   2.172947   2.172585   2.164204   0.000000
     6  H    2.154641   2.525850   3.083358   2.489851   1.108372
     7  H    2.159445   3.087255   2.530811   2.496284   1.108320
     8  C    2.529572   2.796510   2.810938   3.487956   1.535298
     9  H    2.673940   2.482893   2.983388   3.708915   2.184430
    10  O    3.006814   3.459553   2.742919   3.974832   2.380551
    11  C    3.866153   4.120083   4.283136   4.671544   2.526480
    12  H    3.904056   4.236845   3.650085   4.899890   3.184771
    13  H    4.233151   4.725779   4.588644   4.899591   2.770448
    14  H    4.048881   4.166042   4.705257   4.721455   2.726885
    15  C    5.034147   5.125393   5.287186   5.960898   3.875489
    16  H    5.195722   5.051270   5.494348   6.165125   4.235273
    17  H    5.967182   6.100894   6.273308   6.826727   4.689457
    18  H    5.206010   5.374653   5.228317   6.189092   4.174819
                    6          7          8          9         10
     6  H    0.000000
     7  H    1.767666   0.000000
     8  C    2.164762   2.180045   0.000000
     9  H    2.621550   3.097747   1.118914   0.000000
    10  O    3.324807   2.568599   1.417433   2.056994   0.000000
    11  C    2.629278   2.871907   1.539750   2.182683   2.452058
    12  H    4.004896   3.374581   1.913686   2.375634   0.952409
    13  H    2.906897   2.671127   2.181049   3.103212   2.722411
    14  H    2.361714   3.213218   2.173941   2.543544   3.390277
    15  C    4.062313   4.258599   2.523321   2.745010   2.984628
    16  H    4.343154   4.846094   2.851472   2.621232   3.465126
    17  H    4.733797   4.947323   3.484314   3.787807   3.939021
    18  H    4.618464   4.441735   2.725607   3.002705   2.622508
                   11         12         13         14         15
    11  C    0.000000
    12  H    2.459628   0.000000
    13  H    1.108252   2.765852   0.000000
    14  H    1.107214   3.504961   1.766749   0.000000
    15  C    1.512587   2.483968   2.161862   2.158737   0.000000
    16  H    2.174049   2.996107   3.084900   2.484298   1.097988
    17  H    2.170147   3.404009   2.458587   2.554723   1.096671
    18  H    2.167822   1.847186   2.578134   3.082455   1.102769
                   16         17         18
    16  H    0.000000
    17  H    1.770243   0.000000
    18  H    1.771172   1.774363   0.000000
 Stoichiometry    C5H12O
 Framework group  C1[X(C5H12O)]
 Deg. of freedom    48
 Full point group                 C1      NOp   1
 RotChk:  IX=0 Diff= 1.00D-15
 Largest Abelian subgroup         C1      NOp   1
 Largest concise Abelian subgroup C1      NOp   1
                         Standard orientation:                         
 ---------------------------------------------------------------------
 Center     Atomic      Atomic             Coordinates (Angstroms)
 Number     Number       Type             X           Y           Z
 ---------------------------------------------------------------------
      1          6           0        2.533451   -0.082745    0.338399
      2          1           0        2.499447   -0.248153    1.423703
      3          1           0        2.667832    0.994705    0.176433
      4          1           0        3.431408   -0.586377   -0.042143
      5          6           0        1.288673   -0.600672   -0.345889
      6          1           0        1.207397   -1.695518   -0.193598
      7          1           0        1.368510   -0.454038   -1.441561
      8          6           0        0.013263    0.070266    0.183555
      9          1           0        0.046914    0.118943    1.300904
     10          8           0       -0.001422    1.399639   -0.308041
     11          6           0       -1.233366   -0.719821   -0.255201
     12          1           0       -0.891936    1.715046   -0.187267
     13          1           0       -1.284036   -0.758225   -1.361628
     14          1           0       -1.137377   -1.771200    0.078434
     15          6           0       -2.500496   -0.112648    0.304837
     16          1           0       -2.551620   -0.211523    1.397169
     17          1           0       -3.394956   -0.590720   -0.112385
     18          1           0       -2.559351    0.963664    0.072055
 ---------------------------------------------------------------------
 Rotational constants (GHZ):           7.1094893           1.9153729           1.6724035
 Leave Link  202 at Wed Sep  7 15:35:35 2022, MaxMem=   131072000 cpu:               0.0 elap:               0.0
 (Enter /opt/g16/l601.exe)
 Copying SCF densities to generalized density rwf, IOpCl= 0 IROHF=0.

 **********************************************************************

            Population analysis using the SCF density.

 **********************************************************************

 Orbital symmetries:
       Occupied  (A) (A) (A) (A) (A) (A) (A) (A) (A) (A) (A) (A)
                 (A) (A) (A) (A) (A) (A) (A)
       Virtual   (A) (A) (A) (A) (A) (A) (A) (A) (A) (A) (A) (A)
                 (A) (A) (A) (A) (A)
 The electronic state is 1-A.
 Alpha  occ. eigenvalues --   -1.48625  -1.24038  -1.21329  -0.95409  -0.79117
 Alpha  occ. eigenvalues --   -0.76033  -0.65827  -0.61758  -0.56451  -0.55599
 Alpha  occ. eigenvalues --   -0.53679  -0.51709  -0.49722  -0.48173  -0.47035
 Alpha  occ. eigenvalues --   -0.44414  -0.43791  -0.42903  -0.40139
 Alpha virt. eigenvalues --    0.11495   0.12630   0.12926   0.13654   0.13780
 Alpha virt. eigenvalues --    0.14522   0.14728   0.15174   0.15567   0.15889
 Alpha virt. eigenvalues --    0.16802   0.17076   0.17338   0.18400   0.18570
 Alpha virt. eigenvalues --    0.18885   0.21166
          Condensed to atoms (all electrons):
               1          2          3          4          5          6
     1  C    4.106974   0.000000   0.000000   0.000000   0.000000   0.000000
     2  H    0.000000   0.965522   0.000000   0.000000   0.000000   0.000000
     3  H    0.000000   0.000000   0.949133   0.000000   0.000000   0.000000
     4  H    0.000000   0.000000   0.000000   0.965049   0.000000   0.000000
     5  C    0.000000   0.000000   0.000000   0.000000   4.105387   0.000000
     6  H    0.000000   0.000000   0.000000   0.000000   0.000000   0.951477
     7  H    0.000000   0.000000   0.000000   0.000000   0.000000   0.000000
     8  C    0.000000   0.000000   0.000000   0.000000   0.000000   0.000000
     9  H    0.000000   0.000000   0.000000   0.000000   0.000000   0.000000
    10  O    0.000000   0.000000   0.000000   0.000000   0.000000   0.000000
    11  C    0.000000   0.000000   0.000000   0.000000   0.000000   0.000000
    12  H    0.000000   0.000000   0.000000   0.000000   0.000000   0.000000
    13  H    0.000000   0.000000   0.000000   0.000000   0.000000   0.000000
    14  H    0.000000   0.000000   0.000000   0.000000   0.000000   0.000000
    15  C    0.000000   0.000000   0.000000   0.000000   0.000000   0.000000
    16  H    0.000000   0.000000   0.000000   0.000000   0.000000   0.000000
    17  H    0.000000   0.000000   0.000000   0.000000   0.000000   0.000000
    18  H    0.000000   0.000000   0.000000   0.000000   0.000000   0.000000
               7          8          9         10         11         12
     1  C    0.000000   0.000000   0.000000   0.000000   0.000000   0.000000
     2  H    0.000000   0.000000   0.000000   0.000000   0.000000   0.000000
     3  H    0.000000   0.000000   0.000000   0.000000   0.000000   0.000000
     4  H    0.000000   0.000000   0.000000   0.000000   0.000000   0.000000
     5  C    0.000000   0.000000   0.000000   0.000000   0.000000   0.000000
     6  H    0.000000   0.000000   0.000000   0.000000   0.000000   0.000000
     7  H    0.938759   0.000000   0.000000   0.000000   0.000000   0.000000
     8  C    0.000000   3.922974   0.000000   0.000000   0.000000   0.000000
     9  H    0.000000   0.000000   0.954948   0.000000   0.000000   0.000000
    10  O    0.000000   0.000000   0.000000   6.317174   0.000000   0.000000
    11  C    0.000000   0.000000   0.000000   0.000000   4.145557   0.000000
    12  H    0.000000   0.000000   0.000000   0.000000   0.000000   0.808865
    13  H    0.000000   0.000000   0.000000   0.000000   0.000000   0.000000
    14  H    0.000000   0.000000   0.000000   0.000000   0.000000   0.000000
    15  C    0.000000   0.000000   0.000000   0.000000   0.000000   0.000000
    16  H    0.000000   0.000000   0.000000   0.000000   0.000000   0.000000
    17  H    0.000000   0.000000   0.000000   0.000000   0.000000   0.000000
    18  H    0.000000   0.000000   0.000000   0.000000   0.000000   0.000000
              13         14         15         16         17         18
     1  C    0.000000   0.000000   0.000000   0.000000   0.000000   0.000000
     2  H    0.000000   0.000000   0.000000   0.000000   0.000000   0.000000
     3  H    0.000000   0.000000   0.000000   0.000000   0.000000   0.000000
     4  H    0.000000   0.000000   0.000000   0.000000   0.000000   0.000000
     5  C    0.000000   0.000000   0.000000   0.000000   0.000000   0.000000
     6  H    0.000000   0.000000   0.000000   0.000000   0.000000   0.000000
     7  H    0.000000   0.000000   0.000000   0.000000   0.000000   0.000000
     8  C    0.000000   0.000000   0.000000   0.000000   0.000000   0.000000
     9  H    0.000000   0.000000   0.000000   0.000000   0.000000   0.000000
    10  O    0.000000   0.000000   0.000000   0.000000   0.000000   0.000000
    11  C    0.000000   0.000000   0.000000   0.000000   0.000000   0.000000
    12  H    0.000000   0.000000   0.000000   0.000000   0.000000   0.000000
    13  H    0.937702   0.000000   0.000000   0.000000   0.000000   0.000000
    14  H    0.000000   0.939316   0.000000   0.000000   0.000000   0.000000
    15  C    0.000000   0.000000   4.110463   0.000000   0.000000   0.000000
    16  H    0.000000   0.000000   0.000000   0.958845   0.000000   0.000000
    17  H    0.000000   0.000000   0.000000   0.000000   0.955442   0.000000
    18  H    0.000000   0.000000   0.000000   0.000000   0.000000   0.966413
 Mulliken charges:
               1
     1  C   -0.106974
     2  H    0.034478
     3  H    0.050867
     4  H    0.034951
     5  C   -0.105387
     6  H    0.048523
     7  H    0.061241
     8  C    0.077026
     9  H    0.045052
    10  O   -0.317174
    11  C   -0.145557
    12  H    0.191135
    13  H    0.062298
    14  H    0.060684
    15  C   -0.110463
    16  H    0.041155
    17  H    0.044558
    18  H    0.033587
 Sum of Mulliken charges =   0.00000
 Mulliken charges with hydrogens summed into heavy atoms:
               1
     1  C    0.013323
     5  C    0.004377
     8  C    0.122077
    10  O   -0.126039
    11  C   -0.022575
    15  C    0.008837
 Charge=              0.0000 electrons
 Dipole moment (field-independent basis, Debye):
    X=             -1.2459    Y=             -0.8615    Z=              0.5063  Tot=              1.5971
 N-N= 1.700407236594D+02 E-N=-2.545145431635D+02  KE=-5.968721102008D+01
 Leave Link  601 at Wed Sep  7 15:35:35 2022, MaxMem=   131072000 cpu:               0.0 elap:               0.0
 (Enter /opt/g16/l9999.exe)
 1\1\GINC-TOTEM2\FOpt\RPM3\ZDO\C5H12O1\JRAMOS\07-Sep-2022\0\\#p opt pm3
 \\Conformer number 017. Energy MM = 0.000 kcal/mol\\0,1\C,15.185949125
 3,10.7833271538,5.3618684784\H,14.9655695765,10.7143251918,4.288056826
 8\H,16.122167888,10.2379665582,5.5386948594\H,15.3734903779,11.8402772
 545,5.5909314309\C,14.0532490792,10.2379076383,6.2017952019\H,13.13698
 11215,10.8363409601,6.026244517\H,14.2880372724,10.3553273652,7.278577
 9619\C,13.7528776248,8.7657934011,5.8858898769\H,13.7397745868,8.61138
 06408,4.7777587714\O,14.8148907372,7.9929465407,6.4187610323\C,12.3904
 00483,8.3553942775,6.4741569843\H,14.5015389169,7.0937928754,6.4391677
 223\H,12.4002786633,8.4888239025,7.5743026054\H,11.6063466318,9.039087
 4909,6.0950174316\C,12.0433338601,6.9252495813,6.1246562087\H,11.86390
 6544,6.8006863234,5.0486131928\H,11.1418001937,6.5892508075,6.65099152
 9\H,12.8634073177,6.2411220369,6.3995153688\\Version=ES64L-G16RevA.03\
 State=1-A\HF=-0.1176668\RMSD=5.694e-09\RMSF=6.337e-06\Dipole=-0.581799
 3,-0.1936969,-0.1372154\PG=C01 [X(C5H12O1)]\\@


 BE NOT THE FIRST BY WHOM THE NEW ARE TRIED,
 NOR YET THE THE LAST TO LAY THE OLD ASIDE.

                          -- ALEXANDER POPE
 Job cpu time:       0 days  0 hours  0 minutes  8.3 seconds.
 Elapsed time:       0 days  0 hours  0 minutes 10.1 seconds.
 File lengths (MBytes):  RWF=      6 Int=      0 D2E=      0 Chk=      2 Scr=      1
 Normal termination of Gaussian 16 at Wed Sep  7 15:35:35 2022.
