 Entering Gaussian System, Link 0=/opt/g16/g16
 Input=MD_extract_022_gaussian.com
 Output=MD_extract_022_gaussian.log
 Initial command:
 /opt/g16/l1.exe "/tmp/Gau-318256.inp" -scrdir="/tmp/"
 Entering Link 1 = /opt/g16/l1.exe PID=    318258.
  
 Copyright (c) 1988,1990,1992,1993,1995,1998,2003,2009,2016,
            Gaussian, Inc.  All Rights Reserved.
  
 This is part of the Gaussian(R) 16 program.  It is based on
 the Gaussian(R) 09 system (copyright 2009, Gaussian, Inc.),
 the Gaussian(R) 03 system (copyright 2003, Gaussian, Inc.),
 the Gaussian(R) 98 system (copyright 1998, Gaussian, Inc.),
 the Gaussian(R) 94 system (copyright 1995, Gaussian, Inc.),
 the Gaussian 92(TM) system (copyright 1992, Gaussian, Inc.),
 the Gaussian 90(TM) system (copyright 1990, Gaussian, Inc.),
 the Gaussian 88(TM) system (copyright 1988, Gaussian, Inc.),
 the Gaussian 86(TM) system (copyright 1986, Carnegie Mellon
 University), and the Gaussian 82(TM) system (copyright 1983,
 Carnegie Mellon University). Gaussian is a federally registered
 trademark of Gaussian, Inc.
  
 This software contains proprietary and confidential information,
 including trade secrets, belonging to Gaussian, Inc.
  
 This software is provided under written license and may be
 used, copied, transmitted, or stored only in accord with that
 written license.
  
 The following legend is applicable only to US Government
 contracts under FAR:
  
                    RESTRICTED RIGHTS LEGEND
  
 Use, reproduction and disclosure by the US Government is
 subject to restrictions as set forth in subparagraphs (a)
 and (c) of the Commercial Computer Software - Restricted
 Rights clause in FAR 52.227-19.
  
 Gaussian, Inc.
 340 Quinnipiac St., Bldg. 40, Wallingford CT 06492
  
  
 ---------------------------------------------------------------
 Warning -- This program may not be used in any manner that
 competes with the business of Gaussian, Inc. or will provide
 assistance to any competitor of Gaussian, Inc.  The licensee
 of this program is prohibited from giving any competitor of
 Gaussian, Inc. access to this program.  By using this program,
 the user acknowledges that Gaussian, Inc. is engaged in the
 business of creating and licensing software in the field of
 computational chemistry and represents and warrants to the
 licensee that it is not a competitor of Gaussian, Inc. and that
 it will not use this program in any manner prohibited above.
 ---------------------------------------------------------------
  

 Cite this work as:
 Gaussian 16, Revision A.03,
 M. J. Frisch, G. W. Trucks, H. B. Schlegel, G. E. Scuseria, 
 M. A. Robb, J. R. Cheeseman, G. Scalmani, V. Barone, 
 G. A. Petersson, H. Nakatsuji, X. Li, M. Caricato, A. V. Marenich, 
 J. Bloino, B. G. Janesko, R. Gomperts, B. Mennucci, H. P. Hratchian, 
 J. V. Ortiz, A. F. Izmaylov, J. L. Sonnenberg, D. Williams-Young, 
 F. Ding, F. Lipparini, F. Egidi, J. Goings, B. Peng, A. Petrone, 
 T. Henderson, D. Ranasinghe, V. G. Zakrzewski, J. Gao, N. Rega, 
 G. Zheng, W. Liang, M. Hada, M. Ehara, K. Toyota, R. Fukuda, 
 J. Hasegawa, M. Ishida, T. Nakajima, Y. Honda, O. Kitao, H. Nakai, 
 T. Vreven, K. Throssell, J. A. Montgomery, Jr., J. E. Peralta, 
 F. Ogliaro, M. J. Bearpark, J. J. Heyd, E. N. Brothers, K. N. Kudin, 
 V. N. Staroverov, T. A. Keith, R. Kobayashi, J. Normand, 
 K. Raghavachari, A. P. Rendell, J. C. Burant, S. S. Iyengar, 
 J. Tomasi, M. Cossi, J. M. Millam, M. Klene, C. Adamo, R. Cammi, 
 J. W. Ochterski, R. L. Martin, K. Morokuma, O. Farkas, 
 J. B. Foresman, and D. J. Fox, Gaussian, Inc., Wallingford CT, 2016.
 
 ******************************************
 Gaussian 16:  ES64L-G16RevA.03 25-Dec-2016
                 7-Sep-2022 
 ******************************************
 %chk=MD_extract_022_gaussian.chk
 %nproc=1
 Will use up to    1 processors via shared memory.
 %mem=1000Mb
 ----------
 #p opt pm3
 ----------
 1/18=20,19=15,26=1,38=1/1,3;
 2/9=110,12=2,17=6,18=5,40=1/2;
 3/5=2,25=1,41=800000,71=1/1,2,3;
 4/35=1/1;
 5/5=2,35=1,38=5/2;
 6/7=2,8=2,9=2,10=2,28=1/1;
 7//1,2,3,16;
 1/18=20,19=15,26=1/3(2);
 2/9=110/2;
 99//99;
 2/9=110/2;
 3/5=2,25=1,41=800000,71=1,135=20/1,2,3;
 4/5=5,16=3,35=1/1;
 5/5=2,35=1,38=5/2;
 7//1,2,3,16;
 1/18=20,19=15,26=1/3(-5);
 2/9=110/2;
 6/7=2,8=2,9=2,10=2,19=2,28=1/1;
 99/9=1/99;
 Leave Link    1 at Wed Sep  7 15:36:26 2022, MaxMem=   131072000 cpu:               0.0 elap:               6.0
 (Enter /opt/g16/l101.exe)
 ------------------------------------------------
 Conformer number 022. Energy MM = 0.000 kcal/mol
 ------------------------------------------------
 Symbolic Z-matrix:
 Charge =  0 Multiplicity = 1
 C                     3.106     2.336     11.696 
 H                     4.115     2.656     11.356 
 H                     2.853     3.115     12.399 
 H                     2.494     2.369     10.759 
 C                     2.811     0.867     12.192 
 H                     3.462     0.525     13.081 
 H                     2.961     0.165     11.297 
 C                     1.473     0.692     12.712 
 H                     0.784     1.035     11.882 
 O                     1.27     -0.729     13.019 
 C                     1.269     1.537     13.897 
 H                     0.327    -0.917     12.78 
 H                     2.02      1.387     14.69 
 H                     1.324     2.603     13.583 
 C                    -0.161     1.386     14.445 
 H                    -0.263     0.283     14.788 
 H                    -0.887     1.548     13.627 
 H                    -0.304     1.931     15.329 
 
 ITRead=  0  0  0  0  0  0  0  0  0  0  0  0  0  0  0  0  0  0
 MicOpt= -1 -1 -1 -1 -1 -1 -1 -1 -1 -1 -1 -1 -1 -1 -1 -1 -1 -1
 NAtoms=     18 NQM=       18 NQMF=       0 NMMI=      0 NMMIF=      0
                NMic=       0 NMicF=      0.
                    Isotopes and Nuclear Properties:
 (Nuclear quadrupole moments (NQMom) in fm**2, nuclear magnetic moments (NMagM)
  in nuclear magnetons)

  Atom         1           2           3           4           5           6           7           8           9          10
 IAtWgt=          12           1           1           1          12           1           1          12           1          16
 AtmWgt=  12.0000000   1.0078250   1.0078250   1.0078250  12.0000000   1.0078250   1.0078250  12.0000000   1.0078250  15.9949146
 NucSpn=           0           1           1           1           0           1           1           0           1           0
 AtZEff=  -0.0000000  -0.0000000  -0.0000000  -0.0000000  -0.0000000  -0.0000000  -0.0000000  -0.0000000  -0.0000000  -0.0000000
 NQMom=    0.0000000   0.0000000   0.0000000   0.0000000   0.0000000   0.0000000   0.0000000   0.0000000   0.0000000   0.0000000
 NMagM=    0.0000000   2.7928460   2.7928460   2.7928460   0.0000000   2.7928460   2.7928460   0.0000000   2.7928460   0.0000000
 AtZNuc=   6.0000000   1.0000000   1.0000000   1.0000000   6.0000000   1.0000000   1.0000000   6.0000000   1.0000000   8.0000000

  Atom        11          12          13          14          15          16          17          18
 IAtWgt=          12           1           1           1          12           1           1           1
 AtmWgt=  12.0000000   1.0078250   1.0078250   1.0078250  12.0000000   1.0078250   1.0078250   1.0078250
 NucSpn=           0           1           1           1           0           1           1           1
 AtZEff=  -0.0000000  -0.0000000  -0.0000000  -0.0000000  -0.0000000  -0.0000000  -0.0000000  -0.0000000
 NQMom=    0.0000000   0.0000000   0.0000000   0.0000000   0.0000000   0.0000000   0.0000000   0.0000000
 NMagM=    0.0000000   2.7928460   2.7928460   2.7928460   0.0000000   2.7928460   2.7928460   2.7928460
 AtZNuc=   6.0000000   1.0000000   1.0000000   1.0000000   6.0000000   1.0000000   1.0000000   1.0000000
 Leave Link  101 at Wed Sep  7 15:36:26 2022, MaxMem=   131072000 cpu:               0.1 elap:               0.1
 (Enter /opt/g16/l103.exe)

 GradGradGradGradGradGradGradGradGradGradGradGradGradGradGradGradGradGrad
 Berny optimization.
 Initialization pass.
                           ----------------------------
                           !    Initial Parameters    !
                           ! (Angstroms and Degrees)  !
 --------------------------                            --------------------------
 ! Name  Definition              Value          Derivative Info.                !
 --------------------------------------------------------------------------------
 ! R1    R(1,2)                  1.1118         estimate D2E/DX2                !
 ! R2    R(1,3)                  1.0794         estimate D2E/DX2                !
 ! R3    R(1,4)                  1.1196         estimate D2E/DX2                !
 ! R4    R(1,5)                  1.5783         estimate D2E/DX2                !
 ! R5    R(5,6)                  1.1537         estimate D2E/DX2                !
 ! R6    R(5,7)                  1.1473         estimate D2E/DX2                !
 ! R7    R(5,8)                  1.4461         estimate D2E/DX2                !
 ! R8    R(8,9)                  1.1319         estimate D2E/DX2                !
 ! R9    R(8,10)                 1.4679         estimate D2E/DX2                !
 ! R10   R(8,11)                 1.4696         estimate D2E/DX2                !
 ! R11   R(10,12)                0.9908         estimate D2E/DX2                !
 ! R12   R(11,13)                1.1024         estimate D2E/DX2                !
 ! R13   R(11,14)                1.1126         estimate D2E/DX2                !
 ! R14   R(11,15)                1.5388         estimate D2E/DX2                !
 ! R15   R(15,16)                1.1596         estimate D2E/DX2                !
 ! R16   R(15,17)                1.1056         estimate D2E/DX2                !
 ! R17   R(15,18)                1.0483         estimate D2E/DX2                !
 ! A1    A(2,1,3)              101.7811         estimate D2E/DX2                !
 ! A2    A(2,1,4)              103.3946         estimate D2E/DX2                !
 ! A3    A(2,1,5)              122.251          estimate D2E/DX2                !
 ! A4    A(3,1,4)              113.3074         estimate D2E/DX2                !
 ! A5    A(3,1,5)              115.0396         estimate D2E/DX2                !
 ! A6    A(4,1,5)              100.8516         estimate D2E/DX2                !
 ! A7    A(1,5,6)              114.3678         estimate D2E/DX2                !
 ! A8    A(1,5,7)              107.4519         estimate D2E/DX2                !
 ! A9    A(1,5,8)              113.489          estimate D2E/DX2                !
 ! A10   A(6,5,7)              110.2394         estimate D2E/DX2                !
 ! A11   A(6,5,8)              102.071          estimate D2E/DX2                !
 ! A12   A(7,5,8)              109.1126         estimate D2E/DX2                !
 ! A13   A(5,8,9)              105.239          estimate D2E/DX2                !
 ! A14   A(5,8,10)             108.6814         estimate D2E/DX2                !
 ! A15   A(5,8,11)             110.4132         estimate D2E/DX2                !
 ! A16   A(9,8,10)             111.2551         estimate D2E/DX2                !
 ! A17   A(9,8,11)             109.4217         estimate D2E/DX2                !
 ! A18   A(10,8,11)            111.6397         estimate D2E/DX2                !
 ! A19   A(8,10,12)            105.3582         estimate D2E/DX2                !
 ! A20   A(8,11,13)            114.0295         estimate D2E/DX2                !
 ! A21   A(8,11,14)            108.4485         estimate D2E/DX2                !
 ! A22   A(8,11,15)            111.0825         estimate D2E/DX2                !
 ! A23   A(13,11,14)           107.4387         estimate D2E/DX2                !
 ! A24   A(13,11,15)           111.3173         estimate D2E/DX2                !
 ! A25   A(14,11,15)           103.913          estimate D2E/DX2                !
 ! A26   A(11,15,16)           106.2849         estimate D2E/DX2                !
 ! A27   A(11,15,17)           109.4113         estimate D2E/DX2                !
 ! A28   A(11,15,18)           112.0892         estimate D2E/DX2                !
 ! A29   A(16,15,17)           107.4847         estimate D2E/DX2                !
 ! A30   A(16,15,18)           103.4787         estimate D2E/DX2                !
 ! A31   A(17,15,18)           117.2672         estimate D2E/DX2                !
 ! D1    D(2,1,5,6)             57.7313         estimate D2E/DX2                !
 ! D2    D(2,1,5,7)            -64.9861         estimate D2E/DX2                !
 ! D3    D(2,1,5,8)            174.2929         estimate D2E/DX2                !
 ! D4    D(3,1,5,6)            -66.4092         estimate D2E/DX2                !
 ! D5    D(3,1,5,7)            170.8735         estimate D2E/DX2                !
 ! D6    D(3,1,5,8)             50.1524         estimate D2E/DX2                !
 ! D7    D(4,1,5,6)            171.3006         estimate D2E/DX2                !
 ! D8    D(4,1,5,7)             48.5832         estimate D2E/DX2                !
 ! D9    D(4,1,5,8)            -72.1379         estimate D2E/DX2                !
 ! D10   D(1,5,8,9)             55.3221         estimate D2E/DX2                !
 ! D11   D(1,5,8,10)           174.58           estimate D2E/DX2                !
 ! D12   D(1,5,8,11)           -62.6548         estimate D2E/DX2                !
 ! D13   D(6,5,8,9)            178.8937         estimate D2E/DX2                !
 ! D14   D(6,5,8,10)           -61.8484         estimate D2E/DX2                !
 ! D15   D(6,5,8,11)            60.9168         estimate D2E/DX2                !
 ! D16   D(7,5,8,9)            -64.4582         estimate D2E/DX2                !
 ! D17   D(7,5,8,10)            54.7997         estimate D2E/DX2                !
 ! D18   D(7,5,8,11)           177.5649         estimate D2E/DX2                !
 ! D19   D(5,8,10,12)         -143.2543         estimate D2E/DX2                !
 ! D20   D(9,8,10,12)          -27.835          estimate D2E/DX2                !
 ! D21   D(11,8,10,12)          94.7236         estimate D2E/DX2                !
 ! D22   D(5,8,11,13)          -54.4894         estimate D2E/DX2                !
 ! D23   D(5,8,11,14)           65.156          estimate D2E/DX2                !
 ! D24   D(5,8,11,15)          178.7507         estimate D2E/DX2                !
 ! D25   D(9,8,11,13)         -169.868          estimate D2E/DX2                !
 ! D26   D(9,8,11,14)          -50.2226         estimate D2E/DX2                !
 ! D27   D(9,8,11,15)           63.3721         estimate D2E/DX2                !
 ! D28   D(10,8,11,13)          66.5301         estimate D2E/DX2                !
 ! D29   D(10,8,11,14)        -173.8246         estimate D2E/DX2                !
 ! D30   D(10,8,11,15)         -60.2298         estimate D2E/DX2                !
 ! D31   D(8,11,15,16)          63.6832         estimate D2E/DX2                !
 ! D32   D(8,11,15,17)         -52.0903         estimate D2E/DX2                !
 ! D33   D(8,11,15,18)         176.0554         estimate D2E/DX2                !
 ! D34   D(13,11,15,16)        -64.5536         estimate D2E/DX2                !
 ! D35   D(13,11,15,17)        179.6728         estimate D2E/DX2                !
 ! D36   D(13,11,15,18)         47.8185         estimate D2E/DX2                !
 ! D37   D(14,11,15,16)       -179.8996         estimate D2E/DX2                !
 ! D38   D(14,11,15,17)         64.3268         estimate D2E/DX2                !
 ! D39   D(14,11,15,18)        -67.5275         estimate D2E/DX2                !
 --------------------------------------------------------------------------------
 Trust Radius=3.00D-01 FncErr=1.00D-07 GrdErr=1.00D-07 EigMax=2.50D+02 EigMin=1.00D-04
 Number of steps in this run=     97 maximum allowed number of steps=    108.
 GradGradGradGradGradGradGradGradGradGradGradGradGradGradGradGradGradGrad

 Leave Link  103 at Wed Sep  7 15:36:26 2022, MaxMem=   131072000 cpu:               0.0 elap:               0.0
 (Enter /opt/g16/l202.exe)
                          Input orientation:                          
 ---------------------------------------------------------------------
 Center     Atomic      Atomic             Coordinates (Angstroms)
 Number     Number       Type             X           Y           Z
 ---------------------------------------------------------------------
      1          6           0        3.106000    2.336000   11.696000
      2          1           0        4.115000    2.656000   11.356000
      3          1           0        2.853000    3.115000   12.399000
      4          1           0        2.494000    2.369000   10.759000
      5          6           0        2.811000    0.867000   12.192000
      6          1           0        3.462000    0.525000   13.081000
      7          1           0        2.961000    0.165000   11.297000
      8          6           0        1.473000    0.692000   12.712000
      9          1           0        0.784000    1.035000   11.882000
     10          8           0        1.270000   -0.729000   13.019000
     11          6           0        1.269000    1.537000   13.897000
     12          1           0        0.327000   -0.917000   12.780000
     13          1           0        2.020000    1.387000   14.690000
     14          1           0        1.324000    2.603000   13.583000
     15          6           0       -0.161000    1.386000   14.445000
     16          1           0       -0.263000    0.283000   14.788000
     17          1           0       -0.887000    1.548000   13.627000
     18          1           0       -0.304000    1.931000   15.329000
 ---------------------------------------------------------------------
                    Distance matrix (angstroms):
                    1          2          3          4          5
     1  C    0.000000
     2  H    1.111792   0.000000
     3  H    1.079379   1.700345   0.000000
     4  H    1.119644   1.751119   1.837116   0.000000
     5  C    1.578291   2.366397   2.257901   2.099996   0.000000
     6  H    2.307527   2.818367   2.746653   3.119142   1.153727
     7  H    2.212118   2.745957   3.150963   2.316279   1.147314
     8  C    2.530154   3.560365   2.805940   2.769292   1.446122
     9  H    2.668123   3.741641   2.979002   2.442291   2.057438
    10  O    3.809915   4.724174   4.203168   4.025342   2.367663
    11  C    2.976134   3.975998   2.691309   3.469855   2.394512
    12  H    4.413605   5.398430   4.773140   4.424718   3.114267
    13  H    3.323256   4.137021   2.988069   4.079431   2.671345
    14  H    2.609134   3.570997   2.000460   3.065719   2.675770
    15  C    4.374104   5.425772   4.032338   4.647785   3.765389
    16  H    5.012528   6.047862   4.841178   5.308982   4.065679
    17  H    4.504859   5.604026   4.236871   4.508950   4.024698
    18  H    4.999081   5.986478   4.466923   5.376388   4.547097
                    6          7          8          9         10
     6  H    0.000000
     7  H    1.887659   0.000000
     8  C    2.029820   2.119929   0.000000
     9  H    2.978151   2.416289   1.131932   0.000000
    10  O    2.526108   2.573713   1.467889   2.154219   0.000000
    11  C    2.549362   3.391939   1.469648   2.132476   2.430152
    12  H    3.463840   3.210603   1.976568   2.196715   0.990815
    13  H    2.326218   3.727092   2.166730   3.088117   2.798606
    14  H    3.023431   3.721479   2.105413   2.375631   3.379828
    15  C    3.965847   4.598655   2.480903   2.754123   2.924801
    16  H    4.104636   4.753439   2.736924   3.179080   2.550215
    17  H    4.500938   4.706240   2.671996   2.469906   3.194846
    18  H    4.605768   5.480511   3.397284   3.724026   3.858650
                   11         12         13         14         15
    11  C    0.000000
    12  H    2.856076   0.000000
    13  H    1.102429   3.438425   0.000000
    14  H    1.112644   3.745560   1.785643   0.000000
    15  C    1.538832   2.883432   2.194718   2.104604   0.000000
    16  H    2.171041   2.412502   2.537816   3.058267   1.159596
    17  H    2.172868   2.875314   3.099442   2.450200   1.105642
    18  H    2.163374   3.873844   2.470877   2.480017   1.048299
                   16         17         18
    16  H    0.000000
    17  H    1.826889   0.000000
    18  H    1.735012   1.839397   0.000000
 Stoichiometry    C5H12O
 Framework group  C1[X(C5H12O)]
 Deg. of freedom    48
 Full point group                 C1      NOp   1
 Largest Abelian subgroup         C1      NOp   1
 Largest concise Abelian subgroup C1      NOp   1
                         Standard orientation:                         
 ---------------------------------------------------------------------
 Center     Atomic      Atomic             Coordinates (Angstroms)
 Number     Number       Type             X           Y           Z
 ---------------------------------------------------------------------
      1          6           0        2.246909   -0.742396    0.159559
      2          1           0        3.289492   -0.863672   -0.207037
      3          1           0        1.820858   -1.708578   -0.064124
      4          1           0        2.377315   -0.558913    1.256340
      5          6           0        1.350598    0.492489   -0.243789
      6          1           0        1.200988    0.621000   -1.380533
      7          1           0        1.837776    1.431162    0.201047
      8          6           0       -0.011747    0.395577    0.231493
      9          1           0        0.073380    0.245977    1.350262
     10          8           0       -0.710743    1.646586   -0.086437
     11          6           0       -0.682096   -0.767099   -0.367407
     12          1           0       -1.313532    1.813013    0.682108
     13          1           0       -0.649522   -0.785784   -1.469196
     14          1           0       -0.178589   -1.690048   -0.003232
     15          6           0       -2.124246   -0.902849    0.151998
     16          1           0       -2.690010    0.043075   -0.208280
     17          1           0       -2.119732   -0.886318    1.257507
     18          1           0       -2.638996   -1.687932   -0.314486
 ---------------------------------------------------------------------
 Rotational constants (GHZ):           4.9590488           2.4112876           1.7759712
 Leave Link  202 at Wed Sep  7 15:36:26 2022, MaxMem=   131072000 cpu:               0.0 elap:               0.0
 (Enter /opt/g16/l301.exe)
 Standard basis: VSTO-6G (5D, 7F)
 Ernie: Thresh=  0.10000D-02 Tol=  0.10000D-05 Strict=F.
  NNHCO=     0 NNPyr=     0 NCTC=     0               EPep=         0.000000000
    EC=       128.972267846  ECS=         2.151418398   EG=         0.566285586
   EHC=         0.000000000  EAt=       -36.836480110  AtH=         2.452923921
 EPDDG=         0.000000000  ECC=       131.689971830 EAtT=        39.289404030
 There are    36 symmetry adapted cartesian basis functions of A   symmetry.
 There are    36 symmetry adapted basis functions of A   symmetry.
    36 basis functions,   216 primitive gaussians,    36 cartesian basis functions
    19 alpha electrons       19 beta electrons
       nuclear repulsion energy       170.9793758607 Hartrees.
 IExCor=    0 DFT=F Ex=HF Corr=None ExCW=0 ScaHFX=  1.000000
 ScaDFX=  1.000000  1.000000  1.000000  1.000000 ScalE2=  1.000000  1.000000
 IRadAn=      5 IRanWt=     -1 IRanGd=            0 ICorTp=0 IEmpDi=  4
 Integral buffers will be    131072 words long.
 Regular integral format.
 Two-electron integral symmetry is turned off.
 Leave Link  301 at Wed Sep  7 15:36:26 2022, MaxMem=   131072000 cpu:               0.0 elap:               0.0
 (Enter /opt/g16/l302.exe)
 Do NDO integrals.
 NPDir=0 NMtPBC=     1 NCelOv=     1 NCel=       1 NClECP=     1 NCelD=      1
         NCelK=      1 NCelE2=     1 NClLst=     1 CellRange=     0.0.
 One-electron integrals computed using PRISM.
 NBasis=    36 RedAO= F EigKep=  0.00D+00  NBF=    36
 NBsUse=    36 1.00D-04 EigRej=  0.00D+00 NBFU=    36
 Leave Link  302 at Wed Sep  7 15:36:26 2022, MaxMem=   131072000 cpu:               0.0 elap:               0.0
 (Enter /opt/g16/l303.exe)
 DipDrv:  MaxL=1.
 Leave Link  303 at Wed Sep  7 15:36:26 2022, MaxMem=   131072000 cpu:               0.0 elap:               0.0
 (Enter /opt/g16/l401.exe)
 Simple Huckel Guess.
 JPrj=0 DoOrth=F DoCkMO=F.
 Leave Link  401 at Wed Sep  7 15:36:26 2022, MaxMem=   131072000 cpu:               0.0 elap:               0.0
 (Enter /opt/g16/l502.exe)
 Keep J ints in memory in canonical form, NReq=862161.
 FoFCou: FMM=F IPFlag=           0 FMFlag=           0 FMFlg1=           0
         NFxFlg=           0 DoJE=F BraDBF=F KetDBF=F FulRan=T
         wScrn=  0.000000 ICntrl=       600 IOpCl=  2 I1Cent=           0 NGrid=           0
         NMat0=    1 NMatS0=     72 NMatT0=    0 NMatD0=    1 NMtDS0=    0 NMtDT0=    0
 Symmetry not used in FoFCou.
 Two-electron integral symmetry not used.
 Closed shell SCF:
 Using DIIS extrapolation, IDIIS=  1040.
 Overlap will be assumed to be unity.
 NGot=   131072000 LenX=   131006778 LenY=   131005041
 Requested convergence on RMS density matrix=1.00D-08 within 128 cycles.
 Requested convergence on MAX density matrix=1.00D-06.
 Requested convergence on             energy=1.00D-06.
 No special actions if energy rises.

 Cycle   1  Pass 1  IDiag  1:
 E= 0.205769251975511    
 DIIS: error= 7.08D-02 at cycle   1 NSaved=   1.
 NSaved= 1 IEnMin= 1 EnMin= 0.205769251975511     IErMin= 1 ErrMin= 7.08D-02
 ErrMax= 7.08D-02  0.00D+00 EMaxC= 1.00D-01 BMatC= 1.08D-01 BMatP= 1.08D-01
 IDIUse=3 WtCom= 2.92D-01 WtEn= 7.08D-01
 Coeff-Com:  0.100D+01
 Coeff-En:   0.100D+01
 Coeff:      0.100D+01
 GapD=    2.000 DampG=2.000 DampE=0.500 DampFc=1.0000 IDamp=-1.
 RMSDP=1.29D-02 MaxDP=1.49D-01              OVMax= 0.00D+00

 Cycle   2  Pass 1  IDiag  1:
 E=-0.567293042253709E-01 Delta-E=       -0.262498556201 Rises=F Damp=F
 DIIS: error= 1.43D-02 at cycle   2 NSaved=   2.
 NSaved= 2 IEnMin= 2 EnMin=-0.567293042253709E-01 IErMin= 2 ErrMin= 1.43D-02
 ErrMax= 1.43D-02  0.00D+00 EMaxC= 1.00D-01 BMatC= 7.06D-03 BMatP= 1.08D-01
 IDIUse=3 WtCom= 8.57D-01 WtEn= 1.43D-01
 Coeff-Com: -0.307D+00 0.131D+01
 Coeff-En:   0.000D+00 0.100D+01
 Coeff:     -0.263D+00 0.126D+01
 RMSDP=4.70D-03 MaxDP=4.52D-02 DE=-2.62D-01 OVMax= 0.00D+00

 Cycle   3  Pass 1  IDiag  3:
 E=-0.787520843236109E-01 Delta-E=       -0.022022780098 Rises=F Damp=F
 DIIS: error= 3.46D-03 at cycle   3 NSaved=   3.
 NSaved= 3 IEnMin= 3 EnMin=-0.787520843236109E-01 IErMin= 3 ErrMin= 3.46D-03
 ErrMax= 3.46D-03  0.00D+00 EMaxC= 1.00D-01 BMatC= 2.11D-04 BMatP= 7.06D-03
 IDIUse=3 WtCom= 9.65D-01 WtEn= 3.46D-02
 Coeff-Com:  0.142D+00-0.690D+00 0.155D+01
 Coeff-En:   0.000D+00 0.000D+00 0.100D+01
 Coeff:      0.138D+00-0.667D+00 0.153D+01
 Gap=     0.517 Goal=   None    Shift=    0.000
 RMSDP=1.32D-03 MaxDP=1.82D-02 DE=-2.20D-02 OVMax= 9.53D-03

 Cycle   4  Pass 1  IDiag  3:
 E=-0.798858599897869E-01 Delta-E=       -0.001133775666 Rises=F Damp=F
 DIIS: error= 6.77D-04 at cycle   4 NSaved=   4.
 NSaved= 4 IEnMin= 4 EnMin=-0.798858599897869E-01 IErMin= 4 ErrMin= 6.77D-04
 ErrMax= 6.77D-04  0.00D+00 EMaxC= 1.00D-01 BMatC= 9.33D-06 BMatP= 2.11D-04
 IDIUse=3 WtCom= 9.93D-01 WtEn= 6.77D-03
 Coeff-Com: -0.292D-01 0.157D+00-0.541D+00 0.141D+01
 Coeff-En:   0.000D+00 0.000D+00 0.000D+00 0.100D+01
 Coeff:     -0.290D-01 0.156D+00-0.537D+00 0.141D+01
 Gap=     0.520 Goal=   None    Shift=    0.000
 RMSDP=3.25D-04 MaxDP=4.21D-03 DE=-1.13D-03 OVMax= 2.81D-03

 Cycle   5  Pass 1  IDiag  3:
 E=-0.799415379595700E-01 Delta-E=       -0.000055677970 Rises=F Damp=F
 DIIS: error= 1.19D-04 at cycle   5 NSaved=   5.
 NSaved= 5 IEnMin= 5 EnMin=-0.799415379595700E-01 IErMin= 5 ErrMin= 1.19D-04
 ErrMax= 1.19D-04  0.00D+00 EMaxC= 1.00D-01 BMatC= 3.19D-07 BMatP= 9.33D-06
 IDIUse=3 WtCom= 9.99D-01 WtEn= 1.19D-03
 Coeff-Com:  0.139D-02-0.107D-01 0.717D-01-0.363D+00 0.130D+01
 Coeff-En:   0.000D+00 0.000D+00 0.000D+00 0.000D+00 0.100D+01
 Coeff:      0.139D-02-0.106D-01 0.717D-01-0.362D+00 0.130D+01
 Gap=     0.520 Goal=   None    Shift=    0.000
 RMSDP=5.42D-05 MaxDP=6.39D-04 DE=-5.57D-05 OVMax= 4.97D-04

 Cycle   6  Pass 1  IDiag  3:
 E=-0.799433194601136E-01 Delta-E=       -0.000001781501 Rises=F Damp=F
 DIIS: error= 3.18D-05 at cycle   6 NSaved=   6.
 NSaved= 6 IEnMin= 6 EnMin=-0.799433194601136E-01 IErMin= 6 ErrMin= 3.18D-05
 ErrMax= 3.18D-05  0.00D+00 EMaxC= 1.00D-01 BMatC= 2.44D-08 BMatP= 3.19D-07
 IDIUse=1 WtCom= 1.00D+00 WtEn= 0.00D+00
 Coeff-Com: -0.219D-03 0.265D-02-0.255D-01 0.154D+00-0.727D+00 0.160D+01
 Coeff:     -0.219D-03 0.265D-02-0.255D-01 0.154D+00-0.727D+00 0.160D+01
 Gap=     0.520 Goal=   None    Shift=    0.000
 RMSDP=1.66D-05 MaxDP=2.20D-04 DE=-1.78D-06 OVMax= 1.27D-04

 Cycle   7  Pass 1  IDiag  3:
 E=-0.799434711909157E-01 Delta-E=       -0.000000151731 Rises=F Damp=F
 DIIS: error= 4.68D-06 at cycle   7 NSaved=   7.
 NSaved= 7 IEnMin= 7 EnMin=-0.799434711909157E-01 IErMin= 7 ErrMin= 4.68D-06
 ErrMax= 4.68D-06  0.00D+00 EMaxC= 1.00D-01 BMatC= 1.58D-09 BMatP= 2.44D-08
 IDIUse=1 WtCom= 1.00D+00 WtEn= 0.00D+00
 Coeff-Com:  0.155D-03-0.155D-02 0.136D-01-0.802D-01 0.393D+00-0.103D+01
 Coeff-Com:  0.170D+01
 Coeff:      0.155D-03-0.155D-02 0.136D-01-0.802D-01 0.393D+00-0.103D+01
 Coeff:      0.170D+01
 Gap=     0.520 Goal=   None    Shift=    0.000
 RMSDP=4.70D-06 MaxDP=4.53D-05 DE=-1.52D-07 OVMax= 2.59D-05

 Cycle   8  Pass 1  IDiag  3:
 E=-0.799434812992672E-01 Delta-E=       -0.000000010108 Rises=F Damp=F
 DIIS: error= 9.93D-07 at cycle   8 NSaved=   8.
 NSaved= 8 IEnMin= 8 EnMin=-0.799434812992672E-01 IErMin= 8 ErrMin= 9.93D-07
 ErrMax= 9.93D-07  0.00D+00 EMaxC= 1.00D-01 BMatC= 4.89D-11 BMatP= 1.58D-09
 IDIUse=1 WtCom= 1.00D+00 WtEn= 0.00D+00
 Coeff-Com: -0.482D-04 0.551D-03-0.524D-02 0.316D-01-0.158D+00 0.430D+00
 Coeff-Com: -0.819D+00 0.152D+01
 Coeff:     -0.482D-04 0.551D-03-0.524D-02 0.316D-01-0.158D+00 0.430D+00
 Coeff:     -0.819D+00 0.152D+01
 Gap=     0.520 Goal=   None    Shift=    0.000
 RMSDP=7.51D-07 MaxDP=6.99D-06 DE=-1.01D-08 OVMax= 4.87D-06

 Cycle   9  Pass 1  IDiag  3:
 E=-0.799434816011342E-01 Delta-E=       -0.000000000302 Rises=F Damp=F
 DIIS: error= 2.14D-07 at cycle   9 NSaved=   9.
 NSaved= 9 IEnMin= 9 EnMin=-0.799434816011342E-01 IErMin= 9 ErrMin= 2.14D-07
 ErrMax= 2.14D-07  0.00D+00 EMaxC= 1.00D-01 BMatC= 3.14D-12 BMatP= 4.89D-11
 IDIUse=1 WtCom= 1.00D+00 WtEn= 0.00D+00
 Coeff-Com:  0.176D-04-0.241D-03 0.250D-02-0.154D-01 0.783D-01-0.216D+00
 Coeff-Com:  0.425D+00-0.945D+00 0.167D+01
 Coeff:      0.176D-04-0.241D-03 0.250D-02-0.154D-01 0.783D-01-0.216D+00
 Coeff:      0.425D+00-0.945D+00 0.167D+01
 Gap=     0.520 Goal=   None    Shift=    0.000
 RMSDP=2.02D-07 MaxDP=1.75D-06 DE=-3.02D-10 OVMax= 1.16D-06

 Cycle  10  Pass 1  IDiag  3:
 E=-0.799434816211999E-01 Delta-E=       -0.000000000020 Rises=F Damp=F
 DIIS: error= 6.37D-08 at cycle  10 NSaved=  10.
 NSaved=10 IEnMin=10 EnMin=-0.799434816211999E-01 IErMin=10 ErrMin= 6.37D-08
 ErrMax= 6.37D-08  0.00D+00 EMaxC= 1.00D-01 BMatC= 1.49D-13 BMatP= 3.14D-12
 IDIUse=1 WtCom= 1.00D+00 WtEn= 0.00D+00
 Coeff-Com: -0.556D-05 0.862D-04-0.939D-03 0.584D-02-0.300D-01 0.832D-01
 Coeff-Com: -0.165D+00 0.381D+00-0.825D+00 0.155D+01
 Coeff:     -0.556D-05 0.862D-04-0.939D-03 0.584D-02-0.300D-01 0.832D-01
 Coeff:     -0.165D+00 0.381D+00-0.825D+00 0.155D+01
 Gap=     0.520 Goal=   None    Shift=    0.000
 RMSDP=4.41D-08 MaxDP=4.11D-07 DE=-2.01D-11 OVMax= 2.97D-07

 Cycle  11  Pass 1  IDiag  3:
 E=-0.799434816222231E-01 Delta-E=       -0.000000000001 Rises=F Damp=F
 DIIS: error= 1.45D-08 at cycle  11 NSaved=  11.
 NSaved=11 IEnMin=11 EnMin=-0.799434816222231E-01 IErMin=11 ErrMin= 1.45D-08
 ErrMax= 1.45D-08  0.00D+00 EMaxC= 1.00D-01 BMatC= 6.61D-15 BMatP= 1.49D-13
 IDIUse=1 WtCom= 1.00D+00 WtEn= 0.00D+00
 Coeff-Com:  0.130D-05-0.202D-04 0.221D-03-0.137D-02 0.709D-02-0.198D-01
 Coeff-Com:  0.394D-01-0.911D-01 0.214D+00-0.562D+00 0.141D+01
 Coeff:      0.130D-05-0.202D-04 0.221D-03-0.137D-02 0.709D-02-0.198D-01
 Coeff:      0.394D-01-0.911D-01 0.214D+00-0.562D+00 0.141D+01
 Gap=     0.520 Goal=   None    Shift=    0.000
 RMSDP=8.52D-09 MaxDP=8.46D-08 DE=-1.02D-12 OVMax= 5.14D-08

 Cycle  12  Pass 2  IDiag  1:
 SCF Done:  E(RPM3) = -0.799434816222E-01 A.U. after   12 cycles
            NFock= 11  Conv=0.85D-08     -V/T= 0.9987
 KE=-5.962072080495D+01 PE=-2.565246755985D+02 EE= 1.450860770611D+02
 Leave Link  502 at Wed Sep  7 15:36:26 2022, MaxMem=   131072000 cpu:               0.0 elap:               0.0
 (Enter /opt/g16/l601.exe)
 Copying SCF densities to generalized density rwf, IOpCl= 0 IROHF=0.

 **********************************************************************

            Population analysis using the SCF density.

 **********************************************************************

 Orbital symmetries:
       Occupied  (A) (A) (A) (A) (A) (A) (A) (A) (A) (A) (A) (A)
                 (A) (A) (A) (A) (A) (A) (A)
       Virtual   (A) (A) (A) (A) (A) (A) (A) (A) (A) (A) (A) (A)
                 (A) (A) (A) (A) (A)
 The electronic state is 1-A.
 Alpha  occ. eigenvalues --   -1.48893  -1.24157  -1.17781  -0.95061  -0.82317
 Alpha  occ. eigenvalues --   -0.73287  -0.65721  -0.59201  -0.58634  -0.55625
 Alpha  occ. eigenvalues --   -0.54099  -0.49714  -0.48809  -0.48135  -0.45792
 Alpha  occ. eigenvalues --   -0.45267  -0.42753  -0.42091  -0.41325
 Alpha virt. eigenvalues --    0.10525   0.12311   0.12634   0.13183   0.14179
 Alpha virt. eigenvalues --    0.14349   0.14708   0.15232   0.15388   0.15590
 Alpha virt. eigenvalues --    0.16579   0.16811   0.17566   0.17653   0.18489
 Alpha virt. eigenvalues --    0.18863   0.20215
          Condensed to atoms (all electrons):
               1          2          3          4          5          6
     1  C    4.107384   0.000000   0.000000   0.000000   0.000000   0.000000
     2  H    0.000000   0.956526   0.000000   0.000000   0.000000   0.000000
     3  H    0.000000   0.000000   0.955325   0.000000   0.000000   0.000000
     4  H    0.000000   0.000000   0.000000   0.971143   0.000000   0.000000
     5  C    0.000000   0.000000   0.000000   0.000000   4.126891   0.000000
     6  H    0.000000   0.000000   0.000000   0.000000   0.000000   0.933206
     7  H    0.000000   0.000000   0.000000   0.000000   0.000000   0.000000
     8  C    0.000000   0.000000   0.000000   0.000000   0.000000   0.000000
     9  H    0.000000   0.000000   0.000000   0.000000   0.000000   0.000000
    10  O    0.000000   0.000000   0.000000   0.000000   0.000000   0.000000
    11  C    0.000000   0.000000   0.000000   0.000000   0.000000   0.000000
    12  H    0.000000   0.000000   0.000000   0.000000   0.000000   0.000000
    13  H    0.000000   0.000000   0.000000   0.000000   0.000000   0.000000
    14  H    0.000000   0.000000   0.000000   0.000000   0.000000   0.000000
    15  C    0.000000   0.000000   0.000000   0.000000   0.000000   0.000000
    16  H    0.000000   0.000000   0.000000   0.000000   0.000000   0.000000
    17  H    0.000000   0.000000   0.000000   0.000000   0.000000   0.000000
    18  H    0.000000   0.000000   0.000000   0.000000   0.000000   0.000000
               7          8          9         10         11         12
     1  C    0.000000   0.000000   0.000000   0.000000   0.000000   0.000000
     2  H    0.000000   0.000000   0.000000   0.000000   0.000000   0.000000
     3  H    0.000000   0.000000   0.000000   0.000000   0.000000   0.000000
     4  H    0.000000   0.000000   0.000000   0.000000   0.000000   0.000000
     5  C    0.000000   0.000000   0.000000   0.000000   0.000000   0.000000
     6  H    0.000000   0.000000   0.000000   0.000000   0.000000   0.000000
     7  H    0.935221   0.000000   0.000000   0.000000   0.000000   0.000000
     8  C    0.000000   3.924921   0.000000   0.000000   0.000000   0.000000
     9  H    0.000000   0.000000   0.960350   0.000000   0.000000   0.000000
    10  O    0.000000   0.000000   0.000000   6.309606   0.000000   0.000000
    11  C    0.000000   0.000000   0.000000   0.000000   4.140386   0.000000
    12  H    0.000000   0.000000   0.000000   0.000000   0.000000   0.815380
    13  H    0.000000   0.000000   0.000000   0.000000   0.000000   0.000000
    14  H    0.000000   0.000000   0.000000   0.000000   0.000000   0.000000
    15  C    0.000000   0.000000   0.000000   0.000000   0.000000   0.000000
    16  H    0.000000   0.000000   0.000000   0.000000   0.000000   0.000000
    17  H    0.000000   0.000000   0.000000   0.000000   0.000000   0.000000
    18  H    0.000000   0.000000   0.000000   0.000000   0.000000   0.000000
              13         14         15         16         17         18
     1  C    0.000000   0.000000   0.000000   0.000000   0.000000   0.000000
     2  H    0.000000   0.000000   0.000000   0.000000   0.000000   0.000000
     3  H    0.000000   0.000000   0.000000   0.000000   0.000000   0.000000
     4  H    0.000000   0.000000   0.000000   0.000000   0.000000   0.000000
     5  C    0.000000   0.000000   0.000000   0.000000   0.000000   0.000000
     6  H    0.000000   0.000000   0.000000   0.000000   0.000000   0.000000
     7  H    0.000000   0.000000   0.000000   0.000000   0.000000   0.000000
     8  C    0.000000   0.000000   0.000000   0.000000   0.000000   0.000000
     9  H    0.000000   0.000000   0.000000   0.000000   0.000000   0.000000
    10  O    0.000000   0.000000   0.000000   0.000000   0.000000   0.000000
    11  C    0.000000   0.000000   0.000000   0.000000   0.000000   0.000000
    12  H    0.000000   0.000000   0.000000   0.000000   0.000000   0.000000
    13  H    0.926841   0.000000   0.000000   0.000000   0.000000   0.000000
    14  H    0.000000   0.943619   0.000000   0.000000   0.000000   0.000000
    15  C    0.000000   0.000000   4.120931   0.000000   0.000000   0.000000
    16  H    0.000000   0.000000   0.000000   0.965279   0.000000   0.000000
    17  H    0.000000   0.000000   0.000000   0.000000   0.955032   0.000000
    18  H    0.000000   0.000000   0.000000   0.000000   0.000000   0.951959
 Mulliken charges:
               1
     1  C   -0.107384
     2  H    0.043474
     3  H    0.044675
     4  H    0.028857
     5  C   -0.126891
     6  H    0.066794
     7  H    0.064779
     8  C    0.075079
     9  H    0.039650
    10  O   -0.309606
    11  C   -0.140386
    12  H    0.184620
    13  H    0.073159
    14  H    0.056381
    15  C   -0.120931
    16  H    0.034721
    17  H    0.044968
    18  H    0.048041
 Sum of Mulliken charges =  -0.00000
 Mulliken charges with hydrogens summed into heavy atoms:
               1
     1  C    0.009621
     5  C    0.004682
     8  C    0.114729
    10  O   -0.124985
    11  C   -0.010846
    15  C    0.006799
 Charge=             -0.0000 electrons
 Dipole moment (field-independent basis, Debye):
    X=             -0.0746    Y=             -0.9772    Z=              1.2487  Tot=              1.5874
 N-N= 1.709793758607D+02 E-N=-2.565246758482D+02  KE=-5.962072080495D+01
 Leave Link  601 at Wed Sep  7 15:36:26 2022, MaxMem=   131072000 cpu:               0.0 elap:               0.0
 (Enter /opt/g16/l701.exe)
 ... and contract with generalized density number  0.
 Compute integral first derivatives.
 Leave Link  701 at Wed Sep  7 15:36:26 2022, MaxMem=   131072000 cpu:               0.0 elap:               0.0
 (Enter /opt/g16/l702.exe)
 L702 exits ... SP integral derivatives will be done elsewhere.
 Leave Link  702 at Wed Sep  7 15:36:26 2022, MaxMem=   131072000 cpu:               0.0 elap:               0.0
 (Enter /opt/g16/l703.exe)
 Integral derivatives from FoFJK, PRISM(SPDF).
 Compute integral first derivatives, UseDBF=F ICtDFT=           0.
 Calling FoFJK, ICntrl=      2127 FMM=F ISym2X=0 I1Cent= 0 IOpClX= 0 NMat=1 NMatS=1 NMatT=0.
 FoFJK:  IHMeth= 9 ICntrl=    2127 DoSepK=F KAlg= 0 I1Cent=           0 FoldK=F
 IRaf=         0 NMat=       1 IRICut=       1 DoRegI=T DoRafI=F ISym2E= 0 IDoP0=3 IntGTp=3.
 FoFCou: FMM=F IPFlag=           0 FMFlag=      100000 FMFlg1=         800
         NFxFlg=           0 DoJE=F BraDBF=F KetDBF=F FulRan=T
         wScrn=  0.000000 ICntrl=      2127 IOpCl=  0 I1Cent=           0 NGrid=           0
         NMat0=    1 NMatS0=      1 NMatT0=    0 NMatD0=    1 NMtDS0=    0 NMtDT0=    0
 Symmetry not used in FoFCou.
 Leave Link  703 at Wed Sep  7 15:36:26 2022, MaxMem=   131072000 cpu:               0.0 elap:               0.0
 (Enter /opt/g16/l716.exe)
 Dipole        =-2.93330390D-02-3.84459676D-01 4.91295617D-01
 ***** Axes restored to original set *****
 -------------------------------------------------------------------
 Center     Atomic                   Forces (Hartrees/Bohr)
 Number     Number              X              Y              Z
 -------------------------------------------------------------------
      1        6          -0.008264756   -0.032756822   -0.021343551
      2        1          -0.001206862   -0.019602559    0.006576744
      3        1          -0.012564754    0.003858087    0.009699469
      4        1           0.003608472    0.012176277    0.011741094
      5        6           0.088469113    0.009172334   -0.021302679
      6        1           0.000581260    0.009811969   -0.027842070
      7        1           0.004531433    0.011632072    0.019624960
      8        6          -0.054308434   -0.039565866   -0.020368107
      9        1          -0.004991354   -0.006538793    0.005553706
     10        8          -0.033432221    0.014537981   -0.017619934
     11        6          -0.039890215    0.034047758    0.038775815
     12        1           0.039268580    0.009918673    0.010775937
     13        1           0.000965253   -0.001974395    0.001646021
     14        1           0.009082695    0.001146718    0.001036497
     15        6           0.021679410   -0.061426062   -0.019803522
     16        1          -0.003960281    0.027713057   -0.009881597
     17        1           0.000208133    0.003469894    0.012055542
     18        1          -0.009775471    0.024379680    0.020675676
 -------------------------------------------------------------------
 Cartesian Forces:  Max     0.088469113 RMS     0.024317181
 Leave Link  716 at Wed Sep  7 15:36:26 2022, MaxMem=   131072000 cpu:               0.0 elap:               0.0
 (Enter /opt/g16/l103.exe)

 GradGradGradGradGradGradGradGradGradGradGradGradGradGradGradGradGradGrad
 Berny optimization.
 FormGI is forming the generalized inverse of G from B-inverse, IUseBI=4.
 Internal  Forces:  Max     0.077059092 RMS     0.014925019
 Search for a local minimum.
 Step number   1 out of a maximum of   97
 All quantities printed in internal units (Hartrees-Bohrs-Radians)
 RMS Force = .14925D-01 SwitMx=.10000D-02 MixMth= 1
 Mixed Optimization -- RFO/linear search
 Second derivative matrix not updated -- first step.
 ITU=  0
     Eigenvalues ---    0.00230   0.00252   0.00794   0.01167   0.01479
     Eigenvalues ---    0.03784   0.03961   0.04139   0.05000   0.05126
     Eigenvalues ---    0.05186   0.05334   0.05547   0.05854   0.06260
     Eigenvalues ---    0.07230   0.08233   0.08725   0.12179   0.12283
     Eigenvalues ---    0.16000   0.16000   0.16000   0.16000   0.16000
     Eigenvalues ---    0.16000   0.16000   0.16738   0.19946   0.21919
     Eigenvalues ---    0.22018   0.25379   0.27866   0.28376   0.28623
     Eigenvalues ---    0.28948   0.30384   0.31600   0.32322   0.32411
     Eigenvalues ---    0.33066   0.33415   0.35782   0.35994   0.36069
     Eigenvalues ---    0.38757   0.40113   0.49340
 RFO step:  Lambda=-5.64237264D-02 EMin= 2.30000000D-03
 Linear search not attempted -- first point.
 Maximum step size (   0.300) exceeded in Quadratic search.
    -- Step size scaled by   0.743
 Iteration  1 RMS(Cart)=  0.06483212 RMS(Int)=  0.00137554
 Iteration  2 RMS(Cart)=  0.00136205 RMS(Int)=  0.00058230
 Iteration  3 RMS(Cart)=  0.00000132 RMS(Int)=  0.00058229
 Iteration  4 RMS(Cart)=  0.00000000 RMS(Int)=  0.00058229
 ITry= 1 IFail=0 DXMaxC= 2.09D-01 DCOld= 1.00D+10 DXMaxT= 3.00D-01 DXLimC= 3.00D+00 Rises=F
 Variable       Old X    -DE/DX   Delta X   Delta X   Delta X     New X
                                 (Linear)    (Quad)   (Total)
    R1        2.10098  -0.00875   0.00000  -0.01707  -0.01707   2.08391
    R2        2.03973   0.01205   0.00000   0.02144   0.02144   2.06118
    R3        2.11582  -0.01144   0.00000  -0.02281  -0.02281   2.09301
    R4        2.98254  -0.03935   0.00000  -0.09419  -0.09419   2.88835
    R5        2.18023  -0.02403   0.00000  -0.05246  -0.05246   2.12777
    R6        2.16811  -0.02183   0.00000  -0.04687  -0.04687   2.12124
    R7        2.73277   0.07706   0.00000   0.12887   0.12887   2.86164
    R8        2.13904  -0.00302   0.00000  -0.00621  -0.00621   2.13283
    R9        2.77391  -0.02591   0.00000  -0.04621  -0.04621   2.72770
   R10        2.77723   0.05462   0.00000   0.09791   0.09791   2.87514
   R11        1.87237  -0.04185   0.00000  -0.05652  -0.05652   1.81585
   R12        2.08329   0.00211   0.00000   0.00401   0.00401   2.08730
   R13        2.10259   0.00126   0.00000   0.00245   0.00245   2.10505
   R14        2.90797  -0.00592   0.00000  -0.01282  -0.01282   2.89515
   R15        2.19132  -0.02894   0.00000  -0.06412  -0.06412   2.12720
   R16        2.08936  -0.00855   0.00000  -0.01640  -0.01640   2.07296
   R17        1.98100   0.03144   0.00000   0.05103   0.05103   2.03202
    A1        1.77642   0.01834   0.00000   0.05427   0.05197   1.82838
    A2        1.80458   0.00274   0.00000   0.02172   0.02430   1.82888
    A3        2.13368  -0.02660   0.00000  -0.09213  -0.09237   2.04132
    A4        1.97759  -0.00857   0.00000  -0.03023  -0.02982   1.94776
    A5        2.00782  -0.00639   0.00000  -0.02831  -0.02956   1.97826
    A6        1.76019   0.01948   0.00000   0.07384   0.07550   1.83569
    A7        1.99609  -0.00711   0.00000  -0.03684  -0.03674   1.95935
    A8        1.87539   0.00324   0.00000   0.00150   0.00143   1.87682
    A9        1.98076  -0.00976   0.00000  -0.01971  -0.01939   1.96137
   A10        1.92404  -0.00530   0.00000  -0.02881  -0.03022   1.89382
   A11        1.78147   0.01533   0.00000   0.06797   0.06782   1.84930
   A12        1.90437   0.00401   0.00000   0.01844   0.01824   1.92262
   A13        1.83677   0.00235   0.00000   0.02065   0.02046   1.85723
   A14        1.89685  -0.00696   0.00000  -0.02095  -0.02078   1.87607
   A15        1.92707   0.01105   0.00000   0.03600   0.03586   1.96293
   A16        1.94177  -0.00037   0.00000  -0.01502  -0.01505   1.92672
   A17        1.90977  -0.00354   0.00000  -0.00953  -0.01026   1.89951
   A18        1.94848  -0.00208   0.00000  -0.00885  -0.00873   1.93975
   A19        1.83885  -0.00329   0.00000  -0.01128  -0.01128   1.82757
   A20        1.99019  -0.00401   0.00000  -0.01785  -0.01780   1.97239
   A21        1.89278  -0.00300   0.00000  -0.00483  -0.00554   1.88724
   A22        1.93876   0.00970   0.00000   0.02891   0.02877   1.96753
   A23        1.87516  -0.00024   0.00000  -0.01046  -0.01047   1.86469
   A24        1.94285  -0.00468   0.00000  -0.01613  -0.01590   1.92695
   A25        1.81362   0.00248   0.00000   0.02298   0.02280   1.83642
   A26        1.85502   0.01024   0.00000   0.04382   0.04335   1.89838
   A27        1.90959   0.00654   0.00000   0.01648   0.01612   1.92570
   A28        1.95633  -0.00089   0.00000  -0.00648  -0.00665   1.94967
   A29        1.87596  -0.00536   0.00000  -0.01199  -0.01267   1.86330
   A30        1.80604  -0.00001   0.00000   0.01218   0.01191   1.81795
   A31        2.04670  -0.00923   0.00000  -0.04540  -0.04548   2.00122
    D1        1.00760  -0.00929   0.00000  -0.06298  -0.06157   0.94603
    D2       -1.13422  -0.00015   0.00000  -0.00263  -0.00155  -1.13577
    D3        3.04198  -0.00134   0.00000  -0.01453  -0.01330   3.02869
    D4       -1.15906  -0.00431   0.00000  -0.02479  -0.02528  -1.18434
    D5        2.98230   0.00483   0.00000   0.03556   0.03474   3.01704
    D6        0.87532   0.00364   0.00000   0.02366   0.02299   0.89832
    D7        2.98976  -0.00363   0.00000  -0.02285  -0.02326   2.96650
    D8        0.84794   0.00551   0.00000   0.03750   0.03675   0.88469
    D9       -1.25904   0.00431   0.00000   0.02559   0.02501  -1.23403
   D10        0.96555   0.00304   0.00000   0.01369   0.01399   0.97954
   D11        3.04700   0.00039   0.00000  -0.00322  -0.00319   3.04380
   D12       -1.09353   0.00029   0.00000  -0.00497  -0.00520  -1.09873
   D13        3.12228  -0.00077   0.00000   0.00313   0.00307   3.12536
   D14       -1.07946  -0.00342   0.00000  -0.01378  -0.01411  -1.09357
   D15        1.06320  -0.00352   0.00000  -0.01553  -0.01612   1.04708
   D16       -1.12501   0.00245   0.00000   0.01166   0.01222  -1.11279
   D17        0.95644  -0.00020   0.00000  -0.00525  -0.00496   0.95148
   D18        3.09909  -0.00030   0.00000  -0.00699  -0.00697   3.09212
   D19       -2.50026   0.00233   0.00000  -0.00179  -0.00186  -2.50212
   D20       -0.48581   0.00085   0.00000   0.00240   0.00251  -0.48330
   D21        1.65324  -0.00547   0.00000  -0.02703  -0.02706   1.62617
   D22       -0.95102   0.00352   0.00000   0.01151   0.01138  -0.93964
   D23        1.13719  -0.00145   0.00000  -0.01651  -0.01649   1.12069
   D24        3.11979   0.00498   0.00000   0.02365   0.02360  -3.13980
   D25       -2.96476  -0.00354   0.00000  -0.02832  -0.02828  -2.99304
   D26       -0.87655  -0.00851   0.00000  -0.05634  -0.05616  -0.93271
   D27        1.10605  -0.00208   0.00000  -0.01619  -0.01606   1.08999
   D28        1.16117   0.00087   0.00000   0.00370   0.00356   1.16473
   D29       -3.03381  -0.00410   0.00000  -0.02432  -0.02431  -3.05812
   D30       -1.05121   0.00233   0.00000   0.01583   0.01578  -1.03543
   D31        1.11148  -0.00200   0.00000  -0.01502  -0.01511   1.09638
   D32       -0.90915  -0.00443   0.00000  -0.03248  -0.03284  -0.94199
   D33        3.07275   0.00329   0.00000   0.02075   0.02061   3.09335
   D34       -1.12667  -0.00067   0.00000  -0.00141  -0.00133  -1.12800
   D35        3.13588  -0.00309   0.00000  -0.01887  -0.01907   3.11682
   D36        0.83459   0.00462   0.00000   0.03436   0.03439   0.86898
   D37       -3.13984   0.00040   0.00000   0.00558   0.00592  -3.13392
   D38        1.12271  -0.00203   0.00000  -0.01188  -0.01181   1.11090
   D39       -1.17858   0.00569   0.00000   0.04135   0.04164  -1.13694
         Item               Value     Threshold  Converged?
 Maximum Force            0.077059     0.000450     NO 
 RMS     Force            0.014925     0.000300     NO 
 Maximum Displacement     0.209124     0.001800     NO 
 RMS     Displacement     0.064859     0.001200     NO 
 Predicted change in Energy=-2.946791D-02
 Lowest energy point so far.  Saving SCF results.
 GradGradGradGradGradGradGradGradGradGradGradGradGradGradGradGradGradGrad

 Leave Link  103 at Wed Sep  7 15:36:26 2022, MaxMem=   131072000 cpu:               0.0 elap:               0.0
 (Enter /opt/g16/l202.exe)
                          Input orientation:                          
 ---------------------------------------------------------------------
 Center     Atomic      Atomic             Coordinates (Angstroms)
 Number     Number       Type             X           Y           Z
 ---------------------------------------------------------------------
      1          6           0        3.123699    2.300727   11.661904
      2          1           0        4.152297    2.545336   11.348491
      3          1           0        2.871323    3.059612   12.403581
      4          1           0        2.514724    2.410051   10.743252
      5          6           0        2.867305    0.873295   12.144452
      6          1           0        3.566841    0.571108   12.973389
      7          1           0        3.031346    0.186681   11.271705
      8          6           0        1.467877    0.693201   12.694288
      9          1           0        0.759925    1.010818   11.874680
     10          8           0        1.295893   -0.708640   12.992223
     11          6           0        1.211624    1.551067   13.924427
     12          1           0        0.381438   -0.896160   12.764308
     13          1           0        1.964314    1.402250   14.719000
     14          1           0        1.271387    2.620823   13.619600
     15          6           0       -0.201941    1.371628   14.487289
     16          1           0       -0.325129    0.304439   14.823532
     17          1           0       -0.949281    1.544456   13.703104
     18          1           0       -0.349641    1.948306   15.382776
 ---------------------------------------------------------------------
                    Distance matrix (angstroms):
                    1          2          3          4          5
     1  C    0.000000
     2  H    1.102758   0.000000
     3  H    1.090727   1.737409   0.000000
     4  H    1.107575   1.751075   1.818182   0.000000
     5  C    1.528449   2.253992   2.201624   2.109335   0.000000
     6  H    2.215389   2.623095   2.645955   3.076064   1.125967
     7  H    2.151738   2.612600   3.092003   2.342975   1.122513
     8  C    2.528182   3.528128   2.766599   2.801785   1.514316
     9  H    2.701216   3.760294   2.989197   2.513424   2.129024
    10  O    3.763897   4.631335   4.126525   4.033565   2.385492
    11  C    3.055656   4.033805   2.709850   3.543416   2.523682
    12  H    4.353778   5.297907   4.688048   4.423416   3.113636
    13  H    3.390763   4.177828   2.988424   4.138258   2.779116
    14  H    2.714055   3.669234   2.056948   3.140651   2.788705
    15  C    4.461603   5.494455   4.078735   4.740928   3.893262
    16  H    5.086793   6.094659   4.864611   5.398800   4.206269
    17  H    4.618183   5.707194   4.310624   4.637813   4.176863
    18  H    5.102272   6.074483   4.526059   5.472017   4.689470
                    6          7          8          9         10
     6  H    0.000000
     7  H    1.824902   0.000000
     8  C    2.120955   2.173647   0.000000
     9  H    3.046191   2.490408   1.128643   0.000000
    10  O    2.606782   2.602611   1.443435   2.119599   0.000000
    11  C    2.722470   3.494263   1.521460   2.167341   2.445891
    12  H    3.513315   3.228378   1.926480   2.138050   0.960904
    13  H    2.511185   3.807888   2.201967   3.113508   2.807918
    14  H    3.144523   3.812495   2.147216   2.428674   3.388145
    15  C    4.139618   4.711499   2.542323   2.807329   2.967531
    16  H    4.317588   4.888278   2.810638   3.220565   2.647212
    17  H    4.677098   4.858050   2.754088   2.559158   3.259233
    18  H    4.800067   5.606719   3.479457   3.796941   3.934703
                   11         12         13         14         15
    11  C    0.000000
    12  H    2.832668   0.000000
    13  H    1.104552   3.407200   0.000000
    14  H    1.113943   3.727292   1.781502   0.000000
    15  C    1.532049   2.907207   2.178827   2.117562   0.000000
    16  H    2.173494   2.486177   2.541193   3.060057   1.125667
    17  H    2.172220   2.934069   3.088901   2.469191   1.096966
    18  H    2.173045   3.934696   2.468433   2.487730   1.075300
                   16         17         18
    16  H    0.000000
    17  H    1.783975   0.000000
    18  H    1.736563   1.828650   0.000000
 Stoichiometry    C5H12O
 Framework group  C1[X(C5H12O)]
 Deg. of freedom    48
 Full point group                 C1      NOp   1
 RotChk:  IX=0 Diff= 6.56D-02
 Largest Abelian subgroup         C1      NOp   1
 Largest concise Abelian subgroup C1      NOp   1
                         Standard orientation:                         
 ---------------------------------------------------------------------
 Center     Atomic      Atomic             Coordinates (Angstroms)
 Number     Number       Type             X           Y           Z
 ---------------------------------------------------------------------
      1          6           0        2.232441   -0.802944    0.170574
      2          1           0        3.251608   -0.906444   -0.237669
      3          1           0        1.734789   -1.739609   -0.083765
      4          1           0        2.374998   -0.700882    1.264183
      5          6           0        1.441182    0.436221   -0.247199
      6          1           0        1.382906    0.547941   -1.366094
      7          1           0        1.969837    1.332707    0.173361
      8          6           0        0.008750    0.397774    0.242507
      9          1           0        0.058054    0.268334    1.362618
     10          8           0       -0.597971    1.664269   -0.091239
     11          6           0       -0.777963   -0.761047   -0.351680
     12          1           0       -1.179805    1.858568    0.648393
     13          1           0       -0.742988   -0.785718   -1.455402
     14          1           0       -0.319956   -1.711022    0.006995
     15          6           0       -2.229043   -0.804201    0.137893
     16          1           0       -2.753823    0.131999   -0.201607
     17          1           0       -2.261547   -0.805116    1.234377
     18          1           0       -2.782507   -1.599718   -0.328047
 ---------------------------------------------------------------------
 Rotational constants (GHZ):           5.0084188           2.3127698           1.7259510
 Leave Link  202 at Wed Sep  7 15:36:26 2022, MaxMem=   131072000 cpu:               0.0 elap:               0.0
 (Enter /opt/g16/l301.exe)
 Standard basis: VSTO-6G (5D, 7F)
 Ernie: Thresh=  0.10000D-02 Tol=  0.10000D-05 Strict=F.
  NNHCO=     0 NNPyr=     0 NCTC=     0               EPep=         0.000000000
    EC=       128.131294912  ECS=         2.163806370   EG=         0.563582523
   EHC=         0.000000000  EAt=       -36.836480110  AtH=         2.452923921
 EPDDG=         0.000000000  ECC=       130.858683805 EAtT=        39.289404030
 There are    36 symmetry adapted cartesian basis functions of A   symmetry.
 There are    36 symmetry adapted basis functions of A   symmetry.
    36 basis functions,   216 primitive gaussians,    36 cartesian basis functions
    19 alpha electrons       19 beta electrons
       nuclear repulsion energy       170.1480878357 Hartrees.
 IExCor=    0 DFT=F Ex=HF Corr=None ExCW=0 ScaHFX=  1.000000
 ScaDFX=  1.000000  1.000000  1.000000  1.000000 ScalE2=  1.000000  1.000000
 IRadAn=      5 IRanWt=     -1 IRanGd=            0 ICorTp=0 IEmpDi=  4
 Integral buffers will be    131072 words long.
 Regular integral format.
 Two-electron integral symmetry is turned off.
 Leave Link  301 at Wed Sep  7 15:36:26 2022, MaxMem=   131072000 cpu:               0.0 elap:               0.0
 (Enter /opt/g16/l302.exe)
 Do NDO integrals.
 NPDir=0 NMtPBC=     1 NCelOv=     1 NCel=       1 NClECP=     1 NCelD=      1
         NCelK=      1 NCelE2=     1 NClLst=     1 CellRange=     0.0.
 One-electron integrals computed using PRISM.
 NBasis=    36 RedAO= F EigKep=  0.00D+00  NBF=    36
 NBsUse=    36 1.00D-04 EigRej=  0.00D+00 NBFU=    36
 Leave Link  302 at Wed Sep  7 15:36:26 2022, MaxMem=   131072000 cpu:               0.0 elap:               0.0
 (Enter /opt/g16/l303.exe)
 DipDrv:  MaxL=1.
 Leave Link  303 at Wed Sep  7 15:36:26 2022, MaxMem=   131072000 cpu:               0.0 elap:               0.0
 (Enter /opt/g16/l401.exe)
 Initial guess from the checkpoint file:  "MD_extract_022_gaussian.chk"
 B after Tr=     0.000000    0.000000    0.000000
         Rot=    0.999709    0.001817    0.001554    0.023995 Ang=   2.76 deg.
 Guess basis will be translated and rotated to current coordinates.
 JPrj=0 DoOrth=T DoCkMO=T.
 Leave Link  401 at Wed Sep  7 15:36:26 2022, MaxMem=   131072000 cpu:               0.0 elap:               0.0
 (Enter /opt/g16/l502.exe)
 Keep J ints in memory in canonical form, NReq=862161.
 FoFCou: FMM=F IPFlag=           0 FMFlag=           0 FMFlg1=           0
         NFxFlg=           0 DoJE=F BraDBF=F KetDBF=F FulRan=T
         wScrn=  0.000000 ICntrl=       600 IOpCl=  2 I1Cent=           0 NGrid=           0
         NMat0=    1 NMatS0=     72 NMatT0=    0 NMatD0=    1 NMtDS0=    0 NMtDT0=    0
 Symmetry not used in FoFCou.
 Two-electron integral symmetry not used.
 Closed shell SCF:
 Using DIIS extrapolation, IDIIS=  1040.
 Overlap will be assumed to be unity.
 NGot=   131072000 LenX=   131006778 LenY=   131005041
 Requested convergence on RMS density matrix=1.00D-08 within 128 cycles.
 Requested convergence on MAX density matrix=1.00D-06.
 Requested convergence on             energy=1.00D-06.
 No special actions if energy rises.

 Cycle   1  Pass 1  IDiag  1:
 E=-0.103880713667706    
 DIIS: error= 3.61D-03 at cycle   1 NSaved=   1.
 NSaved= 1 IEnMin= 1 EnMin=-0.103880713667706     IErMin= 1 ErrMin= 3.61D-03
 ErrMax= 3.61D-03  0.00D+00 EMaxC= 1.00D-01 BMatC= 1.12D-03 BMatP= 1.12D-03
 IDIUse=3 WtCom= 9.64D-01 WtEn= 3.61D-02
 Coeff-Com:  0.100D+01
 Coeff-En:   0.100D+01
 Coeff:      0.100D+01
 GapD=    2.000 DampG=2.000 DampE=1.000 DampFc=2.0000 IDamp=-1.
 RMSDP=1.54D-03 MaxDP=1.05D-02              OVMax= 0.00D+00

 Cycle   2  Pass 1  IDiag  3:
 E=-0.107203848290197     Delta-E=       -0.003323134622 Rises=F Damp=F
 DIIS: error= 1.67D-03 at cycle   2 NSaved=   2.
 NSaved= 2 IEnMin= 2 EnMin=-0.107203848290197     IErMin= 2 ErrMin= 1.67D-03
 ErrMax= 1.67D-03  0.00D+00 EMaxC= 1.00D-01 BMatC= 1.12D-04 BMatP= 1.12D-03
 IDIUse=3 WtCom= 9.83D-01 WtEn= 1.67D-02
 Coeff-Com: -0.389D+00 0.139D+01
 Coeff-En:   0.000D+00 0.100D+01
 Coeff:     -0.383D+00 0.138D+01
 Gap=     0.524 Goal=   None    Shift=    0.000
 RMSDP=7.80D-04 MaxDP=6.58D-03 DE=-3.32D-03 OVMax= 3.57D-03

 Cycle   3  Pass 1  IDiag  3:
 E=-0.107678201852281     Delta-E=       -0.000474353562 Rises=F Damp=F
 DIIS: error= 4.44D-04 at cycle   3 NSaved=   3.
 NSaved= 3 IEnMin= 3 EnMin=-0.107678201852281     IErMin= 3 ErrMin= 4.44D-04
 ErrMax= 4.44D-04  0.00D+00 EMaxC= 1.00D-01 BMatC= 4.29D-06 BMatP= 1.12D-04
 IDIUse=3 WtCom= 9.96D-01 WtEn= 4.44D-03
 Coeff-Com:  0.175D+00-0.723D+00 0.155D+01
 Coeff-En:   0.000D+00 0.000D+00 0.100D+01
 Coeff:      0.175D+00-0.719D+00 0.154D+01
 Gap=     0.524 Goal=   None    Shift=    0.000
 RMSDP=2.10D-04 MaxDP=2.05D-03 DE=-4.74D-04 OVMax= 1.04D-03

 Cycle   4  Pass 1  IDiag  3:
 E=-0.107702591243878     Delta-E=       -0.000024389392 Rises=F Damp=F
 DIIS: error= 5.59D-05 at cycle   4 NSaved=   4.
 NSaved= 4 IEnMin= 4 EnMin=-0.107702591243878     IErMin= 4 ErrMin= 5.59D-05
 ErrMax= 5.59D-05  0.00D+00 EMaxC= 1.00D-01 BMatC= 1.25D-07 BMatP= 4.29D-06
 IDIUse=1 WtCom= 1.00D+00 WtEn= 0.00D+00
 Coeff-Com: -0.702D-01 0.296D+00-0.727D+00 0.150D+01
 Coeff:     -0.702D-01 0.296D+00-0.727D+00 0.150D+01
 Gap=     0.524 Goal=   None    Shift=    0.000
 RMSDP=3.78D-05 MaxDP=2.90D-04 DE=-2.44D-05 OVMax= 2.65D-04

 Cycle   5  Pass 1  IDiag  3:
 E=-0.107703343110387     Delta-E=       -0.000000751867 Rises=F Damp=F
 DIIS: error= 1.32D-05 at cycle   5 NSaved=   5.
 NSaved= 5 IEnMin= 5 EnMin=-0.107703343110387     IErMin= 5 ErrMin= 1.32D-05
 ErrMax= 1.32D-05  0.00D+00 EMaxC= 1.00D-01 BMatC= 6.02D-09 BMatP= 1.25D-07
 IDIUse=1 WtCom= 1.00D+00 WtEn= 0.00D+00
 Coeff-Com:  0.340D-01-0.143D+00 0.360D+00-0.842D+00 0.159D+01
 Coeff:      0.340D-01-0.143D+00 0.360D+00-0.842D+00 0.159D+01
 Gap=     0.524 Goal=   None    Shift=    0.000
 RMSDP=9.00D-06 MaxDP=8.60D-05 DE=-7.52D-07 OVMax= 1.05D-04

 Cycle   6  Pass 1  IDiag  3:
 E=-0.107703387522378     Delta-E=       -0.000000044412 Rises=F Damp=F
 DIIS: error= 4.38D-06 at cycle   6 NSaved=   6.
 NSaved= 6 IEnMin= 6 EnMin=-0.107703387522378     IErMin= 6 ErrMin= 4.38D-06
 ErrMax= 4.38D-06  0.00D+00 EMaxC= 1.00D-01 BMatC= 6.72D-10 BMatP= 6.02D-09
 IDIUse=1 WtCom= 1.00D+00 WtEn= 0.00D+00
 Coeff-Com: -0.186D-01 0.785D-01-0.198D+00 0.483D+00-0.118D+01 0.184D+01
 Coeff:     -0.186D-01 0.785D-01-0.198D+00 0.483D+00-0.118D+01 0.184D+01
 Gap=     0.524 Goal=   None    Shift=    0.000
 RMSDP=3.91D-06 MaxDP=3.70D-05 DE=-4.44D-08 OVMax= 5.15D-05

 Cycle   7  Pass 1  IDiag  3:
 E=-0.107703393264416     Delta-E=       -0.000000005742 Rises=F Damp=F
 DIIS: error= 9.42D-07 at cycle   7 NSaved=   7.
 NSaved= 7 IEnMin= 7 EnMin=-0.107703393264416     IErMin= 7 ErrMin= 9.42D-07
 ErrMax= 9.42D-07  0.00D+00 EMaxC= 1.00D-01 BMatC= 2.67D-11 BMatP= 6.72D-10
 IDIUse=1 WtCom= 1.00D+00 WtEn= 0.00D+00
 Coeff-Com:  0.602D-02-0.254D-01 0.643D-01-0.160D+00 0.422D+00-0.804D+00
 Coeff-Com:  0.150D+01
 Coeff:      0.602D-02-0.254D-01 0.643D-01-0.160D+00 0.422D+00-0.804D+00
 Coeff:      0.150D+01
 Gap=     0.524 Goal=   None    Shift=    0.000
 RMSDP=6.74D-07 MaxDP=5.78D-06 DE=-5.74D-09 OVMax= 8.41D-06

 Cycle   8  Pass 1  IDiag  3:
 E=-0.107703393452681     Delta-E=       -0.000000000188 Rises=F Damp=F
 DIIS: error= 2.00D-07 at cycle   8 NSaved=   8.
 NSaved= 8 IEnMin= 8 EnMin=-0.107703393452681     IErMin= 8 ErrMin= 2.00D-07
 ErrMax= 2.00D-07  0.00D+00 EMaxC= 1.00D-01 BMatC= 1.18D-12 BMatP= 2.67D-11
 IDIUse=1 WtCom= 1.00D+00 WtEn= 0.00D+00
 Coeff-Com: -0.120D-02 0.504D-02-0.128D-01 0.325D-01-0.896D-01 0.186D+00
 Coeff-Com: -0.496D+00 0.138D+01
 Coeff:     -0.120D-02 0.504D-02-0.128D-01 0.325D-01-0.896D-01 0.186D+00
 Coeff:     -0.496D+00 0.138D+01
 Gap=     0.524 Goal=   None    Shift=    0.000
 RMSDP=1.15D-07 MaxDP=1.06D-06 DE=-1.88D-10 OVMax= 1.03D-06

 Cycle   9  Pass 1  IDiag  3:
 E=-0.107703393460014     Delta-E=       -0.000000000007 Rises=F Damp=F
 DIIS: error= 5.46D-08 at cycle   9 NSaved=   9.
 NSaved= 9 IEnMin= 9 EnMin=-0.107703393460014     IErMin= 9 ErrMin= 5.46D-08
 ErrMax= 5.46D-08  0.00D+00 EMaxC= 1.00D-01 BMatC= 8.44D-14 BMatP= 1.18D-12
 IDIUse=1 WtCom= 1.00D+00 WtEn= 0.00D+00
 Coeff-Com:  0.286D-03-0.120D-02 0.305D-02-0.789D-02 0.225D-01-0.486D-01
 Coeff-Com:  0.150D+00-0.615D+00 0.150D+01
 Coeff:      0.286D-03-0.120D-02 0.305D-02-0.789D-02 0.225D-01-0.486D-01
 Coeff:      0.150D+00-0.615D+00 0.150D+01
 Gap=     0.524 Goal=   None    Shift=    0.000
 RMSDP=3.15D-08 MaxDP=3.00D-07 DE=-7.33D-12 OVMax= 2.24D-07

 Cycle  10  Pass 1  IDiag  3:
 E=-0.107703393460724     Delta-E=       -0.000000000001 Rises=F Damp=F
 DIIS: error= 1.34D-08 at cycle  10 NSaved=  10.
 NSaved=10 IEnMin=10 EnMin=-0.107703393460724     IErMin=10 ErrMin= 1.34D-08
 ErrMax= 1.34D-08  0.00D+00 EMaxC= 1.00D-01 BMatC= 5.49D-15 BMatP= 8.44D-14
 IDIUse=1 WtCom= 1.00D+00 WtEn= 0.00D+00
 Coeff-Com: -0.677D-04 0.283D-03-0.721D-03 0.192D-02-0.574D-02 0.132D-01
 Coeff-Com: -0.468D-01 0.229D+00-0.751D+00 0.156D+01
 Coeff:     -0.677D-04 0.283D-03-0.721D-03 0.192D-02-0.574D-02 0.132D-01
 Coeff:     -0.468D-01 0.229D+00-0.751D+00 0.156D+01
 Gap=     0.524 Goal=   None    Shift=    0.000
 RMSDP=8.55D-09 MaxDP=9.11D-08 DE=-7.11D-13 OVMax= 7.87D-08

 Cycle  11  Pass 2  IDiag  1:
 SCF Done:  E(RPM3) = -0.107703393461     A.U. after   11 cycles
            NFock= 10  Conv=0.85D-08     -V/T= 0.9982
 KE=-5.962814023268D+01 PE=-2.548581865171D+02 EE= 1.442305355207D+02
 Leave Link  502 at Wed Sep  7 15:36:26 2022, MaxMem=   131072000 cpu:               0.0 elap:               0.0
 (Enter /opt/g16/l701.exe)
 ... and contract with generalized density number  0.
 Compute integral first derivatives.
 Leave Link  701 at Wed Sep  7 15:36:26 2022, MaxMem=   131072000 cpu:               0.0 elap:               0.0
 (Enter /opt/g16/l702.exe)
 L702 exits ... SP integral derivatives will be done elsewhere.
 Leave Link  702 at Wed Sep  7 15:36:27 2022, MaxMem=   131072000 cpu:               0.0 elap:               0.0
 (Enter /opt/g16/l703.exe)
 Integral derivatives from FoFJK, PRISM(SPDF).
 Compute integral first derivatives, UseDBF=F ICtDFT=           0.
 Calling FoFJK, ICntrl=      2127 FMM=F ISym2X=0 I1Cent= 0 IOpClX= 0 NMat=1 NMatS=1 NMatT=0.
 FoFJK:  IHMeth= 9 ICntrl=    2127 DoSepK=F KAlg= 0 I1Cent=           0 FoldK=F
 IRaf=         0 NMat=       1 IRICut=       1 DoRegI=T DoRafI=F ISym2E= 0 IDoP0=3 IntGTp=3.
 FoFCou: FMM=F IPFlag=           0 FMFlag=      100000 FMFlg1=         800
         NFxFlg=           0 DoJE=F BraDBF=F KetDBF=F FulRan=T
         wScrn=  0.000000 ICntrl=      2127 IOpCl=  0 I1Cent=           0 NGrid=           0
         NMat0=    1 NMatS0=      1 NMatT0=    0 NMatD0=    1 NMtDS0=    0 NMtDT0=    0
 Symmetry not used in FoFCou.
 Leave Link  703 at Wed Sep  7 15:36:27 2022, MaxMem=   131072000 cpu:               0.0 elap:               0.0
 (Enter /opt/g16/l716.exe)
 Dipole        =-6.63832869D-02-3.63035799D-01 4.80333813D-01
 ***** Axes restored to original set *****
 -------------------------------------------------------------------
 Center     Atomic                   Forces (Hartrees/Bohr)
 Number     Number              X              Y              Z
 -------------------------------------------------------------------
      1        6          -0.003885402   -0.011362239   -0.011917588
      2        1           0.000161270   -0.009353735    0.003665619
      3        1          -0.006318754    0.001864720    0.002834599
      4        1           0.000695996    0.008495673    0.006268933
      5        6           0.024619044    0.002504764    0.003562312
      6        1          -0.000843139    0.003627472   -0.012843961
      7        1           0.001108174    0.002492126    0.010325357
      8        6          -0.015030857   -0.013904219   -0.007583665
      9        1          -0.001242154   -0.003940257    0.004905666
     10        8          -0.010768038    0.013356965   -0.008680975
     11        6          -0.019159056    0.012988591    0.007581914
     12        1           0.013791418    0.002853933    0.005041271
     13        1           0.000953082   -0.002370154   -0.001066729
     14        1           0.006876102   -0.001457406    0.000463093
     15        6           0.017911512   -0.035527931   -0.008657691
     16        1          -0.001489891    0.012339884   -0.005251969
     17        1          -0.001872925    0.004327085    0.005603670
     18        1          -0.005506383    0.013064728    0.005750143
 -------------------------------------------------------------------
 Cartesian Forces:  Max     0.035527931 RMS     0.009961262
 Leave Link  716 at Wed Sep  7 15:36:27 2022, MaxMem=   131072000 cpu:               0.0 elap:               0.0
 (Enter /opt/g16/l103.exe)

 GradGradGradGradGradGradGradGradGradGradGradGradGradGradGradGradGradGrad
 Berny optimization.
 Using GEDIIS/GDIIS optimizer.
 FormGI is forming the generalized inverse of G from B-inverse, IUseBI=4.
 Internal  Forces:  Max     0.016855270 RMS     0.005307608
 Search for a local minimum.
 Step number   2 out of a maximum of   97
 All quantities printed in internal units (Hartrees-Bohrs-Radians)
 RMS Force = .53076D-02 SwitMx=.10000D-02 MixMth= 1
 Mixed Optimization -- RFO/linear search
 Update second derivatives using D2CorX and points    1    2
 DE= -2.78D-02 DEPred=-2.95D-02 R= 9.42D-01
 TightC=F SS=  1.41D+00  RLast= 3.34D-01 DXNew= 5.0454D-01 1.0027D+00
 Trust test= 9.42D-01 RLast= 3.34D-01 DXMaxT set to 5.05D-01
 ITU=  1  0
 Use linear search instead of GDIIS.
     Eigenvalues ---    0.00230   0.00252   0.00793   0.01168   0.01478
     Eigenvalues ---    0.03688   0.04003   0.04744   0.04998   0.05123
     Eigenvalues ---    0.05157   0.05221   0.05550   0.05712   0.05923
     Eigenvalues ---    0.07477   0.08440   0.08711   0.12087   0.12358
     Eigenvalues ---    0.14826   0.16000   0.16000   0.16000   0.16000
     Eigenvalues ---    0.16000   0.16101   0.17047   0.20125   0.21840
     Eigenvalues ---    0.22122   0.25616   0.27052   0.28174   0.28638
     Eigenvalues ---    0.28941   0.30362   0.31560   0.32319   0.32407
     Eigenvalues ---    0.33075   0.33417   0.35088   0.36062   0.36825
     Eigenvalues ---    0.39822   0.46777   0.49685
 RFO step:  Lambda=-9.76641425D-03 EMin= 2.30005947D-03
 Quartic linear search produced a step of  0.57676.
 Iteration  1 RMS(Cart)=  0.05322895 RMS(Int)=  0.00270811
 Iteration  2 RMS(Cart)=  0.00245650 RMS(Int)=  0.00136203
 Iteration  3 RMS(Cart)=  0.00000315 RMS(Int)=  0.00136203
 Iteration  4 RMS(Cart)=  0.00000001 RMS(Int)=  0.00136203
 ITry= 1 IFail=0 DXMaxC= 1.95D-01 DCOld= 1.00D+10 DXMaxT= 5.05D-01 DXLimC= 3.00D+00 Rises=F
 Variable       Old X    -DE/DX   Delta X   Delta X   Delta X     New X
                                 (Linear)    (Quad)   (Total)
    R1        2.08391  -0.00297  -0.00985  -0.00218  -0.01203   2.07188
    R2        2.06118   0.00469   0.01237   0.00520   0.01757   2.07875
    R3        2.09301  -0.00474  -0.01315  -0.00708  -0.02023   2.07278
    R4        2.88835  -0.01151  -0.05432  -0.00209  -0.05641   2.83194
    R5        2.12777  -0.01095  -0.03026  -0.02185  -0.05211   2.07566
    R6        2.12124  -0.00939  -0.02703  -0.01654  -0.04357   2.07767
    R7        2.86164   0.01346   0.07433  -0.03390   0.04043   2.90207
    R8        2.13283  -0.00389  -0.00358  -0.01507  -0.01865   2.11417
    R9        2.72770  -0.01686  -0.02665  -0.03976  -0.06642   2.66128
   R10        2.87514   0.00586   0.05647  -0.04147   0.01500   2.89015
   R11        1.81585  -0.01488  -0.03260  -0.00869  -0.04129   1.77456
   R12        2.08730   0.00020   0.00231  -0.00182   0.00049   2.08779
   R13        2.10505  -0.00116   0.00142  -0.00709  -0.00568   2.09937
   R14        2.89515  -0.00860  -0.00739  -0.03643  -0.04382   2.85133
   R15        2.12720  -0.01310  -0.03698  -0.02635  -0.06333   2.06387
   R16        2.07296  -0.00205  -0.00946   0.00180  -0.00765   2.06531
   R17        2.03202   0.01255   0.02943   0.01336   0.04279   2.07481
    A1        1.82838   0.00823   0.02997   0.01573   0.03920   1.86759
    A2        1.82888   0.00177   0.01402   0.03004   0.04956   1.87844
    A3        2.04132  -0.01426  -0.05327  -0.06170  -0.11532   1.92600
    A4        1.94776  -0.00667  -0.01720  -0.04514  -0.06121   1.88655
    A5        1.97826  -0.00270  -0.01705  -0.01940  -0.03911   1.93915
    A6        1.83569   0.01318   0.04354   0.07972   0.12678   1.96247
    A7        1.95935  -0.00288  -0.02119  -0.01283  -0.03381   1.92554
    A8        1.87682   0.00390   0.00083   0.03134   0.03214   1.90896
    A9        1.96137  -0.00473  -0.01118  -0.00718  -0.01803   1.94334
   A10        1.89382  -0.00329  -0.01743  -0.03144  -0.04963   1.84420
   A11        1.84930   0.00698   0.03912   0.03299   0.07213   1.92143
   A12        1.92262  -0.00010   0.01052  -0.01532  -0.00481   1.91781
   A13        1.85723   0.00352   0.01180   0.04488   0.05674   1.91396
   A14        1.87607  -0.00084  -0.01198  -0.00354  -0.01594   1.86013
   A15        1.96293  -0.00190   0.02068  -0.04445  -0.02423   1.93871
   A16        1.92672  -0.00112  -0.00868  -0.00133  -0.00990   1.91682
   A17        1.89951  -0.00014  -0.00592   0.01220   0.00598   1.90548
   A18        1.93975   0.00057  -0.00503  -0.00577  -0.01136   1.92840
   A19        1.82757   0.00076  -0.00651   0.01537   0.00886   1.83643
   A20        1.97239  -0.00207  -0.01027  -0.03842  -0.04908   1.92330
   A21        1.88724  -0.00116  -0.00320   0.00304  -0.00159   1.88565
   A22        1.96753  -0.00015   0.01659  -0.01922  -0.00340   1.96413
   A23        1.86469  -0.00092  -0.00604  -0.00697  -0.01376   1.85092
   A24        1.92695   0.00045  -0.00917   0.00723  -0.00264   1.92431
   A25        1.83642   0.00422   0.01315   0.06250   0.07522   1.91164
   A26        1.89838   0.00459   0.02501   0.03824   0.06178   1.96015
   A27        1.92570   0.00390   0.00929   0.00569   0.01320   1.93891
   A28        1.94967  -0.00091  -0.00384  -0.01521  -0.02032   1.92935
   A29        1.86330  -0.00225  -0.00731   0.01141   0.00224   1.86554
   A30        1.81795   0.00143   0.00687   0.04077   0.04672   1.86468
   A31        2.00122  -0.00639  -0.02623  -0.07136  -0.09904   1.90217
    D1        0.94603  -0.00434  -0.03551  -0.04517  -0.07739   0.86864
    D2       -1.13577  -0.00110  -0.00090  -0.01911  -0.01696  -1.15273
    D3        3.02869  -0.00067  -0.00767  -0.01670  -0.02115   3.00754
    D4       -1.18434  -0.00165  -0.01458   0.00086  -0.01565  -1.19998
    D5        3.01704   0.00158   0.02003   0.02693   0.04479   3.06183
    D6        0.89832   0.00201   0.01326   0.02934   0.04060   0.93892
    D7        2.96650  -0.00075  -0.01342   0.01405  -0.00041   2.96609
    D8        0.88469   0.00248   0.02120   0.04011   0.06002   0.94471
    D9       -1.23403   0.00291   0.01442   0.04252   0.05583  -1.17820
   D10        0.97954   0.00120   0.00807  -0.00567   0.00262   0.98217
   D11        3.04380   0.00129  -0.00184   0.01416   0.01226   3.05606
   D12       -1.09873   0.00021  -0.00300  -0.02396  -0.02688  -1.12562
   D13        3.12536  -0.00052   0.00177  -0.00364  -0.00193   3.12343
   D14       -1.09357  -0.00043  -0.00814   0.01619   0.00770  -1.08586
   D15        1.04708  -0.00151  -0.00930  -0.02193  -0.03144   1.01564
   D16       -1.11279  -0.00055   0.00705  -0.03013  -0.02281  -1.13559
   D17        0.95148  -0.00046  -0.00286  -0.01030  -0.01317   0.93830
   D18        3.09212  -0.00154  -0.00402  -0.04842  -0.05231   3.03981
   D19       -2.50212  -0.00278  -0.00107  -0.09854  -0.09957  -2.60169
   D20       -0.48330   0.00035   0.00145  -0.04781  -0.04636  -0.52966
   D21        1.62617  -0.00021  -0.01561  -0.03716  -0.05280   1.57337
   D22       -0.93964   0.00170   0.00656  -0.00842  -0.00194  -0.94158
   D23        1.12069  -0.00143  -0.00951  -0.03801  -0.04739   1.07331
   D24       -3.13980   0.00293   0.01361   0.02946   0.04263  -3.09717
   D25       -2.99304  -0.00142  -0.01631  -0.04511  -0.06132  -3.05436
   D26       -0.93271  -0.00456  -0.03239  -0.07471  -0.10677  -1.03947
   D27        1.08999  -0.00020  -0.00926  -0.00724  -0.01675   1.07323
   D28        1.16473  -0.00030   0.00205  -0.04787  -0.04571   1.11902
   D29       -3.05812  -0.00343  -0.01402  -0.07747  -0.09116   3.13391
   D30       -1.03543   0.00093   0.00910  -0.01000  -0.00114  -1.03657
   D31        1.09638  -0.00168  -0.00871  -0.02986  -0.03878   1.05760
   D32       -0.94199  -0.00387  -0.01894  -0.06931  -0.08880  -1.03079
   D33        3.09335   0.00226   0.01189   0.03369   0.04499   3.13834
   D34       -1.12800   0.00084  -0.00077   0.03096   0.03057  -1.09743
   D35        3.11682  -0.00134  -0.01100  -0.00849  -0.01945   3.09736
   D36        0.86898   0.00478   0.01983   0.09451   0.11433   0.98331
   D37       -3.13392  -0.00056   0.00342   0.00213   0.00611  -3.12781
   D38        1.11090  -0.00275  -0.00681  -0.03732  -0.04392   1.06698
   D39       -1.13694   0.00338   0.02401   0.06568   0.08987  -1.04707
         Item               Value     Threshold  Converged?
 Maximum Force            0.016855     0.000450     NO 
 RMS     Force            0.005308     0.000300     NO 
 Maximum Displacement     0.194779     0.001800     NO 
 RMS     Displacement     0.053351     0.001200     NO 
 Predicted change in Energy=-8.241164D-03
 Lowest energy point so far.  Saving SCF results.
 GradGradGradGradGradGradGradGradGradGradGradGradGradGradGradGradGradGrad

 Leave Link  103 at Wed Sep  7 15:36:27 2022, MaxMem=   131072000 cpu:               0.0 elap:               0.0
 (Enter /opt/g16/l202.exe)
                          Input orientation:                          
 ---------------------------------------------------------------------
 Center     Atomic      Atomic             Coordinates (Angstroms)
 Number     Number       Type             X           Y           Z
 ---------------------------------------------------------------------
      1          6           0        3.093361    2.285263   11.654686
      2          1           0        4.150557    2.445085   11.412052
      3          1           0        2.826970    3.018237   12.430469
      4          1           0        2.508070    2.513123   10.755443
[...]
 ! A13   A(5,8,9)              109.4046         -DE/DX =    0.0                 !
 ! A14   A(5,8,10)             106.4155         -DE/DX =    0.0                 !
 ! A15   A(5,8,11)             110.6514         -DE/DX =    0.0                 !
 ! A16   A(9,8,10)             108.2996         -DE/DX =    0.0                 !
 ! A17   A(9,8,11)             109.5721         -DE/DX =    0.0                 !
 ! A18   A(10,8,11)            112.4018         -DE/DX =    0.0                 !
 ! A19   A(8,10,12)            106.4293         -DE/DX =    0.0                 !
 ! A20   A(8,11,13)            110.1521         -DE/DX =    0.0                 !
 ! A21   A(8,11,14)            107.7437         -DE/DX =    0.0                 !
 ! A22   A(8,11,15)            112.5297         -DE/DX =    0.0                 !
 ! A23   A(13,11,14)           105.7248         -DE/DX =    0.0                 !
 ! A24   A(13,11,15)           110.3205         -DE/DX =    0.0                 !
 ! A25   A(14,11,15)           110.1156         -DE/DX =    0.0                 !
 ! A26   A(11,15,16)           112.0501         -DE/DX =    0.0                 !
 ! A27   A(11,15,17)           111.7678         -DE/DX =    0.0                 !
 ! A28   A(11,15,18)           111.1029         -DE/DX =    0.0                 !
 ! A29   A(16,15,17)           107.2325         -DE/DX =    0.0                 !
 ! A30   A(16,15,18)           107.0769         -DE/DX =    0.0                 !
 ! A31   A(17,15,18)           107.3424         -DE/DX =    0.0                 !
 ! D1    D(2,1,5,6)             51.0257         -DE/DX =    0.0                 !
 ! D2    D(2,1,5,7)            -65.0664         -DE/DX =    0.0                 !
 ! D3    D(2,1,5,8)            172.9288         -DE/DX =    0.0                 !
 ! D4    D(3,1,5,6)            -68.9894         -DE/DX =    0.0                 !
 ! D5    D(3,1,5,7)            174.9184         -DE/DX =    0.0                 !
 ! D6    D(3,1,5,8)             52.9136         -DE/DX =    0.0                 !
 ! D7    D(4,1,5,6)            171.4818         -DE/DX =    0.0                 !
 ! D8    D(4,1,5,7)             55.3896         -DE/DX =    0.0                 !
 ! D9    D(4,1,5,8)            -66.6152         -DE/DX =    0.0                 !
 ! D10   D(1,5,8,9)             54.4775         -DE/DX =    0.0                 !
 ! D11   D(1,5,8,10)           171.2737         -DE/DX =    0.0                 !
 ! D12   D(1,5,8,11)           -66.3408         -DE/DX =    0.0                 !
 ! D13   D(6,5,8,9)            176.6086         -DE/DX =    0.0                 !
 ! D14   D(6,5,8,10)           -66.5953         -DE/DX =    0.0                 !
 ! D15   D(6,5,8,11)            55.7902         -DE/DX =    0.0                 !
 ! D16   D(7,5,8,9)            -67.6166         -DE/DX =    0.0                 !
 ! D17   D(7,5,8,10)            49.1795         -DE/DX =    0.0                 !
 ! D18   D(7,5,8,11)           171.565          -DE/DX =    0.0                 !
 ! D19   D(5,8,10,12)          171.1759         -DE/DX =    0.0                 !
 ! D20   D(9,8,10,12)          -71.2927         -DE/DX =    0.0                 !
 ! D21   D(11,8,10,12)          49.9028         -DE/DX =    0.0                 !
 ! D22   D(5,8,11,13)          -71.3125         -DE/DX =    0.0                 !
 ! D23   D(5,8,11,14)           43.5559         -DE/DX =    0.0                 !
 ! D24   D(5,8,11,15)          165.1342         -DE/DX =    0.0                 !
 ! D25   D(9,8,11,13)          167.9688         -DE/DX =    0.0                 !
 ! D26   D(9,8,11,14)          -77.1629         -DE/DX =    0.0                 !
 ! D27   D(9,8,11,15)           44.4154         -DE/DX =    0.0                 !
 ! D28   D(10,8,11,13)          47.5048         -DE/DX =    0.0                 !
 ! D29   D(10,8,11,14)         162.3732         -DE/DX =    0.0                 !
 ! D30   D(10,8,11,15)         -76.0485         -DE/DX =    0.0                 !
 ! D31   D(8,11,15,16)          62.0613         -DE/DX =    0.0                 !
 ! D32   D(8,11,15,17)         -58.3306         -DE/DX =    0.0                 !
 ! D33   D(8,11,15,18)        -178.2082         -DE/DX =    0.0                 !
 ! D34   D(13,11,15,16)        -61.3983         -DE/DX =    0.0                 !
 ! D35   D(13,11,15,17)        178.2098         -DE/DX =    0.0                 !
 ! D36   D(13,11,15,18)         58.3323         -DE/DX =    0.0                 !
 ! D37   D(14,11,15,16)       -177.7199         -DE/DX =    0.0                 !
 ! D38   D(14,11,15,17)         61.8882         -DE/DX =    0.0                 !
 ! D39   D(14,11,15,18)        -57.9893         -DE/DX =    0.0                 !
 --------------------------------------------------------------------------------
 Lowest energy point so far.  Saving SCF results.
 Largest change from initial coordinates is atom   13       0.123 Angstoms.
 GradGradGradGradGradGradGradGradGradGradGradGradGradGradGradGradGradGrad

 Leave Link  103 at Wed Sep  7 15:36:31 2022, MaxMem=   131072000 cpu:               0.0 elap:               0.0
 (Enter /opt/g16/l202.exe)
                          Input orientation:                          
 ---------------------------------------------------------------------
 Center     Atomic      Atomic             Coordinates (Angstroms)
 Number     Number       Type             X           Y           Z
 ---------------------------------------------------------------------
      1          6           0        2.999495    2.341453   11.643027
      2          1           0        4.028166    2.588752   11.354715
      3          1           0        2.699737    3.030168   12.451421
      4          1           0        2.354385    2.551095   10.779887
      5          6           0        2.881912    0.903699   12.097465
      6          1           0        3.649893    0.680525   12.864725
      7          1           0        3.096339    0.218578   11.253485
      8          6           0        1.481770    0.617532   12.662800
      9          1           0        0.709321    0.903367   11.905151
     10          8           0        1.410056   -0.782578   12.864602
     11          6           0        1.248384    1.409779   13.960961
     12          1           0        0.605035   -0.944297   13.339528
     13          1           0        1.860776    0.986689   14.781681
     14          1           0        1.630795    2.443732   13.801072
     15          6           0       -0.208269    1.450451   14.360452
     16          1           0       -0.608033    0.447377   14.565596
     17          1           0       -0.833811    1.895673   13.574937
     18          1           0       -0.351952    2.047006   15.270496
 ---------------------------------------------------------------------
                    Distance matrix (angstroms):
                    1          2          3          4          5
     1  C    0.000000
     2  H    1.096560   0.000000
     3  H    1.103487   1.778296   0.000000
     4  H    1.097783   1.770138   1.772795   0.000000
     5  C    1.512441   2.169097   2.163410   2.174445   0.000000
     6  H    2.162001   2.462631   2.567964   3.086085   1.108282
     7  H    2.160491   2.548779   3.081782   2.493076   1.108004
     8  C    2.513033   3.475764   2.710893   2.836457   1.536845
     9  H    2.716928   3.762743   2.963688   2.586013   2.181086
    10  O    3.711891   4.527706   4.046112   4.043658   2.366091
    11  C    3.050775   3.988695   2.647791   3.555991   2.529259
    12  H    4.405418   5.304691   4.579616   4.672232   3.184647
    13  H    3.603223   4.359849   3.210884   4.324971   2.873086
    14  H    2.557530   3.428277   1.818819   3.108483   2.615200
    15  C    4.297445   5.317666   3.820524   4.538618   3.869014
    16  H    5.014299   6.032379   4.699137   5.247204   4.298793
    17  H    4.315696   5.389673   3.877542   4.290277   4.119895
    18  H    4.947467   5.900192   4.269262   5.267251   4.672596
                    6          7          8          9         10
     6  H    0.000000
     7  H    1.765194   0.000000
     8  C    2.178417   2.179947   0.000000
     9  H    3.101194   2.567384   1.119112   0.000000
    10  O    2.675357   2.538023   1.416395   2.062519   0.000000
    11  C    2.738757   3.487740   1.538618   2.184811   2.456536
    12  H    3.483769   3.451152   1.914662   2.341404   0.948561
    13  H    2.639961   3.816383   2.183936   3.099551   2.647384
    14  H    2.839437   3.686371   2.157053   2.610816   3.366716
    15  C    4.208966   4.700127   2.536140   2.677644   3.137350
    16  H    4.590997   4.974415   2.831406   3.003551   2.911848
    17  H    4.699424   4.862908   2.797776   2.480749   3.565465
    18  H    4.865158   5.600914   3.493710   3.709415   4.110905
                   11         12         13         14         15
    11  C    0.000000
    12  H    2.518283   0.000000
    13  H    1.107976   2.717609   0.000000
    14  H    1.113940   3.569867   1.771288   0.000000
    15  C    1.510988   2.727374   2.161818   2.163717   0.000000
    16  H    2.176714   2.216198   2.536251   3.095527   1.099115
    17  H    2.172704   3.192353   3.089221   2.534915   1.098435
    18  H    2.163796   3.686781   2.501875   2.499577   1.097590
                   16         17         18
    16  H    0.000000
    17  H    1.769164   0.000000
    18  H    1.766713   1.769184   0.000000
 Stoichiometry    C5H12O
 Framework group  C1[X(C5H12O)]
 Deg. of freedom    48
 Full point group                 C1      NOp   1
 RotChk:  IX=2 Diff= 6.50D-16
 Largest Abelian subgroup         C1      NOp   1
 Largest concise Abelian subgroup C1      NOp   1
                         Standard orientation:                         
 ---------------------------------------------------------------------
 Center     Atomic      Atomic             Coordinates (Angstroms)
 Number     Number       Type             X           Y           Z
 ---------------------------------------------------------------------
      1          6           0        2.120757   -0.915518    0.189088
      2          1           0        3.121461   -1.015132   -0.248077
      3          1           0        1.516991   -1.775412   -0.148151
      4          1           0        2.225899   -0.998024    1.278705
      5          6           0        1.466209    0.386332   -0.216166
      6          1           0        1.511228    0.511395   -1.316449
      7          1           0        2.029370    1.242987    0.204148
      8          6           0        0.004231    0.437747    0.254867
      9          1           0       -0.038098    0.249222    1.357173
     10          8           0       -0.448465    1.757639    0.011713
     11          6           0       -0.840441   -0.616798   -0.481210
     12          1           0       -1.383555    1.754159    0.170968
     13          1           0       -0.984487   -0.320049   -1.538944
     14          1           0       -0.252644   -1.562582   -0.510363
     15          6           0       -2.176264   -0.855443    0.183402
     16          1           0       -2.799775    0.049649    0.193286
     17          1           0       -2.060105   -1.181974    1.225728
     18          1           0       -2.745516   -1.633270   -0.341613
 ---------------------------------------------------------------------
 Rotational constants (GHZ):           4.6704853           2.4145700           1.7538237
 Leave Link  202 at Wed Sep  7 15:36:31 2022, MaxMem=   131072000 cpu:               0.0 elap:               0.0
 (Enter /opt/g16/l601.exe)
 Copying SCF densities to generalized density rwf, IOpCl= 0 IROHF=0.

 **********************************************************************

            Population analysis using the SCF density.

 **********************************************************************

 Orbital symmetries:
       Occupied  (A) (A) (A) (A) (A) (A) (A) (A) (A) (A) (A) (A)
                 (A) (A) (A) (A) (A) (A) (A)
       Virtual   (A) (A) (A) (A) (A) (A) (A) (A) (A) (A) (A) (A)
                 (A) (A) (A) (A) (A)
 The electronic state is 1-A.
 Alpha  occ. eigenvalues --   -1.48812  -1.26193  -1.19652  -0.93583  -0.82945
 Alpha  occ. eigenvalues --   -0.74483  -0.64721  -0.61274  -0.58735  -0.55703
 Alpha  occ. eigenvalues --   -0.53072  -0.51097  -0.49602  -0.48759  -0.47704
 Alpha  occ. eigenvalues --   -0.44361  -0.43967  -0.42572  -0.40113
 Alpha virt. eigenvalues --    0.11616   0.12648   0.13072   0.13454   0.13608
 Alpha virt. eigenvalues --    0.14648   0.14722   0.15277   0.15382   0.15724
 Alpha virt. eigenvalues --    0.16727   0.16975   0.17438   0.17845   0.18507
 Alpha virt. eigenvalues --    0.18577   0.21235
          Condensed to atoms (all electrons):
               1          2          3          4          5          6
     1  C    4.114782   0.000000   0.000000   0.000000   0.000000   0.000000
     2  H    0.000000   0.958740   0.000000   0.000000   0.000000   0.000000
     3  H    0.000000   0.000000   0.958298   0.000000   0.000000   0.000000
     4  H    0.000000   0.000000   0.000000   0.961270   0.000000   0.000000
     5  C    0.000000   0.000000   0.000000   0.000000   4.111970   0.000000
     6  H    0.000000   0.000000   0.000000   0.000000   0.000000   0.941519
     7  H    0.000000   0.000000   0.000000   0.000000   0.000000   0.000000
     8  C    0.000000   0.000000   0.000000   0.000000   0.000000   0.000000
     9  H    0.000000   0.000000   0.000000   0.000000   0.000000   0.000000
    10  O    0.000000   0.000000   0.000000   0.000000   0.000000   0.000000
    11  C    0.000000   0.000000   0.000000   0.000000   0.000000   0.000000
    12  H    0.000000   0.000000   0.000000   0.000000   0.000000   0.000000
    13  H    0.000000   0.000000   0.000000   0.000000   0.000000   0.000000
    14  H    0.000000   0.000000   0.000000   0.000000   0.000000   0.000000
    15  C    0.000000   0.000000   0.000000   0.000000   0.000000   0.000000
    16  H    0.000000   0.000000   0.000000   0.000000   0.000000   0.000000
    17  H    0.000000   0.000000   0.000000   0.000000   0.000000   0.000000
    18  H    0.000000   0.000000   0.000000   0.000000   0.000000   0.000000
               7          8          9         10         11         12
     1  C    0.000000   0.000000   0.000000   0.000000   0.000000   0.000000
     2  H    0.000000   0.000000   0.000000   0.000000   0.000000   0.000000
     3  H    0.000000   0.000000   0.000000   0.000000   0.000000   0.000000
     4  H    0.000000   0.000000   0.000000   0.000000   0.000000   0.000000
     5  C    0.000000   0.000000   0.000000   0.000000   0.000000   0.000000
     6  H    0.000000   0.000000   0.000000   0.000000   0.000000   0.000000
     7  H    0.935976   0.000000   0.000000   0.000000   0.000000   0.000000
     8  C    0.000000   3.920804   0.000000   0.000000   0.000000   0.000000
     9  H    0.000000   0.000000   0.956546   0.000000   0.000000   0.000000
    10  O    0.000000   0.000000   0.000000   6.313558   0.000000   0.000000
    11  C    0.000000   0.000000   0.000000   0.000000   4.156098   0.000000
    12  H    0.000000   0.000000   0.000000   0.000000   0.000000   0.811778
    13  H    0.000000   0.000000   0.000000   0.000000   0.000000   0.000000
    14  H    0.000000   0.000000   0.000000   0.000000   0.000000   0.000000
    15  C    0.000000   0.000000   0.000000   0.000000   0.000000   0.000000
    16  H    0.000000   0.000000   0.000000   0.000000   0.000000   0.000000
    17  H    0.000000   0.000000   0.000000   0.000000   0.000000   0.000000
    18  H    0.000000   0.000000   0.000000   0.000000   0.000000   0.000000
              13         14         15         16         17         18
     1  C    0.000000   0.000000   0.000000   0.000000   0.000000   0.000000
     2  H    0.000000   0.000000   0.000000   0.000000   0.000000   0.000000
     3  H    0.000000   0.000000   0.000000   0.000000   0.000000   0.000000
     4  H    0.000000   0.000000   0.000000   0.000000   0.000000   0.000000
     5  C    0.000000   0.000000   0.000000   0.000000   0.000000   0.000000
     6  H    0.000000   0.000000   0.000000   0.000000   0.000000   0.000000
     7  H    0.000000   0.000000   0.000000   0.000000   0.000000   0.000000
     8  C    0.000000   0.000000   0.000000   0.000000   0.000000   0.000000
     9  H    0.000000   0.000000   0.000000   0.000000   0.000000   0.000000
    10  O    0.000000   0.000000   0.000000   0.000000   0.000000   0.000000
    11  C    0.000000   0.000000   0.000000   0.000000   0.000000   0.000000
    12  H    0.000000   0.000000   0.000000   0.000000   0.000000   0.000000
    13  H    0.935031   0.000000   0.000000   0.000000   0.000000   0.000000
    14  H    0.000000   0.931194   0.000000   0.000000   0.000000   0.000000
    15  C    0.000000   0.000000   4.106914   0.000000   0.000000   0.000000
    16  H    0.000000   0.000000   0.000000   0.967205   0.000000   0.000000
    17  H    0.000000   0.000000   0.000000   0.000000   0.960036   0.000000
    18  H    0.000000   0.000000   0.000000   0.000000   0.000000   0.958281
 Mulliken charges:
               1
     1  C   -0.114782
     2  H    0.041260
     3  H    0.041702
     4  H    0.038730
     5  C   -0.111970
     6  H    0.058481
     7  H    0.064024
     8  C    0.079196
     9  H    0.043454
    10  O   -0.313558
    11  C   -0.156098
    12  H    0.188222
    13  H    0.064969
    14  H    0.068806
    15  C   -0.106914
    16  H    0.032795
    17  H    0.039964
    18  H    0.041719
 Sum of Mulliken charges =   0.00000
 Mulliken charges with hydrogens summed into heavy atoms:
               1
     1  C    0.006910
     5  C    0.010535
     8  C    0.122650
    10  O   -0.125335
    11  C   -0.022323
    15  C    0.007563
 Charge=              0.0000 electrons
 Dipole moment (field-independent basis, Debye):
    X=             -0.7652    Y=             -1.3379    Z=              0.3225  Tot=              1.5747
 N-N= 1.705297022285D+02 E-N=-2.554499999653D+02  KE=-5.969939290839D+01
 Leave Link  601 at Wed Sep  7 15:36:31 2022, MaxMem=   131072000 cpu:               0.0 elap:               0.0
 (Enter /opt/g16/l9999.exe)
 1\1\GINC-TOTEM2\FOpt\RPM3\ZDO\C5H12O1\JRAMOS\07-Sep-2022\0\\#p opt pm3
 \\Conformer number 022. Energy MM = 0.000 kcal/mol\\0,1\C,2.999495223,
 2.3414533619,11.6430268642\H,4.0281663547,2.5887521401,11.354714945\H,
 2.6997370018,3.0301678008,12.4514206393\H,2.3543852588,2.5510952418,10
 .7798871354\C,2.881911739,0.9036986973,12.097464603\H,3.6498927395,0.6
 80524557,12.8647249246\H,3.09633936,0.2185779231,11.2534846518\C,1.481
 7697844,0.6175316275,12.6628004881\H,0.7093212763,0.9033666245,11.9051
 505942\O,1.4100564884,-0.7825780047,12.8646021978\C,1.2483838386,1.409
 7789673,13.9609612203\H,0.6050345589,-0.9442967268,13.3395278742\H,1.8
 607760819,0.9866887894,14.7816810384\H,1.6307954836,2.4437323891,13.80
 10718469\C,-0.2082689388,1.4504514387,14.360451852\H,-0.6080333275,0.4
 473769244,14.5655961459\H,-0.8338112739,1.8956725344,13.5749366054\H,-
 0.3519516488,2.0470057144,15.2704963734\\Version=ES64L-G16RevA.03\Stat
 e=1-A\HF=-0.1184835\RMSD=7.937e-09\RMSF=6.051e-06\Dipole=-0.3515587,0.
 4681279,0.2026492\PG=C01 [X(C5H12O1)]\\@


 I think that all right-thinking people in this
 country are sick and tired of being told that
 ordinary, decent people are fed up in this country
 with being sick and tired.  I'm certainly not!
 But I'm sick and tired of being told that I am!
                               -- Monty Python
 Job cpu time:       0 days  0 hours  0 minutes  4.8 seconds.
 Elapsed time:       0 days  0 hours  0 minutes  9.8 seconds.
 File lengths (MBytes):  RWF=      6 Int=      0 D2E=      0 Chk=      2 Scr=      1
 Normal termination of Gaussian 16 at Wed Sep  7 15:36:31 2022.
