 Entering Gaussian System, Link 0=/opt/g16/g16
 Input=MD_extract_024_gaussian.com
 Output=MD_extract_024_gaussian.log
 Initial command:
 /opt/g16/l1.exe "/tmp/Gau-318349.inp" -scrdir="/tmp/"
 Entering Link 1 = /opt/g16/l1.exe PID=    318351.
  
 Copyright (c) 1988,1990,1992,1993,1995,1998,2003,2009,2016,
            Gaussian, Inc.  All Rights Reserved.
  
 This is part of the Gaussian(R) 16 program.  It is based on
 the Gaussian(R) 09 system (copyright 2009, Gaussian, Inc.),
 the Gaussian(R) 03 system (copyright 2003, Gaussian, Inc.),
 the Gaussian(R) 98 system (copyright 1998, Gaussian, Inc.),
 the Gaussian(R) 94 system (copyright 1995, Gaussian, Inc.),
 the Gaussian 92(TM) system (copyright 1992, Gaussian, Inc.),
 the Gaussian 90(TM) system (copyright 1990, Gaussian, Inc.),
 the Gaussian 88(TM) system (copyright 1988, Gaussian, Inc.),
 the Gaussian 86(TM) system (copyright 1986, Carnegie Mellon
 University), and the Gaussian 82(TM) system (copyright 1983,
 Carnegie Mellon University). Gaussian is a federally registered
 trademark of Gaussian, Inc.
  
 This software contains proprietary and confidential information,
 including trade secrets, belonging to Gaussian, Inc.
  
 This software is provided under written license and may be
 used, copied, transmitted, or stored only in accord with that
 written license.
  
 The following legend is applicable only to US Government
 contracts under FAR:
  
                    RESTRICTED RIGHTS LEGEND
  
 Use, reproduction and disclosure by the US Government is
 subject to restrictions as set forth in subparagraphs (a)
 and (c) of the Commercial Computer Software - Restricted
 Rights clause in FAR 52.227-19.
  
 Gaussian, Inc.
 340 Quinnipiac St., Bldg. 40, Wallingford CT 06492
  
  
 ---------------------------------------------------------------
 Warning -- This program may not be used in any manner that
 competes with the business of Gaussian, Inc. or will provide
 assistance to any competitor of Gaussian, Inc.  The licensee
 of this program is prohibited from giving any competitor of
 Gaussian, Inc. access to this program.  By using this program,
 the user acknowledges that Gaussian, Inc. is engaged in the
 business of creating and licensing software in the field of
 computational chemistry and represents and warrants to the
 licensee that it is not a competitor of Gaussian, Inc. and that
 it will not use this program in any manner prohibited above.
 ---------------------------------------------------------------
  

 Cite this work as:
 Gaussian 16, Revision A.03,
 M. J. Frisch, G. W. Trucks, H. B. Schlegel, G. E. Scuseria, 
 M. A. Robb, J. R. Cheeseman, G. Scalmani, V. Barone, 
 G. A. Petersson, H. Nakatsuji, X. Li, M. Caricato, A. V. Marenich, 
 J. Bloino, B. G. Janesko, R. Gomperts, B. Mennucci, H. P. Hratchian, 
 J. V. Ortiz, A. F. Izmaylov, J. L. Sonnenberg, D. Williams-Young, 
 F. Ding, F. Lipparini, F. Egidi, J. Goings, B. Peng, A. Petrone, 
 T. Henderson, D. Ranasinghe, V. G. Zakrzewski, J. Gao, N. Rega, 
 G. Zheng, W. Liang, M. Hada, M. Ehara, K. Toyota, R. Fukuda, 
 J. Hasegawa, M. Ishida, T. Nakajima, Y. Honda, O. Kitao, H. Nakai, 
 T. Vreven, K. Throssell, J. A. Montgomery, Jr., J. E. Peralta, 
 F. Ogliaro, M. J. Bearpark, J. J. Heyd, E. N. Brothers, K. N. Kudin, 
 V. N. Staroverov, T. A. Keith, R. Kobayashi, J. Normand, 
 K. Raghavachari, A. P. Rendell, J. C. Burant, S. S. Iyengar, 
 J. Tomasi, M. Cossi, J. M. Millam, M. Klene, C. Adamo, R. Cammi, 
 J. W. Ochterski, R. L. Martin, K. Morokuma, O. Farkas, 
 J. B. Foresman, and D. J. Fox, Gaussian, Inc., Wallingford CT, 2016.
 
 ******************************************
 Gaussian 16:  ES64L-G16RevA.03 25-Dec-2016
                 7-Sep-2022 
 ******************************************
 %chk=MD_extract_024_gaussian.chk
 %nproc=1
 Will use up to    1 processors via shared memory.
 %mem=1000Mb
 ----------
 #p opt pm3
 ----------
 1/18=20,19=15,26=1,38=1/1,3;
 2/9=110,12=2,17=6,18=5,40=1/2;
 3/5=2,25=1,41=800000,71=1/1,2,3;
 4/35=1/1;
 5/5=2,35=1,38=5/2;
 6/7=2,8=2,9=2,10=2,28=1/1;
 7//1,2,3,16;
 1/18=20,19=15,26=1/3(2);
 2/9=110/2;
 99//99;
 2/9=110/2;
 3/5=2,25=1,41=800000,71=1,135=20/1,2,3;
 4/5=5,16=3,35=1/1;
 5/5=2,35=1,38=5/2;
 7//1,2,3,16;
 1/18=20,19=15,26=1/3(-5);
 2/9=110/2;
 6/7=2,8=2,9=2,10=2,19=2,28=1/1;
 99/9=1/99;
 Leave Link    1 at Wed Sep  7 15:36:35 2022, MaxMem=   131072000 cpu:               0.0 elap:               0.0
 (Enter /opt/g16/l101.exe)
 ------------------------------------------------
 Conformer number 024. Energy MM = 0.000 kcal/mol
 ------------------------------------------------
 Symbolic Z-matrix:
 Charge =  0 Multiplicity = 1
 C                     5.673     3.207     2.413 
 H                     6.569     2.802     2.892 
 H                     5.247     3.975     3.047 
 H                     6.005     3.726     1.511 
 C                     4.64      2.088     2.217 
 H                     3.716     2.611     1.854 
 H                     4.344     1.75      3.276 
 C                     4.936     0.995     1.305 
 H                     5.668     0.367     1.762 
 O                     3.732     0.322     1.127 
 C                     5.497     1.324    -0.002 
 H                     3.907    -0.41      0.541 
 H                     4.703     1.805    -0.584 
 H                     6.257     2.149     0.163 
 C                     6.117     0.161    -0.697 
 H                     5.398    -0.592    -0.979 
 H                     6.911    -0.331    -0.08 
 H                     6.574     0.358    -1.73 
 
 ITRead=  0  0  0  0  0  0  0  0  0  0  0  0  0  0  0  0  0  0
 MicOpt= -1 -1 -1 -1 -1 -1 -1 -1 -1 -1 -1 -1 -1 -1 -1 -1 -1 -1
 NAtoms=     18 NQM=       18 NQMF=       0 NMMI=      0 NMMIF=      0
                NMic=       0 NMicF=      0.
                    Isotopes and Nuclear Properties:
 (Nuclear quadrupole moments (NQMom) in fm**2, nuclear magnetic moments (NMagM)
  in nuclear magnetons)

  Atom         1           2           3           4           5           6           7           8           9          10
 IAtWgt=          12           1           1           1          12           1           1          12           1          16
 AtmWgt=  12.0000000   1.0078250   1.0078250   1.0078250  12.0000000   1.0078250   1.0078250  12.0000000   1.0078250  15.9949146
 NucSpn=           0           1           1           1           0           1           1           0           1           0
 AtZEff=  -0.0000000  -0.0000000  -0.0000000  -0.0000000  -0.0000000  -0.0000000  -0.0000000  -0.0000000  -0.0000000  -0.0000000
 NQMom=    0.0000000   0.0000000   0.0000000   0.0000000   0.0000000   0.0000000   0.0000000   0.0000000   0.0000000   0.0000000
 NMagM=    0.0000000   2.7928460   2.7928460   2.7928460   0.0000000   2.7928460   2.7928460   0.0000000   2.7928460   0.0000000
 AtZNuc=   6.0000000   1.0000000   1.0000000   1.0000000   6.0000000   1.0000000   1.0000000   6.0000000   1.0000000   8.0000000

  Atom        11          12          13          14          15          16          17          18
 IAtWgt=          12           1           1           1          12           1           1           1
 AtmWgt=  12.0000000   1.0078250   1.0078250   1.0078250  12.0000000   1.0078250   1.0078250   1.0078250
 NucSpn=           0           1           1           1           0           1           1           1
 AtZEff=  -0.0000000  -0.0000000  -0.0000000  -0.0000000  -0.0000000  -0.0000000  -0.0000000  -0.0000000
 NQMom=    0.0000000   0.0000000   0.0000000   0.0000000   0.0000000   0.0000000   0.0000000   0.0000000
 NMagM=    0.0000000   2.7928460   2.7928460   2.7928460   0.0000000   2.7928460   2.7928460   2.7928460
 AtZNuc=   6.0000000   1.0000000   1.0000000   1.0000000   6.0000000   1.0000000   1.0000000   1.0000000
 Leave Link  101 at Wed Sep  7 15:36:35 2022, MaxMem=   131072000 cpu:               0.1 elap:               0.1
 (Enter /opt/g16/l103.exe)

 GradGradGradGradGradGradGradGradGradGradGradGradGradGradGradGradGradGrad
 Berny optimization.
 Initialization pass.
                           ----------------------------
                           !    Initial Parameters    !
                           ! (Angstroms and Degrees)  !
 --------------------------                            --------------------------
 ! Name  Definition              Value          Derivative Info.                !
 --------------------------------------------------------------------------------
 ! R1    R(1,2)                  1.0937         estimate D2E/DX2                !
 ! R2    R(1,3)                  1.0832         estimate D2E/DX2                !
 ! R3    R(1,4)                  1.0923         estimate D2E/DX2                !
 ! R4    R(1,5)                  1.5355         estimate D2E/DX2                !
 ! R5    R(5,6)                  1.1221         estimate D2E/DX2                !
 ! R6    R(5,7)                  1.1504         estimate D2E/DX2                !
 ! R7    R(5,8)                  1.454          estimate D2E/DX2                !
 ! R8    R(8,9)                  1.0673         estimate D2E/DX2                !
 ! R9    R(8,10)                 1.3908         estimate D2E/DX2                !
 ! R10   R(8,11)                 1.4599         estimate D2E/DX2                !
 ! R11   R(10,12)                0.9539         estimate D2E/DX2                !
 ! R12   R(11,13)                1.0957         estimate D2E/DX2                !
 ! R13   R(11,14)                1.1338         estimate D2E/DX2                !
 ! R14   R(11,15)                1.49           estimate D2E/DX2                !
 ! R15   R(15,16)                1.0787         estimate D2E/DX2                !
 ! R16   R(15,17)                1.1195         estimate D2E/DX2                !
 ! R17   R(15,18)                1.1466         estimate D2E/DX2                !
 ! A1    A(2,1,3)              109.1712         estimate D2E/DX2                !
 ! A2    A(2,1,4)              106.7732         estimate D2E/DX2                !
 ! A3    A(2,1,5)              109.7049         estimate D2E/DX2                !
 ! A4    A(3,1,4)              105.4255         estimate D2E/DX2                !
 ! A5    A(3,1,5)              109.0773         estimate D2E/DX2                !
 ! A6    A(4,1,5)              116.4444         estimate D2E/DX2                !
 ! A7    A(1,5,6)              104.8099         estimate D2E/DX2                !
 ! A8    A(1,5,7)              105.6478         estimate D2E/DX2                !
 ! A9    A(1,5,8)              119.403          estimate D2E/DX2                !
 ! A10   A(6,5,7)              102.8779         estimate D2E/DX2                !
 ! A11   A(6,5,8)              108.3673         estimate D2E/DX2                !
 ! A12   A(7,5,8)              114.1383         estimate D2E/DX2                !
 ! A13   A(5,8,9)              108.263          estimate D2E/DX2                !
 ! A14   A(5,8,10)             105.5339         estimate D2E/DX2                !
 ! A15   A(5,8,11)             118.0595         estimate D2E/DX2                !
 ! A16   A(9,8,10)             111.3352         estimate D2E/DX2                !
 ! A17   A(9,8,11)             104.6197         estimate D2E/DX2                !
 ! A18   A(10,8,11)            109.0956         estimate D2E/DX2                !
 ! A19   A(8,10,12)            106.9271         estimate D2E/DX2                !
 ! A20   A(8,11,13)            107.2183         estimate D2E/DX2                !
 ! A21   A(8,11,14)            106.9351         estimate D2E/DX2                !
 ! A22   A(8,11,15)            113.6788         estimate D2E/DX2                !
 ! A23   A(13,11,14)           104.1006         estimate D2E/DX2                !
 ! A24   A(13,11,15)           113.3556         estimate D2E/DX2                !
 ! A25   A(14,11,15)           110.9115         estimate D2E/DX2                !
 ! A26   A(11,15,16)           112.9219         estimate D2E/DX2                !
 ! A27   A(11,15,17)           112.402          estimate D2E/DX2                !
 ! A28   A(11,15,18)           116.8703         estimate D2E/DX2                !
 ! A29   A(16,15,17)           108.063          estimate D2E/DX2                !
 ! A30   A(16,15,18)            98.6314         estimate D2E/DX2                !
 ! A31   A(17,15,18)           106.8199         estimate D2E/DX2                !
 ! D1    D(2,1,5,6)            172.6396         estimate D2E/DX2                !
 ! D2    D(2,1,5,7)             64.3715         estimate D2E/DX2                !
 ! D3    D(2,1,5,8)            -65.8184         estimate D2E/DX2                !
 ! D4    D(3,1,5,6)             53.1049         estimate D2E/DX2                !
 ! D5    D(3,1,5,7)            -55.1632         estimate D2E/DX2                !
 ! D6    D(3,1,5,8)            174.647          estimate D2E/DX2                !
 ! D7    D(4,1,5,6)            -65.9954         estimate D2E/DX2                !
 ! D8    D(4,1,5,7)           -174.2635         estimate D2E/DX2                !
 ! D9    D(4,1,5,8)             55.5466         estimate D2E/DX2                !
 ! D10   D(1,5,8,9)             73.0556         estimate D2E/DX2                !
 ! D11   D(1,5,8,10)          -167.6448         estimate D2E/DX2                !
 ! D12   D(1,5,8,11)           -45.4404         estimate D2E/DX2                !
 ! D13   D(6,5,8,9)           -167.1912         estimate D2E/DX2                !
 ! D14   D(6,5,8,10)           -47.8917         estimate D2E/DX2                !
 ! D15   D(6,5,8,11)            74.3127         estimate D2E/DX2                !
 ! D16   D(7,5,8,9)            -53.2296         estimate D2E/DX2                !
 ! D17   D(7,5,8,10)            66.07           estimate D2E/DX2                !
 ! D18   D(7,5,8,11)          -171.7256         estimate D2E/DX2                !
 ! D19   D(5,8,10,12)         -179.1038         estimate D2E/DX2                !
 ! D20   D(9,8,10,12)          -61.8611         estimate D2E/DX2                !
 ! D21   D(11,8,10,12)          53.0981         estimate D2E/DX2                !
 ! D22   D(5,8,11,13)          -70.3392         estimate D2E/DX2                !
 ! D23   D(5,8,11,14)           40.8212         estimate D2E/DX2                !
 ! D24   D(5,8,11,15)          163.5683         estimate D2E/DX2                !
 ! D25   D(9,8,11,13)          169.26           estimate D2E/DX2                !
 ! D26   D(9,8,11,14)          -79.5796         estimate D2E/DX2                !
 ! D27   D(9,8,11,15)           43.1675         estimate D2E/DX2                !
 ! D28   D(10,8,11,13)          50.0379         estimate D2E/DX2                !
 ! D29   D(10,8,11,14)         161.1983         estimate D2E/DX2                !
 ! D30   D(10,8,11,15)         -76.0546         estimate D2E/DX2                !
 ! D31   D(8,11,15,16)          66.5379         estimate D2E/DX2                !
 ! D32   D(8,11,15,17)         -56.0393         estimate D2E/DX2                !
 ! D33   D(8,11,15,18)         179.924          estimate D2E/DX2                !
 ! D34   D(13,11,15,16)        -56.2436         estimate D2E/DX2                !
 ! D35   D(13,11,15,17)       -178.8208         estimate D2E/DX2                !
 ! D36   D(13,11,15,18)         57.1424         estimate D2E/DX2                !
 ! D37   D(14,11,15,16)       -172.9279         estimate D2E/DX2                !
 ! D38   D(14,11,15,17)         64.4948         estimate D2E/DX2                !
 ! D39   D(14,11,15,18)        -59.5419         estimate D2E/DX2                !
 --------------------------------------------------------------------------------
 Trust Radius=3.00D-01 FncErr=1.00D-07 GrdErr=1.00D-07 EigMax=2.50D+02 EigMin=1.00D-04
 Number of steps in this run=     97 maximum allowed number of steps=    108.
 GradGradGradGradGradGradGradGradGradGradGradGradGradGradGradGradGradGrad

 Leave Link  103 at Wed Sep  7 15:36:35 2022, MaxMem=   131072000 cpu:               0.0 elap:               0.0
 (Enter /opt/g16/l202.exe)
                          Input orientation:                          
 ---------------------------------------------------------------------
 Center     Atomic      Atomic             Coordinates (Angstroms)
 Number     Number       Type             X           Y           Z
 ---------------------------------------------------------------------
      1          6           0        5.673000    3.207000    2.413000
      2          1           0        6.569000    2.802000    2.892000
      3          1           0        5.247000    3.975000    3.047000
      4          1           0        6.005000    3.726000    1.511000
      5          6           0        4.640000    2.088000    2.217000
      6          1           0        3.716000    2.611000    1.854000
      7          1           0        4.344000    1.750000    3.276000
      8          6           0        4.936000    0.995000    1.305000
      9          1           0        5.668000    0.367000    1.762000
     10          8           0        3.732000    0.322000    1.127000
     11          6           0        5.497000    1.324000   -0.002000
     12          1           0        3.907000   -0.410000    0.541000
     13          1           0        4.703000    1.805000   -0.584000
     14          1           0        6.257000    2.149000    0.163000
     15          6           0        6.117000    0.161000   -0.697000
     16          1           0        5.398000   -0.592000   -0.979000
     17          1           0        6.911000   -0.331000   -0.080000
     18          1           0        6.574000    0.358000   -1.730000
 ---------------------------------------------------------------------
                    Distance matrix (angstroms):
                    1          2          3          4          5
     1  C    0.000000
     2  H    1.093747   0.000000
     3  H    1.083169   1.774158   0.000000
     4  H    1.092332   1.754717   1.730856   0.000000
     5  C    1.535469   2.164824   2.148981   2.246042   0.000000
     6  H    2.120742   3.041962   2.372279   2.569123   1.122085
     7  H    2.152640   2.490941   2.412152   3.127095   1.150366
     8  C    2.581429   2.906976   3.465788   2.939993   1.453963
     9  H    2.913662   2.831594   3.853068   3.385181   2.055639
    10  O    3.707358   4.161033   4.396139   4.111107   2.265242
    11  C    3.067391   3.421828   4.048049   2.883893   2.498421
    12  H    4.439125   4.788569   5.225310   4.738038   3.096170
    13  H    3.447972   4.069219   4.264856   3.126415   2.815965
    14  H    2.554001   2.823330   3.559752   2.089865   2.614828
    15  C    4.375769   4.478851   5.414890   4.194882   3.792922
    16  H    5.100362   5.279689   6.090071   5.021322   4.239266
    17  H    4.501682   4.331909   5.575721   4.450996   4.035494
    18  H    5.108136   5.228388   6.137047   4.708637   4.723565
                    6          7          8          9         10
     6  H    0.000000
     7  H    1.777017   0.000000
     8  C    2.097917   2.192106   0.000000
     9  H    2.975618   2.440873   1.067266   0.000000
    10  O    2.401730   2.651778   1.390766   2.037976   0.000000
    11  C    2.876294   3.500881   1.459867   2.014146   2.322471
    12  H    3.299529   3.512377   1.901726   2.279406   0.953858
    13  H    2.750936   3.877049   2.068504   2.915954   2.463666
    14  H    3.087006   3.675532   2.093065   2.465613   3.262338
    15  C    4.274915   4.631758   2.469478   2.508130   3.006846
    16  H    4.595021   4.970001   2.819338   2.916447   2.836580
    17  H    4.754340   4.709861   2.752658   2.329210   3.462557
    18  H    5.107762   5.654255   3.507141   3.607628   4.029976
                   11         12         13         14         15
    11  C    0.000000
    12  H    2.414478   0.000000
    13  H    1.095683   2.608729   0.000000
    14  H    1.133777   3.494834   1.758198   0.000000
    15  C    1.489964   2.596687   2.171382   2.170563   0.000000
    16  H    2.152995   2.136962   2.526788   3.091137   1.078654
    17  H    2.178188   3.068534   3.113162   2.576270   1.119459
    18  H    2.253679   3.586106   2.628263   2.625189   1.146624
                   16         17         18
    16  H    0.000000
    17  H    1.779183   0.000000
    18  H    1.688039   1.819558   0.000000
 Stoichiometry    C5H12O
 Framework group  C1[X(C5H12O)]
 Deg. of freedom    48
 Full point group                 C1      NOp   1
 Largest Abelian subgroup         C1      NOp   1
 Largest concise Abelian subgroup C1      NOp   1
                         Standard orientation:                         
 ---------------------------------------------------------------------
 Center     Atomic      Atomic             Coordinates (Angstroms)
 Number     Number       Type             X           Y           Z
 ---------------------------------------------------------------------
      1          6           0        2.208082   -0.867903    0.046674
      2          1           0        2.203432   -1.278703    1.060332
      3          1           0        3.229613   -0.662529   -0.249217
      4          1           0        1.867722   -1.665053   -0.618079
      5          6           0        1.403680    0.439595    0.014240
      6          1           0        1.575467    0.856624   -1.013208
      7          1           0        1.977868    1.173950    0.688311
      8          6           0       -0.028874    0.402635    0.260070
      9          1           0       -0.185168    0.222921    1.300422
     10          8           0       -0.503394    1.655312   -0.113909
     11          6           0       -0.814929   -0.626546   -0.413810
     12          1           0       -1.442532    1.657727    0.053002
     13          1           0       -0.843708   -0.367758   -1.478104
     14          1           0       -0.206720   -1.582725   -0.378394
     15          6           0       -2.165498   -0.833020    0.180601
     16          1           0       -2.814508    0.019349    0.055113
     17          1           0       -2.118521   -1.075763    1.272415
     18          1           0       -2.830555   -1.629102   -0.307969
 ---------------------------------------------------------------------
 Rotational constants (GHZ):           5.1226323           2.3876579           1.7695772
 Leave Link  202 at Wed Sep  7 15:36:35 2022, MaxMem=   131072000 cpu:               0.0 elap:               0.0
 (Enter /opt/g16/l301.exe)
 Standard basis: VSTO-6G (5D, 7F)
 Ernie: Thresh=  0.10000D-02 Tol=  0.10000D-05 Strict=F.
  NNHCO=     0 NNPyr=     0 NCTC=     0               EPep=         0.000000000
    EC=       129.642543391  ECS=         2.308566366   EG=         0.571897206
   EHC=         0.000000000  EAt=       -36.836480110  AtH=         2.452923921
 EPDDG=         0.000000000  ECC=       132.523006964 EAtT=        39.289404030
 There are    36 symmetry adapted cartesian basis functions of A   symmetry.
 There are    36 symmetry adapted basis functions of A   symmetry.
    36 basis functions,   216 primitive gaussians,    36 cartesian basis functions
    19 alpha electrons       19 beta electrons
       nuclear repulsion energy       171.8124109942 Hartrees.
 IExCor=    0 DFT=F Ex=HF Corr=None ExCW=0 ScaHFX=  1.000000
 ScaDFX=  1.000000  1.000000  1.000000  1.000000 ScalE2=  1.000000  1.000000
 IRadAn=      5 IRanWt=     -1 IRanGd=            0 ICorTp=0 IEmpDi=  4
 Integral buffers will be    131072 words long.
 Regular integral format.
 Two-electron integral symmetry is turned off.
 Leave Link  301 at Wed Sep  7 15:36:35 2022, MaxMem=   131072000 cpu:               0.0 elap:               0.0
 (Enter /opt/g16/l302.exe)
 Do NDO integrals.
 NPDir=0 NMtPBC=     1 NCelOv=     1 NCel=       1 NClECP=     1 NCelD=      1
         NCelK=      1 NCelE2=     1 NClLst=     1 CellRange=     0.0.
 One-electron integrals computed using PRISM.
 NBasis=    36 RedAO= F EigKep=  0.00D+00  NBF=    36
 NBsUse=    36 1.00D-04 EigRej=  0.00D+00 NBFU=    36
 Leave Link  302 at Wed Sep  7 15:36:35 2022, MaxMem=   131072000 cpu:               0.0 elap:               0.0
 (Enter /opt/g16/l303.exe)
 DipDrv:  MaxL=1.
 Leave Link  303 at Wed Sep  7 15:36:35 2022, MaxMem=   131072000 cpu:               0.0 elap:               0.0
 (Enter /opt/g16/l401.exe)
 Simple Huckel Guess.
 JPrj=0 DoOrth=F DoCkMO=F.
 Leave Link  401 at Wed Sep  7 15:36:35 2022, MaxMem=   131072000 cpu:               0.0 elap:               0.0
 (Enter /opt/g16/l502.exe)
 Keep J ints in memory in canonical form, NReq=862161.
 FoFCou: FMM=F IPFlag=           0 FMFlag=           0 FMFlg1=           0
         NFxFlg=           0 DoJE=F BraDBF=F KetDBF=F FulRan=T
         wScrn=  0.000000 ICntrl=       600 IOpCl=  2 I1Cent=           0 NGrid=           0
         NMat0=    1 NMatS0=     72 NMatT0=    0 NMatD0=    1 NMtDS0=    0 NMtDT0=    0
 Symmetry not used in FoFCou.
 Two-electron integral symmetry not used.
 Closed shell SCF:
 Using DIIS extrapolation, IDIIS=  1040.
 Overlap will be assumed to be unity.
 NGot=   131072000 LenX=   131006778 LenY=   131005041
 Requested convergence on RMS density matrix=1.00D-08 within 128 cycles.
 Requested convergence on MAX density matrix=1.00D-06.
 Requested convergence on             energy=1.00D-06.
 No special actions if energy rises.

 Cycle   1  Pass 1  IDiag  1:
 E= 0.189443051964844    
 DIIS: error= 7.14D-02 at cycle   1 NSaved=   1.
 NSaved= 1 IEnMin= 1 EnMin= 0.189443051964844     IErMin= 1 ErrMin= 7.14D-02
 ErrMax= 7.14D-02  0.00D+00 EMaxC= 1.00D-01 BMatC= 1.09D-01 BMatP= 1.09D-01
 IDIUse=3 WtCom= 2.86D-01 WtEn= 7.14D-01
 Coeff-Com:  0.100D+01
 Coeff-En:   0.100D+01
 Coeff:      0.100D+01
 GapD=    2.000 DampG=2.000 DampE=0.500 DampFc=1.0000 IDamp=-1.
 RMSDP=1.26D-02 MaxDP=1.52D-01              OVMax= 0.00D+00

 Cycle   2  Pass 1  IDiag  1:
 E=-0.690609171091126E-01 Delta-E=       -0.258503969074 Rises=F Damp=F
 DIIS: error= 1.41D-02 at cycle   2 NSaved=   2.
 NSaved= 2 IEnMin= 2 EnMin=-0.690609171091126E-01 IErMin= 2 ErrMin= 1.41D-02
 ErrMax= 1.41D-02  0.00D+00 EMaxC= 1.00D-01 BMatC= 7.09D-03 BMatP= 1.09D-01
 IDIUse=3 WtCom= 8.59D-01 WtEn= 1.41D-01
 Coeff-Com: -0.304D+00 0.130D+01
 Coeff-En:   0.000D+00 0.100D+01
 Coeff:     -0.262D+00 0.126D+01
 RMSDP=4.62D-03 MaxDP=4.85D-02 DE=-2.59D-01 OVMax= 0.00D+00

 Cycle   3  Pass 1  IDiag  3:
 E=-0.908372118466616E-01 Delta-E=       -0.021776294738 Rises=F Damp=F
 DIIS: error= 3.24D-03 at cycle   3 NSaved=   3.
 NSaved= 3 IEnMin= 3 EnMin=-0.908372118466616E-01 IErMin= 3 ErrMin= 3.24D-03
 ErrMax= 3.24D-03  0.00D+00 EMaxC= 1.00D-01 BMatC= 2.18D-04 BMatP= 7.09D-03
 IDIUse=3 WtCom= 9.68D-01 WtEn= 3.24D-02
 Coeff-Com:  0.142D+00-0.694D+00 0.155D+01
 Coeff-En:   0.000D+00 0.000D+00 0.100D+01
 Coeff:      0.137D+00-0.671D+00 0.153D+01
 Gap=     0.510 Goal=   None    Shift=    0.000
 RMSDP=1.31D-03 MaxDP=1.40D-02 DE=-2.18D-02 OVMax= 7.59D-03

 Cycle   4  Pass 1  IDiag  3:
 E=-0.919774364288060E-01 Delta-E=       -0.001140224582 Rises=F Damp=F
 DIIS: error= 6.82D-04 at cycle   4 NSaved=   4.
 NSaved= 4 IEnMin= 4 EnMin=-0.919774364288060E-01 IErMin= 4 ErrMin= 6.82D-04
 ErrMax= 6.82D-04  0.00D+00 EMaxC= 1.00D-01 BMatC= 9.04D-06 BMatP= 2.18D-04
 IDIUse=3 WtCom= 9.93D-01 WtEn= 6.82D-03
 Coeff-Com: -0.296D-01 0.160D+00-0.540D+00 0.141D+01
 Coeff-En:   0.000D+00 0.000D+00 0.000D+00 0.100D+01
 Coeff:     -0.294D-01 0.159D+00-0.536D+00 0.141D+01
 Gap=     0.511 Goal=   None    Shift=    0.000
 RMSDP=3.11D-04 MaxDP=3.05D-03 DE=-1.14D-03 OVMax= 2.03D-03

 Cycle   5  Pass 1  IDiag  3:
 E=-0.920299143491548E-01 Delta-E=       -0.000052477920 Rises=F Damp=F
 DIIS: error= 1.25D-04 at cycle   5 NSaved=   5.
 NSaved= 5 IEnMin= 5 EnMin=-0.920299143491548E-01 IErMin= 5 ErrMin= 1.25D-04
 ErrMax= 1.25D-04  0.00D+00 EMaxC= 1.00D-01 BMatC= 2.97D-07 BMatP= 9.04D-06
 IDIUse=3 WtCom= 9.99D-01 WtEn= 1.25D-03
 Coeff-Com:  0.193D-02-0.136D-01 0.778D-01-0.372D+00 0.131D+01
 Coeff-En:   0.000D+00 0.000D+00 0.000D+00 0.000D+00 0.100D+01
 Coeff:      0.193D-02-0.136D-01 0.777D-01-0.371D+00 0.131D+01
 Gap=     0.511 Goal=   None    Shift=    0.000
 RMSDP=5.25D-05 MaxDP=5.94D-04 DE=-5.25D-05 OVMax= 3.79D-04

 Cycle   6  Pass 1  IDiag  3:
 E=-0.920315920182304E-01 Delta-E=       -0.000001677669 Rises=F Damp=F
 DIIS: error= 4.11D-05 at cycle   6 NSaved=   6.
 NSaved= 6 IEnMin= 6 EnMin=-0.920315920182304E-01 IErMin= 6 ErrMin= 4.11D-05
 ErrMax= 4.11D-05  0.00D+00 EMaxC= 1.00D-01 BMatC= 2.25D-08 BMatP= 2.97D-07
 IDIUse=1 WtCom= 1.00D+00 WtEn= 0.00D+00
 Coeff-Com: -0.340D-03 0.334D-02-0.267D-01 0.154D+00-0.721D+00 0.159D+01
 Coeff:     -0.340D-03 0.334D-02-0.267D-01 0.154D+00-0.721D+00 0.159D+01
 Gap=     0.511 Goal=   None    Shift=    0.000
 RMSDP=1.63D-05 MaxDP=2.38D-04 DE=-1.68D-06 OVMax= 1.33D-04

 Cycle   7  Pass 1  IDiag  3:
 E=-0.920317345429567E-01 Delta-E=       -0.000000142525 Rises=F Damp=F
 DIIS: error= 7.72D-06 at cycle   7 NSaved=   7.
 NSaved= 7 IEnMin= 7 EnMin=-0.920317345429567E-01 IErMin= 7 ErrMin= 7.72D-06
 ErrMax= 7.72D-06  0.00D+00 EMaxC= 1.00D-01 BMatC= 1.45D-09 BMatP= 2.25D-08
 IDIUse=1 WtCom= 1.00D+00 WtEn= 0.00D+00
 Coeff-Com:  0.155D-03-0.155D-02 0.127D-01-0.740D-01 0.367D+00-0.984D+00
 Coeff-Com:  0.168D+01
 Coeff:      0.155D-03-0.155D-02 0.127D-01-0.740D-01 0.367D+00-0.984D+00
 Coeff:      0.168D+01
 Gap=     0.511 Goal=   None    Shift=    0.000
 RMSDP=4.51D-06 MaxDP=5.91D-05 DE=-1.43D-07 OVMax= 3.52D-05

 Cycle   8  Pass 1  IDiag  3:
 E=-0.920317438040854E-01 Delta-E=       -0.000000009261 Rises=F Damp=F
 DIIS: error= 8.25D-07 at cycle   8 NSaved=   8.
 NSaved= 8 IEnMin= 8 EnMin=-0.920317438040854E-01 IErMin= 8 ErrMin= 8.25D-07
 ErrMax= 8.25D-07  0.00D+00 EMaxC= 1.00D-01 BMatC= 4.96D-11 BMatP= 1.45D-09
 IDIUse=1 WtCom= 1.00D+00 WtEn= 0.00D+00
 Coeff-Com: -0.550D-04 0.618D-03-0.538D-02 0.319D-01-0.162D+00 0.449D+00
 Coeff-Com: -0.877D+00 0.156D+01
 Coeff:     -0.550D-04 0.618D-03-0.538D-02 0.319D-01-0.162D+00 0.449D+00
 Coeff:     -0.877D+00 0.156D+01
 Gap=     0.511 Goal=   None    Shift=    0.000
 RMSDP=7.74D-07 MaxDP=6.34D-06 DE=-9.26D-09 OVMax= 4.53D-06

 Cycle   9  Pass 1  IDiag  3:
 E=-0.920317441166105E-01 Delta-E=       -0.000000000313 Rises=F Damp=F
 DIIS: error= 2.05D-07 at cycle   9 NSaved=   9.
 NSaved= 9 IEnMin= 9 EnMin=-0.920317441166105E-01 IErMin= 9 ErrMin= 2.05D-07
 ErrMax= 2.05D-07  0.00D+00 EMaxC= 1.00D-01 BMatC= 2.81D-12 BMatP= 4.96D-11
 IDIUse=1 WtCom= 1.00D+00 WtEn= 0.00D+00
 Coeff-Com:  0.168D-04-0.225D-03 0.213D-02-0.129D-01 0.663D-01-0.188D+00
 Coeff-Com:  0.379D+00-0.825D+00 0.158D+01
 Coeff:      0.168D-04-0.225D-03 0.213D-02-0.129D-01 0.663D-01-0.188D+00
 Coeff:      0.379D+00-0.825D+00 0.158D+01
 Gap=     0.511 Goal=   None    Shift=    0.000
 RMSDP=1.90D-07 MaxDP=1.36D-06 DE=-3.13D-10 OVMax= 1.30D-06

 Cycle  10  Pass 1  IDiag  3:
 E=-0.920317441353404E-01 Delta-E=       -0.000000000019 Rises=F Damp=F
 DIIS: error= 5.93D-08 at cycle  10 NSaved=  10.
 NSaved=10 IEnMin=10 EnMin=-0.920317441353404E-01 IErMin=10 ErrMin= 5.93D-08
 ErrMax= 5.93D-08  0.00D+00 EMaxC= 1.00D-01 BMatC= 1.82D-13 BMatP= 2.81D-12
 IDIUse=1 WtCom= 1.00D+00 WtEn= 0.00D+00
 Coeff-Com: -0.621D-05 0.894D-04-0.871D-03 0.532D-02-0.276D-01 0.787D-01
 Coeff-Com: -0.160D+00 0.366D+00-0.879D+00 0.162D+01
 Coeff:     -0.621D-05 0.894D-04-0.871D-03 0.532D-02-0.276D-01 0.787D-01
 Coeff:     -0.160D+00 0.366D+00-0.879D+00 0.162D+01
 Gap=     0.511 Goal=   None    Shift=    0.000
 RMSDP=5.14D-08 MaxDP=4.16D-07 DE=-1.87D-11 OVMax= 3.81D-07

 Cycle  11  Pass 1  IDiag  3:
 E=-0.920317441361931E-01 Delta-E=       -0.000000000001 Rises=F Damp=F
 DIIS: error= 1.41D-08 at cycle  11 NSaved=  11.
 NSaved=11 IEnMin=11 EnMin=-0.920317441361931E-01 IErMin=11 ErrMin= 1.41D-08
 ErrMax= 1.41D-08  0.00D+00 EMaxC= 1.00D-01 BMatC= 9.34D-15 BMatP= 1.82D-13
 IDIUse=1 WtCom= 1.00D+00 WtEn= 0.00D+00
 Coeff-Com:  0.200D-05-0.281D-04 0.271D-03-0.165D-02 0.860D-02-0.246D-01
 Coeff-Com:  0.502D-01-0.116D+00 0.300D+00-0.721D+00 0.150D+01
 Coeff:      0.200D-05-0.281D-04 0.271D-03-0.165D-02 0.860D-02-0.246D-01
 Coeff:      0.502D-01-0.116D+00 0.300D+00-0.721D+00 0.150D+01
 Gap=     0.511 Goal=   None    Shift=    0.000
 RMSDP=1.13D-08 MaxDP=9.46D-08 DE=-8.53D-13 OVMax= 8.74D-08

 Cycle  12  Pass 1  IDiag  3:
 E=-0.920317441364489E-01 Delta-E=       -0.000000000000 Rises=F Damp=F
 DIIS: error= 4.28D-09 at cycle  12 NSaved=  12.
 NSaved=12 IEnMin=12 EnMin=-0.920317441364489E-01 IErMin=12 ErrMin= 4.28D-09
 ErrMax= 4.28D-09  0.00D+00 EMaxC= 1.00D-01 BMatC= 5.00D-16 BMatP= 9.34D-15
 IDIUse=1 WtCom= 1.00D+00 WtEn= 0.00D+00
 Coeff-Com: -0.422D-06 0.589D-05-0.567D-04 0.346D-03-0.181D-02 0.519D-02
 Coeff-Com: -0.106D-01 0.243D-01-0.671D-01 0.192D+00-0.604D+00 0.146D+01
 Coeff:     -0.422D-06 0.589D-05-0.567D-04 0.346D-03-0.181D-02 0.519D-02
 Coeff:     -0.106D-01 0.243D-01-0.671D-01 0.192D+00-0.604D+00 0.146D+01
 Gap=     0.511 Goal=   None    Shift=    0.000
 RMSDP=2.53D-09 MaxDP=2.86D-08 DE=-2.56D-13 OVMax= 2.04D-08

 Cycle  13  Pass 2  IDiag  1:
 SCF Done:  E(RPM3) = -0.920317441364E-01 A.U. after   13 cycles
            NFock= 12  Conv=0.25D-08     -V/T= 0.9985
 KE=-5.974108279812D+01 PE=-2.577773850268D+02 EE= 1.456140250866D+02
 Leave Link  502 at Wed Sep  7 15:36:35 2022, MaxMem=   131072000 cpu:               0.0 elap:               0.0
 (Enter /opt/g16/l601.exe)
 Copying SCF densities to generalized density rwf, IOpCl= 0 IROHF=0.

 **********************************************************************

            Population analysis using the SCF density.

 **********************************************************************

 Orbital symmetries:
       Occupied  (A) (A) (A) (A) (A) (A) (A) (A) (A) (A) (A) (A)
                 (A) (A) (A) (A) (A) (A) (A)
       Virtual   (A) (A) (A) (A) (A) (A) (A) (A) (A) (A) (A) (A)
                 (A) (A) (A) (A) (A)
 The electronic state is 1-A.
 Alpha  occ. eigenvalues --   -1.52411  -1.25656  -1.19872  -0.95848  -0.84082
 Alpha  occ. eigenvalues --   -0.73444  -0.66446  -0.61991  -0.59465  -0.56102
 Alpha  occ. eigenvalues --   -0.52747  -0.50977  -0.49704  -0.48587  -0.46856
 Alpha  occ. eigenvalues --   -0.44719  -0.43224  -0.42806  -0.39583
 Alpha virt. eigenvalues --    0.11453   0.12061   0.12989   0.13394   0.13851
 Alpha virt. eigenvalues --    0.14531   0.14950   0.15245   0.15688   0.15884
 Alpha virt. eigenvalues --    0.16610   0.17072   0.17527   0.17829   0.18838
 Alpha virt. eigenvalues --    0.19210   0.21739
          Condensed to atoms (all electrons):
               1          2          3          4          5          6
     1  C    4.101203   0.000000   0.000000   0.000000   0.000000   0.000000
     2  H    0.000000   0.966426   0.000000   0.000000   0.000000   0.000000
     3  H    0.000000   0.000000   0.961498   0.000000   0.000000   0.000000
     4  H    0.000000   0.000000   0.000000   0.960502   0.000000   0.000000
     5  C    0.000000   0.000000   0.000000   0.000000   4.121605   0.000000
     6  H    0.000000   0.000000   0.000000   0.000000   0.000000   0.943727
     7  H    0.000000   0.000000   0.000000   0.000000   0.000000   0.000000
     8  C    0.000000   0.000000   0.000000   0.000000   0.000000   0.000000
     9  H    0.000000   0.000000   0.000000   0.000000   0.000000   0.000000
    10  O    0.000000   0.000000   0.000000   0.000000   0.000000   0.000000
    11  C    0.000000   0.000000   0.000000   0.000000   0.000000   0.000000
    12  H    0.000000   0.000000   0.000000   0.000000   0.000000   0.000000
    13  H    0.000000   0.000000   0.000000   0.000000   0.000000   0.000000
    14  H    0.000000   0.000000   0.000000   0.000000   0.000000   0.000000
    15  C    0.000000   0.000000   0.000000   0.000000   0.000000   0.000000
    16  H    0.000000   0.000000   0.000000   0.000000   0.000000   0.000000
    17  H    0.000000   0.000000   0.000000   0.000000   0.000000   0.000000
    18  H    0.000000   0.000000   0.000000   0.000000   0.000000   0.000000
               7          8          9         10         11         12
     1  C    0.000000   0.000000   0.000000   0.000000   0.000000   0.000000
     2  H    0.000000   0.000000   0.000000   0.000000   0.000000   0.000000
     3  H    0.000000   0.000000   0.000000   0.000000   0.000000   0.000000
     4  H    0.000000   0.000000   0.000000   0.000000   0.000000   0.000000
     5  C    0.000000   0.000000   0.000000   0.000000   0.000000   0.000000
     6  H    0.000000   0.000000   0.000000   0.000000   0.000000   0.000000
     7  H    0.934373   0.000000   0.000000   0.000000   0.000000   0.000000
     8  C    0.000000   3.898227   0.000000   0.000000   0.000000   0.000000
     9  H    0.000000   0.000000   0.969632   0.000000   0.000000   0.000000
    10  O    0.000000   0.000000   0.000000   6.315608   0.000000   0.000000
    11  C    0.000000   0.000000   0.000000   0.000000   4.158932   0.000000
    12  H    0.000000   0.000000   0.000000   0.000000   0.000000   0.810844
    13  H    0.000000   0.000000   0.000000   0.000000   0.000000   0.000000
    14  H    0.000000   0.000000   0.000000   0.000000   0.000000   0.000000
    15  C    0.000000   0.000000   0.000000   0.000000   0.000000   0.000000
    16  H    0.000000   0.000000   0.000000   0.000000   0.000000   0.000000
    17  H    0.000000   0.000000   0.000000   0.000000   0.000000   0.000000
    18  H    0.000000   0.000000   0.000000   0.000000   0.000000   0.000000
              13         14         15         16         17         18
     1  C    0.000000   0.000000   0.000000   0.000000   0.000000   0.000000
     2  H    0.000000   0.000000   0.000000   0.000000   0.000000   0.000000
     3  H    0.000000   0.000000   0.000000   0.000000   0.000000   0.000000
     4  H    0.000000   0.000000   0.000000   0.000000   0.000000   0.000000
     5  C    0.000000   0.000000   0.000000   0.000000   0.000000   0.000000
     6  H    0.000000   0.000000   0.000000   0.000000   0.000000   0.000000
     7  H    0.000000   0.000000   0.000000   0.000000   0.000000   0.000000
     8  C    0.000000   0.000000   0.000000   0.000000   0.000000   0.000000
     9  H    0.000000   0.000000   0.000000   0.000000   0.000000   0.000000
    10  O    0.000000   0.000000   0.000000   0.000000   0.000000   0.000000
    11  C    0.000000   0.000000   0.000000   0.000000   0.000000   0.000000
    12  H    0.000000   0.000000   0.000000   0.000000   0.000000   0.000000
    13  H    0.932276   0.000000   0.000000   0.000000   0.000000   0.000000
    14  H    0.000000   0.933019   0.000000   0.000000   0.000000   0.000000
    15  C    0.000000   0.000000   4.104787   0.000000   0.000000   0.000000
    16  H    0.000000   0.000000   0.000000   0.973864   0.000000   0.000000
    17  H    0.000000   0.000000   0.000000   0.000000   0.955376   0.000000
    18  H    0.000000   0.000000   0.000000   0.000000   0.000000   0.958101
 Mulliken charges:
               1
     1  C   -0.101203
     2  H    0.033574
     3  H    0.038502
     4  H    0.039498
     5  C   -0.121605
     6  H    0.056273
     7  H    0.065627
     8  C    0.101773
     9  H    0.030368
    10  O   -0.315608
    11  C   -0.158932
    12  H    0.189156
    13  H    0.067724
    14  H    0.066981
    15  C   -0.104787
    16  H    0.026136
    17  H    0.044624
    18  H    0.041899
 Sum of Mulliken charges =  -0.00000
 Mulliken charges with hydrogens summed into heavy atoms:
               1
     1  C    0.010372
     5  C    0.000295
     8  C    0.132140
    10  O   -0.126452
    11  C   -0.024227
    15  C    0.007873
 Charge=             -0.0000 electrons
 Dipole moment (field-independent basis, Debye):
    X=             -0.6814    Y=             -1.2103    Z=              0.4226  Tot=              1.4518
 N-N= 1.718124109942D+02 E-N=-2.577773850786D+02  KE=-5.974108279812D+01
 Leave Link  601 at Wed Sep  7 15:36:35 2022, MaxMem=   131072000 cpu:               0.0 elap:               0.0
 (Enter /opt/g16/l701.exe)
 ... and contract with generalized density number  0.
 Compute integral first derivatives.
 Leave Link  701 at Wed Sep  7 15:36:35 2022, MaxMem=   131072000 cpu:               0.0 elap:               0.0
 (Enter /opt/g16/l702.exe)
 L702 exits ... SP integral derivatives will be done elsewhere.
 Leave Link  702 at Wed Sep  7 15:36:35 2022, MaxMem=   131072000 cpu:               0.0 elap:               0.0
 (Enter /opt/g16/l703.exe)
 Integral derivatives from FoFJK, PRISM(SPDF).
 Compute integral first derivatives, UseDBF=F ICtDFT=           0.
 Calling FoFJK, ICntrl=      2127 FMM=F ISym2X=0 I1Cent= 0 IOpClX= 0 NMat=1 NMatS=1 NMatT=0.
 FoFJK:  IHMeth= 9 ICntrl=    2127 DoSepK=F KAlg= 0 I1Cent=           0 FoldK=F
 IRaf=         0 NMat=       1 IRICut=       1 DoRegI=T DoRafI=F ISym2E= 0 IDoP0=3 IntGTp=3.
 FoFCou: FMM=F IPFlag=           0 FMFlag=      100000 FMFlg1=         800
         NFxFlg=           0 DoJE=F BraDBF=F KetDBF=F FulRan=T
         wScrn=  0.000000 ICntrl=      2127 IOpCl=  0 I1Cent=           0 NGrid=           0
         NMat0=    1 NMatS0=      1 NMatT0=    0 NMatD0=    1 NMtDS0=    0 NMtDT0=    0
 Symmetry not used in FoFCou.
 Leave Link  703 at Wed Sep  7 15:36:35 2022, MaxMem=   131072000 cpu:               0.0 elap:               0.0
 (Enter /opt/g16/l716.exe)
 Dipole        =-2.68076486D-01-4.76178007D-01 1.66280039D-01
 ***** Axes restored to original set *****
 -------------------------------------------------------------------
 Center     Atomic                   Forces (Hartrees/Bohr)
 Number     Number              X              Y              Z
 -------------------------------------------------------------------
      1        6          -0.000709575   -0.020789669   -0.002033839
      2        1           0.002999699    0.000909278    0.002056392
      3        1          -0.002451095    0.006441938    0.008434339
      4        1          -0.001172536   -0.003399505   -0.008410394
      5        6          -0.025170372    0.071019080    0.048715705
      6        1           0.001697502   -0.002158808    0.002748884
      7        1           0.006452649   -0.000596258   -0.021076476
      8        6           0.003280352   -0.032489619    0.008470595
      9        1           0.019499777   -0.024639594    0.020751902
     10        8          -0.031373751   -0.027801916    0.000541249
     11        6           0.033735130    0.048077529   -0.038394166
     12        1          -0.002579424    0.001560872    0.003013197
     13        1          -0.003203006    0.003368217   -0.012724695
     14        1          -0.004257792   -0.008352904   -0.005984613
     15        6           0.029983614   -0.011269771   -0.028453607
     16        1          -0.013402627   -0.013326996    0.004254520
     17        1          -0.008518956    0.006269767   -0.008079626
     18        1          -0.004809590    0.007178362    0.026170634
 -------------------------------------------------------------------
 Cartesian Forces:  Max     0.071019080 RMS     0.020145469
 Leave Link  716 at Wed Sep  7 15:36:35 2022, MaxMem=   131072000 cpu:               0.0 elap:               0.0
 (Enter /opt/g16/l103.exe)

 GradGradGradGradGradGradGradGradGradGradGradGradGradGradGradGradGradGrad
 Berny optimization.
 FormGI is forming the generalized inverse of G from B-inverse, IUseBI=4.
 Internal  Forces:  Max     0.075138133 RMS     0.013890758
 Search for a local minimum.
 Step number   1 out of a maximum of   97
 All quantities printed in internal units (Hartrees-Bohrs-Radians)
 RMS Force = .13891D-01 SwitMx=.10000D-02 MixMth= 1
 Mixed Optimization -- RFO/linear search
 Second derivative matrix not updated -- first step.
 ITU=  0
     Eigenvalues ---    0.00297   0.00899   0.01297   0.01375   0.01814
     Eigenvalues ---    0.03226   0.03929   0.04631   0.04987   0.05003
     Eigenvalues ---    0.05128   0.05188   0.05514   0.05534   0.05660
     Eigenvalues ---    0.08232   0.09007   0.09772   0.12556   0.13157
     Eigenvalues ---    0.16000   0.16000   0.16000   0.16000   0.16000
     Eigenvalues ---    0.16000   0.16000   0.17958   0.19798   0.21827
     Eigenvalues ---    0.21896   0.28674   0.28924   0.29011   0.30207
     Eigenvalues ---    0.31353   0.31619   0.33453   0.34164   0.34383
     Eigenvalues ---    0.34545   0.35614   0.36157   0.36981   0.37578
     Eigenvalues ---    0.37730   0.47186   0.56816
 RFO step:  Lambda=-4.60207830D-02 EMin= 2.96756562D-03
 Linear search not attempted -- first point.
 Maximum step size (   0.300) exceeded in Quadratic search.
    -- Step size scaled by   0.847
 Iteration  1 RMS(Cart)=  0.07804808 RMS(Int)=  0.00245419
 Iteration  2 RMS(Cart)=  0.00301735 RMS(Int)=  0.00042534
 Iteration  3 RMS(Cart)=  0.00000604 RMS(Int)=  0.00042531
 Iteration  4 RMS(Cart)=  0.00000000 RMS(Int)=  0.00042531
 ITry= 1 IFail=0 DXMaxC= 2.28D-01 DCOld= 1.00D+10 DXMaxT= 3.00D-01 DXLimC= 3.00D+00 Rises=F
 Variable       Old X    -DE/DX   Delta X   Delta X   Delta X     New X
                                 (Linear)    (Quad)   (Total)
    R1        2.06688   0.00302   0.00000   0.00657   0.00657   2.07345
    R2        2.04689   0.01047   0.00000   0.02206   0.02206   2.06895
    R3        2.06421   0.00497   0.00000   0.01077   0.01077   2.07497
    R4        2.90162  -0.01316   0.00000  -0.03327  -0.03327   2.86835
    R5        2.12043  -0.00329   0.00000  -0.00776  -0.00776   2.11267
    R6        2.17388  -0.02089   0.00000  -0.05319  -0.05319   2.12069
    R7        2.74759   0.06149   0.00000   0.12308   0.12308   2.87067
    R8        2.01684   0.03676   0.00000   0.07385   0.07385   2.09069
    R9        2.62817   0.04164   0.00000   0.06813   0.06813   2.69629
   R10        2.75875   0.07514   0.00000   0.15312   0.15312   2.91186
   R11        1.80253  -0.00352   0.00000  -0.00486  -0.00486   1.79767
   R12        2.07054   0.01056   0.00000   0.02308   0.02308   2.09362
   R13        2.14253  -0.00980   0.00000  -0.02386  -0.02386   2.11866
   R14        2.81562   0.01290   0.00000   0.02873   0.02873   2.84436
   R15        2.03836   0.01712   0.00000   0.03560   0.03560   2.07396
   R16        2.11547  -0.01325   0.00000  -0.03100  -0.03100   2.08447
   R17        2.16681  -0.02426   0.00000  -0.06116  -0.06116   2.10564
    A1        1.90540  -0.00281   0.00000  -0.00901  -0.00920   1.89620
    A2        1.86354   0.00239   0.00000   0.00565   0.00566   1.86920
    A3        1.91471   0.00428   0.00000   0.01634   0.01625   1.93096
    A4        1.84002   0.00473   0.00000   0.02147   0.02165   1.86167
    A5        1.90376   0.00289   0.00000   0.01430   0.01430   1.91806
    A6        2.03234  -0.01137   0.00000  -0.04801  -0.04791   1.98443
    A7        1.82928   0.00612   0.00000   0.02992   0.03023   1.85951
    A8        1.84390   0.00996   0.00000   0.03003   0.02837   1.87227
    A9        2.08397  -0.01670   0.00000  -0.05562  -0.05588   2.02810
   A10        1.79556  -0.00175   0.00000   0.00482   0.00443   1.79999
   A11        1.89137   0.00614   0.00000   0.02848   0.02934   1.92070
   A12        1.99209  -0.00136   0.00000  -0.02534  -0.02552   1.96657
   A13        1.88955   0.00279   0.00000  -0.00179  -0.00145   1.88810
   A14        1.84191   0.00226   0.00000   0.00565   0.00653   1.84844
   A15        2.06053  -0.01784   0.00000  -0.05864  -0.05834   2.00219
   A16        1.94317  -0.00753   0.00000  -0.03556  -0.03652   1.90665
   A17        1.82596   0.00708   0.00000   0.03543   0.03513   1.86109
   A18        1.90408   0.01262   0.00000   0.05150   0.05143   1.95551
   A19        1.86623   0.00399   0.00000   0.01641   0.01641   1.88264
   A20        1.87131   0.00558   0.00000   0.03388   0.03391   1.90523
   A21        1.86637   0.00280   0.00000   0.02004   0.02001   1.88638
   A22        1.98407   0.00048   0.00000   0.00386   0.00404   1.98810
   A23        1.81690   0.00008   0.00000  -0.00292  -0.00393   1.81296
   A24        1.97843  -0.00557   0.00000  -0.03229  -0.03252   1.94591
   A25        1.93577  -0.00279   0.00000  -0.01933  -0.01955   1.91622
   A26        1.97086  -0.00204   0.00000  -0.00122  -0.00102   1.96984
   A27        1.96178   0.00253   0.00000   0.00321   0.00279   1.96457
   A28        2.03977  -0.01346   0.00000  -0.05534  -0.05559   1.98418
   A29        1.88606  -0.00048   0.00000  -0.00212  -0.00209   1.88397
   A30        1.72144   0.01197   0.00000   0.06217   0.06251   1.78396
   A31        1.86436   0.00304   0.00000   0.00136   0.00059   1.86495
    D1        3.01313   0.00144   0.00000   0.00730   0.00770   3.02083
    D2        1.12349  -0.00267   0.00000  -0.02059  -0.02097   1.10252
    D3       -1.14875   0.00364   0.00000   0.03311   0.03325  -1.11550
    D4        0.92686   0.00054   0.00000  -0.00021   0.00004   0.92690
    D5       -0.96278  -0.00356   0.00000  -0.02810  -0.02863  -0.99141
    D6        3.04816   0.00274   0.00000   0.02560   0.02559   3.07375
    D7       -1.15184  -0.00018   0.00000  -0.00680  -0.00641  -1.15824
    D8       -3.04147  -0.00428   0.00000  -0.03469  -0.03507  -3.07655
    D9        0.96947   0.00202   0.00000   0.01901   0.01914   0.98861
   D10        1.27506  -0.00006   0.00000  -0.01288  -0.01208   1.26298
   D11       -2.92595  -0.00622   0.00000  -0.05227  -0.05187  -2.97782
   D12       -0.79309   0.00032   0.00000  -0.01903  -0.01861  -0.81170
   D13       -2.91804   0.00157   0.00000   0.01213   0.01240  -2.90563
   D14       -0.83587  -0.00459   0.00000  -0.02727  -0.02738  -0.86325
   D15        1.29700   0.00195   0.00000   0.00597   0.00588   1.30288
   D16       -0.92903   0.00256   0.00000   0.02198   0.02168  -0.90735
   D17        1.15314  -0.00361   0.00000  -0.01741  -0.01811   1.13503
   D18       -2.99718   0.00293   0.00000   0.01583   0.01515  -2.98203
   D19       -3.12595  -0.00392   0.00000   0.00066   0.00070  -3.12525
   D20       -1.07968  -0.00314   0.00000  -0.01645  -0.01570  -1.09538
   D21        0.92674   0.00866   0.00000   0.03696   0.03617   0.96291
   D22       -1.22765  -0.00282   0.00000  -0.01502  -0.01504  -1.24269
   D23        0.71246   0.00102   0.00000   0.00581   0.00599   0.71846
   D24        2.85481  -0.00021   0.00000  -0.00184  -0.00179   2.85302
   D25        2.95414  -0.00090   0.00000  -0.00395  -0.00341   2.95073
   D26       -1.38893   0.00294   0.00000   0.01688   0.01762  -1.37130
   D27        0.75342   0.00171   0.00000   0.00923   0.00984   0.76326
   D28        0.87333  -0.00217   0.00000  -0.00703  -0.00782   0.86550
   D29        2.81344   0.00167   0.00000   0.01379   0.01321   2.82665
   D30       -1.32740   0.00044   0.00000   0.00615   0.00543  -1.32198
   D31        1.16131  -0.00136   0.00000  -0.01356  -0.01351   1.14780
   D32       -0.97807  -0.00110   0.00000  -0.01228  -0.01211  -0.99018
   D33        3.14027   0.00369   0.00000   0.02942   0.02912  -3.11380
   D34       -0.98164  -0.00482   0.00000  -0.03660  -0.03629  -1.01792
   D35       -3.12101  -0.00457   0.00000  -0.03532  -0.03489   3.12729
   D36        0.99732   0.00022   0.00000   0.00639   0.00634   1.00366
   D37       -3.01816   0.00056   0.00000   0.00096   0.00084  -3.01732
   D38        1.12565   0.00082   0.00000   0.00225   0.00224   1.12789
   D39       -1.03920   0.00561   0.00000   0.04395   0.04347  -0.99574
         Item               Value     Threshold  Converged?
 Maximum Force            0.075138     0.000450     NO 
 RMS     Force            0.013891     0.000300     NO 
 Maximum Displacement     0.227762     0.001800     NO 
 RMS     Displacement     0.078081     0.001200     NO 
 Predicted change in Energy=-2.494527D-02
 Lowest energy point so far.  Saving SCF results.
 GradGradGradGradGradGradGradGradGradGradGradGradGradGradGradGradGradGrad

 Leave Link  103 at Wed Sep  7 15:36:35 2022, MaxMem=   131072000 cpu:               0.0 elap:               0.0
 (Enter /opt/g16/l202.exe)
                          Input orientation:                          
 ---------------------------------------------------------------------
 Center     Atomic      Atomic             Coordinates (Angstroms)
 Number     Number       Type             X           Y           Z
 ---------------------------------------------------------------------
      1          6           0        5.683177    3.178484    2.393532
      2          1           0        6.573705    2.743569    2.864386
      3          1           0        5.329436    4.008546    3.013647
      4          1           0        6.003397    3.613701    1.437649
      5          6           0        4.589103    2.135799    2.253090
      6          1           0        3.680044    2.675299    1.889189
      7          1           0        4.298405    1.816248    3.288830
      8          6           0        4.896339    0.959761    1.341945
      9          1           0        5.633712    0.311470    1.851844
     10          8           0        3.668245    0.248719    1.193579
     11          6           0        5.511226    1.341981   -0.018265
     12          1           0        3.832846   -0.505172    0.637250
     13          1           0        4.735625    1.824427   -0.645261
     14          1           0        6.261489    2.156741    0.155646
     15          6           0        6.164798    0.192266   -0.736969
     16          1           0        5.449056   -0.581110   -1.043719
     17          1           0        6.950773   -0.292258   -0.133471
     18          1           0        6.632624    0.478527   -1.706901
 ---------------------------------------------------------------------
                    Distance matrix (angstroms):
                    1          2          3          4          5
     1  C    0.000000
     2  H    1.097222   0.000000
     3  H    1.094842   1.780632   0.000000
     4  H    1.098029   1.765775   1.758947   0.000000
     5  C    1.517865   2.163727   2.152609   2.202128   0.000000
     6  H    2.126053   3.054333   2.400510   2.546067   1.117977
     7  H    2.138887   2.493405   2.438221   3.092686   1.122219
     8  C    2.578309   2.883289   3.503891   2.877175   1.519093
     9  H    2.918157   2.797129   3.887253   3.348575   2.140182
    10  O    3.752780   4.178226   4.495387   4.103122   2.351938
    11  C    3.036293   3.376831   4.041795   2.742741   2.576725
    12  H    4.480800   4.798620   5.316079   4.724092   3.187097
    13  H    3.459131   4.067061   4.302394   3.024444   2.918709
    14  H    2.527160   2.789107   3.530733   1.957773   2.682646
    15  C    4.353102   4.432393   5.415620   4.057245   3.898793
    16  H    5.099417   5.252772   6.127110   4.905194   4.357759
    17  H    4.476449   4.283173   5.570458   4.315374   4.143503
    18  H    5.000476   5.102014   6.036796   4.484801   4.754372
                    6          7          8          9         10
     6  H    0.000000
     7  H    1.754802   0.000000
     8  C    2.172998   2.209402   0.000000
     9  H    3.066904   2.472312   1.106344   0.000000
    10  O    2.524342   2.691528   1.426818   2.073719   0.000000
    11  C    2.961308   3.554257   1.540892   2.138753   2.461782
    12  H    3.421417   3.554801   1.942586   2.320616   0.951286
    13  H    2.874313   3.958321   2.173123   3.054690   2.646411
    14  H    3.152449   3.713015   2.168802   2.583838   3.382717
    15  C    4.385905   4.725230   2.553414   2.645414   3.156419
    16  H    4.726051   5.083533   2.893298   3.035636   2.977483
    17  H    4.857491   4.815911   2.822252   2.457766   3.581719
    18  H    5.145425   5.674099   3.541431   3.700054   4.153689
                   11         12         13         14         15
    11  C    0.000000
    12  H    2.580433   0.000000
    13  H    1.107896   2.808358   0.000000
    14  H    1.121148   3.635386   1.755034   0.000000
    15  C    1.505170   2.795157   2.171381   2.159924   0.000000
    16  H    2.180298   2.333144   2.540543   3.097475   1.097494
    17  H    2.180895   3.218822   3.106310   2.560526   1.103055
    18  H    2.203310   3.781727   2.556781   2.534408   1.114259
                   16         17         18
    16  H    0.000000
    17  H    1.779646   0.000000
    18  H    1.721474   1.780732   0.000000
 Stoichiometry    C5H12O
 Framework group  C1[X(C5H12O)]
 Deg. of freedom    48
 Full point group                 C1      NOp   1
 RotChk:  IX=0 Diff= 5.01D-02
 Largest Abelian subgroup         C1      NOp   1
 Largest concise Abelian subgroup C1      NOp   1
                         Standard orientation:                         
 ---------------------------------------------------------------------
 Center     Atomic      Atomic             Coordinates (Angstroms)
 Number     Number       Type             X           Y           Z
 ---------------------------------------------------------------------
      1          6           0        2.144520   -0.944909    0.073539
      2          1           0        2.102772   -1.317575    1.104690
      3          1           0        3.194009   -0.868622   -0.228837
      4          1           0        1.687593   -1.711920   -0.565662
      5          6           0        1.476552    0.414016   -0.031599
      6          1           0        1.668878    0.783836   -1.068960
      7          1           0        2.065780    1.125160    0.605943
      8          6           0       -0.012128    0.454622    0.268109
      9          1           0       -0.148516    0.322981    1.358094
     10          8           0       -0.451020    1.759553   -0.106509
     11          6           0       -0.837603   -0.651844   -0.416488
     12          1           0       -1.381040    1.820572    0.083981
     13          1           0       -0.893308   -0.444251   -1.503335
     14          1           0       -0.256051   -1.608391   -0.354932
     15          6           0       -2.206250   -0.848330    0.178271
     16          1           0       -2.862790    0.019075    0.033164
     17          1           0       -2.170522   -1.070614    1.258106
     18          1           0       -2.789187   -1.668014   -0.301181
 ---------------------------------------------------------------------
 Rotational constants (GHZ):           4.6577815           2.3784988           1.7093327
 Leave Link  202 at Wed Sep  7 15:36:35 2022, MaxMem=   131072000 cpu:               0.0 elap:               0.0
 (Enter /opt/g16/l301.exe)
 Standard basis: VSTO-6G (5D, 7F)
 Ernie: Thresh=  0.10000D-02 Tol=  0.10000D-05 Strict=F.
  NNHCO=     0 NNPyr=     0 NCTC=     0               EPep=         0.000000000
    EC=       127.805975838  ECS=         2.190553660   EG=         0.563396649
   EHC=         0.000000000  EAt=       -36.836480110  AtH=         2.452923921
 EPDDG=         0.000000000  ECC=       130.559926147 EAtT=        39.289404030
 There are    36 symmetry adapted cartesian basis functions of A   symmetry.
 There are    36 symmetry adapted basis functions of A   symmetry.
    36 basis functions,   216 primitive gaussians,    36 cartesian basis functions
    19 alpha electrons       19 beta electrons
       nuclear repulsion energy       169.8493301775 Hartrees.
 IExCor=    0 DFT=F Ex=HF Corr=None ExCW=0 ScaHFX=  1.000000
 ScaDFX=  1.000000  1.000000  1.000000  1.000000 ScalE2=  1.000000  1.000000
 IRadAn=      5 IRanWt=     -1 IRanGd=            0 ICorTp=0 IEmpDi=  4
 Integral buffers will be    131072 words long.
 Regular integral format.
 Two-electron integral symmetry is turned off.
 Leave Link  301 at Wed Sep  7 15:36:35 2022, MaxMem=   131072000 cpu:               0.0 elap:               0.0
 (Enter /opt/g16/l302.exe)
 Do NDO integrals.
 NPDir=0 NMtPBC=     1 NCelOv=     1 NCel=       1 NClECP=     1 NCelD=      1
         NCelK=      1 NCelE2=     1 NClLst=     1 CellRange=     0.0.
 One-electron integrals computed using PRISM.
 NBasis=    36 RedAO= F EigKep=  0.00D+00  NBF=    36
 NBsUse=    36 1.00D-04 EigRej=  0.00D+00 NBFU=    36
 Leave Link  302 at Wed Sep  7 15:36:35 2022, MaxMem=   131072000 cpu:               0.0 elap:               0.0
 (Enter /opt/g16/l303.exe)
 DipDrv:  MaxL=1.
 Leave Link  303 at Wed Sep  7 15:36:35 2022, MaxMem=   131072000 cpu:               0.0 elap:               0.0
 (Enter /opt/g16/l401.exe)
 Initial guess from the checkpoint file:  "MD_extract_024_gaussian.chk"
 B after Tr=     0.000000    0.000000   -0.000000
         Rot=    0.999890    0.005822    0.000023    0.013662 Ang=   1.70 deg.
 Guess basis will be translated and rotated to current coordinates.
 JPrj=0 DoOrth=T DoCkMO=T.
 Leave Link  401 at Wed Sep  7 15:36:35 2022, MaxMem=   131072000 cpu:               0.1 elap:               0.0
 (Enter /opt/g16/l502.exe)
 Keep J ints in memory in canonical form, NReq=862161.
 FoFCou: FMM=F IPFlag=           0 FMFlag=           0 FMFlg1=           0
         NFxFlg=           0 DoJE=F BraDBF=F KetDBF=F FulRan=T
         wScrn=  0.000000 ICntrl=       600 IOpCl=  2 I1Cent=           0 NGrid=           0
         NMat0=    1 NMatS0=     72 NMatT0=    0 NMatD0=    1 NMtDS0=    0 NMtDT0=    0
 Symmetry not used in FoFCou.
 Two-electron integral symmetry not used.
 Closed shell SCF:
 Using DIIS extrapolation, IDIIS=  1040.
 Overlap will be assumed to be unity.
 NGot=   131072000 LenX=   131006778 LenY=   131005041
 Requested convergence on RMS density matrix=1.00D-08 within 128 cycles.
 Requested convergence on MAX density matrix=1.00D-06.
 Requested convergence on             energy=1.00D-06.
 No special actions if energy rises.

 Cycle   1  Pass 1  IDiag  1:
 E=-0.103307541710365    
 DIIS: error= 9.19D-03 at cycle   1 NSaved=   1.
 NSaved= 1 IEnMin= 1 EnMin=-0.103307541710365     IErMin= 1 ErrMin= 9.19D-03
 ErrMax= 9.19D-03  0.00D+00 EMaxC= 1.00D-01 BMatC= 2.61D-03 BMatP= 2.61D-03
 IDIUse=3 WtCom= 9.08D-01 WtEn= 9.19D-02
 Coeff-Com:  0.100D+01
 Coeff-En:   0.100D+01
 Coeff:      0.100D+01
 GapD=    2.000 DampG=2.000 DampE=1.000 DampFc=2.0000 IDamp=-1.
 RMSDP=2.46D-03 MaxDP=2.23D-02              OVMax= 0.00D+00

 Cycle   2  Pass 1  IDiag  3:
 E=-0.111719770391147     Delta-E=       -0.008412228681 Rises=F Damp=F
 DIIS: error= 3.90D-03 at cycle   2 NSaved=   2.
 NSaved= 2 IEnMin= 2 EnMin=-0.111719770391147     IErMin= 2 ErrMin= 3.90D-03
 ErrMax= 3.90D-03  0.00D+00 EMaxC= 1.00D-01 BMatC= 3.29D-04 BMatP= 2.61D-03
 IDIUse=3 WtCom= 9.61D-01 WtEn= 3.90D-02
 Coeff-Com: -0.461D+00 0.146D+01
 Coeff-En:   0.000D+00 0.100D+01
 Coeff:     -0.443D+00 0.144D+01
 Gap=     0.511 Goal=   None    Shift=    0.000
 RMSDP=1.42D-03 MaxDP=1.42D-02 DE=-8.41D-03 OVMax= 1.17D-02

 Cycle   3  Pass 1  IDiag  3:
 E=-0.113215214733799     Delta-E=       -0.001495444343 Rises=F Damp=F
 DIIS: error= 7.15D-04 at cycle   3 NSaved=   3.
 NSaved= 3 IEnMin= 3 EnMin=-0.113215214733799     IErMin= 3 ErrMin= 7.15D-04
 ErrMax= 7.15D-04  0.00D+00 EMaxC= 1.00D-01 BMatC= 1.20D-05 BMatP= 3.29D-04
 IDIUse=3 WtCom= 9.93D-01 WtEn= 7.15D-03
 Coeff-Com:  0.175D+00-0.673D+00 0.150D+01
 Coeff-En:   0.000D+00 0.000D+00 0.100D+01
 Coeff:      0.173D+00-0.668D+00 0.149D+01
 Gap=     0.511 Goal=   None    Shift=    0.000
 RMSDP=3.46D-04 MaxDP=3.33D-03 DE=-1.50D-03 OVMax= 2.67D-03

 Cycle   4  Pass 1  IDiag  3:
 E=-0.113282408953950     Delta-E=       -0.000067194220 Rises=F Damp=F
 DIIS: error= 1.26D-04 at cycle   4 NSaved=   4.
 NSaved= 4 IEnMin= 4 EnMin=-0.113282408953950     IErMin= 4 ErrMin= 1.26D-04
 ErrMax= 1.26D-04  0.00D+00 EMaxC= 1.00D-01 BMatC= 4.20D-07 BMatP= 1.20D-05
 IDIUse=3 WtCom= 9.99D-01 WtEn= 1.26D-03
 Coeff-Com: -0.812D-01 0.322D+00-0.811D+00 0.157D+01
 Coeff-En:   0.000D+00 0.000D+00 0.000D+00 0.100D+01
 Coeff:     -0.811D-01 0.321D+00-0.810D+00 0.157D+01
 Gap=     0.511 Goal=   None    Shift=    0.000
 RMSDP=6.77D-05 MaxDP=6.36D-04 DE=-6.72D-05 OVMax= 8.85D-04

 Cycle   5  Pass 1  IDiag  3:
 E=-0.113285000307343     Delta-E=       -0.000002591353 Rises=F Damp=F
 DIIS: error= 3.68D-05 at cycle   5 NSaved=   5.
 NSaved= 5 IEnMin= 5 EnMin=-0.113285000307343     IErMin= 5 ErrMin= 3.68D-05
 ErrMax= 3.68D-05  0.00D+00 EMaxC= 1.00D-01 BMatC= 2.76D-08 BMatP= 4.20D-07
 IDIUse=1 WtCom= 1.00D+00 WtEn= 0.00D+00
 Coeff-Com:  0.415D-01-0.166D+00 0.429D+00-0.986D+00 0.168D+01
 Coeff:      0.415D-01-0.166D+00 0.429D+00-0.986D+00 0.168D+01
 Gap=     0.511 Goal=   None    Shift=    0.000
 RMSDP=1.99D-05 MaxDP=2.23D-04 DE=-2.59D-06 OVMax= 2.76D-04

 Cycle   6  Pass 1  IDiag  3:
 E=-0.113285189184694     Delta-E=       -0.000000188877 Rises=F Damp=F
 DIIS: error= 6.34D-06 at cycle   6 NSaved=   6.
 NSaved= 6 IEnMin= 6 EnMin=-0.113285189184694     IErMin= 6 ErrMin= 6.34D-06
 ErrMax= 6.34D-06  0.00D+00 EMaxC= 1.00D-01 BMatC= 1.14D-09 BMatP= 2.76D-08
 IDIUse=1 WtCom= 1.00D+00 WtEn= 0.00D+00
 Coeff-Com: -0.137D-01 0.545D-01-0.142D+00 0.341D+00-0.726D+00 0.149D+01
 Coeff:     -0.137D-01 0.545D-01-0.142D+00 0.341D+00-0.726D+00 0.149D+01
 Gap=     0.511 Goal=   None    Shift=    0.000
 RMSDP=4.00D-06 MaxDP=4.35D-05 DE=-1.89D-07 OVMax= 4.81D-05

 Cycle   7  Pass 1  IDiag  3:
 E=-0.113285196621547     Delta-E=       -0.000000007437 Rises=F Damp=F
 DIIS: error= 9.14D-07 at cycle   7 NSaved=   7.
 NSaved= 7 IEnMin= 7 EnMin=-0.113285196621547     IErMin= 7 ErrMin= 9.14D-07
 ErrMax= 9.14D-07  0.00D+00 EMaxC= 1.00D-01 BMatC= 4.16D-11 BMatP= 1.14D-09
 IDIUse=1 WtCom= 1.00D+00 WtEn= 0.00D+00
 Coeff-Com:  0.354D-02-0.142D-01 0.370D-01-0.898D-01 0.205D+00-0.548D+00
 Coeff-Com:  0.141D+01
 Coeff:      0.354D-02-0.142D-01 0.370D-01-0.898D-01 0.205D+00-0.548D+00
 Coeff:      0.141D+01
 Gap=     0.511 Goal=   None    Shift=    0.000
 RMSDP=6.60D-07 MaxDP=5.11D-06 DE=-7.44D-09 OVMax= 5.15D-06

 Cycle   8  Pass 1  IDiag  3:
 E=-0.113285196859664     Delta-E=       -0.000000000238 Rises=F Damp=F
 DIIS: error= 1.73D-07 at cycle   8 NSaved=   8.
 NSaved= 8 IEnMin= 8 EnMin=-0.113285196859664     IErMin= 8 ErrMin= 1.73D-07
 ErrMax= 1.73D-07  0.00D+00 EMaxC= 1.00D-01 BMatC= 1.65D-12 BMatP= 4.16D-11
 IDIUse=1 WtCom= 1.00D+00 WtEn= 0.00D+00
 Coeff-Com: -0.583D-03 0.233D-02-0.611D-02 0.150D-01-0.362D-01 0.112D+00
 Coeff-Com: -0.441D+00 0.136D+01
 Coeff:     -0.583D-03 0.233D-02-0.611D-02 0.150D-01-0.362D-01 0.112D+00
 Coeff:     -0.441D+00 0.136D+01
 Gap=     0.511 Goal=   None    Shift=    0.000
 RMSDP=1.25D-07 MaxDP=7.86D-07 DE=-2.38D-10 OVMax= 6.47D-07

 Cycle   9  Pass 1  IDiag  3:
 E=-0.113285196868617     Delta-E=       -0.000000000009 Rises=F Damp=F
 DIIS: error= 4.68D-08 at cycle   9 NSaved=   9.
 NSaved= 9 IEnMin= 9 EnMin=-0.113285196868617     IErMin= 9 ErrMin= 4.68D-08
 ErrMax= 4.68D-08  0.00D+00 EMaxC= 1.00D-01 BMatC= 6.27D-14 BMatP= 1.65D-12
 IDIUse=1 WtCom= 1.00D+00 WtEn= 0.00D+00
 Coeff-Com:  0.959D-04-0.383D-03 0.101D-02-0.252D-02 0.662D-02-0.236D-01
 Coeff-Com:  0.113D+00-0.474D+00 0.138D+01
 Coeff:      0.959D-04-0.383D-03 0.101D-02-0.252D-02 0.662D-02-0.236D-01
 Coeff:      0.113D+00-0.474D+00 0.138D+01
 Gap=     0.511 Goal=   None    Shift=    0.000
 RMSDP=2.28D-08 MaxDP=2.39D-07 DE=-8.95D-12 OVMax= 1.06D-07

 Cycle  10  Pass 1  IDiag  3:
 E=-0.113285196868787     Delta-E=       -0.000000000000 Rises=F Damp=F
 DIIS: error= 1.24D-08 at cycle  10 NSaved=  10.
 NSaved=10 IEnMin=10 EnMin=-0.113285196868787     IErMin=10 ErrMin= 1.24D-08
 ErrMax= 1.24D-08  0.00D+00 EMaxC= 1.00D-01 BMatC= 5.16D-15 BMatP= 6.27D-14
 IDIUse=1 WtCom= 1.00D+00 WtEn= 0.00D+00
 Coeff-Com: -0.177D-04 0.708D-04-0.189D-03 0.492D-03-0.156D-02 0.689D-02
 Coeff-Com: -0.389D-01 0.192D+00-0.761D+00 0.160D+01
 Coeff:     -0.177D-04 0.708D-04-0.189D-03 0.492D-03-0.156D-02 0.689D-02
 Coeff:     -0.389D-01 0.192D+00-0.761D+00 0.160D+01
 Gap=     0.511 Goal=   None    Shift=    0.000
 RMSDP=7.80D-09 MaxDP=8.22D-08 DE=-1.71D-13 OVMax= 4.84D-08

 Cycle  11  Pass 2  IDiag  1:
 SCF Done:  E(RPM3) = -0.113285196869     A.U. after   11 cycles
            NFock= 10  Conv=0.78D-08     -V/T= 0.9981
 KE=-5.965658782976D+01 PE=-2.541653015552D+02 EE= 1.438592740106D+02
 Leave Link  502 at Wed Sep  7 15:36:35 2022, MaxMem=   131072000 cpu:               0.0 elap:               0.0
 (Enter /opt/g16/l701.exe)
 ... and contract with generalized density number  0.
 Compute integral first derivatives.
 Leave Link  701 at Wed Sep  7 15:36:35 2022, MaxMem=   131072000 cpu:               0.0 elap:               0.0
 (Enter /opt/g16/l702.exe)
 L702 exits ... SP integral derivatives will be done elsewhere.
 Leave Link  702 at Wed Sep  7 15:36:35 2022, MaxMem=   131072000 cpu:               0.0 elap:               0.0
 (Enter /opt/g16/l703.exe)
 Integral derivatives from FoFJK, PRISM(SPDF).
 Compute integral first derivatives, UseDBF=F ICtDFT=           0.
 Calling FoFJK, ICntrl=      2127 FMM=F ISym2X=0 I1Cent= 0 IOpClX= 0 NMat=1 NMatS=1 NMatT=0.
 FoFJK:  IHMeth= 9 ICntrl=    2127 DoSepK=F KAlg= 0 I1Cent=           0 FoldK=F
 IRaf=         0 NMat=       1 IRICut=       1 DoRegI=T DoRafI=F ISym2E= 0 IDoP0=3 IntGTp=3.
 FoFCou: FMM=F IPFlag=           0 FMFlag=      100000 FMFlg1=         800
         NFxFlg=           0 DoJE=F BraDBF=F KetDBF=F FulRan=T
         wScrn=  0.000000 ICntrl=      2127 IOpCl=  0 I1Cent=           0 NGrid=           0
         NMat0=    1 NMatS0=      1 NMatT0=    0 NMatD0=    1 NMtDS0=    0 NMtDT0=    0
 Symmetry not used in FoFCou.
 Leave Link  703 at Wed Sep  7 15:36:35 2022, MaxMem=   131072000 cpu:               0.0 elap:               0.0
 (Enter /opt/g16/l716.exe)
 Dipole        =-2.85450706D-01-4.81410171D-01 1.87046801D-01
 ***** Axes restored to original set *****
 -------------------------------------------------------------------
 Center     Atomic                   Forces (Hartrees/Bohr)
 Number     Number              X              Y              Z
 -------------------------------------------------------------------
      1        6           0.001091919   -0.008347587    0.000240998
      2        1           0.000878663    0.001459792    0.000621351
      3        1           0.001016632    0.001225573    0.002216810
      4        1          -0.000362399   -0.002983894   -0.003723972
      5        6          -0.012990048    0.021637939    0.005961260
      6        1           0.001900711   -0.003826713   -0.000793172
      7        1           0.002965021   -0.004182740   -0.008565492
      8        6           0.002531671   -0.011746341   -0.005882312
      9        1           0.003532487   -0.006115891    0.004791754
     10        8           0.003788792    0.001473231   -0.000069590
     11        6          -0.001241827    0.014307175    0.002645384
     12        1           0.002398668    0.004434950    0.001812629
     13        1          -0.000404780   -0.001934701   -0.002081953
     14        1          -0.002540003   -0.003409978    0.000438049
     15        6           0.004810175   -0.005105167   -0.010993031
     16        1          -0.003017534   -0.002641065    0.004677415
     17        1          -0.003025077    0.001837381   -0.001314649
     18        1          -0.001333070    0.003918035    0.010018520
 -------------------------------------------------------------------
 Cartesian Forces:  Max     0.021637939 RMS     0.005728697
 Leave Link  716 at Wed Sep  7 15:36:35 2022, MaxMem=   131072000 cpu:               0.0 elap:               0.0
 (Enter /opt/g16/l103.exe)

 GradGradGradGradGradGradGradGradGradGradGradGradGradGradGradGradGradGrad
 Berny optimization.
 Using GEDIIS/GDIIS optimizer.
 FormGI is forming the generalized inverse of G from B-inverse, IUseBI=4.
 Internal  Forces:  Max     0.012832824 RMS     0.003573924
 Search for a local minimum.
 Step number   2 out of a maximum of   97
 All quantities printed in internal units (Hartrees-Bohrs-Radians)
 RMS Force = .35739D-02 SwitMx=.10000D-02 MixMth= 1
 Mixed Optimization -- RFO/linear search
 Update second derivatives using D2CorX and points    1    2
 DE= -2.13D-02 DEPred=-2.49D-02 R= 8.52D-01
 TightC=F SS=  1.41D+00  RLast= 3.29D-01 DXNew= 5.0454D-01 9.8568D-01
 Trust test= 8.52D-01 RLast= 3.29D-01 DXMaxT set to 5.05D-01
 ITU=  1  0
 Use linear search instead of GDIIS.
     Eigenvalues ---    0.00297   0.00899   0.01297   0.01374   0.01815
     Eigenvalues ---    0.03495   0.03900   0.04834   0.05020   0.05230
     Eigenvalues ---    0.05265   0.05426   0.05494   0.05558   0.05607
     Eigenvalues ---    0.08066   0.09055   0.09200   0.12570   0.12798
     Eigenvalues ---    0.15125   0.16000   0.16000   0.16000   0.16000
     Eigenvalues ---    0.16000   0.16159   0.17603   0.19292   0.21223
     Eigenvalues ---    0.21870   0.28206   0.28834   0.28948   0.30152
     Eigenvalues ---    0.31316   0.31580   0.33506   0.34180   0.34383
     Eigenvalues ---    0.34525   0.35595   0.36118   0.37106   0.37562
     Eigenvalues ---    0.42777   0.55811   0.57664
 RFO step:  Lambda=-7.64212498D-03 EMin= 2.96721734D-03
 Quartic linear search produced a step of  0.18718.
 Iteration  1 RMS(Cart)=  0.08310797 RMS(Int)=  0.00340134
 Iteration  2 RMS(Cart)=  0.00429060 RMS(Int)=  0.00090555
 Iteration  3 RMS(Cart)=  0.00001198 RMS(Int)=  0.00090551
 Iteration  4 RMS(Cart)=  0.00000001 RMS(Int)=  0.00090551
 ITry= 1 IFail=0 DXMaxC= 3.64D-01 DCOld= 1.00D+10 DXMaxT= 5.05D-01 DXLimC= 3.00D+00 Rises=F
 Variable       Old X    -DE/DX   Delta X   Delta X   Delta X     New X
                                 (Linear)    (Quad)   (Total)
    R1        2.07345   0.00040   0.00123   0.00094   0.00217   2.07562
    R2        2.06895   0.00186   0.00413   0.00465   0.00878   2.07773
    R3        2.07497   0.00195   0.00202   0.00586   0.00787   2.08285
    R4        2.86835  -0.00411  -0.00623  -0.01427  -0.02050   2.84785
    R5        2.11267  -0.00313  -0.00145  -0.01103  -0.01248   2.10019
    R6        2.12069  -0.00748  -0.00996  -0.02671  -0.03667   2.08402
    R7        2.87067   0.00254   0.02304   0.00017   0.02321   2.89388
    R8        2.09069   0.00815   0.01382   0.02047   0.03430   2.12499
    R9        2.69629  -0.00845   0.01275  -0.02503  -0.01228   2.68402
   R10        2.91186  -0.00396   0.02866  -0.02183   0.00683   2.91869
   R11        1.79767  -0.00416  -0.00091  -0.00821  -0.00912   1.78855
   R12        2.09362   0.00062   0.00432   0.00067   0.00499   2.09861
   R13        2.11866  -0.00411  -0.00447  -0.01418  -0.01865   2.10002
   R14        2.84436  -0.00073   0.00538  -0.00430   0.00108   2.84544
   R15        2.07396   0.00252   0.00666   0.00585   0.01251   2.08648
   R16        2.08447  -0.00368  -0.00580  -0.01150  -0.01730   2.06717
   R17        2.10564  -0.00827  -0.01145  -0.02902  -0.04046   2.06518
    A1        1.89620  -0.00227  -0.00172  -0.01088  -0.01301   1.88319
    A2        1.86920   0.00073   0.00106  -0.00545  -0.00451   1.86469
    A3        1.93096   0.00269   0.00304   0.01445   0.01721   1.94817
    A4        1.86167   0.00236   0.00405   0.02143   0.02595   1.88762
    A5        1.91806   0.00266   0.00268   0.02360   0.02630   1.94437
    A6        1.98443  -0.00618  -0.00897  -0.04299  -0.05177   1.93266
    A7        1.85951   0.00658   0.00566   0.05874   0.06392   1.92343
    A8        1.87227   0.00736   0.00531   0.03644   0.03640   1.90867
    A9        2.02810  -0.01283  -0.01046  -0.07168  -0.08279   1.94531
   A10        1.79999  -0.00053   0.00083   0.03185   0.03070   1.83069
   A11        1.92070   0.00207   0.00549   0.00676   0.01463   1.93533
   A12        1.96657  -0.00082  -0.00478  -0.04456  -0.04965   1.91692
   A13        1.88810   0.00213  -0.00027   0.02305   0.02377   1.91187
   A14        1.84844   0.00348   0.00122   0.00297   0.00332   1.85176
   A15        2.00219  -0.00873  -0.01092  -0.05353  -0.06437   1.93783
   A16        1.90665  -0.00209  -0.00684  -0.00282  -0.01007   1.89658
   A17        1.86109   0.00435   0.00658   0.04355   0.05059   1.91168
   A18        1.95551   0.00092   0.00963  -0.01127  -0.00273   1.95278
   A19        1.88264  -0.00602   0.00307  -0.04329  -0.04022   1.84242
   A20        1.90523   0.00277   0.00635   0.01462   0.02057   1.92580
   A21        1.88638   0.00061   0.00375   0.00030   0.00396   1.89034
   A22        1.98810  -0.00436   0.00076  -0.02724  -0.02652   1.96158
   A23        1.81296   0.00012  -0.00074   0.01677   0.01573   1.82870
   A24        1.94591  -0.00053  -0.00609  -0.01196  -0.01797   1.92794
   A25        1.91622   0.00186  -0.00366   0.01197   0.00832   1.92453
   A26        1.96984  -0.00184  -0.00019  -0.00540  -0.00544   1.96440
   A27        1.96457  -0.00003   0.00052  -0.01197  -0.01213   1.95244
   A28        1.98418  -0.00660  -0.01041  -0.03920  -0.05003   1.93415
   A29        1.88397   0.00022  -0.00039  -0.00544  -0.00593   1.87804
   A30        1.78396   0.00684   0.01170   0.06579   0.07788   1.86184
   A31        1.86495   0.00236   0.00011   0.00393   0.00284   1.86780
    D1        3.02083   0.00249   0.00144   0.00719   0.01006   3.03089
    D2        1.10252  -0.00295  -0.00393  -0.07020  -0.07537   1.02715
    D3       -1.11550   0.00166   0.00622   0.01350   0.01977  -1.09573
    D4        0.92690   0.00189   0.00001  -0.00365  -0.00252   0.92438
    D5       -0.99141  -0.00354  -0.00536  -0.08104  -0.08795  -1.07936
    D6        3.07375   0.00107   0.00479   0.00266   0.00719   3.08094
    D7       -1.15824   0.00110  -0.00120  -0.01923  -0.01893  -1.17717
    D8       -3.07655  -0.00433  -0.00657  -0.09663  -0.10436   3.10228
    D9        0.98861   0.00028   0.00358  -0.01292  -0.00922   0.97939
   D10        1.26298  -0.00097  -0.00226  -0.04848  -0.04947   1.21351
   D11       -2.97782  -0.00057  -0.00971  -0.03899  -0.04766  -3.02548
   D12       -0.81170  -0.00251  -0.00348  -0.08632  -0.08838  -0.90008
   D13       -2.90563   0.00013   0.00232  -0.01693  -0.01424  -2.91988
   D14       -0.86325   0.00053  -0.00513  -0.00744  -0.01244  -0.87569
   D15        1.30288  -0.00141   0.00110  -0.05477  -0.05316   1.24972
   D16       -0.90735   0.00028   0.00406   0.00027   0.00278  -0.90458
   D17        1.13503   0.00068  -0.00339   0.00976   0.00458   1.13961
   D18       -2.98203  -0.00126   0.00284  -0.03757  -0.03614  -3.01817
   D19       -3.12525  -0.00399   0.00013  -0.04480  -0.04491   3.11302
   D20       -1.09538  -0.00069  -0.00294  -0.01771  -0.02038  -1.11576
   D21        0.96291   0.00393   0.00677   0.02757   0.03430   0.99721
   D22       -1.24269  -0.00082  -0.00282  -0.00243  -0.00586  -1.24855
   D23        0.71846   0.00101   0.00112   0.02459   0.02534   0.74380
   D24        2.85302   0.00093  -0.00033   0.02198   0.02129   2.87431
   D25        2.95073  -0.00125  -0.00064  -0.02943  -0.02980   2.92094
   D26       -1.37130   0.00058   0.00330  -0.00241   0.00140  -1.36990
   D27        0.76326   0.00050   0.00184  -0.00502  -0.00264   0.76061
   D28        0.86550  -0.00198  -0.00146  -0.04714  -0.04877   0.81673
   D29        2.82665  -0.00016   0.00247  -0.02013  -0.01757   2.80908
   D30       -1.32198  -0.00024   0.00102  -0.02273  -0.02161  -1.34359
   D31        1.14780  -0.00116  -0.00253  -0.02738  -0.02965   1.11815
   D32       -0.99018  -0.00003  -0.00227  -0.00691  -0.00876  -0.99893
   D33       -3.11380   0.00187   0.00545   0.02685   0.03202  -3.08178
   D34       -1.01792  -0.00107  -0.00679  -0.01628  -0.02306  -1.04098
   D35        3.12729   0.00007  -0.00653   0.00419  -0.00217   3.12512
   D36        1.00366   0.00196   0.00119   0.03795   0.03861   1.04227
   D37       -3.01732  -0.00202   0.00016  -0.03699  -0.03672  -3.05404
   D38        1.12789  -0.00088   0.00042  -0.01652  -0.01583   1.11206
   D39       -0.99574   0.00101   0.00814   0.01724   0.02494  -0.97079
         Item               Value     Threshold  Converged?
 Maximum Force            0.012833     0.000450     NO 
 RMS     Force            0.003574     0.000300     NO 
 Maximum Displacement     0.363616     0.001800     NO 
 RMS     Displacement     0.082544     0.001200     NO 
 Predicted change in Energy=-4.154342D-03
 Lowest energy point so far.  Saving SCF results.
 GradGradGradGradGradGradGradGradGradGradGradGradGradGradGradGradGradGrad

[...]
 ! A10   A(6,5,7)              105.5889         -DE/DX =    0.0                 !
 ! A11   A(6,5,8)              109.8231         -DE/DX =    0.0                 !
 ! A12   A(7,5,8)              109.9673         -DE/DX =    0.0                 !
 ! A13   A(5,8,9)              109.4109         -DE/DX =    0.0                 !
 ! A14   A(5,8,10)             106.4131         -DE/DX =    0.0                 !
 ! A15   A(5,8,11)             110.6476         -DE/DX =    0.0                 !
 ! A16   A(9,8,10)             108.2839         -DE/DX =    0.0                 !
 ! A17   A(9,8,11)             109.5836         -DE/DX =    0.0                 !
 ! A18   A(10,8,11)            112.4052         -DE/DX =    0.0                 !
 ! A19   A(8,10,12)            106.4331         -DE/DX =    0.0                 !
 ! A20   A(8,11,13)            110.1561         -DE/DX =    0.0                 !
 ! A21   A(8,11,14)            107.7464         -DE/DX =    0.0                 !
 ! A22   A(8,11,15)            112.5328         -DE/DX =    0.0                 !
 ! A23   A(13,11,14)           105.7258         -DE/DX =    0.0                 !
 ! A24   A(13,11,15)           110.3181         -DE/DX =    0.0                 !
 ! A25   A(14,11,15)           110.1071         -DE/DX =    0.0                 !
 ! A26   A(11,15,16)           112.053          -DE/DX =    0.0                 !
 ! A27   A(11,15,17)           111.768          -DE/DX =    0.0                 !
 ! A28   A(11,15,18)           111.1026         -DE/DX =    0.0                 !
 ! A29   A(16,15,17)           107.2325         -DE/DX =    0.0                 !
 ! A30   A(16,15,18)           107.0762         -DE/DX =    0.0                 !
 ! A31   A(17,15,18)           107.3398         -DE/DX =    0.0                 !
 ! D1    D(2,1,5,6)            171.5449         -DE/DX =    0.0                 !
 ! D2    D(2,1,5,7)             55.4514         -DE/DX =    0.0                 !
 ! D3    D(2,1,5,8)            -66.5608         -DE/DX =    0.0                 !
 ! D4    D(3,1,5,6)             51.0858         -DE/DX =    0.0                 !
 ! D5    D(3,1,5,7)            -65.0077         -DE/DX =    0.0                 !
 ! D6    D(3,1,5,8)            172.9801         -DE/DX =    0.0                 !
 ! D7    D(4,1,5,6)            -68.9301         -DE/DX =    0.0                 !
 ! D8    D(4,1,5,7)            174.9765         -DE/DX =    0.0                 !
 ! D9    D(4,1,5,8)             52.9642         -DE/DX =    0.0                 !
 ! D10   D(1,5,8,9)             54.449          -DE/DX =    0.0                 !
 ! D11   D(1,5,8,10)           171.2286         -DE/DX =    0.0                 !
 ! D12   D(1,5,8,11)           -66.3854         -DE/DX =    0.0                 !
 ! D13   D(6,5,8,9)            176.5701         -DE/DX =    0.0                 !
 ! D14   D(6,5,8,10)           -66.6503         -DE/DX =    0.0                 !
 ! D15   D(6,5,8,11)            55.7357         -DE/DX =    0.0                 !
 ! D16   D(7,5,8,9)            -67.6509         -DE/DX =    0.0                 !
 ! D17   D(7,5,8,10)            49.1287         -DE/DX =    0.0                 !
 ! D18   D(7,5,8,11)           171.5147         -DE/DX =    0.0                 !
 ! D19   D(5,8,10,12)          171.1661         -DE/DX =    0.0                 !
 ! D20   D(9,8,10,12)          -71.3043         -DE/DX =    0.0                 !
 ! D21   D(11,8,10,12)          49.897          -DE/DX =    0.0                 !
 ! D22   D(5,8,11,13)          -71.4443         -DE/DX =    0.0                 !
 ! D23   D(5,8,11,14)           43.429          -DE/DX =    0.0                 !
 ! D24   D(5,8,11,15)          165.0004         -DE/DX =    0.0                 !
 ! D25   D(9,8,11,13)          167.824          -DE/DX =    0.0                 !
 ! D26   D(9,8,11,14)          -77.3028         -DE/DX =    0.0                 !
 ! D27   D(9,8,11,15)           44.2687         -DE/DX =    0.0                 !
 ! D28   D(10,8,11,13)          47.3697         -DE/DX =    0.0                 !
 ! D29   D(10,8,11,14)         162.243          -DE/DX =    0.0                 !
 ! D30   D(10,8,11,15)         -76.1856         -DE/DX =    0.0                 !
 ! D31   D(8,11,15,16)          62.105          -DE/DX =    0.0                 !
 ! D32   D(8,11,15,17)         -58.2892         -DE/DX =    0.0                 !
 ! D33   D(8,11,15,18)        -178.1635         -DE/DX =    0.0                 !
 ! D34   D(13,11,15,16)        -61.3601         -DE/DX =    0.0                 !
 ! D35   D(13,11,15,17)        178.2457         -DE/DX =    0.0                 !
 ! D36   D(13,11,15,18)         58.3714         -DE/DX =    0.0                 !
 ! D37   D(14,11,15,16)       -177.6765         -DE/DX =    0.0                 !
 ! D38   D(14,11,15,17)         61.9293         -DE/DX =    0.0                 !
 ! D39   D(14,11,15,18)        -57.945          -DE/DX =    0.0                 !
 --------------------------------------------------------------------------------
 Lowest energy point so far.  Saving SCF results.
 Largest change from initial coordinates is atom    4       0.092 Angstoms.
 GradGradGradGradGradGradGradGradGradGradGradGradGradGradGradGradGradGrad

 Leave Link  103 at Wed Sep  7 15:36:40 2022, MaxMem=   131072000 cpu:               0.0 elap:               0.0
 (Enter /opt/g16/l202.exe)
                          Input orientation:                          
 ---------------------------------------------------------------------
 Center     Atomic      Atomic             Coordinates (Angstroms)
 Number     Number       Type             X           Y           Z
 ---------------------------------------------------------------------
      1          6           0        5.745911    3.071090    2.465450
      2          1           0        6.455041    2.566784    3.134735
      3          1           0        5.460780    4.018186    2.938880
      4          1           0        6.286646    3.308006    1.533166
      5          6           0        4.536474    2.210534    2.175394
      6          1           0        3.772451    2.796370    1.626418
      7          1           0        4.051606    1.902828    3.122946
      8          6           0        4.927337    0.968838    1.358510
      9          1           0        5.743108    0.416262    1.889080
     10          8           0        3.780609    0.138266    1.319340
     11          6           0        5.407197    1.372675   -0.046414
     12          1           0        3.973970   -0.557313    0.704095
     13          1           0        4.550775    1.721380   -0.656800
     14          1           0        6.078017    2.255051    0.064508
     15          6           0        6.134376    0.253029   -0.753978
     16          1           0        5.487852   -0.620720   -0.917055
     17          1           0        7.007651   -0.090373   -0.182987
     18          1           0        6.494199    0.576104   -1.739289
 ---------------------------------------------------------------------
                    Distance matrix (angstroms):
                    1          2          3          4          5
     1  C    0.000000
     2  H    1.097785   0.000000
     3  H    1.096552   1.770164   0.000000
     4  H    1.103484   1.772791   1.778326   0.000000
     5  C    1.512424   2.174430   2.169068   2.163332   0.000000
     6  H    2.161941   3.086101   2.462894   2.567420   1.108292
     7  H    2.160511   2.493487   2.548410   3.081774   1.107987
     8  C    2.512935   2.835892   3.475723   2.711076   1.536842
     9  H    2.716675   2.585198   3.762399   2.963830   2.181136
    10  O    3.711797   4.043012   4.527655   4.046380   2.366106
    11  C    3.051033   3.555781   3.989183   2.648397   2.529150
    12  H    4.405389   4.671585   5.304721   4.580013   3.184668
    13  H    3.605345   4.326277   4.362608   3.213500   2.874161
    14  H    2.557486   3.108957   3.428067   1.819119   2.614226
    15  C    4.296171   4.536339   5.316703   3.819305   3.868635
    16  H    5.013720   5.245249   6.032281   4.698568   4.299344
    17  H    4.312894   4.286389   5.386940   3.874791   4.118598
    18  H    4.946182   5.265021   5.899250   4.267941   4.672129
                    6          7          8          9         10
     6  H    0.000000
     7  H    1.765203   0.000000
     8  C    2.178396   2.180017   0.000000
     9  H    3.101193   2.567779   1.119075   0.000000
    10  O    2.675795   2.537738   1.416463   2.062350   0.000000
    11  C    2.738188   3.487626   1.538559   2.184880   2.456591
    12  H    3.484032   3.450966   1.914760   2.341343   0.948549
    13  H    2.640924   3.816880   2.183940   3.099435   2.646608
    14  H    2.836940   3.685709   2.157047   2.611967   3.366521
    15  C    4.208748   4.700032   2.536125   2.676843   3.138795
    16  H    4.592206   4.975209   2.831796   3.002479   2.914138
    17  H    4.698271   4.862124   2.797472   2.479760   3.566940
    18  H    4.864718   5.600695   3.493659   3.708739   4.112236
                   11         12         13         14         15
    11  C    0.000000
    12  H    2.518384   0.000000
    13  H    1.107983   2.716097   0.000000
    14  H    1.113953   3.570081   1.771316   0.000000
    15  C    1.510973   2.729465   2.161779   2.163605   0.000000
    16  H    2.176728   2.219005   2.535997   3.095452   1.099102
    17  H    2.172697   3.195022   3.089205   2.535051   1.098438
    18  H    2.163775   3.688673   2.502066   2.499150   1.097583
                   16         17         18
    16  H    0.000000
    17  H    1.769157   0.000000
    18  H    1.766690   1.769152   0.000000
 Stoichiometry    C5H12O
 Framework group  C1[X(C5H12O)]
 Deg. of freedom    48
 Full point group                 C1      NOp   1
 RotChk:  IX=2 Diff= 1.18D-15
 Largest Abelian subgroup         C1      NOp   1
 Largest concise Abelian subgroup C1      NOp   1
                         Standard orientation:                         
 ---------------------------------------------------------------------
 Center     Atomic      Atomic             Coordinates (Angstroms)
 Number     Number       Type             X           Y           Z
 ---------------------------------------------------------------------
      1          6           0        2.119974   -0.916345    0.189289
      2          1           0        2.224068   -0.999167    1.278985
      3          1           0        3.121029   -1.016150   -0.247007
      4          1           0        1.516180   -1.775914   -0.148722
      5          6           0        1.466193    0.385787   -0.216232
      6          1           0        1.511314    0.510521   -1.316558
      7          1           0        2.029791    1.242233    0.203876
      8          6           0        0.004203    0.437937    0.254671
      9          1           0       -0.038474    0.249067    1.356867
     10          8           0       -0.447505    1.758379    0.012262
     11          6           0       -0.841015   -0.615547   -0.482175
     12          1           0       -1.382633    1.755521    0.171235
     13          1           0       -0.986740   -0.316919   -1.539157
     14          1           0       -0.252910   -1.561071   -0.513906
     15          6           0       -2.175771   -0.856136    0.183846
     16          1           0       -2.800051    0.048386    0.195702
     17          1           0       -2.058005   -1.183928    1.225599
     18          1           0       -2.745040   -1.633779   -0.341410
 ---------------------------------------------------------------------
 Rotational constants (GHZ):           4.6671305           2.4153723           1.7539921
 Leave Link  202 at Wed Sep  7 15:36:40 2022, MaxMem=   131072000 cpu:               0.0 elap:               0.0
 (Enter /opt/g16/l601.exe)
 Copying SCF densities to generalized density rwf, IOpCl= 0 IROHF=0.

 **********************************************************************

            Population analysis using the SCF density.

 **********************************************************************

 Orbital symmetries:
       Occupied  (A) (A) (A) (A) (A) (A) (A) (A) (A) (A) (A) (A)
                 (A) (A) (A) (A) (A) (A) (A)
       Virtual   (A) (A) (A) (A) (A) (A) (A) (A) (A) (A) (A) (A)
                 (A) (A) (A) (A) (A)
 The electronic state is 1-A.
 Alpha  occ. eigenvalues --   -1.48810  -1.26195  -1.19653  -0.93582  -0.82942
 Alpha  occ. eigenvalues --   -0.74489  -0.64718  -0.61271  -0.58736  -0.55700
 Alpha  occ. eigenvalues --   -0.53073  -0.51102  -0.49600  -0.48758  -0.47704
 Alpha  occ. eigenvalues --   -0.44358  -0.43967  -0.42575  -0.40114
 Alpha virt. eigenvalues --    0.11616   0.12649   0.13073   0.13453   0.13608
 Alpha virt. eigenvalues --    0.14649   0.14722   0.15278   0.15381   0.15724
 Alpha virt. eigenvalues --    0.16727   0.16976   0.17437   0.17845   0.18508
 Alpha virt. eigenvalues --    0.18577   0.21235
          Condensed to atoms (all electrons):
               1          2          3          4          5          6
     1  C    4.114777   0.000000   0.000000   0.000000   0.000000   0.000000
     2  H    0.000000   0.961263   0.000000   0.000000   0.000000   0.000000
     3  H    0.000000   0.000000   0.958736   0.000000   0.000000   0.000000
     4  H    0.000000   0.000000   0.000000   0.958311   0.000000   0.000000
     5  C    0.000000   0.000000   0.000000   0.000000   4.111977   0.000000
     6  H    0.000000   0.000000   0.000000   0.000000   0.000000   0.941536
     7  H    0.000000   0.000000   0.000000   0.000000   0.000000   0.000000
     8  C    0.000000   0.000000   0.000000   0.000000   0.000000   0.000000
     9  H    0.000000   0.000000   0.000000   0.000000   0.000000   0.000000
    10  O    0.000000   0.000000   0.000000   0.000000   0.000000   0.000000
    11  C    0.000000   0.000000   0.000000   0.000000   0.000000   0.000000
    12  H    0.000000   0.000000   0.000000   0.000000   0.000000   0.000000
    13  H    0.000000   0.000000   0.000000   0.000000   0.000000   0.000000
    14  H    0.000000   0.000000   0.000000   0.000000   0.000000   0.000000
    15  C    0.000000   0.000000   0.000000   0.000000   0.000000   0.000000
    16  H    0.000000   0.000000   0.000000   0.000000   0.000000   0.000000
    17  H    0.000000   0.000000   0.000000   0.000000   0.000000   0.000000
    18  H    0.000000   0.000000   0.000000   0.000000   0.000000   0.000000
               7          8          9         10         11         12
     1  C    0.000000   0.000000   0.000000   0.000000   0.000000   0.000000
     2  H    0.000000   0.000000   0.000000   0.000000   0.000000   0.000000
     3  H    0.000000   0.000000   0.000000   0.000000   0.000000   0.000000
     4  H    0.000000   0.000000   0.000000   0.000000   0.000000   0.000000
     5  C    0.000000   0.000000   0.000000   0.000000   0.000000   0.000000
     6  H    0.000000   0.000000   0.000000   0.000000   0.000000   0.000000
     7  H    0.935951   0.000000   0.000000   0.000000   0.000000   0.000000
     8  C    0.000000   3.920811   0.000000   0.000000   0.000000   0.000000
     9  H    0.000000   0.000000   0.956513   0.000000   0.000000   0.000000
    10  O    0.000000   0.000000   0.000000   6.313575   0.000000   0.000000
    11  C    0.000000   0.000000   0.000000   0.000000   4.156092   0.000000
    12  H    0.000000   0.000000   0.000000   0.000000   0.000000   0.811797
    13  H    0.000000   0.000000   0.000000   0.000000   0.000000   0.000000
    14  H    0.000000   0.000000   0.000000   0.000000   0.000000   0.000000
    15  C    0.000000   0.000000   0.000000   0.000000   0.000000   0.000000
    16  H    0.000000   0.000000   0.000000   0.000000   0.000000   0.000000
    17  H    0.000000   0.000000   0.000000   0.000000   0.000000   0.000000
    18  H    0.000000   0.000000   0.000000   0.000000   0.000000   0.000000
              13         14         15         16         17         18
     1  C    0.000000   0.000000   0.000000   0.000000   0.000000   0.000000
     2  H    0.000000   0.000000   0.000000   0.000000   0.000000   0.000000
     3  H    0.000000   0.000000   0.000000   0.000000   0.000000   0.000000
     4  H    0.000000   0.000000   0.000000   0.000000   0.000000   0.000000
     5  C    0.000000   0.000000   0.000000   0.000000   0.000000   0.000000
     6  H    0.000000   0.000000   0.000000   0.000000   0.000000   0.000000
     7  H    0.000000   0.000000   0.000000   0.000000   0.000000   0.000000
     8  C    0.000000   0.000000   0.000000   0.000000   0.000000   0.000000
     9  H    0.000000   0.000000   0.000000   0.000000   0.000000   0.000000
    10  O    0.000000   0.000000   0.000000   0.000000   0.000000   0.000000
    11  C    0.000000   0.000000   0.000000   0.000000   0.000000   0.000000
    12  H    0.000000   0.000000   0.000000   0.000000   0.000000   0.000000
    13  H    0.935022   0.000000   0.000000   0.000000   0.000000   0.000000
    14  H    0.000000   0.931185   0.000000   0.000000   0.000000   0.000000
    15  C    0.000000   0.000000   4.106921   0.000000   0.000000   0.000000
    16  H    0.000000   0.000000   0.000000   0.967207   0.000000   0.000000
    17  H    0.000000   0.000000   0.000000   0.000000   0.960030   0.000000
    18  H    0.000000   0.000000   0.000000   0.000000   0.000000   0.958297
 Mulliken charges:
               1
     1  C   -0.114777
     2  H    0.038737
     3  H    0.041264
     4  H    0.041689
     5  C   -0.111977
     6  H    0.058464
     7  H    0.064049
     8  C    0.079189
     9  H    0.043487
    10  O   -0.313575
    11  C   -0.156092
    12  H    0.188203
    13  H    0.064978
    14  H    0.068815
    15  C   -0.106921
    16  H    0.032793
    17  H    0.039970
    18  H    0.041703
 Sum of Mulliken charges =  -0.00000
 Mulliken charges with hydrogens summed into heavy atoms:
               1
     1  C    0.006913
     5  C    0.010537
     8  C    0.122676
    10  O   -0.125372
    11  C   -0.022299
    15  C    0.007545
 Charge=             -0.0000 electrons
 Dipole moment (field-independent basis, Debye):
    X=             -0.7660    Y=             -1.3377    Z=              0.3213  Tot=              1.5746
 N-N= 1.705285601787D+02 E-N=-2.554477449544D+02  KE=-5.969942207456D+01
 Leave Link  601 at Wed Sep  7 15:36:40 2022, MaxMem=   131072000 cpu:               0.0 elap:               0.0
 (Enter /opt/g16/l9999.exe)
 1\1\GINC-TOTEM2\FOpt\RPM3\ZDO\C5H12O1\JRAMOS\07-Sep-2022\0\\#p opt pm3
 \\Conformer number 024. Energy MM = 0.000 kcal/mol\\0,1\C,5.7459107695
 ,3.07108989,2.4654499297\H,6.4550410748,2.5667840833,3.1347345274\H,5.
 4607803867,4.0181860508,2.9388802133\H,6.2866463209,3.3080057371,1.533
 1659061\C,4.5364739109,2.2105343283,2.175394435\H,3.7724506042,2.79637
 01406,1.626418242\H,4.0516055231,1.9028283112,3.1229460457\C,4.9273368
 516,0.9688381021,1.3585103841\H,5.7431082651,0.4162618614,1.8890801301
 \O,3.7806089207,0.1382663536,1.3193398937\C,5.4071974771,1.3726752232,
 -0.0464142392\H,3.9739703305,-0.5573127043,0.7040945938\H,4.5507748528
 ,1.7213803452,-0.6568002695\H,6.0780172748,2.2550511497,0.0645079522\C
 ,6.1343755687,0.2530294587,-0.7539775642\H,5.4878515038,-0.6207199736,
 -0.91705474\H,7.0076514246,-0.0903725737,-0.1829867822\H,6.4941989404,
 0.5761042166,-1.739288658\\Version=ES64L-G16RevA.03\State=1-A\HF=-0.11
 84834\RMSD=1.076e-09\RMSF=1.122e-05\Dipole=0.5241854,0.0015351,-0.3301
 668\PG=C01 [X(C5H12O1)]\\@


 I WANT IT ALL - RICH, THIN, AND CHOCOLATE.
 Job cpu time:       0 days  0 hours  0 minutes  5.3 seconds.
 Elapsed time:       0 days  0 hours  0 minutes  4.2 seconds.
 File lengths (MBytes):  RWF=      6 Int=      0 D2E=      0 Chk=      2 Scr=      1
 Normal termination of Gaussian 16 at Wed Sep  7 15:36:40 2022.
