 Entering Gaussian System, Link 0=/opt/g16/g16
 Input=MD_extract_006_gaussian.com
 Output=MD_extract_006_gaussian.log
 Initial command:
 /opt/g16/l1.exe "/tmp/Gau-316213.inp" -scrdir="/tmp/"
 Entering Link 1 = /opt/g16/l1.exe PID=    316215.
  
 Copyright (c) 1988,1990,1992,1993,1995,1998,2003,2009,2016,
            Gaussian, Inc.  All Rights Reserved.
  
 This is part of the Gaussian(R) 16 program.  It is based on
 the Gaussian(R) 09 system (copyright 2009, Gaussian, Inc.),
 the Gaussian(R) 03 system (copyright 2003, Gaussian, Inc.),
 the Gaussian(R) 98 system (copyright 1998, Gaussian, Inc.),
 the Gaussian(R) 94 system (copyright 1995, Gaussian, Inc.),
 the Gaussian 92(TM) system (copyright 1992, Gaussian, Inc.),
 the Gaussian 90(TM) system (copyright 1990, Gaussian, Inc.),
 the Gaussian 88(TM) system (copyright 1988, Gaussian, Inc.),
 the Gaussian 86(TM) system (copyright 1986, Carnegie Mellon
 University), and the Gaussian 82(TM) system (copyright 1983,
 Carnegie Mellon University). Gaussian is a federally registered
 trademark of Gaussian, Inc.
  
 This software contains proprietary and confidential information,
 including trade secrets, belonging to Gaussian, Inc.
  
 This software is provided under written license and may be
 used, copied, transmitted, or stored only in accord with that
 written license.
  
 The following legend is applicable only to US Government
 contracts under FAR:
  
                    RESTRICTED RIGHTS LEGEND
  
 Use, reproduction and disclosure by the US Government is
 subject to restrictions as set forth in subparagraphs (a)
 and (c) of the Commercial Computer Software - Restricted
 Rights clause in FAR 52.227-19.
  
 Gaussian, Inc.
 340 Quinnipiac St., Bldg. 40, Wallingford CT 06492
  
  
 ---------------------------------------------------------------
 Warning -- This program may not be used in any manner that
 competes with the business of Gaussian, Inc. or will provide
 assistance to any competitor of Gaussian, Inc.  The licensee
 of this program is prohibited from giving any competitor of
 Gaussian, Inc. access to this program.  By using this program,
 the user acknowledges that Gaussian, Inc. is engaged in the
 business of creating and licensing software in the field of
 computational chemistry and represents and warrants to the
 licensee that it is not a competitor of Gaussian, Inc. and that
 it will not use this program in any manner prohibited above.
 ---------------------------------------------------------------
  

 Cite this work as:
 Gaussian 16, Revision A.03,
 M. J. Frisch, G. W. Trucks, H. B. Schlegel, G. E. Scuseria, 
 M. A. Robb, J. R. Cheeseman, G. Scalmani, V. Barone, 
 G. A. Petersson, H. Nakatsuji, X. Li, M. Caricato, A. V. Marenich, 
 J. Bloino, B. G. Janesko, R. Gomperts, B. Mennucci, H. P. Hratchian, 
 J. V. Ortiz, A. F. Izmaylov, J. L. Sonnenberg, D. Williams-Young, 
 F. Ding, F. Lipparini, F. Egidi, J. Goings, B. Peng, A. Petrone, 
 T. Henderson, D. Ranasinghe, V. G. Zakrzewski, J. Gao, N. Rega, 
 G. Zheng, W. Liang, M. Hada, M. Ehara, K. Toyota, R. Fukuda, 
 J. Hasegawa, M. Ishida, T. Nakajima, Y. Honda, O. Kitao, H. Nakai, 
 T. Vreven, K. Throssell, J. A. Montgomery, Jr., J. E. Peralta, 
 F. Ogliaro, M. J. Bearpark, J. J. Heyd, E. N. Brothers, K. N. Kudin, 
 V. N. Staroverov, T. A. Keith, R. Kobayashi, J. Normand, 
 K. Raghavachari, A. P. Rendell, J. C. Burant, S. S. Iyengar, 
 J. Tomasi, M. Cossi, J. M. Millam, M. Klene, C. Adamo, R. Cammi, 
 J. W. Ochterski, R. L. Martin, K. Morokuma, O. Farkas, 
 J. B. Foresman, and D. J. Fox, Gaussian, Inc., Wallingford CT, 2016.
 
 ******************************************
 Gaussian 16:  ES64L-G16RevA.03 25-Dec-2016
                 7-Sep-2022 
 ******************************************
 %chk=MD_extract_006_gaussian.chk
 %nproc=1
 Will use up to    1 processors via shared memory.
 %mem=1000Mb
 ----------
 #p opt pm3
 ----------
 1/18=20,19=15,26=1,38=1/1,3;
 2/9=110,12=2,17=6,18=5,40=1/2;
 3/5=2,25=1,41=800000,71=1/1,2,3;
 4/35=1/1;
 5/5=2,35=1,38=5/2;
 6/7=2,8=2,9=2,10=2,28=1/1;
 7//1,2,3,16;
 1/18=20,19=15,26=1/3(2);
 2/9=110/2;
 99//99;
 2/9=110/2;
 3/5=2,25=1,41=800000,71=1,135=20/1,2,3;
 4/5=5,16=3,35=1/1;
 5/5=2,35=1,38=5/2;
 7//1,2,3,16;
 1/18=20,19=15,26=1/3(-5);
 2/9=110/2;
 6/7=2,8=2,9=2,10=2,19=2,28=1/1;
 99/9=1/99;
 Leave Link    1 at Wed Sep  7 15:33:35 2022, MaxMem=   131072000 cpu:               0.0 elap:               0.0
 (Enter /opt/g16/l101.exe)
 ------------------------------------------------
 Conformer number 006. Energy MM = 0.000 kcal/mol
 ------------------------------------------------
 Symbolic Z-matrix:
 Charge =  0 Multiplicity = 1
 C                     2.935     9.197     1.96 
 H                     3.095     10.201    2.339 
 H                     1.852     9.03      1.949 
 H                     3.389     9.104     0.945 
 C                     3.608     8.322     3.016 
 H                     4.722     8.368     2.92 
 H                     3.378     7.229     2.845 
 C                     3.197     8.678     4.413 
 H                     3.168     9.772     4.544 
 O                     1.868     8.229     4.579 
 C                     4.218     8.226     5.305 
 H                     1.611     8.545     5.438 
 H                     4.522     7.208     4.934 
 H                     5.112     8.869     5.104 
 C                     4.12      8.163     6.854 
 H                     4.233     9.148     7.314 
 H                     4.971     7.596     7.194 
 H                     3.212     7.622     7.272 
 
 ITRead=  0  0  0  0  0  0  0  0  0  0  0  0  0  0  0  0  0  0
 MicOpt= -1 -1 -1 -1 -1 -1 -1 -1 -1 -1 -1 -1 -1 -1 -1 -1 -1 -1
 NAtoms=     18 NQM=       18 NQMF=       0 NMMI=      0 NMMIF=      0
                NMic=       0 NMicF=      0.
                    Isotopes and Nuclear Properties:
 (Nuclear quadrupole moments (NQMom) in fm**2, nuclear magnetic moments (NMagM)
  in nuclear magnetons)

  Atom         1           2           3           4           5           6           7           8           9          10
 IAtWgt=          12           1           1           1          12           1           1          12           1          16
 AtmWgt=  12.0000000   1.0078250   1.0078250   1.0078250  12.0000000   1.0078250   1.0078250  12.0000000   1.0078250  15.9949146
 NucSpn=           0           1           1           1           0           1           1           0           1           0
 AtZEff=  -0.0000000  -0.0000000  -0.0000000  -0.0000000  -0.0000000  -0.0000000  -0.0000000  -0.0000000  -0.0000000  -0.0000000
 NQMom=    0.0000000   0.0000000   0.0000000   0.0000000   0.0000000   0.0000000   0.0000000   0.0000000   0.0000000   0.0000000
 NMagM=    0.0000000   2.7928460   2.7928460   2.7928460   0.0000000   2.7928460   2.7928460   0.0000000   2.7928460   0.0000000
 AtZNuc=   6.0000000   1.0000000   1.0000000   1.0000000   6.0000000   1.0000000   1.0000000   6.0000000   1.0000000   8.0000000

  Atom        11          12          13          14          15          16          17          18
 IAtWgt=          12           1           1           1          12           1           1           1
 AtmWgt=  12.0000000   1.0078250   1.0078250   1.0078250  12.0000000   1.0078250   1.0078250   1.0078250
 NucSpn=           0           1           1           1           0           1           1           1
 AtZEff=  -0.0000000  -0.0000000  -0.0000000  -0.0000000  -0.0000000  -0.0000000  -0.0000000  -0.0000000
 NQMom=    0.0000000   0.0000000   0.0000000   0.0000000   0.0000000   0.0000000   0.0000000   0.0000000
 NMagM=    0.0000000   2.7928460   2.7928460   2.7928460   0.0000000   2.7928460   2.7928460   2.7928460
 AtZNuc=   6.0000000   1.0000000   1.0000000   1.0000000   6.0000000   1.0000000   1.0000000   1.0000000
 Leave Link  101 at Wed Sep  7 15:33:35 2022, MaxMem=   131072000 cpu:               0.1 elap:               0.1
 (Enter /opt/g16/l103.exe)

 GradGradGradGradGradGradGradGradGradGradGradGradGradGradGradGradGradGrad
 Berny optimization.
 Initialization pass.
                           ----------------------------
                           !    Initial Parameters    !
                           ! (Angstroms and Degrees)  !
 --------------------------                            --------------------------
 ! Name  Definition              Value          Derivative Info.                !
 --------------------------------------------------------------------------------
 ! R1    R(1,2)                  1.085          estimate D2E/DX2                !
 ! R2    R(1,3)                  1.0959         estimate D2E/DX2                !
 ! R3    R(1,4)                  1.1158         estimate D2E/DX2                !
 ! R4    R(1,5)                  1.5276         estimate D2E/DX2                !
 ! R5    R(5,6)                  1.1191         estimate D2E/DX2                !
 ! R6    R(5,7)                  1.13           estimate D2E/DX2                !
 ! R7    R(5,8)                  1.4991         estimate D2E/DX2                !
 ! R8    R(8,9)                  1.1022         estimate D2E/DX2                !
 ! R9    R(8,10)                 1.4126         estimate D2E/DX2                !
 ! R10   R(8,11)                 1.4291         estimate D2E/DX2                !
 ! R11   R(10,12)                0.9507         estimate D2E/DX2                !
 ! R12   R(11,13)                1.1253         estimate D2E/DX2                !
 ! R13   R(11,14)                1.1194         estimate D2E/DX2                !
 ! R14   R(11,15)                1.5534         estimate D2E/DX2                !
 ! R15   R(15,16)                1.093          estimate D2E/DX2                !
 ! R16   R(15,17)                1.0776         estimate D2E/DX2                !
 ! R17   R(15,18)                1.1366         estimate D2E/DX2                !
 ! A1    A(2,1,3)              106.8731         estimate D2E/DX2                !
 ! A2    A(2,1,4)              109.565          estimate D2E/DX2                !
 ! A3    A(2,1,5)              102.9197         estimate D2E/DX2                !
 ! A4    A(3,1,4)              112.351          estimate D2E/DX2                !
 ! A5    A(3,1,5)              110.7954         estimate D2E/DX2                !
 ! A6    A(4,1,5)              113.6923         estimate D2E/DX2                !
 ! A7    A(1,5,6)              110.8367         estimate D2E/DX2                !
 ! A8    A(1,5,7)              111.0856         estimate D2E/DX2                !
 ! A9    A(1,5,8)              112.7916         estimate D2E/DX2                !
 ! A10   A(6,5,7)              103.262          estimate D2E/DX2                !
 ! A11   A(6,5,8)              110.0662         estimate D2E/DX2                !
 ! A12   A(7,5,8)              108.3568         estimate D2E/DX2                !
 ! A13   A(5,8,9)              110.7129         estimate D2E/DX2                !
 ! A14   A(5,8,10)             106.976          estimate D2E/DX2                !
 ! A15   A(5,8,11)             108.0997         estimate D2E/DX2                !
 ! A16   A(9,8,10)             106.0676         estimate D2E/DX2                !
 ! A17   A(9,8,11)             104.9834         estimate D2E/DX2                !
 ! A18   A(10,8,11)            119.8855         estimate D2E/DX2                !
 ! A19   A(8,10,12)            104.7657         estimate D2E/DX2                !
 ! A20   A(8,11,13)            105.8627         estimate D2E/DX2                !
 ! A21   A(8,11,14)            106.0703         estimate D2E/DX2                !
 ! A22   A(8,11,15)            126.1679         estimate D2E/DX2                !
 ! A23   A(13,11,14)           104.1629         estimate D2E/DX2                !
 ! A24   A(13,11,15)           108.0053         estimate D2E/DX2                !
 ! A25   A(14,11,15)           104.6393         estimate D2E/DX2                !
 ! A26   A(11,15,16)           112.124          estimate D2E/DX2                !
 ! A27   A(11,15,17)           106.6268         estimate D2E/DX2                !
 ! A28   A(11,15,18)           115.8763         estimate D2E/DX2                !
 ! A29   A(16,15,17)           105.0548         estimate D2E/DX2                !
 ! A30   A(16,15,18)           110.902          estimate D2E/DX2                !
 ! A31   A(17,15,18)           105.331          estimate D2E/DX2                !
 ! D1    D(2,1,5,6)            -75.0893         estimate D2E/DX2                !
 ! D2    D(2,1,5,7)            170.717          estimate D2E/DX2                !
 ! D3    D(2,1,5,8)             48.8373         estimate D2E/DX2                !
 ! D4    D(3,1,5,6)            170.9781         estimate D2E/DX2                !
 ! D5    D(3,1,5,7)             56.7844         estimate D2E/DX2                !
 ! D6    D(3,1,5,8)            -65.0953         estimate D2E/DX2                !
 ! D7    D(4,1,5,6)             43.3258         estimate D2E/DX2                !
 ! D8    D(4,1,5,7)            -70.8679         estimate D2E/DX2                !
 ! D9    D(4,1,5,8)            167.2524         estimate D2E/DX2                !
 ! D10   D(1,5,8,9)            -42.5802         estimate D2E/DX2                !
 ! D11   D(1,5,8,10)            72.5584         estimate D2E/DX2                !
 ! D12   D(1,5,8,11)          -157.0605         estimate D2E/DX2                !
 ! D13   D(6,5,8,9)             81.7703         estimate D2E/DX2                !
 ! D14   D(6,5,8,10)          -163.0911         estimate D2E/DX2                !
 ! D15   D(6,5,8,11)           -32.7101         estimate D2E/DX2                !
 ! D16   D(7,5,8,9)           -165.9871         estimate D2E/DX2                !
 ! D17   D(7,5,8,10)           -50.8485         estimate D2E/DX2                !
 ! D18   D(7,5,8,11)            79.5326         estimate D2E/DX2                !
 ! D19   D(5,8,10,12)         -174.5575         estimate D2E/DX2                !
 ! D20   D(9,8,10,12)          -56.3441         estimate D2E/DX2                !
 ! D21   D(11,8,10,12)          62.0698         estimate D2E/DX2                !
 ! D22   D(5,8,11,13)          -41.8534         estimate D2E/DX2                !
 ! D23   D(5,8,11,14)           68.4241         estimate D2E/DX2                !
 ! D24   D(5,8,11,15)         -169.1381         estimate D2E/DX2                !
 ! D25   D(9,8,11,13)         -160.0612         estimate D2E/DX2                !
 ! D26   D(9,8,11,14)          -49.7837         estimate D2E/DX2                !
 ! D27   D(9,8,11,15)           72.6542         estimate D2E/DX2                !
 ! D28   D(10,8,11,13)          80.9745         estimate D2E/DX2                !
 ! D29   D(10,8,11,14)        -168.748          estimate D2E/DX2                !
 ! D30   D(10,8,11,15)         -46.3101         estimate D2E/DX2                !
 ! D31   D(8,11,15,16)         -76.8026         estimate D2E/DX2                !
 ! D32   D(8,11,15,17)         168.7394         estimate D2E/DX2                !
 ! D33   D(8,11,15,18)          51.8975         estimate D2E/DX2                !
 ! D34   D(13,11,15,16)        156.7833         estimate D2E/DX2                !
 ! D35   D(13,11,15,17)         42.3253         estimate D2E/DX2                !
 ! D36   D(13,11,15,18)        -74.5166         estimate D2E/DX2                !
 ! D37   D(14,11,15,16)         46.2464         estimate D2E/DX2                !
 ! D38   D(14,11,15,17)        -68.2117         estimate D2E/DX2                !
 ! D39   D(14,11,15,18)        174.9464         estimate D2E/DX2                !
 --------------------------------------------------------------------------------
 Trust Radius=3.00D-01 FncErr=1.00D-07 GrdErr=1.00D-07 EigMax=2.50D+02 EigMin=1.00D-04
 Number of steps in this run=     97 maximum allowed number of steps=    108.
 GradGradGradGradGradGradGradGradGradGradGradGradGradGradGradGradGradGrad

 Leave Link  103 at Wed Sep  7 15:33:35 2022, MaxMem=   131072000 cpu:               0.0 elap:               0.0
 (Enter /opt/g16/l202.exe)
                          Input orientation:                          
 ---------------------------------------------------------------------
 Center     Atomic      Atomic             Coordinates (Angstroms)
 Number     Number       Type             X           Y           Z
 ---------------------------------------------------------------------
      1          6           0        2.935000    9.197000    1.960000
      2          1           0        3.095000   10.201000    2.339000
      3          1           0        1.852000    9.030000    1.949000
      4          1           0        3.389000    9.104000    0.945000
      5          6           0        3.608000    8.322000    3.016000
      6          1           0        4.722000    8.368000    2.920000
      7          1           0        3.378000    7.229000    2.845000
      8          6           0        3.197000    8.678000    4.413000
      9          1           0        3.168000    9.772000    4.544000
     10          8           0        1.868000    8.229000    4.579000
     11          6           0        4.218000    8.226000    5.305000
     12          1           0        1.611000    8.545000    5.438000
     13          1           0        4.522000    7.208000    4.934000
     14          1           0        5.112000    8.869000    5.104000
     15          6           0        4.120000    8.163000    6.854000
     16          1           0        4.233000    9.148000    7.314000
     17          1           0        4.971000    7.596000    7.194000
     18          1           0        3.212000    7.622000    7.272000
 ---------------------------------------------------------------------
                    Distance matrix (angstroms):
                    1          2          3          4          5
     1  C    0.000000
     2  H    1.085015   0.000000
     3  H    1.095855   1.751682   0.000000
     4  H    1.115791   1.798077   1.837352   0.000000
     5  C    1.527642   2.062072   2.173313   2.224528   0.000000
     6  H    2.191395   2.518845   3.101288   2.493834   1.119075
     7  H    2.202839   3.028021   2.524895   2.669409   1.129951
     8  C    2.520955   2.575152   2.829174   3.499338   1.499088
     9  H    2.657437   2.247531   3.002740   3.667133   2.151949
    10  O    2.989093   3.226750   2.749319   4.035470   2.340773
    11  C    3.711867   3.736162   4.184150   4.524127   2.370830
    12  H    3.778169   3.814236   3.530783   4.864238   3.147034
    13  H    3.913996   4.210511   4.399865   4.559674   2.398982
    14  H    3.838183   3.672566   4.539554   4.507908   2.630773
    15  C    5.140488   5.058586   5.473074   6.027945   3.875264
    16  H    5.509312   5.210996   5.870801   6.424829   4.421052
    17  H    5.839799   5.820346   6.268536   6.620180   4.454271
    18  H    5.547495   5.567712   5.671542   6.500660   4.331322
                    6          7          8          9         10
     6  H    0.000000
     7  H    1.763316   0.000000
     8  C    2.156565   2.142659   0.000000
     9  H    2.650190   3.065542   1.102197   0.000000
    10  O    3.304076   2.507360   1.412586   2.017938   0.000000
    11  C    2.441804   2.784099   1.429129   2.017855   2.459590
    12  H    4.006242   3.402616   1.893069   2.174630   0.950677
    13  H    2.332766   2.381827   2.046452   2.925664   2.865690
    14  H    2.274414   3.286250   2.044795   2.215433   3.347949
    15  C    3.985070   4.182703   2.660007   2.971748   3.201794
    16  H    4.489405   4.938172   3.116087   3.032573   3.730685
    17  H    4.350294   4.646089   3.471565   3.874053   4.107009
    18  H    4.666532   4.447509   3.047826   3.473675   3.070348
                   11         12         13         14         15
    11  C    0.000000
    12  H    2.629810   0.000000
    13  H    1.125336   3.242762   0.000000
    14  H    1.119413   3.531789   1.770853   0.000000
    15  C    1.553375   2.906211   2.181749   2.131901   0.000000
    16  H    2.210518   3.279919   3.084075   2.394699   1.092975
    17  H    2.128903   3.908163   2.336610   2.451226   1.077632
    18  H    2.290402   2.603591   2.711778   3.140897   1.136604
                   16         17         18
    16  H    0.000000
    17  H    1.722715   0.000000
    18  H    1.836540   1.760920   0.000000
 Stoichiometry    C5H12O
 Framework group  C1[X(C5H12O)]
 Deg. of freedom    48
 Full point group                 C1      NOp   1
 Largest Abelian subgroup         C1      NOp   1
 Largest concise Abelian subgroup C1      NOp   1
                         Standard orientation:                         
 ---------------------------------------------------------------------
 Center     Atomic      Atomic             Coordinates (Angstroms)
 Number     Number       Type             X           Y           Z
 ---------------------------------------------------------------------
      1          6           0        2.526467   -0.204498    0.275782
      2          1           0        2.301075   -0.292571    1.333468
      3          1           0        2.766161    0.848246    0.088228
      4          1           0        3.371735   -0.884935    0.015943
      5          6           0        1.204672   -0.586388   -0.388075
      6          1           0        1.038739   -1.691946   -0.337710
      7          1           0        1.232533   -0.378769   -1.498439
      8          6           0        0.029990    0.137261    0.198202
      9          1           0        0.102285    0.171567    1.297490
     10          8           0        0.110129    1.477475   -0.240891
     11          6           0       -1.144437   -0.631269   -0.071040
     12          1           0       -0.594238    1.924371    0.215110
     13          1           0       -1.039780   -0.991491   -1.132015
     14          1           0       -1.053611   -1.561899    0.544399
     15          6           0       -2.611958   -0.165728    0.135423
     16          1           0       -2.906839   -0.188438    1.187622
     17          1           0       -3.238491   -0.898040   -0.346725
     18          1           0       -2.889003    0.827844   -0.341996
 ---------------------------------------------------------------------
 Rotational constants (GHZ):           7.0475526           1.9252276           1.6451609
 Leave Link  202 at Wed Sep  7 15:33:35 2022, MaxMem=   131072000 cpu:               0.0 elap:               0.0
 (Enter /opt/g16/l301.exe)
 Standard basis: VSTO-6G (5D, 7F)
 Ernie: Thresh=  0.10000D-02 Tol=  0.10000D-05 Strict=F.
  NNHCO=     0 NNPyr=     0 NCTC=     0               EPep=         0.000000000
    EC=       128.027921199  ECS=         2.246438919   EG=         0.570044784
   EHC=         0.000000000  EAt=       -36.836480110  AtH=         2.452923921
 EPDDG=         0.000000000  ECC=       130.844404902 EAtT=        39.289404030
 There are    36 symmetry adapted cartesian basis functions of A   symmetry.
 There are    36 symmetry adapted basis functions of A   symmetry.
    36 basis functions,   216 primitive gaussians,    36 cartesian basis functions
    19 alpha electrons       19 beta electrons
       nuclear repulsion energy       170.1338089329 Hartrees.
 IExCor=    0 DFT=F Ex=HF Corr=None ExCW=0 ScaHFX=  1.000000
 ScaDFX=  1.000000  1.000000  1.000000  1.000000 ScalE2=  1.000000  1.000000
 IRadAn=      5 IRanWt=     -1 IRanGd=            0 ICorTp=0 IEmpDi=  4
 Integral buffers will be    131072 words long.
 Regular integral format.
 Two-electron integral symmetry is turned off.
 Leave Link  301 at Wed Sep  7 15:33:35 2022, MaxMem=   131072000 cpu:               0.0 elap:               0.0
 (Enter /opt/g16/l302.exe)
 Do NDO integrals.
 NPDir=0 NMtPBC=     1 NCelOv=     1 NCel=       1 NClECP=     1 NCelD=      1
         NCelK=      1 NCelE2=     1 NClLst=     1 CellRange=     0.0.
 One-electron integrals computed using PRISM.
 NBasis=    36 RedAO= F EigKep=  0.00D+00  NBF=    36
 NBsUse=    36 1.00D-04 EigRej=  0.00D+00 NBFU=    36
 Leave Link  302 at Wed Sep  7 15:33:35 2022, MaxMem=   131072000 cpu:               0.1 elap:               0.1
 (Enter /opt/g16/l303.exe)
 DipDrv:  MaxL=1.
 Leave Link  303 at Wed Sep  7 15:33:35 2022, MaxMem=   131072000 cpu:               0.0 elap:               0.0
 (Enter /opt/g16/l401.exe)
 Simple Huckel Guess.
 JPrj=0 DoOrth=F DoCkMO=F.
 Leave Link  401 at Wed Sep  7 15:33:35 2022, MaxMem=   131072000 cpu:               0.0 elap:               0.0
 (Enter /opt/g16/l502.exe)
 Keep J ints in memory in canonical form, NReq=862161.
 FoFCou: FMM=F IPFlag=           0 FMFlag=           0 FMFlg1=           0
         NFxFlg=           0 DoJE=F BraDBF=F KetDBF=F FulRan=T
         wScrn=  0.000000 ICntrl=       600 IOpCl=  2 I1Cent=           0 NGrid=           0
         NMat0=    1 NMatS0=     72 NMatT0=    0 NMatD0=    1 NMtDS0=    0 NMtDT0=    0
 Symmetry not used in FoFCou.
 Two-electron integral symmetry not used.
 Closed shell SCF:
 Using DIIS extrapolation, IDIIS=  1040.
 Overlap will be assumed to be unity.
 NGot=   131072000 LenX=   131006778 LenY=   131005041
 Requested convergence on RMS density matrix=1.00D-08 within 128 cycles.
 Requested convergence on MAX density matrix=1.00D-06.
 Requested convergence on             energy=1.00D-06.
 No special actions if energy rises.

 Cycle   1  Pass 1  IDiag  1:
 E= 0.195560285368174    
 DIIS: error= 7.15D-02 at cycle   1 NSaved=   1.
 NSaved= 1 IEnMin= 1 EnMin= 0.195560285368174     IErMin= 1 ErrMin= 7.15D-02
 ErrMax= 7.15D-02  0.00D+00 EMaxC= 1.00D-01 BMatC= 1.09D-01 BMatP= 1.09D-01
 IDIUse=3 WtCom= 2.85D-01 WtEn= 7.15D-01
 Coeff-Com:  0.100D+01
 Coeff-En:   0.100D+01
 Coeff:      0.100D+01
 GapD=    2.000 DampG=2.000 DampE=0.500 DampFc=1.0000 IDamp=-1.
 RMSDP=1.28D-02 MaxDP=1.52D-01              OVMax= 0.00D+00

 Cycle   2  Pass 1  IDiag  1:
 E=-0.656066334148306E-01 Delta-E=       -0.261166918783 Rises=F Damp=F
 DIIS: error= 1.40D-02 at cycle   2 NSaved=   2.
 NSaved= 2 IEnMin= 2 EnMin=-0.656066334148306E-01 IErMin= 2 ErrMin= 1.40D-02
 ErrMax= 1.40D-02  0.00D+00 EMaxC= 1.00D-01 BMatC= 7.11D-03 BMatP= 1.09D-01
 IDIUse=3 WtCom= 8.60D-01 WtEn= 1.40D-01
 Coeff-Com: -0.305D+00 0.131D+01
 Coeff-En:   0.000D+00 0.100D+01
 Coeff:     -0.263D+00 0.126D+01
 RMSDP=4.66D-03 MaxDP=3.85D-02 DE=-2.61D-01 OVMax= 0.00D+00

 Cycle   3  Pass 1  IDiag  3:
 E=-0.875905129509817E-01 Delta-E=       -0.021983879536 Rises=F Damp=F
 DIIS: error= 2.88D-03 at cycle   3 NSaved=   3.
 NSaved= 3 IEnMin= 3 EnMin=-0.875905129509817E-01 IErMin= 3 ErrMin= 2.88D-03
 ErrMax= 2.88D-03  0.00D+00 EMaxC= 1.00D-01 BMatC= 2.16D-04 BMatP= 7.11D-03
 IDIUse=3 WtCom= 9.71D-01 WtEn= 2.88D-02
 Coeff-Com:  0.141D+00-0.687D+00 0.155D+01
 Coeff-En:   0.000D+00 0.000D+00 0.100D+01
 Coeff:      0.137D+00-0.668D+00 0.153D+01
 Gap=     0.510 Goal=   None    Shift=    0.000
 RMSDP=1.30D-03 MaxDP=1.21D-02 DE=-2.20D-02 OVMax= 8.15D-03

 Cycle   4  Pass 1  IDiag  3:
 E=-0.887095617920579E-01 Delta-E=       -0.001119048841 Rises=F Damp=F
 DIIS: error= 5.70D-04 at cycle   4 NSaved=   4.
 NSaved= 4 IEnMin= 4 EnMin=-0.887095617920579E-01 IErMin= 4 ErrMin= 5.70D-04
 ErrMax= 5.70D-04  0.00D+00 EMaxC= 1.00D-01 BMatC= 8.93D-06 BMatP= 2.16D-04
 IDIUse=3 WtCom= 9.94D-01 WtEn= 5.70D-03
 Coeff-Com: -0.293D-01 0.158D+00-0.536D+00 0.141D+01
 Coeff-En:   0.000D+00 0.000D+00 0.000D+00 0.100D+01
 Coeff:     -0.292D-01 0.157D+00-0.533D+00 0.140D+01
 Gap=     0.511 Goal=   None    Shift=    0.000
 RMSDP=3.07D-04 MaxDP=2.79D-03 DE=-1.12D-03 OVMax= 2.08D-03

 Cycle   5  Pass 1  IDiag  3:
 E=-0.887613764746504E-01 Delta-E=       -0.000051814683 Rises=F Damp=F
 DIIS: error= 1.23D-04 at cycle   5 NSaved=   5.
 NSaved= 5 IEnMin= 5 EnMin=-0.887613764746504E-01 IErMin= 5 ErrMin= 1.23D-04
 ErrMax= 1.23D-04  0.00D+00 EMaxC= 1.00D-01 BMatC= 3.04D-07 BMatP= 8.93D-06
 IDIUse=3 WtCom= 9.99D-01 WtEn= 1.23D-03
 Coeff-Com:  0.168D-02-0.122D-01 0.753D-01-0.377D+00 0.131D+01
 Coeff-En:   0.000D+00 0.000D+00 0.000D+00 0.000D+00 0.100D+01
 Coeff:      0.168D-02-0.122D-01 0.752D-01-0.377D+00 0.131D+01
 Gap=     0.511 Goal=   None    Shift=    0.000
 RMSDP=5.35D-05 MaxDP=6.19D-04 DE=-5.18D-05 OVMax= 4.03D-04

 Cycle   6  Pass 1  IDiag  3:
 E=-0.887630898913585E-01 Delta-E=       -0.000001713417 Rises=F Damp=F
 DIIS: error= 3.66D-05 at cycle   6 NSaved=   6.
 NSaved= 6 IEnMin= 6 EnMin=-0.887630898913585E-01 IErMin= 6 ErrMin= 3.66D-05
 ErrMax= 3.66D-05  0.00D+00 EMaxC= 1.00D-01 BMatC= 2.11D-08 BMatP= 3.04D-07
 IDIUse=1 WtCom= 1.00D+00 WtEn= 0.00D+00
 Coeff-Com: -0.244D-03 0.284D-02-0.258D-01 0.156D+00-0.711D+00 0.158D+01
 Coeff:     -0.244D-03 0.284D-02-0.258D-01 0.156D+00-0.711D+00 0.158D+01
 Gap=     0.511 Goal=   None    Shift=    0.000
 RMSDP=1.56D-05 MaxDP=2.18D-04 DE=-1.71D-06 OVMax= 1.33D-04

 Cycle   7  Pass 1  IDiag  3:
 E=-0.887632228862287E-01 Delta-E=       -0.000000132995 Rises=F Damp=F
 DIIS: error= 6.62D-06 at cycle   7 NSaved=   7.
 NSaved= 7 IEnMin= 7 EnMin=-0.887632228862287E-01 IErMin= 7 ErrMin= 6.62D-06
 ErrMax= 6.62D-06  0.00D+00 EMaxC= 1.00D-01 BMatC= 1.38D-09 BMatP= 2.11D-08
 IDIUse=1 WtCom= 1.00D+00 WtEn= 0.00D+00
 Coeff-Com:  0.129D-03-0.141D-02 0.124D-01-0.750D-01 0.359D+00-0.974D+00
 Coeff-Com:  0.168D+01
 Coeff:      0.129D-03-0.141D-02 0.124D-01-0.750D-01 0.359D+00-0.974D+00
 Coeff:      0.168D+01
 Gap=     0.511 Goal=   None    Shift=    0.000
 RMSDP=4.41D-06 MaxDP=5.32D-05 DE=-1.33D-07 OVMax= 2.71D-05

 Cycle   8  Pass 1  IDiag  3:
 E=-0.887632317287057E-01 Delta-E=       -0.000000008842 Rises=F Damp=F
 DIIS: error= 9.27D-07 at cycle   8 NSaved=   8.
 NSaved= 8 IEnMin= 8 EnMin=-0.887632317287057E-01 IErMin= 8 ErrMin= 9.27D-07
 ErrMax= 9.27D-07  0.00D+00 EMaxC= 1.00D-01 BMatC= 4.47D-11 BMatP= 1.38D-09
 IDIUse=1 WtCom= 1.00D+00 WtEn= 0.00D+00
 Coeff-Com: -0.493D-04 0.576D-03-0.526D-02 0.320D-01-0.156D+00 0.438D+00
 Coeff-Com: -0.862D+00 0.155D+01
 Coeff:     -0.493D-04 0.576D-03-0.526D-02 0.320D-01-0.156D+00 0.438D+00
 Coeff:     -0.862D+00 0.155D+01
 Gap=     0.511 Goal=   None    Shift=    0.000
 RMSDP=7.24D-07 MaxDP=6.44D-06 DE=-8.84D-09 OVMax= 4.77D-06

 Cycle   9  Pass 1  IDiag  3:
 E=-0.887632320063290E-01 Delta-E=       -0.000000000278 Rises=F Damp=F
 DIIS: error= 1.75D-07 at cycle   9 NSaved=   9.
 NSaved= 9 IEnMin= 9 EnMin=-0.887632320063290E-01 IErMin= 9 ErrMin= 1.75D-07
 ErrMax= 1.75D-07  0.00D+00 EMaxC= 1.00D-01 BMatC= 2.50D-12 BMatP= 4.47D-11
 IDIUse=1 WtCom= 1.00D+00 WtEn= 0.00D+00
 Coeff-Com:  0.160D-04-0.221D-03 0.218D-02-0.135D-01 0.665D-01-0.190D+00
 Coeff-Com:  0.386D+00-0.841D+00 0.159D+01
 Coeff:      0.160D-04-0.221D-03 0.218D-02-0.135D-01 0.665D-01-0.190D+00
 Coeff:      0.386D+00-0.841D+00 0.159D+01
 Gap=     0.511 Goal=   None    Shift=    0.000
 RMSDP=1.77D-07 MaxDP=1.36D-06 DE=-2.78D-10 OVMax= 1.23D-06

 Cycle  10  Pass 1  IDiag  3:
 E=-0.887632320225293E-01 Delta-E=       -0.000000000016 Rises=F Damp=F
 DIIS: error= 5.49D-08 at cycle  10 NSaved=  10.
 NSaved=10 IEnMin=10 EnMin=-0.887632320225293E-01 IErMin=10 ErrMin= 5.49D-08
 ErrMax= 5.49D-08  0.00D+00 EMaxC= 1.00D-01 BMatC= 1.45D-13 BMatP= 2.50D-12
 IDIUse=1 WtCom= 1.00D+00 WtEn= 0.00D+00
 Coeff-Com: -0.571D-05 0.857D-04-0.872D-03 0.546D-02-0.271D-01 0.778D-01
 Coeff-Com: -0.159D+00 0.362D+00-0.849D+00 0.159D+01
 Coeff:     -0.571D-05 0.857D-04-0.872D-03 0.546D-02-0.271D-01 0.778D-01
 Coeff:     -0.159D+00 0.362D+00-0.849D+00 0.159D+01
 Gap=     0.511 Goal=   None    Shift=    0.000
 RMSDP=4.39D-08 MaxDP=3.73D-07 DE=-1.62D-11 OVMax= 2.08D-07

 Cycle  11  Pass 1  IDiag  3:
 E=-0.887632320233820E-01 Delta-E=       -0.000000000001 Rises=F Damp=F
 DIIS: error= 1.39D-08 at cycle  11 NSaved=  11.
 NSaved=11 IEnMin=11 EnMin=-0.887632320233820E-01 IErMin=11 ErrMin= 1.39D-08
 ErrMax= 1.39D-08  0.00D+00 EMaxC= 1.00D-01 BMatC= 7.61D-15 BMatP= 1.45D-13
 IDIUse=1 WtCom= 1.00D+00 WtEn= 0.00D+00
 Coeff-Com:  0.163D-05-0.238D-04 0.239D-03-0.150D-02 0.744D-02-0.215D-01
 Coeff-Com:  0.440D-01-0.101D+00 0.255D+00-0.650D+00 0.147D+01
 Coeff:      0.163D-05-0.238D-04 0.239D-03-0.150D-02 0.744D-02-0.215D-01
 Coeff:      0.440D-01-0.101D+00 0.255D+00-0.650D+00 0.147D+01
 Gap=     0.511 Goal=   None    Shift=    0.000
 RMSDP=9.63D-09 MaxDP=8.99D-08 DE=-8.53D-13 OVMax= 5.41D-08

 Cycle  12  Pass 2  IDiag  1:
 SCF Done:  E(RPM3) = -0.887632320234E-01 A.U. after   12 cycles
            NFock= 11  Conv=0.96D-08     -V/T= 0.9985
 KE=-5.965028166641D+01 PE=-2.546489659981D+02 EE= 1.440766754996D+02
 Leave Link  502 at Wed Sep  7 15:33:35 2022, MaxMem=   131072000 cpu:               0.0 elap:               0.0
 (Enter /opt/g16/l601.exe)
 Copying SCF densities to generalized density rwf, IOpCl= 0 IROHF=0.

 **********************************************************************

            Population analysis using the SCF density.

 **********************************************************************

 Orbital symmetries:
       Occupied  (A) (A) (A) (A) (A) (A) (A) (A) (A) (A) (A) (A)
                 (A) (A) (A) (A) (A) (A) (A)
       Virtual   (A) (A) (A) (A) (A) (A) (A) (A) (A) (A) (A) (A)
                 (A) (A) (A) (A) (A)
 The electronic state is 1-A.
 Alpha  occ. eigenvalues --   -1.50160  -1.25389  -1.19853  -0.97569  -0.79157
 Alpha  occ. eigenvalues --   -0.75327  -0.66516  -0.60954  -0.57287  -0.55204
 Alpha  occ. eigenvalues --   -0.53828  -0.51651  -0.49541  -0.47406  -0.46278
 Alpha  occ. eigenvalues --   -0.45163  -0.43514  -0.42711  -0.39788
 Alpha virt. eigenvalues --    0.11254   0.12003   0.13140   0.13559   0.14027
 Alpha virt. eigenvalues --    0.14569   0.14821   0.15383   0.15546   0.15956
 Alpha virt. eigenvalues --    0.16785   0.17128   0.17143   0.18404   0.18734
 Alpha virt. eigenvalues --    0.18892   0.21360
          Condensed to atoms (all electrons):
               1          2          3          4          5          6
     1  C    4.104480   0.000000   0.000000   0.000000   0.000000   0.000000
     2  H    0.000000   0.971722   0.000000   0.000000   0.000000   0.000000
     3  H    0.000000   0.000000   0.945350   0.000000   0.000000   0.000000
     4  H    0.000000   0.000000   0.000000   0.953128   0.000000   0.000000
     5  C    0.000000   0.000000   0.000000   0.000000   4.121549   0.000000
     6  H    0.000000   0.000000   0.000000   0.000000   0.000000   0.946970
     7  H    0.000000   0.000000   0.000000   0.000000   0.000000   0.000000
     8  C    0.000000   0.000000   0.000000   0.000000   0.000000   0.000000
     9  H    0.000000   0.000000   0.000000   0.000000   0.000000   0.000000
    10  O    0.000000   0.000000   0.000000   0.000000   0.000000   0.000000
    11  C    0.000000   0.000000   0.000000   0.000000   0.000000   0.000000
    12  H    0.000000   0.000000   0.000000   0.000000   0.000000   0.000000
    13  H    0.000000   0.000000   0.000000   0.000000   0.000000   0.000000
    14  H    0.000000   0.000000   0.000000   0.000000   0.000000   0.000000
    15  C    0.000000   0.000000   0.000000   0.000000   0.000000   0.000000
    16  H    0.000000   0.000000   0.000000   0.000000   0.000000   0.000000
    17  H    0.000000   0.000000   0.000000   0.000000   0.000000   0.000000
    18  H    0.000000   0.000000   0.000000   0.000000   0.000000   0.000000
               7          8          9         10         11         12
     1  C    0.000000   0.000000   0.000000   0.000000   0.000000   0.000000
     2  H    0.000000   0.000000   0.000000   0.000000   0.000000   0.000000
     3  H    0.000000   0.000000   0.000000   0.000000   0.000000   0.000000
     4  H    0.000000   0.000000   0.000000   0.000000   0.000000   0.000000
     5  C    0.000000   0.000000   0.000000   0.000000   0.000000   0.000000
     6  H    0.000000   0.000000   0.000000   0.000000   0.000000   0.000000
     7  H    0.938378   0.000000   0.000000   0.000000   0.000000   0.000000
     8  C    0.000000   3.909023   0.000000   0.000000   0.000000   0.000000
     9  H    0.000000   0.000000   0.971672   0.000000   0.000000   0.000000
    10  O    0.000000   0.000000   0.000000   6.298583   0.000000   0.000000
    11  C    0.000000   0.000000   0.000000   0.000000   4.156785   0.000000
    12  H    0.000000   0.000000   0.000000   0.000000   0.000000   0.816956
    13  H    0.000000   0.000000   0.000000   0.000000   0.000000   0.000000
    14  H    0.000000   0.000000   0.000000   0.000000   0.000000   0.000000
    15  C    0.000000   0.000000   0.000000   0.000000   0.000000   0.000000
    16  H    0.000000   0.000000   0.000000   0.000000   0.000000   0.000000
    17  H    0.000000   0.000000   0.000000   0.000000   0.000000   0.000000
    18  H    0.000000   0.000000   0.000000   0.000000   0.000000   0.000000
              13         14         15         16         17         18
     1  C    0.000000   0.000000   0.000000   0.000000   0.000000   0.000000
     2  H    0.000000   0.000000   0.000000   0.000000   0.000000   0.000000
     3  H    0.000000   0.000000   0.000000   0.000000   0.000000   0.000000
     4  H    0.000000   0.000000   0.000000   0.000000   0.000000   0.000000
     5  C    0.000000   0.000000   0.000000   0.000000   0.000000   0.000000
     6  H    0.000000   0.000000   0.000000   0.000000   0.000000   0.000000
     7  H    0.000000   0.000000   0.000000   0.000000   0.000000   0.000000
     8  C    0.000000   0.000000   0.000000   0.000000   0.000000   0.000000
     9  H    0.000000   0.000000   0.000000   0.000000   0.000000   0.000000
    10  O    0.000000   0.000000   0.000000   0.000000   0.000000   0.000000
    11  C    0.000000   0.000000   0.000000   0.000000   0.000000   0.000000
    12  H    0.000000   0.000000   0.000000   0.000000   0.000000   0.000000
    13  H    0.943773   0.000000   0.000000   0.000000   0.000000   0.000000
    14  H    0.000000   0.944455   0.000000   0.000000   0.000000   0.000000
    15  C    0.000000   0.000000   4.090637   0.000000   0.000000   0.000000
    16  H    0.000000   0.000000   0.000000   0.963014   0.000000   0.000000
    17  H    0.000000   0.000000   0.000000   0.000000   0.967950   0.000000
    18  H    0.000000   0.000000   0.000000   0.000000   0.000000   0.955574
 Mulliken charges:
               1
     1  C   -0.104480
     2  H    0.028278
     3  H    0.054650
     4  H    0.046872
     5  C   -0.121549
     6  H    0.053030
     7  H    0.061622
     8  C    0.090977
     9  H    0.028328
    10  O   -0.298583
    11  C   -0.156785
    12  H    0.183044
    13  H    0.056227
    14  H    0.055545
    15  C   -0.090637
    16  H    0.036986
    17  H    0.032050
    18  H    0.044426
 Sum of Mulliken charges =  -0.00000
 Mulliken charges with hydrogens summed into heavy atoms:
               1
     1  C    0.025319
     5  C   -0.006897
     8  C    0.119305
    10  O   -0.115539
    11  C   -0.045013
    15  C    0.022825
 Charge=              0.0000 electrons
 Dipole moment (field-independent basis, Debye):
    X=             -1.0444    Y=             -0.7506    Z=              0.8561  Tot=              1.5450
 N-N= 1.701338089329D+02 E-N=-2.546489662409D+02  KE=-5.965028166641D+01
 Leave Link  601 at Wed Sep  7 15:33:35 2022, MaxMem=   131072000 cpu:               0.0 elap:               0.0
 (Enter /opt/g16/l701.exe)
 ... and contract with generalized density number  0.
 Compute integral first derivatives.
 Leave Link  701 at Wed Sep  7 15:33:35 2022, MaxMem=   131072000 cpu:               0.0 elap:               0.0
 (Enter /opt/g16/l702.exe)
 L702 exits ... SP integral derivatives will be done elsewhere.
 Leave Link  702 at Wed Sep  7 15:33:35 2022, MaxMem=   131072000 cpu:               0.0 elap:               0.0
 (Enter /opt/g16/l703.exe)
 Integral derivatives from FoFJK, PRISM(SPDF).
 Compute integral first derivatives, UseDBF=F ICtDFT=           0.
 Calling FoFJK, ICntrl=      2127 FMM=F ISym2X=0 I1Cent= 0 IOpClX= 0 NMat=1 NMatS=1 NMatT=0.
 FoFJK:  IHMeth= 9 ICntrl=    2127 DoSepK=F KAlg= 0 I1Cent=           0 FoldK=F
 IRaf=         0 NMat=       1 IRICut=       1 DoRegI=T DoRafI=F ISym2E= 0 IDoP0=3 IntGTp=3.
 FoFCou: FMM=F IPFlag=           0 FMFlag=      100000 FMFlg1=         800
         NFxFlg=           0 DoJE=F BraDBF=F KetDBF=F FulRan=T
         wScrn=  0.000000 ICntrl=      2127 IOpCl=  0 I1Cent=           0 NGrid=           0
         NMat0=    1 NMatS0=      1 NMatT0=    0 NMatD0=    1 NMtDS0=    0 NMtDT0=    0
 Symmetry not used in FoFCou.
 Leave Link  703 at Wed Sep  7 15:33:35 2022, MaxMem=   131072000 cpu:               0.0 elap:               0.0
 (Enter /opt/g16/l716.exe)
 Dipole        =-4.10909926D-01-2.95321339D-01 3.36801708D-01
 ***** Axes restored to original set *****
 -------------------------------------------------------------------
 Center     Atomic                   Forces (Hartrees/Bohr)
 Number     Number              X              Y              Z
 -------------------------------------------------------------------
      1        6           0.012271436   -0.007030779    0.009812047
      2        1          -0.000977413    0.013941936   -0.007686484
      3        1           0.001104179   -0.002139628   -0.006350957
      4        1          -0.008347369   -0.001343138    0.013166818
      5        6           0.002684540   -0.022664052   -0.044240520
      6        1          -0.005109462    0.003203911   -0.003347624
      7        1           0.000985570    0.010257471   -0.002323658
      8        6          -0.056978602    0.040990108   -0.019979036
      9        1          -0.004172954    0.014062032   -0.002248356
     10        8          -0.002703011   -0.005378357    0.011881748
     11        6           0.069106830   -0.043447077    0.069081886
     12        1          -0.001058977   -0.003198555   -0.001608236
     13        1           0.000685739    0.001980333    0.010358743
     14        1          -0.000896472   -0.003022625    0.001067321
     15        6          -0.025035465   -0.005558791   -0.020799841
     16        1          -0.007906952    0.002976310    0.000079962
     17        1           0.010844439   -0.009350143    0.006104363
     18        1           0.015503944    0.015721043   -0.012968175
 -------------------------------------------------------------------
 Cartesian Forces:  Max     0.069106830 RMS     0.020563622
 Leave Link  716 at Wed Sep  7 15:33:36 2022, MaxMem=   131072000 cpu:               0.0 elap:               0.0
 (Enter /opt/g16/l103.exe)

 GradGradGradGradGradGradGradGradGradGradGradGradGradGradGradGradGradGrad
 Berny optimization.
 FormGI is forming the generalized inverse of G from B-inverse, IUseBI=4.
 Internal  Forces:  Max     0.090415697 RMS     0.013712559
 Search for a local minimum.
 Step number   1 out of a maximum of   97
 All quantities printed in internal units (Hartrees-Bohrs-Radians)
 RMS Force = .13713D-01 SwitMx=.10000D-02 MixMth= 1
 Mixed Optimization -- RFO/linear search
 Second derivative matrix not updated -- first step.
 ITU=  0
     Eigenvalues ---    0.00230   0.00400   0.00778   0.01525   0.01703
     Eigenvalues ---    0.02890   0.03561   0.04650   0.04801   0.04880
     Eigenvalues ---    0.04993   0.05158   0.05665   0.05899   0.06450
     Eigenvalues ---    0.07237   0.08617   0.10870   0.12374   0.13788
     Eigenvalues ---    0.16000   0.16000   0.16000   0.16000   0.16000
     Eigenvalues ---    0.16000   0.16000   0.16529   0.20816   0.21780
     Eigenvalues ---    0.22093   0.27366   0.29642   0.29938   0.30576
     Eigenvalues ---    0.31029   0.31623   0.31658   0.31994   0.32473
     Eigenvalues ---    0.33440   0.34145   0.34471   0.35395   0.36282
     Eigenvalues ---    0.41115   0.43597   0.57528
 RFO step:  Lambda=-4.85305184D-02 EMin= 2.30000000D-03
 Linear search not attempted -- first point.
 Maximum step size (   0.300) exceeded in Quadratic search.
    -- Step size scaled by   0.806
 Iteration  1 RMS(Cart)=  0.11631744 RMS(Int)=  0.00548651
 Iteration  2 RMS(Cart)=  0.00738415 RMS(Int)=  0.00065120
 Iteration  3 RMS(Cart)=  0.00002732 RMS(Int)=  0.00065073
 Iteration  4 RMS(Cart)=  0.00000001 RMS(Int)=  0.00065073
 ITry= 1 IFail=0 DXMaxC= 3.08D-01 DCOld= 1.00D+10 DXMaxT= 3.00D-01 DXLimC= 3.00D+00 Rises=F
 Variable       Old X    -DE/DX   Delta X   Delta X   Delta X     New X
                                 (Linear)    (Quad)   (Total)
    R1        2.05038   0.01007   0.00000   0.02016   0.02016   2.07054
    R2        2.07087  -0.00070   0.00000  -0.00145  -0.00145   2.06942
    R3        2.10854  -0.01526   0.00000  -0.03336  -0.03336   2.07518
    R4        2.88682  -0.00600   0.00000  -0.01402  -0.01402   2.87281
    R5        2.11474  -0.00467   0.00000  -0.01030  -0.01030   2.10445
    R6        2.13530  -0.00977   0.00000  -0.02222  -0.02222   2.11308
    R7        2.83287   0.04027   0.00000   0.08690   0.08690   2.91977
    R8        2.08285   0.01380   0.00000   0.02903   0.02903   2.11188
    R9        2.66940   0.00747   0.00000   0.01242   0.01242   2.68182
   R10        2.70066   0.09042   0.00000   0.15844   0.15844   2.85910
   R11        1.79652  -0.00223   0.00000  -0.00288  -0.00288   1.79364
   R12        2.12658  -0.00502   0.00000  -0.01127  -0.01127   2.11530
   R13        2.11538  -0.00264   0.00000  -0.00584  -0.00584   2.10955
   R14        2.93545  -0.02724   0.00000  -0.06811  -0.06811   2.86734
   R15        2.06542   0.00190   0.00000   0.00389   0.00389   2.06931
   R16        2.03643   0.01541   0.00000   0.03018   0.03018   2.06660
   R17        2.14787  -0.02464   0.00000  -0.05704  -0.05704   2.09083
    A1        1.86529  -0.00417   0.00000   0.00007  -0.00141   1.86388
    A2        1.91227  -0.00661   0.00000  -0.02097  -0.02060   1.89167
    A3        1.79629   0.01884   0.00000   0.08242   0.08188   1.87817
    A4        1.96090  -0.00382   0.00000  -0.03009  -0.03063   1.93027
    A5        1.93374   0.00259   0.00000   0.00639   0.00541   1.93915
    A6        1.98431  -0.00518   0.00000  -0.02729  -0.02742   1.95689
    A7        1.93447  -0.00352   0.00000  -0.02000  -0.02004   1.91443
    A8        1.93881  -0.00276   0.00000  -0.01527  -0.01532   1.92349
    A9        1.96859   0.00117   0.00000   0.00283   0.00289   1.97148
   A10        1.80226   0.00117   0.00000   0.00693   0.00659   1.80885
   A11        1.92102   0.00213   0.00000   0.01301   0.01298   1.93399
   A12        1.89118   0.00193   0.00000   0.01358   0.01356   1.90474
   A13        1.93230  -0.00813   0.00000  -0.02212  -0.02354   1.90876
   A14        1.86708  -0.00202   0.00000  -0.00517  -0.00375   1.86334
   A15        1.88670   0.02210   0.00000   0.07283   0.07276   1.95945
   A16        1.85123   0.00545   0.00000   0.00764   0.00751   1.85874
   A17        1.83231   0.00174   0.00000   0.02146   0.02097   1.85328
   A18        2.09240  -0.01995   0.00000  -0.07637  -0.07614   2.01625
   A19        1.82851   0.00444   0.00000   0.01717   0.01717   1.84568
   A20        1.84765   0.01923   0.00000   0.06693   0.06516   1.91282
   A21        1.85128   0.01099   0.00000   0.03564   0.03496   1.88624
   A22        2.20205  -0.03602   0.00000  -0.11052  -0.11021   2.09184
   A23        1.81799  -0.00440   0.00000   0.00011  -0.00151   1.81647
   A24        1.88505   0.00362   0.00000  -0.00434  -0.00324   1.88181
   A25        1.82630   0.01050   0.00000   0.02780   0.02853   1.85483
   A26        1.95693   0.00020   0.00000  -0.00325  -0.00407   1.95286
   A27        1.86099   0.00524   0.00000   0.03130   0.03138   1.89237
   A28        2.02242  -0.00813   0.00000  -0.03896  -0.03940   1.98303
   A29        1.83355   0.00214   0.00000   0.02405   0.02372   1.85728
   A30        1.93561  -0.00022   0.00000  -0.01722  -0.01833   1.91728
   A31        1.83837   0.00231   0.00000   0.01499   0.01544   1.85382
    D1       -1.31056   0.00080   0.00000   0.00998   0.01055  -1.30001
    D2        2.97957   0.00310   0.00000   0.02238   0.02283   3.00240
    D3        0.85237   0.00179   0.00000   0.01392   0.01444   0.86682
    D4        2.98413  -0.00523   0.00000  -0.03542  -0.03564   2.94849
    D5        0.99107  -0.00294   0.00000  -0.02302  -0.02336   0.96772
    D6       -1.13613  -0.00425   0.00000  -0.03148  -0.03174  -1.16787
    D7        0.75618   0.00203   0.00000   0.02256   0.02238   0.77856
    D8       -1.23688   0.00432   0.00000   0.03496   0.03466  -1.20222
    D9        2.91911   0.00301   0.00000   0.02650   0.02628   2.94538
   D10       -0.74316   0.00308   0.00000   0.01928   0.01903  -0.72414
   D11        1.26638   0.00423   0.00000   0.01406   0.01396   1.28034
   D12       -2.74122  -0.00714   0.00000  -0.03568  -0.03529  -2.77651
   D13        1.42716   0.00095   0.00000   0.00508   0.00476   1.43192
   D14       -2.84648   0.00210   0.00000  -0.00014  -0.00031  -2.84679
   D15       -0.57090  -0.00927   0.00000  -0.04988  -0.04955  -0.62045
   D16       -2.89702   0.00443   0.00000   0.02707   0.02684  -2.87018
   D17       -0.88747   0.00558   0.00000   0.02185   0.02178  -0.86570
   D18        1.38811  -0.00579   0.00000  -0.02790  -0.02747   1.36063
   D19       -3.04660   0.00614   0.00000   0.00860   0.00914  -3.03746
   D20       -0.98339  -0.00152   0.00000  -0.01566  -0.01612  -0.99951
   D21        1.08332  -0.00755   0.00000  -0.02994  -0.03002   1.05330
   D22       -0.73048  -0.00483   0.00000  -0.02494  -0.02512  -0.75560
   D23        1.19423   0.00267   0.00000   0.01736   0.01916   1.21338
   D24       -2.95202   0.00068   0.00000   0.00675   0.00828  -2.94373
   D25       -2.79359  -0.00691   0.00000  -0.04529  -0.04710  -2.84069
   D26       -0.86889   0.00060   0.00000  -0.00300  -0.00282  -0.87171
   D27        1.26805  -0.00139   0.00000  -0.01360  -0.01370   1.25436
   D28        1.41327  -0.00301   0.00000  -0.02494  -0.02664   1.38664
   D29       -2.94521   0.00450   0.00000   0.01736   0.01764  -2.92757
   D30       -0.80826   0.00251   0.00000   0.00676   0.00677  -0.80150
   D31       -1.34046   0.00507   0.00000   0.03950   0.03991  -1.30055
   D32        2.94506  -0.00063   0.00000  -0.00581  -0.00542   2.93964
   D33        0.90578  -0.00244   0.00000  -0.02375  -0.02276   0.88303
   D34        2.73639   0.00495   0.00000   0.04451   0.04355   2.77993
   D35        0.73872  -0.00075   0.00000  -0.00079  -0.00178   0.73694
   D36       -1.30056  -0.00257   0.00000  -0.01873  -0.01911  -1.31967
   D37        0.80715   0.00378   0.00000   0.03376   0.03375   0.84090
   D38       -1.19052  -0.00193   0.00000  -0.01155  -0.01158  -1.20210
   D39        3.05339  -0.00374   0.00000  -0.02949  -0.02892   3.02448
         Item               Value     Threshold  Converged?
 Maximum Force            0.090416     0.000450     NO 
 RMS     Force            0.013713     0.000300     NO 
 Maximum Displacement     0.308368     0.001800     NO 
 RMS     Displacement     0.116280     0.001200     NO 
 Predicted change in Energy=-2.612790D-02
 Lowest energy point so far.  Saving SCF results.
 GradGradGradGradGradGradGradGradGradGradGradGradGradGradGradGradGradGrad

 Leave Link  103 at Wed Sep  7 15:33:36 2022, MaxMem=   131072000 cpu:               0.0 elap:               0.0
 (Enter /opt/g16/l202.exe)
                          Input orientation:                          
 ---------------------------------------------------------------------
 Center     Atomic      Atomic             Coordinates (Angstroms)
 Number     Number       Type             X           Y           Z
 ---------------------------------------------------------------------
      1          6           0        2.876844    9.224817    1.944633
      2          1           0        3.025743   10.263939    2.258596
      3          1           0        1.797965    9.038614    1.968469
      4          1           0        3.265818    9.112298    0.923879
      5          6           0        3.607945    8.335179    2.937166
      6          1           0        4.705262    8.394610    2.756819
      7          1           0        3.366686    7.260659    2.743359
      8          6           0        3.274334    8.671863    4.407745
      9          1           0        3.240040    9.781599    4.535211
     10          8           0        1.958414    8.197772    4.647760
     11          6           0        4.332847    8.169900    5.365175
     12          1           0        1.733197    8.493791    5.520996
     13          1           0        4.639985    7.133237    5.075371
     14          1           0        5.255515    8.779291    5.211863
     15          6           0        4.063747    8.174104    6.858447
     16          1           0        4.115528    9.183506    7.279782
     17          1           0        4.847084    7.592471    7.352457
     18          1           0        3.104046    7.699350    7.137271
 ---------------------------------------------------------------------
                    Distance matrix (angstroms):
                    1          2          3          4          5
     1  C    0.000000
     2  H    1.095682   0.000000
     3  H    1.095089   1.758703   0.000000
     4  H    1.098136   1.779153   1.803106   0.000000
     5  C    1.520225   2.125919   2.170074   2.185014   0.000000
     6  H    2.166103   2.561913   3.080359   2.438594   1.113625
     7  H    2.176195   3.061197   2.494487   2.597932   1.118195
     8  C    2.555519   2.686139   2.874759   3.511606   1.545074
     9  H    2.674511   2.336996   3.036408   3.672921   2.186603
    10  O    3.034011   3.334117   2.812713   4.051290   2.380329
    11  C    3.864311   3.967915   4.326419   4.663880   2.539297
    12  H    3.825271   3.930312   3.594645   4.885178   3.196250
    13  H    4.157510   4.510132   4.621729   4.799990   2.661145
    14  H    4.065877   3.987210   4.747789   4.738839   2.843584
    15  C    5.163168   5.157857   5.458299   6.061023   3.950968
    16  H    5.477212   5.250454   5.796735   6.412845   4.453719
    17  H    5.982555   6.033361   6.354194   6.792414   4.645630
    18  H    5.416840   5.512233   5.496907   6.374075   4.277742
                    6          7          8          9         10
     6  H    0.000000
     7  H    1.754369   0.000000
     8  C    2.202267   2.184080   0.000000
     9  H    2.689478   3.095466   1.117559   0.000000
    10  O    3.340595   2.547185   1.419160   2.040524   0.000000
    11  C    2.644373   2.938385   1.512973   2.116752   2.480604
    12  H    4.060010   3.450241   1.909487   2.213774   0.949153
    13  H    2.640266   2.660039   2.162891   3.043918   2.916661
    14  H    2.545191   3.459397   2.140846   2.350450   3.395181
    15  C    4.157345   4.272496   2.622380   2.942780   3.052888
    16  H    4.628967   4.983697   3.036113   2.942255   3.542930
    17  H    4.667273   4.852366   3.508555   3.913023   4.003273
    18  H    4.715468   4.423561   2.902601   3.335411   2.785420
                   11         12         13         14         15
    11  C    0.000000
    12  H    2.624378   0.000000
    13  H    1.119371   3.240232   0.000000
    14  H    1.116324   3.547364   1.762668   0.000000
    15  C    1.517331   2.706000   2.143552   2.120802   0.000000
    16  H    2.177233   3.040483   3.055828   2.395673   1.095033
    17  H    2.132406   3.723294   2.332146   2.481432   1.093600
    18  H    2.207191   2.263339   2.632684   3.082578   1.106417
                   16         17         18
    16  H    0.000000
    17  H    1.752669   0.000000
    18  H    1.801701   1.759520   0.000000
 Stoichiometry    C5H12O
 Framework group  C1[X(C5H12O)]
 Deg. of freedom    48
 Full point group                 C1      NOp   1
 RotChk:  IX=0 Diff= 2.73D-02
 Largest Abelian subgroup         C1      NOp   1
 Largest concise Abelian subgroup C1      NOp   1
                         Standard orientation:                         
 ---------------------------------------------------------------------
 Center     Atomic      Atomic             Coordinates (Angstroms)
 Number     Number       Type             X           Y           Z
 ---------------------------------------------------------------------
      1          6           0        2.573665   -0.114490    0.293005
      2          1           0        2.424851   -0.189591    1.375933
      3          1           0        2.768883    0.940335    0.072880
      4          1           0        3.438629   -0.732890    0.018558
      5          6           0        1.295388   -0.586828   -0.380781
      6          1           0        1.222791   -1.695958   -0.312057
      7          1           0        1.344527   -0.393467   -1.481034
      8          6           0        0.027672    0.082962    0.195006
      9          1           0        0.112439    0.141557    1.307804
     10          8           0        0.019942    1.420398   -0.279568
     11          6           0       -1.223938   -0.717501   -0.091036
     12          1           0       -0.709318    1.844057    0.155845
     13          1           0       -1.204012   -1.079860   -1.149946
     14          1           0       -1.183259   -1.652922    0.516839
     15          6           0       -2.587881   -0.103600    0.164070
     16          1           0       -2.822024   -0.058859    1.232842
     17          1           0       -3.346674   -0.745689   -0.291906
     18          1           0       -2.715808    0.896844   -0.290797
 ---------------------------------------------------------------------
 Rotational constants (GHZ):           7.1892022           1.8640907           1.6135321
 Leave Link  202 at Wed Sep  7 15:33:36 2022, MaxMem=   131072000 cpu:               0.0 elap:               0.0
 (Enter /opt/g16/l301.exe)
 Standard basis: VSTO-6G (5D, 7F)
 Ernie: Thresh=  0.10000D-02 Tol=  0.10000D-05 Strict=F.
  NNHCO=     0 NNPyr=     0 NCTC=     0               EPep=         0.000000000
    EC=       127.127988831  ECS=         2.195236632   EG=         0.564098175
   EHC=         0.000000000  EAt=       -36.836480110  AtH=         2.452923921
 EPDDG=         0.000000000  ECC=       129.887323638 EAtT=        39.289404030
 There are    36 symmetry adapted cartesian basis functions of A   symmetry.
 There are    36 symmetry adapted basis functions of A   symmetry.
    36 basis functions,   216 primitive gaussians,    36 cartesian basis functions
    19 alpha electrons       19 beta electrons
       nuclear repulsion energy       169.1767276685 Hartrees.
 IExCor=    0 DFT=F Ex=HF Corr=None ExCW=0 ScaHFX=  1.000000
 ScaDFX=  1.000000  1.000000  1.000000  1.000000 ScalE2=  1.000000  1.000000
 IRadAn=      5 IRanWt=     -1 IRanGd=            0 ICorTp=0 IEmpDi=  4
 Integral buffers will be    131072 words long.
 Regular integral format.
 Two-electron integral symmetry is turned off.
 Leave Link  301 at Wed Sep  7 15:33:36 2022, MaxMem=   131072000 cpu:               0.0 elap:               0.0
 (Enter /opt/g16/l302.exe)
 Do NDO integrals.
 NPDir=0 NMtPBC=     1 NCelOv=     1 NCel=       1 NClECP=     1 NCelD=      1
         NCelK=      1 NCelE2=     1 NClLst=     1 CellRange=     0.0.
 One-electron integrals computed using PRISM.
 NBasis=    36 RedAO= F EigKep=  0.00D+00  NBF=    36
 NBsUse=    36 1.00D-04 EigRej=  0.00D+00 NBFU=    36
 Leave Link  302 at Wed Sep  7 15:33:36 2022, MaxMem=   131072000 cpu:               0.1 elap:               0.0
 (Enter /opt/g16/l303.exe)
 DipDrv:  MaxL=1.
 Leave Link  303 at Wed Sep  7 15:33:36 2022, MaxMem=   131072000 cpu:               0.0 elap:               0.0
 (Enter /opt/g16/l401.exe)
 Initial guess from the checkpoint file:  "MD_extract_006_gaussian.chk"
 B after Tr=     0.000000    0.000000    0.000000
         Rot=    0.999907    0.012146   -0.001519   -0.006079 Ang=   1.57 deg.
 Guess basis will be translated and rotated to current coordinates.
 JPrj=0 DoOrth=T DoCkMO=T.
 Leave Link  401 at Wed Sep  7 15:33:36 2022, MaxMem=   131072000 cpu:               0.0 elap:               0.0
 (Enter /opt/g16/l502.exe)
 Keep J ints in memory in canonical form, NReq=862161.
 FoFCou: FMM=F IPFlag=           0 FMFlag=           0 FMFlg1=           0
         NFxFlg=           0 DoJE=F BraDBF=F KetDBF=F FulRan=T
         wScrn=  0.000000 ICntrl=       600 IOpCl=  2 I1Cent=           0 NGrid=           0
         NMat0=    1 NMatS0=     72 NMatT0=    0 NMatD0=    1 NMtDS0=    0 NMtDT0=    0
 Symmetry not used in FoFCou.
 Two-electron integral symmetry not used.
 Closed shell SCF:
 Using DIIS extrapolation, IDIIS=  1040.
 Overlap will be assumed to be unity.
 NGot=   131072000 LenX=   131006778 LenY=   131005041
 Requested convergence on RMS density matrix=1.00D-08 within 128 cycles.
 Requested convergence on MAX density matrix=1.00D-06.
 Requested convergence on             energy=1.00D-06.
 No special actions if energy rises.

 Cycle   1  Pass 1  IDiag  1:
 E=-0.883331453173355E-01
 DIIS: error= 1.61D-02 at cycle   1 NSaved=   1.
 NSaved= 1 IEnMin= 1 EnMin=-0.883331453173355E-01 IErMin= 1 ErrMin= 1.61D-02
 ErrMax= 1.61D-02  0.00D+00 EMaxC= 1.00D-01 BMatC= 5.45D-03 BMatP= 5.45D-03
 IDIUse=3 WtCom= 8.39D-01 WtEn= 1.61D-01
 Coeff-Com:  0.100D+01
 Coeff-En:   0.100D+01
 Coeff:      0.100D+01
 GapD=    2.000 DampG=2.000 DampE=0.500 DampFc=1.0000 IDamp=-1.
 RMSDP=3.71D-03 MaxDP=3.08D-02              OVMax= 0.00D+00

 Cycle   2  Pass 1  IDiag  3:
 E=-0.107121630965509     Delta-E=       -0.018788485648 Rises=F Damp=F
 DIIS: error= 6.91D-03 at cycle   2 NSaved=   2.
 NSaved= 2 IEnMin= 2 EnMin=-0.107121630965509     IErMin= 2 ErrMin= 6.91D-03
 ErrMax= 6.91D-03  0.00D+00 EMaxC= 1.00D-01 BMatC= 7.75D-04 BMatP= 5.45D-03
 IDIUse=3 WtCom= 9.31D-01 WtEn= 6.91D-02
 Coeff-Com: -0.527D+00 0.153D+01
 Coeff-En:   0.000D+00 0.100D+01
 Coeff:     -0.490D+00 0.149D+01
 Gap=     0.511 Goal=   None    Shift=    0.000
 RMSDP=2.27D-03 MaxDP=1.93D-02 DE=-1.88D-02 OVMax= 1.48D-02

 Cycle   3  Pass 1  IDiag  3:
 E=-0.110731571552435     Delta-E=       -0.003609940587 Rises=F Damp=F
 DIIS: error= 1.08D-03 at cycle   3 NSaved=   3.
 NSaved= 3 IEnMin= 3 EnMin=-0.110731571552435     IErMin= 3 ErrMin= 1.08D-03
 ErrMax= 1.08D-03  0.00D+00 EMaxC= 1.00D-01 BMatC= 2.00D-05 BMatP= 7.75D-04
 IDIUse=3 WtCom= 9.89D-01 WtEn= 1.08D-02
 Coeff-Com:  0.172D+00-0.611D+00 0.144D+01
 Coeff-En:   0.000D+00 0.000D+00 0.100D+01
 Coeff:      0.170D+00-0.605D+00 0.143D+01
 Gap=     0.511 Goal=   None    Shift=    0.000
 RMSDP=4.37D-04 MaxDP=3.94D-03 DE=-3.61D-03 OVMax= 2.49D-03

 Cycle   4  Pass 1  IDiag  3:
 E=-0.110838537370768     Delta-E=       -0.000106965818 Rises=F Damp=F
 DIIS: error= 1.18D-04 at cycle   4 NSaved=   4.
 NSaved= 4 IEnMin= 4 EnMin=-0.110838537370768     IErMin= 4 ErrMin= 1.18D-04
 ErrMax= 1.18D-04  0.00D+00 EMaxC= 1.00D-01 BMatC= 5.48D-07 BMatP= 2.00D-05
 IDIUse=3 WtCom= 9.99D-01 WtEn= 1.18D-03
 Coeff-Com: -0.756D-01 0.276D+00-0.731D+00 0.153D+01
 Coeff-En:   0.000D+00 0.000D+00 0.000D+00 0.100D+01
 Coeff:     -0.755D-01 0.276D+00-0.730D+00 0.153D+01
 Gap=     0.511 Goal=   None    Shift=    0.000
 RMSDP=7.45D-05 MaxDP=5.55D-04 DE=-1.07D-04 OVMax= 7.53D-04

 Cycle   5  Pass 1  IDiag  3:
 E=-0.110841821152661     Delta-E=       -0.000003283782 Rises=F Damp=F
 DIIS: error= 3.54D-05 at cycle   5 NSaved=   5.
 NSaved= 5 IEnMin= 5 EnMin=-0.110841821152661     IErMin= 5 ErrMin= 3.54D-05
 ErrMax= 3.54D-05  0.00D+00 EMaxC= 1.00D-01 BMatC= 3.62D-08 BMatP= 5.48D-07
 IDIUse=1 WtCom= 1.00D+00 WtEn= 0.00D+00
 Coeff-Com:  0.311D-01-0.114D+00 0.313D+00-0.819D+00 0.159D+01
 Coeff:      0.311D-01-0.114D+00 0.313D+00-0.819D+00 0.159D+01
 Gap=     0.511 Goal=   None    Shift=    0.000
 RMSDP=2.18D-05 MaxDP=2.16D-04 DE=-3.28D-06 OVMax= 2.83D-04

 Cycle   6  Pass 1  IDiag  3:
 E=-0.110842065620375     Delta-E=       -0.000000244468 Rises=F Damp=F
 DIIS: error= 9.04D-06 at cycle   6 NSaved=   6.
 NSaved= 6 IEnMin= 6 EnMin=-0.110842065620375     IErMin= 6 ErrMin= 9.04D-06
 ErrMax= 9.04D-06  0.00D+00 EMaxC= 1.00D-01 BMatC= 2.24D-09 BMatP= 3.62D-08
 IDIUse=1 WtCom= 1.00D+00 WtEn= 0.00D+00
 Coeff-Com: -0.102D-01 0.375D-01-0.104D+00 0.295D+00-0.759D+00 0.154D+01
 Coeff:     -0.102D-01 0.375D-01-0.104D+00 0.295D+00-0.759D+00 0.154D+01
 Gap=     0.511 Goal=   None    Shift=    0.000
 RMSDP=5.62D-06 MaxDP=5.63D-05 DE=-2.44D-07 OVMax= 7.50D-05

 Cycle   7  Pass 1  IDiag  3:
 E=-0.110842080972418     Delta-E=       -0.000000015352 Rises=F Damp=F
 DIIS: error= 1.86D-06 at cycle   7 NSaved=   7.
 NSaved= 7 IEnMin= 7 EnMin=-0.110842080972418     IErMin= 7 ErrMin= 1.86D-06
 ErrMax= 1.86D-06  0.00D+00 EMaxC= 1.00D-01 BMatC= 1.27D-10 BMatP= 2.24D-09
 IDIUse=1 WtCom= 1.00D+00 WtEn= 0.00D+00
 Coeff-Com:  0.190D-02-0.700D-02 0.199D-01-0.619D-01 0.197D+00-0.609D+00
 Coeff-Com:  0.146D+01
 Coeff:      0.190D-02-0.700D-02 0.199D-01-0.619D-01 0.197D+00-0.609D+00
 Coeff:      0.146D+01
 Gap=     0.511 Goal=   None    Shift=    0.000
 RMSDP=1.28D-06 MaxDP=1.00D-05 DE=-1.54D-08 OVMax= 1.34D-05

 Cycle   8  Pass 1  IDiag  3:
 E=-0.110842081787013     Delta-E=       -0.000000000815 Rises=F Damp=F
 DIIS: error= 3.19D-07 at cycle   8 NSaved=   8.
 NSaved= 8 IEnMin= 8 EnMin=-0.110842081787013     IErMin= 8 ErrMin= 3.19D-07
 ErrMax= 3.19D-07  0.00D+00 EMaxC= 1.00D-01 BMatC= 5.32D-12 BMatP= 1.27D-10
 IDIUse=1 WtCom= 1.00D+00 WtEn= 0.00D+00
 Coeff-Com: -0.194D-03 0.717D-03-0.216D-02 0.778D-02-0.315D-01 0.128D+00
 Coeff-Com: -0.482D+00 0.138D+01
 Coeff:     -0.194D-03 0.717D-03-0.216D-02 0.778D-02-0.315D-01 0.128D+00
 Coeff:     -0.482D+00 0.138D+01
 Gap=     0.511 Goal=   None    Shift=    0.000
 RMSDP=2.53D-07 MaxDP=1.84D-06 DE=-8.15D-10 OVMax= 2.52D-06

 Cycle   9  Pass 1  IDiag  3:
 E=-0.110842081819669     Delta-E=       -0.000000000033 Rises=F Damp=F
 DIIS: error= 1.02D-07 at cycle   9 NSaved=   9.
 NSaved= 9 IEnMin= 9 EnMin=-0.110842081819669     IErMin= 9 ErrMin= 1.02D-07
 ErrMax= 1.02D-07  0.00D+00 EMaxC= 1.00D-01 BMatC= 2.85D-13 BMatP= 5.32D-12
 IDIUse=1 WtCom= 1.00D+00 WtEn= 0.00D+00
 Coeff-Com:  0.444D-04-0.165D-03 0.526D-03-0.213D-02 0.988D-02-0.446D-01
 Coeff-Com:  0.187D+00-0.665D+00 0.151D+01
 Coeff:      0.444D-04-0.165D-03 0.526D-03-0.213D-02 0.988D-02-0.446D-01
 Coeff:      0.187D+00-0.665D+00 0.151D+01
 Gap=     0.511 Goal=   None    Shift=    0.000
 RMSDP=5.82D-08 MaxDP=5.86D-07 DE=-3.27D-11 OVMax= 7.26D-07

 Cycle  10  Pass 1  IDiag  3:
 E=-0.110842081821460     Delta-E=       -0.000000000002 Rises=F Damp=F
 DIIS: error= 3.98D-08 at cycle  10 NSaved=  10.
 NSaved=10 IEnMin=10 EnMin=-0.110842081821460     IErMin=10 ErrMin= 3.98D-08
 ErrMax= 3.98D-08  0.00D+00 EMaxC= 1.00D-01 BMatC= 2.91D-14 BMatP= 2.85D-13
 IDIUse=1 WtCom= 1.00D+00 WtEn= 0.00D+00
 Coeff-Com: -0.112D-04 0.422D-04-0.154D-03 0.769D-03-0.424D-02 0.209D-01
 Coeff-Com: -0.915D-01 0.350D+00-0.103D+01 0.175D+01
 Coeff:     -0.112D-04 0.422D-04-0.154D-03 0.769D-03-0.424D-02 0.209D-01
 Coeff:     -0.915D-01 0.350D+00-0.103D+01 0.175D+01
 Gap=     0.511 Goal=   None    Shift=    0.000
 RMSDP=2.28D-08 MaxDP=2.71D-07 DE=-1.79D-12 OVMax= 2.40D-07

 Cycle  11  Pass 1  IDiag  3:
 E=-0.110842081821829     Delta-E=       -0.000000000000 Rises=F Damp=F
 DIIS: error= 9.26D-09 at cycle  11 NSaved=  11.
 NSaved=11 IEnMin=11 EnMin=-0.110842081821829     IErMin=11 ErrMin= 9.26D-09
 ErrMax= 9.26D-09  0.00D+00 EMaxC= 1.00D-01 BMatC= 1.75D-15 BMatP= 2.91D-14
 IDIUse=1 WtCom= 1.00D+00 WtEn= 0.00D+00
 Coeff-Com:  0.908D-06-0.362D-05 0.233D-04-0.184D-03 0.127D-02-0.682D-02
 Coeff-Com:  0.309D-01-0.122D+00 0.389D+00-0.868D+00 0.158D+01
 Coeff:      0.908D-06-0.362D-05 0.233D-04-0.184D-03 0.127D-02-0.682D-02
 Coeff:      0.309D-01-0.122D+00 0.389D+00-0.868D+00 0.158D+01
 Gap=     0.511 Goal=   None    Shift=    0.000
 RMSDP=5.75D-09 MaxDP=6.61D-08 DE=-3.69D-13 OVMax= 5.80D-08

 Cycle  12  Pass 2  IDiag  1:
 SCF Done:  E(RPM3) = -0.110842081822     A.U. after   12 cycles
            NFock= 11  Conv=0.58D-08     -V/T= 0.9981
 KE=-5.962908504885D+01 PE=-2.528677677128D+02 EE= 1.432092830112D+02
 Leave Link  502 at Wed Sep  7 15:33:36 2022, MaxMem=   131072000 cpu:               0.0 elap:               0.0
 (Enter /opt/g16/l701.exe)
 ... and contract with generalized density number  0.
 Compute integral first derivatives.
 Leave Link  701 at Wed Sep  7 15:33:36 2022, MaxMem=   131072000 cpu:               0.0 elap:               0.0
 (Enter /opt/g16/l702.exe)
 L702 exits ... SP integral derivatives will be done elsewhere.
 Leave Link  702 at Wed Sep  7 15:33:36 2022, MaxMem=   131072000 cpu:               0.0 elap:               0.0
 (Enter /opt/g16/l703.exe)
 Integral derivatives from FoFJK, PRISM(SPDF).
 Compute integral first derivatives, UseDBF=F ICtDFT=           0.
 Calling FoFJK, ICntrl=      2127 FMM=F ISym2X=0 I1Cent= 0 IOpClX= 0 NMat=1 NMatS=1 NMatT=0.
 FoFJK:  IHMeth= 9 ICntrl=    2127 DoSepK=F KAlg= 0 I1Cent=           0 FoldK=F
 IRaf=         0 NMat=       1 IRICut=       1 DoRegI=T DoRafI=F ISym2E= 0 IDoP0=3 IntGTp=3.
 FoFCou: FMM=F IPFlag=           0 FMFlag=      100000 FMFlg1=         800
         NFxFlg=           0 DoJE=F BraDBF=F KetDBF=F FulRan=T
         wScrn=  0.000000 ICntrl=      2127 IOpCl=  0 I1Cent=           0 NGrid=           0
         NMat0=    1 NMatS0=      1 NMatT0=    0 NMatD0=    1 NMtDS0=    0 NMtDT0=    0
 Symmetry not used in FoFCou.
 Leave Link  703 at Wed Sep  7 15:33:36 2022, MaxMem=   131072000 cpu:               0.0 elap:               0.0
 (Enter /opt/g16/l716.exe)
 Dipole        =-3.87575635D-01-2.86757859D-01 3.47658557D-01
 ***** Axes restored to original set *****
 -------------------------------------------------------------------
 Center     Atomic                   Forces (Hartrees/Bohr)
 Number     Number              X              Y              Z
 -------------------------------------------------------------------
      1        6           0.006027713   -0.000210861    0.013207316
      2        1          -0.000801405    0.004386413   -0.004460844
      3        1          -0.000438286   -0.001301202   -0.003754108
      4        1          -0.002976852   -0.001266264    0.001965937
      5        6           0.000785775   -0.011837308   -0.002072875
      6        1          -0.002838060    0.002613434    0.003567503
      7        1          -0.000129762    0.004933545    0.000477603
      8        6          -0.013306764    0.015821924   -0.005998900
      9        1          -0.000813905    0.002691158   -0.001938874
     10        8           0.005546003   -0.002817437    0.002119215
     11        6           0.020689005   -0.016148990    0.004798128
     12        1           0.000125521   -0.001494799   -0.000531364
     13        1          -0.003504589    0.003986248    0.000517815
     14        1          -0.002830277   -0.001785944   -0.002565975
     15        6          -0.006920934   -0.002023232   -0.006965782
     16        1          -0.004537718    0.001234303    0.000409978
     17        1           0.002183335   -0.001851828    0.003436397
     18        1           0.003741200    0.005070842   -0.002211170
 -------------------------------------------------------------------
 Cartesian Forces:  Max     0.020689005 RMS     0.006000588
 Leave Link  716 at Wed Sep  7 15:33:36 2022, MaxMem=   131072000 cpu:               0.0 elap:               0.0
 (Enter /opt/g16/l103.exe)

 GradGradGradGradGradGradGradGradGradGradGradGradGradGradGradGradGradGrad
 Berny optimization.
 Using GEDIIS/GDIIS optimizer.
 FormGI is forming the generalized inverse of G from B-inverse, IUseBI=4.
 Internal  Forces:  Max     0.017788020 RMS     0.003602170
 Search for a local minimum.
 Step number   2 out of a maximum of   97
 All quantities printed in internal units (Hartrees-Bohrs-Radians)
 RMS Force = .36022D-02 SwitMx=.10000D-02 MixMth= 1
 Mixed Optimization -- RFO/linear search
 Update second derivatives using D2CorX and points    1    2
 DE= -2.21D-02 DEPred=-2.61D-02 R= 8.45D-01
 TightC=F SS=  1.41D+00  RLast= 3.38D-01 DXNew= 5.0454D-01 1.0130D+00
 Trust test= 8.45D-01 RLast= 3.38D-01 DXMaxT set to 5.05D-01
 ITU=  1  0
 Use linear search instead of GDIIS.
     Eigenvalues ---    0.00230   0.00400   0.00778   0.01526   0.01704
     Eigenvalues ---    0.03343   0.03562   0.04651   0.04896   0.04992
     Eigenvalues ---    0.05083   0.05317   0.05521   0.05730   0.05979
     Eigenvalues ---    0.07708   0.08689   0.10060   0.12369   0.13237
     Eigenvalues ---    0.15600   0.16000   0.16000   0.16000   0.16000
     Eigenvalues ---    0.16000   0.16043   0.17159   0.20212   0.21583
     Eigenvalues ---    0.21869   0.27500   0.29484   0.29850   0.30500
     Eigenvalues ---    0.30979   0.31583   0.31643   0.31962   0.33337
     Eigenvalues ---    0.34140   0.34465   0.34661   0.35447   0.36318
     Eigenvalues ---    0.43305   0.50450   0.57524
 RFO step:  Lambda=-8.58460755D-03 EMin= 2.29933932D-03
 Quartic linear search produced a step of  0.27093.
 Iteration  1 RMS(Cart)=  0.08065476 RMS(Int)=  0.00367654
 Iteration  2 RMS(Cart)=  0.00507951 RMS(Int)=  0.00080263
 Iteration  3 RMS(Cart)=  0.00001308 RMS(Int)=  0.00080255
 Iteration  4 RMS(Cart)=  0.00000001 RMS(Int)=  0.00080255
 ITry= 1 IFail=0 DXMaxC= 3.10D-01 DCOld= 1.00D+10 DXMaxT= 5.05D-01 DXLimC= 3.00D+00 Rises=F
 Variable       Old X    -DE/DX   Delta X   Delta X   Delta X     New X
                                 (Linear)    (Quad)   (Total)
    R1        2.07054   0.00277   0.00546   0.00615   0.01161   2.08215
    R2        2.06942   0.00057  -0.00039   0.00231   0.00191   2.07133
    R3        2.07518  -0.00275  -0.00904  -0.00480  -0.01384   2.06134
    R4        2.87281  -0.00447  -0.00380  -0.01605  -0.01985   2.85296
    R5        2.10445  -0.00323  -0.00279  -0.01075  -0.01354   2.09091
    R6        2.11308  -0.00480  -0.00602  -0.01539  -0.02140   2.09168
    R7        2.91977  -0.00800   0.02354  -0.04519  -0.02164   2.89812
    R8        2.11188   0.00248   0.00786   0.00408   0.01194   2.12382
    R9        2.68182  -0.00355   0.00337  -0.01221  -0.00885   2.67298
   R10        2.85910   0.00836   0.04293  -0.00242   0.04051   2.89962
   R11        1.79364  -0.00098  -0.00078  -0.00162  -0.00240   1.79124
   R12        2.11530  -0.00479  -0.00305  -0.01696  -0.02002   2.09529
   R13        2.10955  -0.00296  -0.00158  -0.01048  -0.01206   2.09749
   R14        2.86734  -0.00426  -0.01845  -0.00731  -0.02577   2.84157
   R15        2.06931   0.00108   0.00105   0.00318   0.00423   2.07355
   R16        2.06660   0.00410   0.00818   0.00868   0.01686   2.08346
   R17        2.09083  -0.00598  -0.01546  -0.01463  -0.03008   2.06074
    A1        1.86388  -0.00201  -0.00038   0.01171   0.00880   1.87267
    A2        1.89167  -0.00294  -0.00558  -0.01100  -0.01608   1.87559
    A3        1.87817   0.00840   0.02218   0.06566   0.08674   1.96491
    A4        1.93027  -0.00265  -0.00830  -0.04298  -0.05238   1.87789
    A5        1.93915   0.00132   0.00147   0.00382   0.00331   1.94247
    A6        1.95689  -0.00192  -0.00743  -0.02255  -0.03028   1.92661
    A7        1.91443   0.00155  -0.00543   0.01016   0.00417   1.91860
    A8        1.92349  -0.00023  -0.00415   0.00561   0.00147   1.92495
    A9        1.97148  -0.00124   0.00078  -0.01338  -0.01278   1.95870
   A10        1.80885   0.00101   0.00178   0.02523   0.02703   1.83588
   A11        1.93399  -0.00201   0.00352  -0.03369  -0.03029   1.90371
   A12        1.90474   0.00111   0.00367   0.00939   0.01319   1.91793
   A13        1.90876  -0.00025  -0.00638   0.01564   0.00924   1.91800
   A14        1.86334   0.00354  -0.00102   0.00044  -0.00326   1.86008
   A15        1.95945  -0.00393   0.01971  -0.05320  -0.03514   1.92431
   A16        1.85874   0.00103   0.00203   0.03378   0.03675   1.89549
   A17        1.85328   0.00418   0.00568   0.05010   0.05663   1.90991
   A18        2.01625  -0.00427  -0.02063  -0.03941  -0.06099   1.95527
   A19        1.84568   0.00104   0.00465   0.00493   0.00958   1.85525
   A20        1.91282   0.00462   0.01765  -0.00149   0.01536   1.92817
   A21        1.88624   0.00311   0.00947  -0.00028   0.01039   1.89663
   A22        2.09184  -0.01779  -0.02986  -0.08644  -0.11632   1.97551
   A23        1.81647  -0.00209  -0.00041   0.01893   0.01635   1.83282
   A24        1.88181   0.00636  -0.00088   0.03456   0.03212   1.91393
   A25        1.85483   0.00763   0.00773   0.04954   0.05636   1.91120
   A26        1.95286   0.00058  -0.00110  -0.00293  -0.00542   1.94744
   A27        1.89237   0.00368   0.00850   0.04046   0.04876   1.94113
   A28        1.98303  -0.00208  -0.01067  -0.02015  -0.03154   1.95149
   A29        1.85728  -0.00011   0.00643   0.01719   0.02281   1.88009
   A30        1.91728  -0.00194  -0.00497  -0.04074  -0.04746   1.86982
   A31        1.85382   0.00010   0.00418   0.01139   0.01601   1.86983
    D1       -1.30001   0.00255   0.00286   0.06592   0.06964  -1.23037
    D2        3.00240   0.00060   0.00618   0.02691   0.03384   3.03624
    D3        0.86682   0.00021   0.00391   0.02007   0.02474   0.89156
    D4        2.94849  -0.00071  -0.00966   0.01096   0.00102   2.94951
    D5        0.96772  -0.00267  -0.00633  -0.02805  -0.03478   0.93293
    D6       -1.16787  -0.00305  -0.00860  -0.03490  -0.04388  -1.21175
    D7        0.77856   0.00319   0.00606   0.08124   0.08695   0.86551
    D8       -1.20222   0.00124   0.00939   0.04224   0.05115  -1.15107
    D9        2.94538   0.00085   0.00712   0.03539   0.04205   2.98743
   D10       -0.72414  -0.00011   0.00515   0.00493   0.00982  -0.71432
   D11        1.28034   0.00284   0.00378   0.05240   0.05602   1.33636
   D12       -2.77651  -0.00273  -0.00956  -0.03487  -0.04450  -2.82102
   D13        1.43192  -0.00051   0.00129  -0.01720  -0.01582   1.41611
   D14       -2.84679   0.00243  -0.00008   0.03027   0.03038  -2.81641
   D15       -0.62045  -0.00314  -0.01343  -0.05700  -0.07014  -0.69060
   D16       -2.87018   0.00024   0.00727   0.00007   0.00722  -2.86296
   D17       -0.86570   0.00318   0.00590   0.04754   0.05341  -0.81228
   D18        1.36063  -0.00239  -0.00744  -0.03973  -0.04711   1.31352
   D19       -3.03746  -0.00307   0.00248  -0.07649  -0.07364  -3.11111
   D20       -0.99951  -0.00115  -0.00437  -0.04184  -0.04609  -1.04559
   D21        1.05330   0.00231  -0.00813   0.02133   0.01271   1.06601
   D22       -0.75560  -0.00076  -0.00681  -0.00302  -0.01039  -0.76598
   D23        1.21338   0.00073   0.00519   0.01833   0.02271   1.23609
   D24       -2.94373   0.00075   0.00224   0.02198   0.02381  -2.91992
   D25       -2.84069  -0.00089  -0.01276  -0.02382  -0.03683  -2.87753
   D26       -0.87171   0.00061  -0.00077  -0.00248  -0.00374  -0.87545
   D27        1.25436   0.00063  -0.00371   0.00118  -0.00264   1.25172
   D28        1.38664  -0.00260  -0.00722  -0.07792  -0.08422   1.30241
   D29       -2.92757  -0.00110   0.00478  -0.05657  -0.05113  -2.97870
   D30       -0.80150  -0.00108   0.00183  -0.05292  -0.05003  -0.85153
   D31       -1.30055   0.00239   0.01081   0.07150   0.08269  -1.21787
   D32        2.93964  -0.00010  -0.00147   0.02703   0.02585   2.96549
   D33        0.88303  -0.00142  -0.00617  -0.00207  -0.00705   0.87598
   D34        2.77993   0.00441   0.01180   0.11165   0.12362   2.90356
   D35        0.73694   0.00192  -0.00048   0.06718   0.06679   0.80373
   D36       -1.31967   0.00059  -0.00518   0.03807   0.03389  -1.28579
   D37        0.84090   0.00052   0.00914   0.05236   0.06022   0.90112
   D38       -1.20210  -0.00197  -0.00314   0.00789   0.00339  -1.19871
   D39        3.02448  -0.00329  -0.00783  -0.02121  -0.02951   2.99496
         Item               Value     Threshold  Converged?
 Maximum Force            0.017788     0.000450     NO 
 RMS     Force            0.003602     0.000300     NO 
 Maximum Displacement     0.309954     0.001800     NO 
 RMS     Displacement     0.081791     0.001200     NO 
 Predicted change in Energy=-4.737626D-03
 Lowest energy point so far.  Saving SCF results.
 GradGradGradGradGradGradGradGradGradGradGradGradGradGradGradGradGradGrad

[...]
 ! A10   A(6,5,7)              105.7711         -DE/DX =    0.0                 !
 ! A11   A(6,5,8)              108.8648         -DE/DX =    0.0                 !
 ! A12   A(7,5,8)              110.0559         -DE/DX =    0.0                 !
 ! A13   A(5,8,9)              109.7796         -DE/DX =    0.0                 !
 ! A14   A(5,8,10)             107.3875         -DE/DX =    0.0                 !
 ! A15   A(5,8,11)             110.4928         -DE/DX =    0.0                 !
 ! A16   A(9,8,10)             107.8131         -DE/DX =    0.0                 !
 ! A17   A(9,8,11)             109.3444         -DE/DX =    0.0                 !
 ! A18   A(10,8,11)            111.9599         -DE/DX =    0.0                 !
 ! A19   A(8,10,12)            106.0326         -DE/DX =    0.0                 !
 ! A20   A(8,11,13)            109.8318         -DE/DX =    0.0                 !
 ! A21   A(8,11,14)            109.3402         -DE/DX =    0.0                 !
 ! A22   A(8,11,15)            111.5167         -DE/DX =    0.0                 !
 ! A23   A(13,11,14)           105.7757         -DE/DX =    0.0                 !
 ! A24   A(13,11,15)           110.2007         -DE/DX =    0.0                 !
 ! A25   A(14,11,15)           110.0123         -DE/DX =    0.0                 !
 ! A26   A(11,15,16)           111.789          -DE/DX =    0.0                 !
 ! A27   A(11,15,17)           111.5574         -DE/DX =    0.0                 !
 ! A28   A(11,15,18)           110.999          -DE/DX =    0.0                 !
 ! A29   A(16,15,17)           107.5332         -DE/DX =    0.0                 !
 ! A30   A(16,15,18)           107.1799         -DE/DX =    0.0                 !
 ! A31   A(17,15,18)           107.5558         -DE/DX =    0.0                 !
 ! D1    D(2,1,5,6)            -61.924          -DE/DX =    0.0                 !
 ! D2    D(2,1,5,7)           -177.8797         -DE/DX =    0.0                 !
 ! D3    D(2,1,5,8)             59.2028         -DE/DX =    0.0                 !
 ! D4    D(3,1,5,6)            177.8506         -DE/DX =    0.0                 !
 ! D5    D(3,1,5,7)             61.8948         -DE/DX =    0.0                 !
 ! D6    D(3,1,5,8)            -61.0227         -DE/DX =    0.0                 !
 ! D7    D(4,1,5,6)             57.9534         -DE/DX =    0.0                 !
 ! D8    D(4,1,5,7)            -58.0023         -DE/DX =    0.0                 !
 ! D9    D(4,1,5,8)            179.0802         -DE/DX =    0.0                 !
 ! D10   D(1,5,8,9)            -44.6904         -DE/DX =    0.0                 !
 ! D11   D(1,5,8,10)            72.2633         -DE/DX =    0.0                 !
 ! D12   D(1,5,8,11)          -165.3677         -DE/DX =    0.0                 !
 ! D13   D(6,5,8,9)             76.8968         -DE/DX =    0.0                 !
 ! D14   D(6,5,8,10)          -166.1495         -DE/DX =    0.0                 !
 ! D15   D(6,5,8,11)           -43.7805         -DE/DX =    0.0                 !
 ! D16   D(7,5,8,9)           -167.6034         -DE/DX =    0.0                 !
 ! D17   D(7,5,8,10)           -50.6497         -DE/DX =    0.0                 !
 ! D18   D(7,5,8,11)            71.7193         -DE/DX =    0.0                 !
 ! D19   D(5,8,10,12)          164.2664         -DE/DX =    0.0                 !
 ! D20   D(9,8,10,12)          -77.4992         -DE/DX =    0.0                 !
 ! D21   D(11,8,10,12)          42.8124         -DE/DX =    0.0                 !
 ! D22   D(5,8,11,13)          -60.0296         -DE/DX =    0.0                 !
 ! D23   D(5,8,11,14)           55.6208         -DE/DX =    0.0                 !
 ! D24   D(5,8,11,15)          177.5068         -DE/DX =    0.0                 !
 ! D25   D(9,8,11,13)          179.0338         -DE/DX =    0.0                 !
 ! D26   D(9,8,11,14)          -65.3158         -DE/DX =    0.0                 !
 ! D27   D(9,8,11,15)           56.5702         -DE/DX =    0.0                 !
 ! D28   D(10,8,11,13)          59.6187         -DE/DX =    0.0                 !
 ! D29   D(10,8,11,14)         175.2691         -DE/DX =    0.0                 !
 ! D30   D(10,8,11,15)         -62.8449         -DE/DX =    0.0                 !
 ! D31   D(8,11,15,16)         -67.1448         -DE/DX =    0.0                 !
 ! D32   D(8,11,15,17)         172.4065         -DE/DX =    0.0                 !
 ! D33   D(8,11,15,18)          52.4702         -DE/DX =    0.0                 !
 ! D34   D(13,11,15,16)        170.6038         -DE/DX =    0.0                 !
 ! D35   D(13,11,15,17)         50.155          -DE/DX =    0.0                 !
 ! D36   D(13,11,15,18)        -69.7813         -DE/DX =    0.0                 !
 ! D37   D(14,11,15,16)         54.352          -DE/DX =    0.0                 !
 ! D38   D(14,11,15,17)        -66.0968         -DE/DX =    0.0                 !
 ! D39   D(14,11,15,18)        173.9669         -DE/DX =    0.0                 !
 --------------------------------------------------------------------------------
 Lowest energy point so far.  Saving SCF results.
 Largest change from initial coordinates is atom   18       0.547 Angstoms.
 GradGradGradGradGradGradGradGradGradGradGradGradGradGradGradGradGradGrad

 Leave Link  103 at Wed Sep  7 15:33:40 2022, MaxMem=   131072000 cpu:               0.0 elap:               0.0
 (Enter /opt/g16/l202.exe)
                          Input orientation:                          
 ---------------------------------------------------------------------
 Center     Atomic      Atomic             Coordinates (Angstroms)
 Number     Number       Type             X           Y           Z
 ---------------------------------------------------------------------
      1          6           0        2.863999    9.284614    2.007669
      2          1           0        3.020031   10.351544    2.216752
      3          1           0        1.786378    9.090592    2.086961
      4          1           0        3.153035    9.109381    0.963386
      5          6           0        3.661236    8.407864    2.946705
      6          1           0        4.743712    8.603738    2.811202
      7          1           0        3.513468    7.340504    2.687346
      8          6           0        3.293661    8.647978    4.417865
      9          1           0        3.225599    9.746991    4.616632
     10          8           0        2.008708    8.088540    4.630161
     11          6           0        4.352898    8.026353    5.346518
     12          1           0        1.903781    8.021396    5.574389
     13          1           0        4.414634    6.934249    5.168460
     14          1           0        5.350539    8.430514    5.087107
     15          6           0        4.045205    8.301746    6.801670
     16          1           0        4.140830    9.368451    7.043664
     17          1           0        4.719746    7.750145    7.467557
     18          1           0        3.013539    8.002401    7.050956
 ---------------------------------------------------------------------
                    Distance matrix (angstroms):
                    1          2          3          4          5
     1  C    0.000000
     2  H    1.098363   0.000000
     3  H    1.097815   1.768826   0.000000
     4  H    1.097623   1.769629   1.769329   0.000000
     5  C    1.511974   2.172986   2.172640   2.164243   0.000000
     6  H    2.154664   2.525722   3.083403   2.490051   1.108369
     7  H    2.159476   3.087281   2.531029   2.496172   1.108314
     8  C    2.529616   2.796767   2.810857   3.487993   1.535278
     9  H    2.674179   2.483378   2.983529   3.709180   2.184421
    10  O    3.006590   3.459553   2.742518   3.974524   2.380513
    11  C    3.866259   4.120496   4.283029   4.671667   2.526470
    12  H    3.903746   4.236665   3.649537   4.899561   3.184765
    13  H    4.233117   4.726034   4.588374   4.899538   2.770441
    14  H    4.049111   4.166600   4.705296   4.721754   2.726826
    15  C    5.034255   5.125829   5.287065   5.961024   3.875494
    16  H    5.196015   5.051905   5.494502   6.165439   4.235305
    17  H    5.967309   6.101415   6.273138   6.826884   4.689472
    18  H    5.205879   5.374760   5.227937   6.188972   4.174780
                    6          7          8          9         10
     6  H    0.000000
     7  H    1.767654   0.000000
     8  C    2.164711   2.180023   0.000000
     9  H    2.621311   3.097772   1.118914   0.000000
    10  O    3.324800   2.568734   1.417444   2.057053   0.000000
    11  C    2.629437   2.871625   1.539740   2.182689   2.451992
    12  H    4.004939   3.374867   1.913614   2.375327   0.952410
    13  H    2.907258   2.670780   2.181018   3.103197   2.722248
    14  H    2.361776   3.212757   2.173919   2.543585   3.390219
    15  C    4.062382   4.258450   2.523335   2.744973   2.984666
    16  H    4.343039   4.845994   2.851595   2.621341   3.465417
    17  H    4.734009   4.947053   3.484314   3.787828   3.938916
    18  H    4.618509   4.441749   2.725511   3.002416   2.622471
                   11         12         13         14         15
    11  C    0.000000
    12  H    2.459700   0.000000
    13  H    1.108245   2.766053   0.000000
    14  H    1.107216   3.504991   1.766733   0.000000
    15  C    1.512608   2.484051   2.161921   2.158751   0.000000
    16  H    2.174052   2.996283   3.084914   2.484197   1.097981
    17  H    2.170178   3.404015   2.458583   2.554867   1.096666
    18  H    2.167848   1.847206   2.578334   3.082459   1.102763
                   16         17         18
    16  H    0.000000
    17  H    1.770238   0.000000
    18  H    1.771139   1.774354   0.000000
 Stoichiometry    C5H12O
 Framework group  C1[X(C5H12O)]
 Deg. of freedom    48
 Full point group                 C1      NOp   1
 RotChk:  IX=0 Diff= 6.42D-15
 Largest Abelian subgroup         C1      NOp   1
 Largest concise Abelian subgroup C1      NOp   1
                         Standard orientation:                         
 ---------------------------------------------------------------------
 Center     Atomic      Atomic             Coordinates (Angstroms)
 Number     Number       Type             X           Y           Z
 ---------------------------------------------------------------------
      1          6           0        2.533496   -0.082585    0.338252
      2          1           0        2.499850   -0.247867    1.423587
      3          1           0        2.667634    0.994874    0.176114
      4          1           0        3.431471   -0.586044   -0.042464
      5          6           0        1.288620   -0.600889   -0.345640
      6          1           0        1.207399   -1.695662   -0.192809
      7          1           0        1.368305   -0.454793   -1.441390
      8          6           0        0.013236    0.070192    0.183628
      9          1           0        0.046775    0.118954    1.300975
     10          8           0       -0.001289    1.399505   -0.308170
     11          6           0       -1.233432   -0.719760   -0.255225
     12          1           0       -0.891662    1.715121   -0.186898
     13          1           0       -1.283993   -0.758152   -1.361650
     14          1           0       -1.137540   -1.771155    0.078392
     15          6           0       -2.500559   -0.112502    0.304785
     16          1           0       -2.551856   -0.211662    1.397076
     17          1           0       -3.395051   -0.590276   -0.112698
     18          1           0       -2.559181    0.963887    0.072325
 ---------------------------------------------------------------------
 Rotational constants (GHZ):           7.1101901           1.9153356           1.6723777
 Leave Link  202 at Wed Sep  7 15:33:40 2022, MaxMem=   131072000 cpu:               0.0 elap:               0.0
 (Enter /opt/g16/l601.exe)
 Copying SCF densities to generalized density rwf, IOpCl= 0 IROHF=0.

 **********************************************************************

            Population analysis using the SCF density.

 **********************************************************************

 Orbital symmetries:
       Occupied  (A) (A) (A) (A) (A) (A) (A) (A) (A) (A) (A) (A)
                 (A) (A) (A) (A) (A) (A) (A)
       Virtual   (A) (A) (A) (A) (A) (A) (A) (A) (A) (A) (A) (A)
                 (A) (A) (A) (A) (A)
 The electronic state is 1-A.
 Alpha  occ. eigenvalues --   -1.48625  -1.24037  -1.21328  -0.95410  -0.79117
 Alpha  occ. eigenvalues --   -0.76032  -0.65828  -0.61757  -0.56449  -0.55600
 Alpha  occ. eigenvalues --   -0.53678  -0.51709  -0.49722  -0.48172  -0.47036
 Alpha  occ. eigenvalues --   -0.44414  -0.43791  -0.42903  -0.40140
 Alpha virt. eigenvalues --    0.11495   0.12630   0.12926   0.13655   0.13780
 Alpha virt. eigenvalues --    0.14522   0.14728   0.15174   0.15567   0.15889
 Alpha virt. eigenvalues --    0.16803   0.17077   0.17338   0.18400   0.18570
 Alpha virt. eigenvalues --    0.18885   0.21165
          Condensed to atoms (all electrons):
               1          2          3          4          5          6
     1  C    4.106969   0.000000   0.000000   0.000000   0.000000   0.000000
     2  H    0.000000   0.965527   0.000000   0.000000   0.000000   0.000000
     3  H    0.000000   0.000000   0.949128   0.000000   0.000000   0.000000
     4  H    0.000000   0.000000   0.000000   0.965051   0.000000   0.000000
     5  C    0.000000   0.000000   0.000000   0.000000   4.105372   0.000000
     6  H    0.000000   0.000000   0.000000   0.000000   0.000000   0.951482
     7  H    0.000000   0.000000   0.000000   0.000000   0.000000   0.000000
     8  C    0.000000   0.000000   0.000000   0.000000   0.000000   0.000000
     9  H    0.000000   0.000000   0.000000   0.000000   0.000000   0.000000
    10  O    0.000000   0.000000   0.000000   0.000000   0.000000   0.000000
    11  C    0.000000   0.000000   0.000000   0.000000   0.000000   0.000000
    12  H    0.000000   0.000000   0.000000   0.000000   0.000000   0.000000
    13  H    0.000000   0.000000   0.000000   0.000000   0.000000   0.000000
    14  H    0.000000   0.000000   0.000000   0.000000   0.000000   0.000000
    15  C    0.000000   0.000000   0.000000   0.000000   0.000000   0.000000
    16  H    0.000000   0.000000   0.000000   0.000000   0.000000   0.000000
    17  H    0.000000   0.000000   0.000000   0.000000   0.000000   0.000000
    18  H    0.000000   0.000000   0.000000   0.000000   0.000000   0.000000
               7          8          9         10         11         12
     1  C    0.000000   0.000000   0.000000   0.000000   0.000000   0.000000
     2  H    0.000000   0.000000   0.000000   0.000000   0.000000   0.000000
     3  H    0.000000   0.000000   0.000000   0.000000   0.000000   0.000000
     4  H    0.000000   0.000000   0.000000   0.000000   0.000000   0.000000
     5  C    0.000000   0.000000   0.000000   0.000000   0.000000   0.000000
     6  H    0.000000   0.000000   0.000000   0.000000   0.000000   0.000000
     7  H    0.938763   0.000000   0.000000   0.000000   0.000000   0.000000
     8  C    0.000000   3.922983   0.000000   0.000000   0.000000   0.000000
     9  H    0.000000   0.000000   0.954954   0.000000   0.000000   0.000000
    10  O    0.000000   0.000000   0.000000   6.317160   0.000000   0.000000
    11  C    0.000000   0.000000   0.000000   0.000000   4.145557   0.000000
    12  H    0.000000   0.000000   0.000000   0.000000   0.000000   0.808874
    13  H    0.000000   0.000000   0.000000   0.000000   0.000000   0.000000
    14  H    0.000000   0.000000   0.000000   0.000000   0.000000   0.000000
    15  C    0.000000   0.000000   0.000000   0.000000   0.000000   0.000000
    16  H    0.000000   0.000000   0.000000   0.000000   0.000000   0.000000
    17  H    0.000000   0.000000   0.000000   0.000000   0.000000   0.000000
    18  H    0.000000   0.000000   0.000000   0.000000   0.000000   0.000000
              13         14         15         16         17         18
     1  C    0.000000   0.000000   0.000000   0.000000   0.000000   0.000000
     2  H    0.000000   0.000000   0.000000   0.000000   0.000000   0.000000
     3  H    0.000000   0.000000   0.000000   0.000000   0.000000   0.000000
     4  H    0.000000   0.000000   0.000000   0.000000   0.000000   0.000000
     5  C    0.000000   0.000000   0.000000   0.000000   0.000000   0.000000
     6  H    0.000000   0.000000   0.000000   0.000000   0.000000   0.000000
     7  H    0.000000   0.000000   0.000000   0.000000   0.000000   0.000000
     8  C    0.000000   0.000000   0.000000   0.000000   0.000000   0.000000
     9  H    0.000000   0.000000   0.000000   0.000000   0.000000   0.000000
    10  O    0.000000   0.000000   0.000000   0.000000   0.000000   0.000000
    11  C    0.000000   0.000000   0.000000   0.000000   0.000000   0.000000
    12  H    0.000000   0.000000   0.000000   0.000000   0.000000   0.000000
    13  H    0.937693   0.000000   0.000000   0.000000   0.000000   0.000000
    14  H    0.000000   0.939324   0.000000   0.000000   0.000000   0.000000
    15  C    0.000000   0.000000   4.110453   0.000000   0.000000   0.000000
    16  H    0.000000   0.000000   0.000000   0.958853   0.000000   0.000000
    17  H    0.000000   0.000000   0.000000   0.000000   0.955441   0.000000
    18  H    0.000000   0.000000   0.000000   0.000000   0.000000   0.966416
 Mulliken charges:
               1
     1  C   -0.106969
     2  H    0.034473
     3  H    0.050872
     4  H    0.034949
     5  C   -0.105372
     6  H    0.048518
     7  H    0.061237
     8  C    0.077017
     9  H    0.045046
    10  O   -0.317160
    11  C   -0.145557
    12  H    0.191126
    13  H    0.062307
    14  H    0.060676
    15  C   -0.110453
    16  H    0.041147
    17  H    0.044559
    18  H    0.033584
 Sum of Mulliken charges =   0.00000
 Mulliken charges with hydrogens summed into heavy atoms:
               1
     1  C    0.013325
     5  C    0.004382
     8  C    0.122063
    10  O   -0.126034
    11  C   -0.022574
    15  C    0.008837
 Charge=              0.0000 electrons
 Dipole moment (field-independent basis, Debye):
    X=             -1.2457    Y=             -0.8610    Z=              0.5071  Tot=              1.5970
 N-N= 1.700408111310D+02 E-N=-2.545148159419D+02  KE=-5.968715071868D+01
 Leave Link  601 at Wed Sep  7 15:33:40 2022, MaxMem=   131072000 cpu:               0.0 elap:               0.0
 (Enter /opt/g16/l9999.exe)
 1\1\GINC-TOTEM2\FOpt\RPM3\ZDO\C5H12O1\JRAMOS\07-Sep-2022\0\\#p opt pm3
 \\Conformer number 006. Energy MM = 0.000 kcal/mol\\0,1\C,2.8639993172
 ,9.2846136478,2.007668797\H,3.0200310146,10.3515438032,2.2167518325\H,
 1.7863784864,9.0905918086,2.0869613631\H,3.1530351744,9.1093806065,0.9
 633858144\C,3.6612359742,8.4078640794,2.9467048459\H,4.7437123621,8.60
 37378667,2.8112020047\H,3.5134681373,7.3405036265,2.6873458954\C,3.293
 6609614,8.6479784598,4.4178649922\H,3.2255989936,9.7469906812,4.616631
 6182\O,2.0087076615,8.0885396572,4.6301611737\C,4.3528980444,8.0263532
 035,5.3465184823\H,1.9037811233,8.0213962345,5.5743893812\H,4.41463383
 04,6.9342490475,5.1684596256\H,5.3505389439,8.4305144183,5.0871068828\
 C,4.0452049091,8.3017464356,6.8016700789\H,4.1408301023,9.3684506016,7
 .0436640105\H,4.7197462931,7.7501452154,7.4675571409\H,3.0135386708,8.
 0024006066,7.0509560608\\Version=ES64L-G16RevA.03\State=1-A\HF=-0.1176
 668\RMSD=5.375e-09\RMSF=6.729e-06\Dipole=0.4395727,0.1219462,0.4320608
 \PG=C01 [X(C5H12O1)]\\@


 BLESSED ARE THOSE WHO NOUGHT EXPECT,
 FOR THEY SHALL NOT BE DISAPPOINTED..  WALCOT - ODE TO PITT
 Job cpu time:       0 days  0 hours  0 minutes  4.5 seconds.
 Elapsed time:       0 days  0 hours  0 minutes  3.8 seconds.
 File lengths (MBytes):  RWF=      6 Int=      0 D2E=      0 Chk=      2 Scr=      1
 Normal termination of Gaussian 16 at Wed Sep  7 15:33:40 2022.
