 Entering Gaussian System, Link 0=/opt/g16/g16
 Input=MD_extract_003_gaussian.com
 Output=MD_extract_003_gaussian.log
 Initial command:
 /opt/g16/l1.exe "/tmp/Gau-316112.inp" -scrdir="/tmp/"
 Entering Link 1 = /opt/g16/l1.exe PID=    316114.
  
 Copyright (c) 1988,1990,1992,1993,1995,1998,2003,2009,2016,
            Gaussian, Inc.  All Rights Reserved.
  
 This is part of the Gaussian(R) 16 program.  It is based on
 the Gaussian(R) 09 system (copyright 2009, Gaussian, Inc.),
 the Gaussian(R) 03 system (copyright 2003, Gaussian, Inc.),
 the Gaussian(R) 98 system (copyright 1998, Gaussian, Inc.),
 the Gaussian(R) 94 system (copyright 1995, Gaussian, Inc.),
 the Gaussian 92(TM) system (copyright 1992, Gaussian, Inc.),
 the Gaussian 90(TM) system (copyright 1990, Gaussian, Inc.),
 the Gaussian 88(TM) system (copyright 1988, Gaussian, Inc.),
 the Gaussian 86(TM) system (copyright 1986, Carnegie Mellon
 University), and the Gaussian 82(TM) system (copyright 1983,
 Carnegie Mellon University). Gaussian is a federally registered
 trademark of Gaussian, Inc.
  
 This software contains proprietary and confidential information,
 including trade secrets, belonging to Gaussian, Inc.
  
 This software is provided under written license and may be
 used, copied, transmitted, or stored only in accord with that
 written license.
  
 The following legend is applicable only to US Government
 contracts under FAR:
  
                    RESTRICTED RIGHTS LEGEND
  
 Use, reproduction and disclosure by the US Government is
 subject to restrictions as set forth in subparagraphs (a)
 and (c) of the Commercial Computer Software - Restricted
 Rights clause in FAR 52.227-19.
  
 Gaussian, Inc.
 340 Quinnipiac St., Bldg. 40, Wallingford CT 06492
  
  
 ---------------------------------------------------------------
 Warning -- This program may not be used in any manner that
 competes with the business of Gaussian, Inc. or will provide
 assistance to any competitor of Gaussian, Inc.  The licensee
 of this program is prohibited from giving any competitor of
 Gaussian, Inc. access to this program.  By using this program,
 the user acknowledges that Gaussian, Inc. is engaged in the
 business of creating and licensing software in the field of
 computational chemistry and represents and warrants to the
 licensee that it is not a competitor of Gaussian, Inc. and that
 it will not use this program in any manner prohibited above.
 ---------------------------------------------------------------
  

 Cite this work as:
 Gaussian 16, Revision A.03,
 M. J. Frisch, G. W. Trucks, H. B. Schlegel, G. E. Scuseria, 
 M. A. Robb, J. R. Cheeseman, G. Scalmani, V. Barone, 
 G. A. Petersson, H. Nakatsuji, X. Li, M. Caricato, A. V. Marenich, 
 J. Bloino, B. G. Janesko, R. Gomperts, B. Mennucci, H. P. Hratchian, 
 J. V. Ortiz, A. F. Izmaylov, J. L. Sonnenberg, D. Williams-Young, 
 F. Ding, F. Lipparini, F. Egidi, J. Goings, B. Peng, A. Petrone, 
 T. Henderson, D. Ranasinghe, V. G. Zakrzewski, J. Gao, N. Rega, 
 G. Zheng, W. Liang, M. Hada, M. Ehara, K. Toyota, R. Fukuda, 
 J. Hasegawa, M. Ishida, T. Nakajima, Y. Honda, O. Kitao, H. Nakai, 
 T. Vreven, K. Throssell, J. A. Montgomery, Jr., J. E. Peralta, 
 F. Ogliaro, M. J. Bearpark, J. J. Heyd, E. N. Brothers, K. N. Kudin, 
 V. N. Staroverov, T. A. Keith, R. Kobayashi, J. Normand, 
 K. Raghavachari, A. P. Rendell, J. C. Burant, S. S. Iyengar, 
 J. Tomasi, M. Cossi, J. M. Millam, M. Klene, C. Adamo, R. Cammi, 
 J. W. Ochterski, R. L. Martin, K. Morokuma, O. Farkas, 
 J. B. Foresman, and D. J. Fox, Gaussian, Inc., Wallingford CT, 2016.
 
 ******************************************
 Gaussian 16:  ES64L-G16RevA.03 25-Dec-2016
                 7-Sep-2022 
 ******************************************
 %chk=MD_extract_003_gaussian.chk
 %nproc=1
 Will use up to    1 processors via shared memory.
 %mem=1000Mb
 ----------
 #p opt pm3
 ----------
 1/18=20,19=15,26=1,38=1/1,3;
 2/9=110,12=2,17=6,18=5,40=1/2;
 3/5=2,25=1,41=800000,71=1/1,2,3;
 4/35=1/1;
 5/5=2,35=1,38=5/2;
 6/7=2,8=2,9=2,10=2,28=1/1;
 7//1,2,3,16;
 1/18=20,19=15,26=1/3(2);
 2/9=110/2;
 99//99;
 2/9=110/2;
 3/5=2,25=1,41=800000,71=1,135=20/1,2,3;
 4/5=5,16=3,35=1/1;
 5/5=2,35=1,38=5/2;
 7//1,2,3,16;
 1/18=20,19=15,26=1/3(-5);
 2/9=110/2;
 6/7=2,8=2,9=2,10=2,19=2,28=1/1;
 99/9=1/99;
 Leave Link    1 at Wed Sep  7 15:33:27 2022, MaxMem=   131072000 cpu:               0.0 elap:               0.0
 (Enter /opt/g16/l101.exe)
 ------------------------------------------------
 Conformer number 003. Energy MM = 0.000 kcal/mol
 ------------------------------------------------
 Symbolic Z-matrix:
 Charge =  0 Multiplicity = 1
 C                     12.323    13.668    6.086 
 H                     12.344    12.665    6.548 
 H                     13.031    14.26     6.69 
 H                     12.609    13.451    5.072 
 C                     10.905    14.173    6.176 
 H                     10.91     15.3      6.131 
 H                     10.419    13.778    7.066 
 C                     10.196    13.657    5.008 
 H                     10.904    13.829    4.169 
 O                     10.044    12.283    5.268 
 C                     8.986     14.484    4.729 
 H                     9.723     11.9      4.424 
 H                     8.288     13.788    4.209 
 H                     8.573     14.805    5.719 
 C                     9.143     15.722    3.832 
 H                     10.042    16.384    4.035 
 H                     8.261     16.36     3.831 
 H                     9.309     15.406    2.731 
 
 ITRead=  0  0  0  0  0  0  0  0  0  0  0  0  0  0  0  0  0  0
 MicOpt= -1 -1 -1 -1 -1 -1 -1 -1 -1 -1 -1 -1 -1 -1 -1 -1 -1 -1
 NAtoms=     18 NQM=       18 NQMF=       0 NMMI=      0 NMMIF=      0
                NMic=       0 NMicF=      0.
                    Isotopes and Nuclear Properties:
 (Nuclear quadrupole moments (NQMom) in fm**2, nuclear magnetic moments (NMagM)
  in nuclear magnetons)

  Atom         1           2           3           4           5           6           7           8           9          10
 IAtWgt=          12           1           1           1          12           1           1          12           1          16
 AtmWgt=  12.0000000   1.0078250   1.0078250   1.0078250  12.0000000   1.0078250   1.0078250  12.0000000   1.0078250  15.9949146
 NucSpn=           0           1           1           1           0           1           1           0           1           0
 AtZEff=  -0.0000000  -0.0000000  -0.0000000  -0.0000000  -0.0000000  -0.0000000  -0.0000000  -0.0000000  -0.0000000  -0.0000000
 NQMom=    0.0000000   0.0000000   0.0000000   0.0000000   0.0000000   0.0000000   0.0000000   0.0000000   0.0000000   0.0000000
 NMagM=    0.0000000   2.7928460   2.7928460   2.7928460   0.0000000   2.7928460   2.7928460   0.0000000   2.7928460   0.0000000
 AtZNuc=   6.0000000   1.0000000   1.0000000   1.0000000   6.0000000   1.0000000   1.0000000   6.0000000   1.0000000   8.0000000

  Atom        11          12          13          14          15          16          17          18
 IAtWgt=          12           1           1           1          12           1           1           1
 AtmWgt=  12.0000000   1.0078250   1.0078250   1.0078250  12.0000000   1.0078250   1.0078250   1.0078250
 NucSpn=           0           1           1           1           0           1           1           1
 AtZEff=  -0.0000000  -0.0000000  -0.0000000  -0.0000000  -0.0000000  -0.0000000  -0.0000000  -0.0000000
 NQMom=    0.0000000   0.0000000   0.0000000   0.0000000   0.0000000   0.0000000   0.0000000   0.0000000
 NMagM=    0.0000000   2.7928460   2.7928460   2.7928460   0.0000000   2.7928460   2.7928460   2.7928460
 AtZNuc=   6.0000000   1.0000000   1.0000000   1.0000000   6.0000000   1.0000000   1.0000000   1.0000000
 Leave Link  101 at Wed Sep  7 15:33:27 2022, MaxMem=   131072000 cpu:               0.1 elap:               0.1
 (Enter /opt/g16/l103.exe)

 GradGradGradGradGradGradGradGradGradGradGradGradGradGradGradGradGradGrad
 Berny optimization.
 Initialization pass.
                           ----------------------------
                           !    Initial Parameters    !
                           ! (Angstroms and Degrees)  !
 --------------------------                            --------------------------
 ! Name  Definition              Value          Derivative Info.                !
 --------------------------------------------------------------------------------
 ! R1    R(1,2)                  1.1045         estimate D2E/DX2                !
 ! R2    R(1,3)                  1.103          estimate D2E/DX2                !
 ! R3    R(1,4)                  1.0757         estimate D2E/DX2                !
 ! R4    R(1,5)                  1.5079         estimate D2E/DX2                !
 ! R5    R(5,6)                  1.1279         estimate D2E/DX2                !
 ! R6    R(5,7)                  1.0883         estimate D2E/DX2                !
 ! R7    R(5,8)                  1.4605         estimate D2E/DX2                !
 ! R8    R(8,9)                  1.1112         estimate D2E/DX2                !
 ! R9    R(8,10)                 1.4066         estimate D2E/DX2                !
 ! R10   R(8,11)                 1.4919         estimate D2E/DX2                !
 ! R11   R(10,12)                0.9808         estimate D2E/DX2                !
 ! R12   R(11,13)                1.1145         estimate D2E/DX2                !
 ! R13   R(11,14)                1.1197         estimate D2E/DX2                !
 ! R14   R(11,15)                1.5368         estimate D2E/DX2                !
 ! R15   R(15,16)                1.1347         estimate D2E/DX2                !
 ! R16   R(15,17)                1.0886         estimate D2E/DX2                !
 ! R17   R(15,18)                1.1574         estimate D2E/DX2                !
 ! A1    A(2,1,3)              104.2496         estimate D2E/DX2                !
 ! A2    A(2,1,4)              101.8914         estimate D2E/DX2                !
 ! A3    A(2,1,5)              107.2798         estimate D2E/DX2                !
 ! A4    A(3,1,4)              116.9891         estimate D2E/DX2                !
 ! A5    A(3,1,5)              113.0284         estimate D2E/DX2                !
 ! A6    A(4,1,5)              111.9529         estimate D2E/DX2                !
 ! A7    A(1,5,6)              109.1521         estimate D2E/DX2                !
 ! A8    A(1,5,7)              110.3165         estimate D2E/DX2                !
 ! A9    A(1,5,8)              106.8844         estimate D2E/DX2                !
 ! A10   A(6,5,7)              113.4081         estimate D2E/DX2                !
 ! A11   A(6,5,8)              108.86           estimate D2E/DX2                !
 ! A12   A(7,5,8)              107.9985         estimate D2E/DX2                !
 ! A13   A(5,8,9)              103.8764         estimate D2E/DX2                !
 ! A14   A(5,8,10)             104.4622         estimate D2E/DX2                !
 ! A15   A(5,8,11)             110.3294         estimate D2E/DX2                !
 ! A16   A(9,8,10)             111.0762         estimate D2E/DX2                !
 ! A17   A(9,8,11)             106.8428         estimate D2E/DX2                !
 ! A18   A(10,8,11)            119.2345         estimate D2E/DX2                !
 ! A19   A(8,10,12)            104.9358         estimate D2E/DX2                !
 ! A20   A(8,11,13)            104.4203         estimate D2E/DX2                !
 ! A21   A(8,11,14)            107.0207         estimate D2E/DX2                !
 ! A22   A(8,11,15)            118.2175         estimate D2E/DX2                !
 ! A23   A(13,11,14)           111.1354         estimate D2E/DX2                !
 ! A24   A(13,11,15)           107.1411         estimate D2E/DX2                !
 ! A25   A(14,11,15)           108.8323         estimate D2E/DX2                !
 ! A26   A(11,15,16)           116.5172         estimate D2E/DX2                !
 ! A27   A(11,15,17)           112.9476         estimate D2E/DX2                !
 ! A28   A(11,15,18)           110.4832         estimate D2E/DX2                !
 ! A29   A(16,15,17)           107.4669         estimate D2E/DX2                !
 ! A30   A(16,15,18)           102.464          estimate D2E/DX2                !
 ! A31   A(17,15,18)           105.9829         estimate D2E/DX2                !
 ! D1    D(2,1,5,6)            156.3939         estimate D2E/DX2                !
 ! D2    D(2,1,5,7)             31.1514         estimate D2E/DX2                !
 ! D3    D(2,1,5,8)            -86.0236         estimate D2E/DX2                !
 ! D4    D(3,1,5,6)             42.0426         estimate D2E/DX2                !
 ! D5    D(3,1,5,7)            -83.1999         estimate D2E/DX2                !
 ! D6    D(3,1,5,8)            159.6252         estimate D2E/DX2                !
 ! D7    D(4,1,5,6)            -92.6254         estimate D2E/DX2                !
 ! D8    D(4,1,5,7)            142.1321         estimate D2E/DX2                !
 ! D9    D(4,1,5,8)             24.9572         estimate D2E/DX2                !
 ! D10   D(1,5,8,9)            -44.5487         estimate D2E/DX2                !
 ! D11   D(1,5,8,10)            71.9551         estimate D2E/DX2                !
 ! D12   D(1,5,8,11)          -158.7415         estimate D2E/DX2                !
 ! D13   D(6,5,8,9)             73.2257         estimate D2E/DX2                !
 ! D14   D(6,5,8,10)          -170.2705         estimate D2E/DX2                !
 ! D15   D(6,5,8,11)           -40.9671         estimate D2E/DX2                !
 ! D16   D(7,5,8,9)           -163.2424         estimate D2E/DX2                !
 ! D17   D(7,5,8,10)           -46.7387         estimate D2E/DX2                !
 ! D18   D(7,5,8,11)            82.5647         estimate D2E/DX2                !
 ! D19   D(5,8,10,12)         -169.7221         estimate D2E/DX2                !
 ! D20   D(9,8,10,12)          -58.3249         estimate D2E/DX2                !
 ! D21   D(11,8,10,12)          66.5326         estimate D2E/DX2                !
 ! D22   D(5,8,11,13)         -153.295          estimate D2E/DX2                !
 ! D23   D(5,8,11,14)          -35.3857         estimate D2E/DX2                !
 ! D24   D(5,8,11,15)           87.8018         estimate D2E/DX2                !
 ! D25   D(9,8,11,13)           94.4095         estimate D2E/DX2                !
 ! D26   D(9,8,11,14)         -147.6812         estimate D2E/DX2                !
 ! D27   D(9,8,11,15)          -24.4937         estimate D2E/DX2                !
 ! D28   D(10,8,11,13)         -32.4605         estimate D2E/DX2                !
 ! D29   D(10,8,11,14)          85.4488         estimate D2E/DX2                !
 ! D30   D(10,8,11,15)        -151.3637         estimate D2E/DX2                !
 ! D31   D(8,11,15,16)         -44.3615         estimate D2E/DX2                !
 ! D32   D(8,11,15,17)        -169.498          estimate D2E/DX2                !
 ! D33   D(8,11,15,18)          71.9892         estimate D2E/DX2                !
 ! D34   D(13,11,15,16)       -161.8296         estimate D2E/DX2                !
 ! D35   D(13,11,15,17)         73.0338         estimate D2E/DX2                !
 ! D36   D(13,11,15,18)        -45.4789         estimate D2E/DX2                !
 ! D37   D(14,11,15,16)         77.9142         estimate D2E/DX2                !
 ! D38   D(14,11,15,17)        -47.2224         estimate D2E/DX2                !
 ! D39   D(14,11,15,18)       -165.7351         estimate D2E/DX2                !
 --------------------------------------------------------------------------------
 Trust Radius=3.00D-01 FncErr=1.00D-07 GrdErr=1.00D-07 EigMax=2.50D+02 EigMin=1.00D-04
 Number of steps in this run=     97 maximum allowed number of steps=    108.
 GradGradGradGradGradGradGradGradGradGradGradGradGradGradGradGradGradGrad

 Leave Link  103 at Wed Sep  7 15:33:27 2022, MaxMem=   131072000 cpu:               0.0 elap:               0.0
 (Enter /opt/g16/l202.exe)
                          Input orientation:                          
 ---------------------------------------------------------------------
 Center     Atomic      Atomic             Coordinates (Angstroms)
 Number     Number       Type             X           Y           Z
 ---------------------------------------------------------------------
      1          6           0       12.323000   13.668000    6.086000
      2          1           0       12.344000   12.665000    6.548000
      3          1           0       13.031000   14.260000    6.690000
      4          1           0       12.609000   13.451000    5.072000
      5          6           0       10.905000   14.173000    6.176000
      6          1           0       10.910000   15.300000    6.131000
      7          1           0       10.419000   13.778000    7.066000
      8          6           0       10.196000   13.657000    5.008000
      9          1           0       10.904000   13.829000    4.169000
     10          8           0       10.044000   12.283000    5.268000
     11          6           0        8.986000   14.484000    4.729000
     12          1           0        9.723000   11.900000    4.424000
     13          1           0        8.288000   13.788000    4.209000
     14          1           0        8.573000   14.805000    5.719000
     15          6           0        9.143000   15.722000    3.832000
     16          1           0       10.042000   16.384000    4.035000
     17          1           0        8.261000   16.360000    3.831000
     18          1           0        9.309000   15.406000    2.731000
 ---------------------------------------------------------------------
                    Distance matrix (angstroms):
                    1          2          3          4          5
     1  C    0.000000
     2  H    1.104488   0.000000
     3  H    1.102971   1.742457   0.000000
     4  H    1.075677   1.693103   1.857549   0.000000
     5  C    1.507929   2.117350   2.188982   2.154928   0.000000
     6  H    2.159171   3.028774   2.427493   2.725231   1.127909
     7  H    2.144229   2.283138   2.682582   2.979776   1.088265
     8  C    2.384604   2.823042   3.351113   2.422623   1.460534
     9  H    2.390475   3.014654   3.326459   1.966041   2.036268
    10  O    2.789478   2.659760   3.853931   2.825219   2.266690
    11  C    3.693626   4.230093   4.500858   3.782971   2.423446
    12  H    3.556412   3.459226   4.652657   3.339835   3.103733
    13  H    4.451826   4.814892   5.373471   4.419206   3.296362
    14  H    3.935728   4.414440   4.594957   4.305952   2.458963
    15  C    4.405886   5.193102   5.042038   4.325297   3.316381
    16  H    4.097099   5.044337   4.527088   4.033280   3.196431
    17  H    5.369519   6.140521   5.944475   5.376566   4.156047
    18  H    4.833308   5.594086   5.553403   4.493585   3.991933
                    6          7          8          9         10
     6  H    0.000000
     7  H    1.852509   0.000000
     8  C    2.114326   2.073580   0.000000
     9  H    2.452207   2.937760   1.111202   0.000000
    10  O    3.255306   2.368217   1.406620   2.082671   0.000000
    11  C    2.516592   2.830812   1.491935   2.102700   2.500857
    12  H    3.985325   3.315338   1.910977   2.276143   0.980850
    13  H    3.585403   3.564226   2.072686   2.616627   2.543628
    14  H    2.424116   2.505365   2.111292   2.964564   2.954272
    15  C    2.930149   3.983223   2.599233   2.607324   3.834138
    16  H    2.514298   4.015013   2.899478   2.699819   4.282347
    17  H    3.664806   4.667860   3.526438   3.675004   4.676108
    18  H    3.759579   4.761797   3.005079   2.664357   4.090198
                   11         12         13         14         15
    11  C    0.000000
    12  H    2.704302   0.000000
    13  H    1.114460   2.381175   0.000000
    14  H    1.119692   3.382093   1.842719   0.000000
    15  C    1.536848   3.910824   2.147908   2.174065   0.000000
    16  H    2.281835   4.512132   3.137835   2.736249   1.134748
    17  H    2.202591   4.730824   2.599769   2.465748   1.088563
    18  H    2.224054   3.915314   2.417612   3.135449   1.157417
                   16         17         18
    16  H    0.000000
    17  H    1.792806   0.000000
    18  H    1.787229   1.793996   0.000000
 Stoichiometry    C5H12O
 Framework group  C1[X(C5H12O)]
 Deg. of freedom    48
 Full point group                 C1      NOp   1
 Largest Abelian subgroup         C1      NOp   1
 Largest concise Abelian subgroup C1      NOp   1
                         Standard orientation:                         
 ---------------------------------------------------------------------
 Center     Atomic      Atomic             Coordinates (Angstroms)
 Number     Number       Type             X           Y           Z
 ---------------------------------------------------------------------
      1          6           0       -2.062856   -0.897373   -0.297963
      2          1           0       -2.824110   -0.128816   -0.075013
      3          1           0       -2.559269   -1.850862   -0.051029
      4          1           0       -1.855784   -0.709486   -1.336665
      5          6           0       -0.867812   -0.610873    0.575899
      6          1           0       -0.273573   -1.559712    0.712873
      7          1           0       -1.185226   -0.160264    1.514260
      8          6           0       -0.044898    0.362858   -0.136718
      9          1           0       -0.021118   -0.020586   -1.179395
     10          8           0       -0.772604    1.563898   -0.055919
     11          6           0        1.357942    0.325403    0.369745
     12          1           0       -0.315805    2.178009   -0.669326
     13          1           0        1.751627    1.349197    0.172570
     14          1           0        1.304194    0.118254    1.468795
     15          6           0        2.337013   -0.668335   -0.275086
     16          1           0        1.947944   -1.719212   -0.453798
     17          1           0        3.274527   -0.755522    0.271207
     18          1           0        2.621082   -0.322262   -1.342396
 ---------------------------------------------------------------------
 Rotational constants (GHZ):           5.2272342           2.2760261           1.7956943
 Leave Link  202 at Wed Sep  7 15:33:27 2022, MaxMem=   131072000 cpu:               0.0 elap:               0.0
 (Enter /opt/g16/l301.exe)
 Standard basis: VSTO-6G (5D, 7F)
 Ernie: Thresh=  0.10000D-02 Tol=  0.10000D-05 Strict=F.
  NNHCO=     0 NNPyr=     0 NCTC=     0               EPep=         0.000000000
    EC=       129.264198579  ECS=         2.232543590   EG=         0.574655101
   EHC=         0.000000000  EAt=       -36.836480110  AtH=         2.452923921
 EPDDG=         0.000000000  ECC=       132.071397270 EAtT=        39.289404030
 There are    36 symmetry adapted cartesian basis functions of A   symmetry.
 There are    36 symmetry adapted basis functions of A   symmetry.
    36 basis functions,   216 primitive gaussians,    36 cartesian basis functions
    19 alpha electrons       19 beta electrons
       nuclear repulsion energy       171.3608013004 Hartrees.
 IExCor=    0 DFT=F Ex=HF Corr=None ExCW=0 ScaHFX=  1.000000
 ScaDFX=  1.000000  1.000000  1.000000  1.000000 ScalE2=  1.000000  1.000000
 IRadAn=      5 IRanWt=     -1 IRanGd=            0 ICorTp=0 IEmpDi=  4
 Integral buffers will be    131072 words long.
 Regular integral format.
 Two-electron integral symmetry is turned off.
 Leave Link  301 at Wed Sep  7 15:33:27 2022, MaxMem=   131072000 cpu:               0.0 elap:               0.0
 (Enter /opt/g16/l302.exe)
 Do NDO integrals.
 NPDir=0 NMtPBC=     1 NCelOv=     1 NCel=       1 NClECP=     1 NCelD=      1
         NCelK=      1 NCelE2=     1 NClLst=     1 CellRange=     0.0.
 One-electron integrals computed using PRISM.
 NBasis=    36 RedAO= F EigKep=  0.00D+00  NBF=    36
 NBsUse=    36 1.00D-04 EigRej=  0.00D+00 NBFU=    36
 Leave Link  302 at Wed Sep  7 15:33:28 2022, MaxMem=   131072000 cpu:               0.1 elap:               0.0
 (Enter /opt/g16/l303.exe)
 DipDrv:  MaxL=1.
 Leave Link  303 at Wed Sep  7 15:33:28 2022, MaxMem=   131072000 cpu:               0.0 elap:               0.0
 (Enter /opt/g16/l401.exe)
 Simple Huckel Guess.
 JPrj=0 DoOrth=F DoCkMO=F.
 Leave Link  401 at Wed Sep  7 15:33:28 2022, MaxMem=   131072000 cpu:               0.0 elap:               0.0
 (Enter /opt/g16/l502.exe)
 Keep J ints in memory in canonical form, NReq=862161.
 FoFCou: FMM=F IPFlag=           0 FMFlag=           0 FMFlg1=           0
         NFxFlg=           0 DoJE=F BraDBF=F KetDBF=F FulRan=T
         wScrn=  0.000000 ICntrl=       600 IOpCl=  2 I1Cent=           0 NGrid=           0
         NMat0=    1 NMatS0=     72 NMatT0=    0 NMatD0=    1 NMtDS0=    0 NMtDT0=    0
 Symmetry not used in FoFCou.
 Two-electron integral symmetry not used.
 Closed shell SCF:
 Using DIIS extrapolation, IDIIS=  1040.
 Overlap will be assumed to be unity.
 NGot=   131072000 LenX=   131006778 LenY=   131005041
 Requested convergence on RMS density matrix=1.00D-08 within 128 cycles.
 Requested convergence on MAX density matrix=1.00D-06.
 Requested convergence on             energy=1.00D-06.
 No special actions if energy rises.

 Cycle   1  Pass 1  IDiag  1:
 E= 0.199251260062482    
 DIIS: error= 7.02D-02 at cycle   1 NSaved=   1.
 NSaved= 1 IEnMin= 1 EnMin= 0.199251260062482     IErMin= 1 ErrMin= 7.02D-02
 ErrMax= 7.02D-02  0.00D+00 EMaxC= 1.00D-01 BMatC= 1.09D-01 BMatP= 1.09D-01
 IDIUse=3 WtCom= 2.98D-01 WtEn= 7.02D-01
 Coeff-Com:  0.100D+01
 Coeff-En:   0.100D+01
 Coeff:      0.100D+01
 GapD=    2.000 DampG=2.000 DampE=0.500 DampFc=1.0000 IDamp=-1.
 RMSDP=1.28D-02 MaxDP=1.52D-01              OVMax= 0.00D+00

 Cycle   2  Pass 1  IDiag  1:
 E=-0.630983416762660E-01 Delta-E=       -0.262349601739 Rises=F Damp=F
 DIIS: error= 1.47D-02 at cycle   2 NSaved=   2.
 NSaved= 2 IEnMin= 2 EnMin=-0.630983416762660E-01 IErMin= 2 ErrMin= 1.47D-02
 ErrMax= 1.47D-02  0.00D+00 EMaxC= 1.00D-01 BMatC= 7.17D-03 BMatP= 1.09D-01
 IDIUse=3 WtCom= 8.53D-01 WtEn= 1.47D-01
 Coeff-Com: -0.307D+00 0.131D+01
 Coeff-En:   0.000D+00 0.100D+01
 Coeff:     -0.262D+00 0.126D+01
 RMSDP=4.68D-03 MaxDP=4.71D-02 DE=-2.62D-01 OVMax= 0.00D+00

 Cycle   3  Pass 1  IDiag  3:
 E=-0.853183435610561E-01 Delta-E=       -0.022220001885 Rises=F Damp=F
 DIIS: error= 3.46D-03 at cycle   3 NSaved=   3.
 NSaved= 3 IEnMin= 3 EnMin=-0.853183435610561E-01 IErMin= 3 ErrMin= 3.46D-03
 ErrMax= 3.46D-03  0.00D+00 EMaxC= 1.00D-01 BMatC= 2.18D-04 BMatP= 7.17D-03
 IDIUse=3 WtCom= 9.65D-01 WtEn= 3.46D-02
 Coeff-Com:  0.140D+00-0.685D+00 0.154D+01
 Coeff-En:   0.000D+00 0.000D+00 0.100D+01
 Coeff:      0.135D+00-0.661D+00 0.153D+01
 Gap=     0.511 Goal=   None    Shift=    0.000
 RMSDP=1.31D-03 MaxDP=1.80D-02 DE=-2.22D-02 OVMax= 7.71D-03

 Cycle   4  Pass 1  IDiag  3:
 E=-0.864533498509559E-01 Delta-E=       -0.001135006290 Rises=F Damp=F
 DIIS: error= 7.19D-04 at cycle   4 NSaved=   4.
 NSaved= 4 IEnMin= 4 EnMin=-0.864533498509559E-01 IErMin= 4 ErrMin= 7.19D-04
 ErrMax= 7.19D-04  0.00D+00 EMaxC= 1.00D-01 BMatC= 9.21D-06 BMatP= 2.18D-04
 IDIUse=3 WtCom= 9.93D-01 WtEn= 7.19D-03
 Coeff-Com: -0.296D-01 0.160D+00-0.547D+00 0.142D+01
 Coeff-En:   0.000D+00 0.000D+00 0.000D+00 0.100D+01
 Coeff:     -0.294D-01 0.159D+00-0.543D+00 0.141D+01
 Gap=     0.513 Goal=   None    Shift=    0.000
 RMSDP=3.15D-04 MaxDP=4.13D-03 DE=-1.14D-03 OVMax= 1.87D-03

 Cycle   5  Pass 1  IDiag  3:
 E=-0.865072962878344E-01 Delta-E=       -0.000053946437 Rises=F Damp=F
 DIIS: error= 1.20D-04 at cycle   5 NSaved=   5.
 NSaved= 5 IEnMin= 5 EnMin=-0.865072962878344E-01 IErMin= 5 ErrMin= 1.20D-04
 ErrMax= 1.20D-04  0.00D+00 EMaxC= 1.00D-01 BMatC= 3.26D-07 BMatP= 9.21D-06
 IDIUse=3 WtCom= 9.99D-01 WtEn= 1.20D-03
 Coeff-Com:  0.211D-02-0.147D-01 0.834D-01-0.391D+00 0.132D+01
 Coeff-En:   0.000D+00 0.000D+00 0.000D+00 0.000D+00 0.100D+01
 Coeff:      0.210D-02-0.147D-01 0.833D-01-0.391D+00 0.132D+01
 Gap=     0.513 Goal=   None    Shift=    0.000
 RMSDP=5.58D-05 MaxDP=6.49D-04 DE=-5.39D-05 OVMax= 3.92D-04

 Cycle   6  Pass 1  IDiag  3:
 E=-0.865091656664276E-01 Delta-E=       -0.000001869379 Rises=F Damp=F
 DIIS: error= 3.56D-05 at cycle   6 NSaved=   6.
 NSaved= 6 IEnMin= 6 EnMin=-0.865091656664276E-01 IErMin= 6 ErrMin= 3.56D-05
 ErrMax= 3.56D-05  0.00D+00 EMaxC= 1.00D-01 BMatC= 2.48D-08 BMatP= 3.26D-07
 IDIUse=1 WtCom= 1.00D+00 WtEn= 0.00D+00
 Coeff-Com: -0.299D-03 0.327D-02-0.276D-01 0.160D+00-0.729D+00 0.159D+01
 Coeff:     -0.299D-03 0.327D-02-0.276D-01 0.160D+00-0.729D+00 0.159D+01
 Gap=     0.513 Goal=   None    Shift=    0.000
 RMSDP=1.72D-05 MaxDP=2.40D-04 DE=-1.87D-06 OVMax= 1.17D-04

 Cycle   7  Pass 1  IDiag  3:
 E=-0.865093231117555E-01 Delta-E=       -0.000000157445 Rises=F Damp=F
 DIIS: error= 5.90D-06 at cycle   7 NSaved=   7.
 NSaved= 7 IEnMin= 7 EnMin=-0.865093231117555E-01 IErMin= 7 ErrMin= 5.90D-06
 ErrMax= 5.90D-06  0.00D+00 EMaxC= 1.00D-01 BMatC= 1.62D-09 BMatP= 2.48D-08
 IDIUse=1 WtCom= 1.00D+00 WtEn= 0.00D+00
 Coeff-Com:  0.164D-03-0.170D-02 0.140D-01-0.809D-01 0.387D+00-0.102D+01
 Coeff-Com:  0.170D+01
 Coeff:      0.164D-03-0.170D-02 0.140D-01-0.809D-01 0.387D+00-0.102D+01
 Coeff:      0.170D+01
 Gap=     0.513 Goal=   None    Shift=    0.000
 RMSDP=4.80D-06 MaxDP=5.21D-05 DE=-1.57D-07 OVMax= 3.57D-05

 Cycle   8  Pass 1  IDiag  3:
 E=-0.865093335894471E-01 Delta-E=       -0.000000010478 Rises=F Damp=F
 DIIS: error= 1.03D-06 at cycle   8 NSaved=   8.
 NSaved= 8 IEnMin= 8 EnMin=-0.865093335894471E-01 IErMin= 8 ErrMin= 1.03D-06
 ErrMax= 1.03D-06  0.00D+00 EMaxC= 1.00D-01 BMatC= 5.67D-11 BMatP= 1.62D-09
 IDIUse=1 WtCom= 1.00D+00 WtEn= 0.00D+00
 Coeff-Com: -0.625D-04 0.726D-03-0.634D-02 0.372D-01-0.181D+00 0.494D+00
 Coeff-Com: -0.934D+00 0.159D+01
 Coeff:     -0.625D-04 0.726D-03-0.634D-02 0.372D-01-0.181D+00 0.494D+00
 Coeff:     -0.934D+00 0.159D+01
 Gap=     0.513 Goal=   None    Shift=    0.000
 RMSDP=8.38D-07 MaxDP=6.72D-06 DE=-1.05D-08 OVMax= 6.32D-06

 Cycle   9  Pass 1  IDiag  3:
 E=-0.865093339494365E-01 Delta-E=       -0.000000000360 Rises=F Damp=F
 DIIS: error= 2.21D-07 at cycle   9 NSaved=   9.
 NSaved= 9 IEnMin= 9 EnMin=-0.865093339494365E-01 IErMin= 9 ErrMin= 2.21D-07
 ErrMax= 2.21D-07  0.00D+00 EMaxC= 1.00D-01 BMatC= 3.07D-12 BMatP= 5.67D-11
 IDIUse=1 WtCom= 1.00D+00 WtEn= 0.00D+00
 Coeff-Com:  0.210D-04-0.284D-03 0.265D-02-0.159D-01 0.784D-01-0.217D+00
 Coeff-Com:  0.423D+00-0.867D+00 0.160D+01
 Coeff:      0.210D-04-0.284D-03 0.265D-02-0.159D-01 0.784D-01-0.217D+00
 Coeff:      0.423D+00-0.867D+00 0.160D+01
 Gap=     0.513 Goal=   None    Shift=    0.000
 RMSDP=1.96D-07 MaxDP=1.71D-06 DE=-3.60D-10 OVMax= 1.41D-06

 Cycle  10  Pass 1  IDiag  3:
 E=-0.865093339687064E-01 Delta-E=       -0.000000000019 Rises=F Damp=F
 DIIS: error= 5.49D-08 at cycle  10 NSaved=  10.
 NSaved=10 IEnMin=10 EnMin=-0.865093339687064E-01 IErMin=10 ErrMin= 5.49D-08
 ErrMax= 5.49D-08  0.00D+00 EMaxC= 1.00D-01 BMatC= 1.50D-13 BMatP= 3.07D-12
 IDIUse=1 WtCom= 1.00D+00 WtEn= 0.00D+00
 Coeff-Com: -0.683D-05 0.100D-03-0.966D-03 0.583D-02-0.290D-01 0.806D-01
 Coeff-Com: -0.159D+00 0.339D+00-0.777D+00 0.154D+01
 Coeff:     -0.683D-05 0.100D-03-0.966D-03 0.583D-02-0.290D-01 0.806D-01
 Coeff:     -0.159D+00 0.339D+00-0.777D+00 0.154D+01
 Gap=     0.513 Goal=   None    Shift=    0.000
 RMSDP=4.36D-08 MaxDP=3.66D-07 DE=-1.93D-11 OVMax= 2.29D-07

 Cycle  11  Pass 1  IDiag  3:
 E=-0.865093339695875E-01 Delta-E=       -0.000000000001 Rises=F Damp=F
 DIIS: error= 1.68D-08 at cycle  11 NSaved=  11.
 NSaved=11 IEnMin=11 EnMin=-0.865093339695875E-01 IErMin=11 ErrMin= 1.68D-08
 ErrMax= 1.68D-08  0.00D+00 EMaxC= 1.00D-01 BMatC= 7.06D-15 BMatP= 1.50D-13
 IDIUse=1 WtCom= 1.00D+00 WtEn= 0.00D+00
 Coeff-Com:  0.185D-05-0.270D-04 0.260D-03-0.157D-02 0.783D-02-0.219D-01
 Coeff-Com:  0.432D-01-0.929D-01 0.230D+00-0.609D+00 0.144D+01
 Coeff:      0.185D-05-0.270D-04 0.260D-03-0.157D-02 0.783D-02-0.219D-01
 Coeff:      0.432D-01-0.929D-01 0.230D+00-0.609D+00 0.144D+01
 Gap=     0.513 Goal=   None    Shift=    0.000
 RMSDP=8.85D-09 MaxDP=8.92D-08 DE=-8.81D-13 OVMax= 4.24D-08

 Cycle  12  Pass 2  IDiag  1:
 SCF Done:  E(RPM3) = -0.865093339696E-01 A.U. after   12 cycles
            NFock= 11  Conv=0.88D-08     -V/T= 0.9985
 KE=-5.966050139848D+01 PE=-2.571285184377D+02 EE= 1.453417092018D+02
 Leave Link  502 at Wed Sep  7 15:33:28 2022, MaxMem=   131072000 cpu:               0.0 elap:               0.0
 (Enter /opt/g16/l601.exe)
 Copying SCF densities to generalized density rwf, IOpCl= 0 IROHF=0.

 **********************************************************************

            Population analysis using the SCF density.

 **********************************************************************

 Orbital symmetries:
       Occupied  (A) (A) (A) (A) (A) (A) (A) (A) (A) (A) (A) (A)
                 (A) (A) (A) (A) (A) (A) (A)
       Virtual   (A) (A) (A) (A) (A) (A) (A) (A) (A) (A) (A) (A)
                 (A) (A) (A) (A) (A)
 The electronic state is 1-A.
 Alpha  occ. eigenvalues --   -1.50877  -1.25268  -1.19449  -0.94445  -0.81115
 Alpha  occ. eigenvalues --   -0.75215  -0.67301  -0.59526  -0.58107  -0.54548
 Alpha  occ. eigenvalues --   -0.53565  -0.51970  -0.48815  -0.47652  -0.46902
 Alpha  occ. eigenvalues --   -0.45385  -0.42703  -0.42360  -0.40079
 Alpha virt. eigenvalues --    0.11154   0.12779   0.13192   0.13576   0.13759
 Alpha virt. eigenvalues --    0.14265   0.15040   0.15200   0.15531   0.16097
 Alpha virt. eigenvalues --    0.16941   0.17197   0.17398   0.18306   0.18881
 Alpha virt. eigenvalues --    0.19211   0.21075
          Condensed to atoms (all electrons):
               1          2          3          4          5          6
     1  C    4.125200   0.000000   0.000000   0.000000   0.000000   0.000000
     2  H    0.000000   0.966037   0.000000   0.000000   0.000000   0.000000
     3  H    0.000000   0.000000   0.954193   0.000000   0.000000   0.000000
     4  H    0.000000   0.000000   0.000000   0.949676   0.000000   0.000000
     5  C    0.000000   0.000000   0.000000   0.000000   4.126093   0.000000
     6  H    0.000000   0.000000   0.000000   0.000000   0.000000   0.936011
     7  H    0.000000   0.000000   0.000000   0.000000   0.000000   0.000000
     8  C    0.000000   0.000000   0.000000   0.000000   0.000000   0.000000
     9  H    0.000000   0.000000   0.000000   0.000000   0.000000   0.000000
    10  O    0.000000   0.000000   0.000000   0.000000   0.000000   0.000000
    11  C    0.000000   0.000000   0.000000   0.000000   0.000000   0.000000
    12  H    0.000000   0.000000   0.000000   0.000000   0.000000   0.000000
    13  H    0.000000   0.000000   0.000000   0.000000   0.000000   0.000000
    14  H    0.000000   0.000000   0.000000   0.000000   0.000000   0.000000
    15  C    0.000000   0.000000   0.000000   0.000000   0.000000   0.000000
    16  H    0.000000   0.000000   0.000000   0.000000   0.000000   0.000000
    17  H    0.000000   0.000000   0.000000   0.000000   0.000000   0.000000
    18  H    0.000000   0.000000   0.000000   0.000000   0.000000   0.000000
               7          8          9         10         11         12
     1  C    0.000000   0.000000   0.000000   0.000000   0.000000   0.000000
     2  H    0.000000   0.000000   0.000000   0.000000   0.000000   0.000000
     3  H    0.000000   0.000000   0.000000   0.000000   0.000000   0.000000
     4  H    0.000000   0.000000   0.000000   0.000000   0.000000   0.000000
     5  C    0.000000   0.000000   0.000000   0.000000   0.000000   0.000000
     6  H    0.000000   0.000000   0.000000   0.000000   0.000000   0.000000
     7  H    0.925052   0.000000   0.000000   0.000000   0.000000   0.000000
     8  C    0.000000   3.946809   0.000000   0.000000   0.000000   0.000000
     9  H    0.000000   0.000000   0.957560   0.000000   0.000000   0.000000
    10  O    0.000000   0.000000   0.000000   6.288209   0.000000   0.000000
    11  C    0.000000   0.000000   0.000000   0.000000   4.128304   0.000000
    12  H    0.000000   0.000000   0.000000   0.000000   0.000000   0.821111
    13  H    0.000000   0.000000   0.000000   0.000000   0.000000   0.000000
    14  H    0.000000   0.000000   0.000000   0.000000   0.000000   0.000000
    15  C    0.000000   0.000000   0.000000   0.000000   0.000000   0.000000
    16  H    0.000000   0.000000   0.000000   0.000000   0.000000   0.000000
    17  H    0.000000   0.000000   0.000000   0.000000   0.000000   0.000000
    18  H    0.000000   0.000000   0.000000   0.000000   0.000000   0.000000
              13         14         15         16         17         18
     1  C    0.000000   0.000000   0.000000   0.000000   0.000000   0.000000
     2  H    0.000000   0.000000   0.000000   0.000000   0.000000   0.000000
     3  H    0.000000   0.000000   0.000000   0.000000   0.000000   0.000000
     4  H    0.000000   0.000000   0.000000   0.000000   0.000000   0.000000
     5  C    0.000000   0.000000   0.000000   0.000000   0.000000   0.000000
     6  H    0.000000   0.000000   0.000000   0.000000   0.000000   0.000000
     7  H    0.000000   0.000000   0.000000   0.000000   0.000000   0.000000
     8  C    0.000000   0.000000   0.000000   0.000000   0.000000   0.000000
     9  H    0.000000   0.000000   0.000000   0.000000   0.000000   0.000000
    10  O    0.000000   0.000000   0.000000   0.000000   0.000000   0.000000
    11  C    0.000000   0.000000   0.000000   0.000000   0.000000   0.000000
    12  H    0.000000   0.000000   0.000000   0.000000   0.000000   0.000000
    13  H    0.951286   0.000000   0.000000   0.000000   0.000000   0.000000
    14  H    0.000000   0.935400   0.000000   0.000000   0.000000   0.000000
    15  C    0.000000   0.000000   4.101067   0.000000   0.000000   0.000000
    16  H    0.000000   0.000000   0.000000   0.958417   0.000000   0.000000
    17  H    0.000000   0.000000   0.000000   0.000000   0.956260   0.000000
    18  H    0.000000   0.000000   0.000000   0.000000   0.000000   0.973316
 Mulliken charges:
               1
     1  C   -0.125200
     2  H    0.033963
     3  H    0.045807
     4  H    0.050324
     5  C   -0.126093
     6  H    0.063989
     7  H    0.074948
     8  C    0.053191
     9  H    0.042440
    10  O   -0.288209
    11  C   -0.128304
    12  H    0.178889
    13  H    0.048714
    14  H    0.064600
    15  C   -0.101067
    16  H    0.041583
    17  H    0.043740
    18  H    0.026684
 Sum of Mulliken charges =   0.00000
 Mulliken charges with hydrogens summed into heavy atoms:
               1
     1  C    0.004894
     5  C    0.012845
     8  C    0.095631
    10  O   -0.109320
    11  C   -0.014990
    15  C    0.010940
 Charge=              0.0000 electrons
 Dipole moment (field-independent basis, Debye):
    X=              1.2275    Y=             -0.2368    Z=             -0.7827  Tot=              1.4749
 N-N= 1.713608013004D+02 E-N=-2.571285186760D+02  KE=-5.966050139848D+01
 Leave Link  601 at Wed Sep  7 15:33:28 2022, MaxMem=   131072000 cpu:               0.0 elap:               0.0
 (Enter /opt/g16/l701.exe)
 ... and contract with generalized density number  0.
 Compute integral first derivatives.
 Leave Link  701 at Wed Sep  7 15:33:28 2022, MaxMem=   131072000 cpu:               0.0 elap:               0.0
 (Enter /opt/g16/l702.exe)
 L702 exits ... SP integral derivatives will be done elsewhere.
 Leave Link  702 at Wed Sep  7 15:33:28 2022, MaxMem=   131072000 cpu:               0.0 elap:               0.0
 (Enter /opt/g16/l703.exe)
 Integral derivatives from FoFJK, PRISM(SPDF).
 Compute integral first derivatives, UseDBF=F ICtDFT=           0.
 Calling FoFJK, ICntrl=      2127 FMM=F ISym2X=0 I1Cent= 0 IOpClX= 0 NMat=1 NMatS=1 NMatT=0.
 FoFJK:  IHMeth= 9 ICntrl=    2127 DoSepK=F KAlg= 0 I1Cent=           0 FoldK=F
 IRaf=         0 NMat=       1 IRICut=       1 DoRegI=T DoRafI=F ISym2E= 0 IDoP0=3 IntGTp=3.
 FoFCou: FMM=F IPFlag=           0 FMFlag=      100000 FMFlg1=         800
         NFxFlg=           0 DoJE=F BraDBF=F KetDBF=F FulRan=T
         wScrn=  0.000000 ICntrl=      2127 IOpCl=  0 I1Cent=           0 NGrid=           0
         NMat0=    1 NMatS0=      1 NMatT0=    0 NMatD0=    1 NMtDS0=    0 NMtDT0=    0
 Symmetry not used in FoFCou.
 Leave Link  703 at Wed Sep  7 15:33:28 2022, MaxMem=   131072000 cpu:               0.0 elap:               0.0
 (Enter /opt/g16/l716.exe)
 Dipole        = 4.82925119D-01-9.31474179D-02-3.07922496D-01
 ***** Axes restored to original set *****
 -------------------------------------------------------------------
 Center     Atomic                   Forces (Hartrees/Bohr)
 Number     Number              X              Y              Z
 -------------------------------------------------------------------
      1        6           0.006412451   -0.015233539    0.037627912
      2        1           0.003219590   -0.001627914    0.003627368
      3        1          -0.000656098    0.001700112   -0.011183985
      4        1           0.012430960    0.010293820   -0.016308285
      5        6           0.036404039    0.032983314    0.026069068
      6        1          -0.002373737   -0.010708276    0.008722249
      7        1          -0.003341197    0.007521260    0.016616146
      8        6           0.010163406    0.000663454   -0.036513700
      9        1           0.002561822   -0.006996186   -0.013951344
     10        8          -0.028035743   -0.022422505   -0.039428817
     11        6          -0.037255657    0.011156672   -0.009731782
     12        1           0.008705466    0.009010901    0.027845997
     13        1          -0.006979529    0.007674469    0.006066057
     14        1          -0.006014867   -0.002774401   -0.009684974
     15        6           0.031010495   -0.013464039   -0.025654830
     16        1          -0.017778123   -0.015433731    0.003413290
     17        1          -0.003052617    0.000221903    0.003109257
     18        1          -0.005420662    0.007434688    0.029360374
 -------------------------------------------------------------------
 Cartesian Forces:  Max     0.039428817 RMS     0.017579412
 Leave Link  716 at Wed Sep  7 15:33:28 2022, MaxMem=   131072000 cpu:               0.0 elap:               0.0
 (Enter /opt/g16/l103.exe)

 GradGradGradGradGradGradGradGradGradGradGradGradGradGradGradGradGradGrad
 Berny optimization.
 FormGI is forming the generalized inverse of G from B-inverse, IUseBI=4.
 Internal  Forces:  Max     0.086213937 RMS     0.014013901
 Search for a local minimum.
 Step number   1 out of a maximum of   97
 All quantities printed in internal units (Hartrees-Bohrs-Radians)
 RMS Force = .14014D-01 SwitMx=.10000D-02 MixMth= 1
 Mixed Optimization -- RFO/linear search
 Second derivative matrix not updated -- first step.
 ITU=  0
     Eigenvalues ---    0.00279   0.00661   0.00873   0.01288   0.01604
     Eigenvalues ---    0.03368   0.04572   0.04660   0.04807   0.04973
     Eigenvalues ---    0.04981   0.05388   0.05390   0.05556   0.06362
     Eigenvalues ---    0.07586   0.07612   0.09182   0.11483   0.12771
     Eigenvalues ---    0.16000   0.16000   0.16000   0.16000   0.16000
     Eigenvalues ---    0.16000   0.16000   0.16593   0.20792   0.22058
     Eigenvalues ---    0.22224   0.28054   0.28800   0.30114   0.30775
     Eigenvalues ---    0.31560   0.31595   0.32132   0.32473   0.33191
     Eigenvalues ---    0.33238   0.33356   0.34979   0.35014   0.36522
     Eigenvalues ---    0.36897   0.44541   0.51220
 RFO step:  Lambda=-5.39288892D-02 EMin= 2.78518160D-03
 Linear search not attempted -- first point.
 Maximum step size (   0.300) exceeded in Quadratic search.
    -- Step size scaled by   0.787
 Iteration  1 RMS(Cart)=  0.09752022 RMS(Int)=  0.00216517
 Iteration  2 RMS(Cart)=  0.00276576 RMS(Int)=  0.00066025
 Iteration  3 RMS(Cart)=  0.00000521 RMS(Int)=  0.00066024
 Iteration  4 RMS(Cart)=  0.00000000 RMS(Int)=  0.00066024
 ITry= 1 IFail=0 DXMaxC= 3.25D-01 DCOld= 1.00D+10 DXMaxT= 3.00D-01 DXLimC= 3.00D+00 Rises=F
 Variable       Old X    -DE/DX   Delta X   Delta X   Delta X     New X
                                 (Linear)    (Quad)   (Total)
    R1        2.08718   0.00306   0.00000   0.00624   0.00624   2.09342
    R2        2.08431  -0.00563   0.00000  -0.01144  -0.01144   2.07287
    R3        2.03273   0.01660   0.00000   0.03117   0.03117   2.06391
    R4        2.84957   0.02094   0.00000   0.04460   0.04460   2.89417
    R5        2.13144  -0.01106   0.00000  -0.02406  -0.02406   2.10738
    R6        2.05652   0.01235   0.00000   0.02406   0.02406   2.08058
    R7        2.76001   0.08621   0.00000   0.16045   0.16045   2.92046
    R8        2.09987   0.01108   0.00000   0.02304   0.02304   2.12290
    R9        2.65813   0.01305   0.00000   0.02057   0.02057   2.67869
   R10        2.81935   0.03460   0.00000   0.07050   0.07050   2.88985
   R11        1.85354  -0.03033   0.00000  -0.04216  -0.04216   1.81137
   R12        2.10602  -0.00325   0.00000  -0.00682  -0.00682   2.09920
   R13        2.11591  -0.00714   0.00000  -0.01519  -0.01519   2.10072
   R14        2.90422  -0.02259   0.00000  -0.05201  -0.05201   2.85221
   R15        2.14436  -0.02248   0.00000  -0.04982  -0.04982   2.09454
   R16        2.05709   0.00260   0.00000   0.00507   0.00507   2.06216
   R17        2.18720  -0.03074   0.00000  -0.07233  -0.07233   2.11487
    A1        1.81950  -0.00007   0.00000   0.00901   0.00910   1.82860
    A2        1.77834   0.00297   0.00000   0.03145   0.03072   1.80906
    A3        1.87239   0.00670   0.00000   0.03885   0.03853   1.91092
    A4        2.04185  -0.00816   0.00000  -0.05025  -0.05121   1.99063
    A5        1.97272  -0.00170   0.00000  -0.01578  -0.01633   1.95638
    A6        1.95395   0.00228   0.00000   0.00312   0.00218   1.95613
    A7        1.90506  -0.00761   0.00000  -0.02385  -0.02478   1.88028
    A8        1.92539  -0.00787   0.00000  -0.02076  -0.02296   1.90243
    A9        1.86548   0.02820   0.00000   0.09260   0.09182   1.95730
   A10        1.97935  -0.00151   0.00000  -0.04087  -0.04174   1.93761
   A11        1.89997  -0.00616   0.00000  -0.00924  -0.00897   1.89100
   A12        1.88493  -0.00299   0.00000   0.01113   0.01079   1.89572
   A13        1.81298  -0.00028   0.00000   0.02633   0.02589   1.83888
   A14        1.82321   0.01392   0.00000   0.05197   0.05292   1.87613
   A15        1.92561   0.00624   0.00000   0.02737   0.02822   1.95383
   A16        1.93865   0.00065   0.00000  -0.01211  -0.01456   1.92409
   A17        1.86476   0.00406   0.00000   0.00818   0.00612   1.87088
   A18        2.08103  -0.02181   0.00000  -0.08593  -0.08692   1.99412
   A19        1.83147   0.00618   0.00000   0.02273   0.02273   1.85421
   A20        1.82248   0.01218   0.00000   0.04945   0.04926   1.87174
   A21        1.86786   0.01139   0.00000   0.03962   0.03903   1.90690
   A22        2.06329  -0.02433   0.00000  -0.06571  -0.06512   1.99816
   A23        1.93968  -0.00796   0.00000  -0.03505  -0.03608   1.90360
   A24        1.86997   0.00403   0.00000   0.00725   0.00830   1.87827
   A25        1.89948   0.00439   0.00000   0.00302   0.00362   1.90311
   A26        2.03361  -0.00927   0.00000  -0.03639  -0.03664   1.99697
   A27        1.97131  -0.00261   0.00000  -0.01219  -0.01252   1.95878
   A28        1.92830   0.00172   0.00000   0.01119   0.01133   1.93963
   A29        1.87565   0.00481   0.00000   0.01022   0.00961   1.88527
   A30        1.78833   0.00519   0.00000   0.02359   0.02379   1.81213
   A31        1.84975   0.00179   0.00000   0.01083   0.01089   1.86064
    D1        2.72959  -0.00690   0.00000  -0.04189  -0.04168   2.68791
    D2        0.54369   0.00574   0.00000   0.04086   0.04017   0.58386
    D3       -1.50139  -0.00264   0.00000  -0.01434  -0.01453  -1.51592
    D4        0.73378  -0.00997   0.00000  -0.06798  -0.06728   0.66650
    D5       -1.45211   0.00266   0.00000   0.01478   0.01456  -1.43755
    D6        2.78599  -0.00572   0.00000  -0.04042  -0.04014   2.74585
    D7       -1.61662   0.00142   0.00000   0.01825   0.01866  -1.59796
    D8        2.48067   0.01406   0.00000   0.10101   0.10051   2.58118
    D9        0.43558   0.00568   0.00000   0.04581   0.04580   0.48139
   D10       -0.77752   0.00079   0.00000   0.01095   0.01115  -0.76637
   D11        1.25585   0.00703   0.00000   0.02938   0.02971   1.28556
   D12       -2.77056  -0.00647   0.00000  -0.02406  -0.02352  -2.79408
   D13        1.27803   0.00399   0.00000   0.02855   0.02864   1.30667
   D14       -2.97178   0.01023   0.00000   0.04699   0.04719  -2.92459
   D15       -0.71501  -0.00328   0.00000  -0.00646  -0.00603  -0.72104
   D16       -2.84912  -0.00352   0.00000  -0.02018  -0.02093  -2.87005
   D17       -0.81574   0.00272   0.00000  -0.00174  -0.00238  -0.81812
   D18        1.44103  -0.01079   0.00000  -0.05519  -0.05560   1.38543
   D19       -2.96221  -0.00137   0.00000  -0.01819  -0.01866  -2.98087
   D20       -1.01796   0.00576   0.00000   0.03378   0.03280  -0.98516
   D21        1.16121  -0.00654   0.00000  -0.03986  -0.03841   1.12280
   D22       -2.67550  -0.00217   0.00000   0.00233   0.00206  -2.67344
   D23       -0.61760  -0.00020   0.00000   0.00420   0.00512  -0.61248
   D24        1.53243  -0.00216   0.00000  -0.00551  -0.00507   1.52736
   D25        1.64776  -0.00696   0.00000  -0.04586  -0.04624   1.60152
   D26       -2.57752  -0.00499   0.00000  -0.04399  -0.04318  -2.62070
   D27       -0.42750  -0.00695   0.00000  -0.05370  -0.05337  -0.48087
   D28       -0.56654   0.00576   0.00000   0.03205   0.03081  -0.53574
   D29        1.49136   0.00773   0.00000   0.03393   0.03386   1.52523
   D30       -2.64179   0.00577   0.00000   0.02421   0.02367  -2.61812
   D31       -0.77425  -0.00123   0.00000  -0.01073  -0.01060  -0.78486
   D32       -2.95830   0.00237   0.00000   0.01749   0.01725  -2.94105
   D33        1.25645   0.00064   0.00000   0.00408   0.00397   1.26042
   D34       -2.82446  -0.00486   0.00000  -0.03921  -0.03912  -2.86358
   D35        1.27468  -0.00125   0.00000  -0.01099  -0.01126   1.26342
   D36       -0.79376  -0.00299   0.00000  -0.02440  -0.02455  -0.81830
   D37        1.35986  -0.00012   0.00000  -0.00321  -0.00283   1.35703
   D38       -0.82419   0.00349   0.00000   0.02501   0.02503  -0.79916
   D39       -2.89262   0.00175   0.00000   0.01160   0.01175  -2.88088
         Item               Value     Threshold  Converged?
 Maximum Force            0.086214     0.000450     NO 
 RMS     Force            0.014014     0.000300     NO 
 Maximum Displacement     0.324549     0.001800     NO 
 RMS     Displacement     0.097387     0.001200     NO 
 Predicted change in Energy=-2.937461D-02
 Lowest energy point so far.  Saving SCF results.
 GradGradGradGradGradGradGradGradGradGradGradGradGradGradGradGradGradGrad

 Leave Link  103 at Wed Sep  7 15:33:28 2022, MaxMem=   131072000 cpu:               0.0 elap:               0.0
 (Enter /opt/g16/l202.exe)
                          Input orientation:                          
 ---------------------------------------------------------------------
 Center     Atomic      Atomic             Coordinates (Angstroms)
 Number     Number       Type             X           Y           Z
 ---------------------------------------------------------------------
      1          6           0       12.420873   13.680702    6.160473
      2          1           0       12.487862   12.686429    6.644339
      3          1           0       13.075760   14.327031    6.757639
      4          1           0       12.780744   13.498239    5.145563
      5          6           0       10.966548   14.160505    6.178006
      6          1           0       10.976258   15.275213    6.147192
      7          1           0       10.479548   13.795079    7.095332
      8          6           0       10.168966   13.647079    4.957907
      9          1           0       10.849112   13.791604    4.075567
     10          8           0        9.918062   12.267098    5.162882
     11          6           0        8.913854   14.482666    4.702815
     12          1           0        9.555833   11.935367    4.339754
     13          1           0        8.178663   13.825024    4.191943
     14          1           0        8.490105   14.814135    5.675613
     15          6           0        9.134090   15.690271    3.824605
     16          1           0       10.036921   16.281709    4.076813
     17          1           0        8.276599   16.365188    3.828091
     18          1           0        9.300202   15.389661    2.759466
 ---------------------------------------------------------------------
                    Distance matrix (angstroms):
                    1          2          3          4          5
     1  C    0.000000
     2  H    1.107788   0.000000
     3  H    1.096916   1.746436   0.000000
     4  H    1.092173   1.729493   1.836496   0.000000
     5  C    1.531529   2.169047   2.193737   2.189941   0.000000
     6  H    2.151639   3.038734   2.383192   2.723429   1.115175
     7  H    2.157727   2.337909   2.671578   3.030712   1.100996
     8  C    2.553113   3.023935   3.485803   2.622738   1.545440
     9  H    2.613344   3.241220   3.526777   2.227590   2.137786
    10  O    3.042619   2.995734   4.093609   3.116241   2.390563
    11  C    3.881636   4.446292   4.644135   4.014718   2.548240
    12  H    3.817024   3.804208   4.894498   3.673139   3.212558
    13  H    4.678920   5.087223   5.551250   4.711192   3.439375
    14  H    4.119551   4.631158   4.736696   4.519084   2.610058
    15  C    4.505285   5.312415   5.098811   4.455112   3.352101
    16  H    4.097573   5.052261   4.499126   4.051975   3.127095
    17  H    5.460905   6.260931   5.980660   5.499314   4.197446
    18  H    4.921990   5.706214   5.600840   4.624404   3.996742
                    6          7          8          9         10
     6  H    0.000000
     7  H    1.826605   0.000000
     8  C    2.171851   2.164937   0.000000
     9  H    2.551252   3.042296   1.123392   0.000000
    10  O    3.337274   2.526728   1.417504   2.091227   0.000000
    11  C    2.639672   2.940801   1.529242   2.148541   2.475649
    12  H    4.054505   3.450360   1.920417   2.277714   0.958538
    13  H    3.708448   3.704678   2.140017   2.673192   2.528906
    14  H    2.572147   2.648012   2.166956   3.028305   2.964685
    15  C    2.993370   4.012439   2.555382   2.570840   3.758153
    16  H    2.486334   3.935823   2.781194   2.619213   4.160623
    17  H    3.722155   4.704605   3.499379   3.647246   4.611986
    18  H    3.781395   4.767944   2.936748   2.585542   3.988554
                   11         12         13         14         15
    11  C    0.000000
    12  H    2.651921   0.000000
    13  H    1.110850   2.342916   0.000000
    14  H    1.111652   3.347776   1.810141   0.000000
    15  C    1.509327   3.813470   2.127657   2.146756   0.000000
    16  H    2.211270   4.380785   3.082480   2.665065   1.108383
    17  H    2.171434   4.639133   2.567959   2.421711   1.091246
    18  H    2.179108   3.807205   2.399569   3.080812   1.119143
                   16         17         18
    16  H    0.000000
    17  H    1.779766   0.000000
    18  H    1.753257   1.772393   0.000000
 Stoichiometry    C5H12O
 Framework group  C1[X(C5H12O)]
 Deg. of freedom    48
 Full point group                 C1      NOp   1
 RotChk:  IX=0 Diff= 1.11D-01
 Largest Abelian subgroup         C1      NOp   1
 Largest concise Abelian subgroup C1      NOp   1
                         Standard orientation:                         
 ---------------------------------------------------------------------
 Center     Atomic      Atomic             Coordinates (Angstroms)
 Number     Number       Type             X           Y           Z
 ---------------------------------------------------------------------
      1          6           0       -2.246345   -0.807974   -0.275887
      2          1           0       -2.985693   -0.015378   -0.047087
      3          1           0       -2.748629   -1.745172   -0.006451
      4          1           0       -2.066389   -0.691246   -1.346790
      5          6           0       -0.977290   -0.576596    0.549670
      6          1           0       -0.474930   -1.563105    0.684019
      7          1           0       -1.256251   -0.139990    1.521137
      8          6           0        0.010294    0.380116   -0.155856
      9          1           0        0.031839    0.047427   -1.228639
     10          8           0       -0.522778    1.690005   -0.059209
     11          6           0        1.431776    0.238525    0.389967
     12          1           0        0.021113    2.242962   -0.622427
     13          1           0        1.943304    1.211998    0.232878
     14          1           0        1.386364    0.023824    1.479743
     15          6           0        2.258885   -0.826710   -0.287701
     16          1           0        1.728867   -1.787348   -0.445074
     17          1           0        3.184250   -1.036139    0.251423
     18          1           0        2.554464   -0.512038   -1.320221
 ---------------------------------------------------------------------
 Rotational constants (GHZ):           4.8782296           2.2067073           1.7098289
 Leave Link  202 at Wed Sep  7 15:33:28 2022, MaxMem=   131072000 cpu:               0.0 elap:               0.0
 (Enter /opt/g16/l301.exe)
 Standard basis: VSTO-6G (5D, 7F)
 Ernie: Thresh=  0.10000D-02 Tol=  0.10000D-05 Strict=F.
  NNHCO=     0 NNPyr=     0 NCTC=     0               EPep=         0.000000000
    EC=       127.328778291  ECS=         2.178236524   EG=         0.565023942
   EHC=         0.000000000  EAt=       -36.836480110  AtH=         2.452923921
 EPDDG=         0.000000000  ECC=       130.072038757 EAtT=        39.289404030
 There are    36 symmetry adapted cartesian basis functions of A   symmetry.
 There are    36 symmetry adapted basis functions of A   symmetry.
    36 basis functions,   216 primitive gaussians,    36 cartesian basis functions
    19 alpha electrons       19 beta electrons
       nuclear repulsion energy       169.3614427876 Hartrees.
 IExCor=    0 DFT=F Ex=HF Corr=None ExCW=0 ScaHFX=  1.000000
 ScaDFX=  1.000000  1.000000  1.000000  1.000000 ScalE2=  1.000000  1.000000
 IRadAn=      5 IRanWt=     -1 IRanGd=            0 ICorTp=0 IEmpDi=  4
 Integral buffers will be    131072 words long.
 Regular integral format.
 Two-electron integral symmetry is turned off.
 Leave Link  301 at Wed Sep  7 15:33:28 2022, MaxMem=   131072000 cpu:               0.0 elap:               0.0
 (Enter /opt/g16/l302.exe)
 Do NDO integrals.
 NPDir=0 NMtPBC=     1 NCelOv=     1 NCel=       1 NClECP=     1 NCelD=      1
         NCelK=      1 NCelE2=     1 NClLst=     1 CellRange=     0.0.
 One-electron integrals computed using PRISM.
 NBasis=    36 RedAO= F EigKep=  0.00D+00  NBF=    36
 NBsUse=    36 1.00D-04 EigRej=  0.00D+00 NBFU=    36
 Leave Link  302 at Wed Sep  7 15:33:28 2022, MaxMem=   131072000 cpu:               0.0 elap:               0.0
 (Enter /opt/g16/l303.exe)
 DipDrv:  MaxL=1.
 Leave Link  303 at Wed Sep  7 15:33:28 2022, MaxMem=   131072000 cpu:               0.0 elap:               0.0
 (Enter /opt/g16/l401.exe)
 Initial guess from the checkpoint file:  "MD_extract_003_gaussian.chk"
 B after Tr=     0.000000   -0.000000    0.000000
         Rot=    0.999085   -0.002020   -0.001236    0.042695 Ang=  -4.90 deg.
 Guess basis will be translated and rotated to current coordinates.
 JPrj=0 DoOrth=T DoCkMO=T.
 Leave Link  401 at Wed Sep  7 15:33:28 2022, MaxMem=   131072000 cpu:               0.0 elap:               0.0
 (Enter /opt/g16/l502.exe)
 Keep J ints in memory in canonical form, NReq=862161.
 FoFCou: FMM=F IPFlag=           0 FMFlag=           0 FMFlg1=           0
         NFxFlg=           0 DoJE=F BraDBF=F KetDBF=F FulRan=T
         wScrn=  0.000000 ICntrl=       600 IOpCl=  2 I1Cent=           0 NGrid=           0
         NMat0=    1 NMatS0=     72 NMatT0=    0 NMatD0=    1 NMtDS0=    0 NMtDT0=    0
 Symmetry not used in FoFCou.
 Two-electron integral symmetry not used.
 Closed shell SCF:
 Using DIIS extrapolation, IDIIS=  1040.
 Overlap will be assumed to be unity.
 NGot=   131072000 LenX=   131006778 LenY=   131005041
 Requested convergence on RMS density matrix=1.00D-08 within 128 cycles.
 Requested convergence on MAX density matrix=1.00D-06.
 Requested convergence on             energy=1.00D-06.
 No special actions if energy rises.

 Cycle   1  Pass 1  IDiag  1:
 E=-0.100052136187401    
 DIIS: error= 7.30D-03 at cycle   1 NSaved=   1.
 NSaved= 1 IEnMin= 1 EnMin=-0.100052136187401     IErMin= 1 ErrMin= 7.30D-03
 ErrMax= 7.30D-03  0.00D+00 EMaxC= 1.00D-01 BMatC= 2.51D-03 BMatP= 2.51D-03
 IDIUse=3 WtCom= 9.27D-01 WtEn= 7.30D-02
 Coeff-Com:  0.100D+01
 Coeff-En:   0.100D+01
 Coeff:      0.100D+01
 GapD=    2.000 DampG=2.000 DampE=1.000 DampFc=2.0000 IDamp=-1.
 RMSDP=2.41D-03 MaxDP=1.43D-02              OVMax= 0.00D+00

 Cycle   2  Pass 1  IDiag  3:
 E=-0.108164796697167     Delta-E=       -0.008112660510 Rises=F Damp=F
 DIIS: error= 3.41D-03 at cycle   2 NSaved=   2.
 NSaved= 2 IEnMin= 2 EnMin=-0.108164796697167     IErMin= 2 ErrMin= 3.41D-03
 ErrMax= 3.41D-03  0.00D+00 EMaxC= 1.00D-01 BMatC= 3.40D-04 BMatP= 2.51D-03
 IDIUse=3 WtCom= 9.66D-01 WtEn= 3.41D-02
 Coeff-Com: -0.472D+00 0.147D+01
 Coeff-En:   0.000D+00 0.100D+01
 Coeff:     -0.456D+00 0.146D+01
 Gap=     0.515 Goal=   None    Shift=    0.000
 RMSDP=1.45D-03 MaxDP=9.36D-03 DE=-8.11D-03 OVMax= 9.05D-03

 Cycle   3  Pass 1  IDiag  3:
 E=-0.109754399572608     Delta-E=       -0.001589602875 Rises=F Damp=F
 DIIS: error= 8.66D-04 at cycle   3 NSaved=   3.
 NSaved= 3 IEnMin= 3 EnMin=-0.109754399572608     IErMin= 3 ErrMin= 8.66D-04
 ErrMax= 8.66D-04  0.00D+00 EMaxC= 1.00D-01 BMatC= 1.65D-05 BMatP= 3.40D-04
 IDIUse=3 WtCom= 9.91D-01 WtEn= 8.66D-03
 Coeff-Com:  0.196D+00-0.751D+00 0.155D+01
 Coeff-En:   0.000D+00 0.000D+00 0.100D+01
 Coeff:      0.195D+00-0.744D+00 0.155D+01
 Gap=     0.515 Goal=   None    Shift=    0.000
 RMSDP=4.20D-04 MaxDP=3.37D-03 DE=-1.59D-03 OVMax= 4.21D-03

 Cycle   4  Pass 1  IDiag  3:
 E=-0.109851767137542     Delta-E=       -0.000097367565 Rises=F Damp=F
 DIIS: error= 1.77D-04 at cycle   4 NSaved=   4.
 NSaved= 4 IEnMin= 4 EnMin=-0.109851767137542     IErMin= 4 ErrMin= 1.77D-04
 ErrMax= 1.77D-04  0.00D+00 EMaxC= 1.00D-01 BMatC= 7.45D-07 BMatP= 1.65D-05
 IDIUse=3 WtCom= 9.98D-01 WtEn= 1.77D-03
 Coeff-Com: -0.965D-01 0.383D+00-0.917D+00 0.163D+01
 Coeff-En:   0.000D+00 0.000D+00 0.000D+00 0.100D+01
 Coeff:     -0.963D-01 0.382D+00-0.915D+00 0.163D+01
 Gap=     0.515 Goal=   None    Shift=    0.000
 RMSDP=9.76D-05 MaxDP=9.22D-04 DE=-9.74D-05 OVMax= 1.41D-03

 Cycle   5  Pass 1  IDiag  3:
 E=-0.109856751080571     Delta-E=       -0.000004983943 Rises=F Damp=F
 DIIS: error= 5.23D-05 at cycle   5 NSaved=   5.
 NSaved= 5 IEnMin= 5 EnMin=-0.109856751080571     IErMin= 5 ErrMin= 5.23D-05
 ErrMax= 5.23D-05  0.00D+00 EMaxC= 1.00D-01 BMatC= 4.63D-08 BMatP= 7.45D-07
 IDIUse=1 WtCom= 1.00D+00 WtEn= 0.00D+00
 Coeff-Com:  0.411D-01-0.166D+00 0.413D+00-0.912D+00 0.162D+01
 Coeff:      0.411D-01-0.166D+00 0.413D+00-0.912D+00 0.162D+01
 Gap=     0.515 Goal=   None    Shift=    0.000
 RMSDP=2.65D-05 MaxDP=2.72D-04 DE=-4.98D-06 OVMax= 3.83D-04

 Cycle   6  Pass 1  IDiag  3:
 E=-0.109857068757890     Delta-E=       -0.000000317677 Rises=F Damp=F
 DIIS: error= 8.74D-06 at cycle   6 NSaved=   6.
 NSaved= 6 IEnMin= 6 EnMin=-0.109857068757890     IErMin= 6 ErrMin= 8.74D-06
 ErrMax= 8.74D-06  0.00D+00 EMaxC= 1.00D-01 BMatC= 1.73D-09 BMatP= 4.63D-08
 IDIUse=1 WtCom= 1.00D+00 WtEn= 0.00D+00
 Coeff-Com: -0.130D-01 0.527D-01-0.133D+00 0.307D+00-0.670D+00 0.146D+01
 Coeff:     -0.130D-01 0.527D-01-0.133D+00 0.307D+00-0.670D+00 0.146D+01
 Gap=     0.515 Goal=   None    Shift=    0.000
 RMSDP=4.52D-06 MaxDP=4.14D-05 DE=-3.18D-07 OVMax= 4.81D-05

 Cycle   7  Pass 1  IDiag  3:
 E=-0.109857079005252     Delta-E=       -0.000000010247 Rises=F Damp=F
 DIIS: error= 1.13D-06 at cycle   7 NSaved=   7.
 NSaved= 7 IEnMin= 7 EnMin=-0.109857079005252     IErMin= 7 ErrMin= 1.13D-06
 ErrMax= 1.13D-06  0.00D+00 EMaxC= 1.00D-01 BMatC= 6.15D-11 BMatP= 1.73D-09
 IDIUse=1 WtCom= 1.00D+00 WtEn= 0.00D+00
 Coeff-Com:  0.355D-02-0.144D-01 0.364D-01-0.840D-01 0.189D+00-0.524D+00
 Coeff-Com:  0.139D+01
 Coeff:      0.355D-02-0.144D-01 0.364D-01-0.840D-01 0.189D+00-0.524D+00
 Coeff:      0.139D+01
 Gap=     0.515 Goal=   None    Shift=    0.000
 RMSDP=7.80D-07 MaxDP=6.55D-06 DE=-1.02D-08 OVMax= 6.90D-06

 Cycle   8  Pass 1  IDiag  3:
 E=-0.109857079350661     Delta-E=       -0.000000000345 Rises=F Damp=F
 DIIS: error= 1.79D-07 at cycle   8 NSaved=   8.
 NSaved= 8 IEnMin= 8 EnMin=-0.109857079350661     IErMin= 8 ErrMin= 1.79D-07
 ErrMax= 1.79D-07  0.00D+00 EMaxC= 1.00D-01 BMatC= 2.87D-12 BMatP= 6.15D-11
 IDIUse=1 WtCom= 1.00D+00 WtEn= 0.00D+00
 Coeff-Com: -0.967D-03 0.394D-02-0.996D-02 0.230D-01-0.524D-01 0.155D+00
 Coeff-Com: -0.550D+00 0.143D+01
 Coeff:     -0.967D-03 0.394D-02-0.996D-02 0.230D-01-0.524D-01 0.155D+00
 Coeff:     -0.550D+00 0.143D+01
 Gap=     0.515 Goal=   None    Shift=    0.000
 RMSDP=1.73D-07 MaxDP=1.09D-06 DE=-3.45D-10 OVMax= 1.74D-06

 Cycle   9  Pass 1  IDiag  3:
 E=-0.109857079367913     Delta-E=       -0.000000000017 Rises=F Damp=F
 DIIS: error= 5.60D-08 at cycle   9 NSaved=   9.
 NSaved= 9 IEnMin= 9 EnMin=-0.109857079367913     IErMin= 9 ErrMin= 5.60D-08
 ErrMax= 5.60D-08  0.00D+00 EMaxC= 1.00D-01 BMatC= 2.01D-13 BMatP= 2.87D-12
 IDIUse=1 WtCom= 1.00D+00 WtEn= 0.00D+00
 Coeff-Com:  0.231D-03-0.946D-03 0.240D-02-0.556D-02 0.129D-01-0.410D-01
 Coeff-Com:  0.166D+00-0.613D+00 0.148D+01
 Coeff:      0.231D-03-0.946D-03 0.240D-02-0.556D-02 0.129D-01-0.410D-01
 Coeff:      0.166D+00-0.613D+00 0.148D+01
 Gap=     0.515 Goal=   None    Shift=    0.000
 RMSDP=4.87D-08 MaxDP=3.52D-07 DE=-1.73D-11 OVMax= 5.69D-07

 Cycle  10  Pass 1  IDiag  3:
 E=-0.109857079369448     Delta-E=       -0.000000000002 Rises=F Damp=F
 DIIS: error= 1.99D-08 at cycle  10 NSaved=  10.
 NSaved=10 IEnMin=10 EnMin=-0.109857079369448     IErMin=10 ErrMin= 1.99D-08
 ErrMax= 1.99D-08  0.00D+00 EMaxC= 1.00D-01 BMatC= 2.10D-14 BMatP= 2.01D-13
 IDIUse=1 WtCom= 1.00D+00 WtEn= 0.00D+00
 Coeff-Com: -0.450D-04 0.186D-03-0.479D-03 0.112D-02-0.274D-02 0.997D-02
 Coeff-Com: -0.477D-01 0.226D+00-0.840D+00 0.165D+01
 Coeff:     -0.450D-04 0.186D-03-0.479D-03 0.112D-02-0.274D-02 0.997D-02
 Coeff:     -0.477D-01 0.226D+00-0.840D+00 0.165D+01
 Gap=     0.515 Goal=   None    Shift=    0.000
 RMSDP=1.85D-08 MaxDP=1.36D-07 DE=-1.53D-12 OVMax= 2.08D-07

 Cycle  11  Pass 1  IDiag  3:
 E=-0.109857079369533     Delta-E=       -0.000000000000 Rises=F Damp=F
 DIIS: error= 4.88D-09 at cycle  11 NSaved=  11.
 NSaved=11 IEnMin=11 EnMin=-0.109857079369533     IErMin=11 ErrMin= 4.88D-09
 ErrMax= 4.88D-09  0.00D+00 EMaxC= 1.00D-01 BMatC= 1.26D-15 BMatP= 2.10D-14
 IDIUse=1 WtCom= 1.00D+00 WtEn= 0.00D+00
 Coeff-Com:  0.610D-05-0.263D-04 0.700D-04-0.168D-03 0.477D-03-0.230D-02
 Coeff-Com:  0.135D-01-0.755D-01 0.337D+00-0.872D+00 0.160D+01
 Coeff:      0.610D-05-0.263D-04 0.700D-04-0.168D-03 0.477D-03-0.230D-02
 Coeff:      0.135D-01-0.755D-01 0.337D+00-0.872D+00 0.160D+01
 Gap=     0.515 Goal=   None    Shift=    0.000
 RMSDP=4.56D-09 MaxDP=4.08D-08 DE=-8.53D-14 OVMax= 4.61D-08

 Cycle  12  Pass 2  IDiag  1:
 SCF Done:  E(RPM3) = -0.109857079370     A.U. after   12 cycles
            NFock= 11  Conv=0.46D-08     -V/T= 0.9982
 KE=-5.962378332424D+01 PE=-2.532804119981D+02 EE= 1.434328954553D+02
 Leave Link  502 at Wed Sep  7 15:33:28 2022, MaxMem=   131072000 cpu:               0.0 elap:               0.0
 (Enter /opt/g16/l701.exe)
 ... and contract with generalized density number  0.
 Compute integral first derivatives.
 Leave Link  701 at Wed Sep  7 15:33:28 2022, MaxMem=   131072000 cpu:               0.0 elap:               0.0
 (Enter /opt/g16/l702.exe)
 L702 exits ... SP integral derivatives will be done elsewhere.
 Leave Link  702 at Wed Sep  7 15:33:28 2022, MaxMem=   131072000 cpu:               0.0 elap:               0.0
 (Enter /opt/g16/l703.exe)
 Integral derivatives from FoFJK, PRISM(SPDF).
 Compute integral first derivatives, UseDBF=F ICtDFT=           0.
 Calling FoFJK, ICntrl=      2127 FMM=F ISym2X=0 I1Cent= 0 IOpClX= 0 NMat=1 NMatS=1 NMatT=0.
 FoFJK:  IHMeth= 9 ICntrl=    2127 DoSepK=F KAlg= 0 I1Cent=           0 FoldK=F
 IRaf=         0 NMat=       1 IRICut=       1 DoRegI=T DoRafI=F ISym2E= 0 IDoP0=3 IntGTp=3.
 FoFCou: FMM=F IPFlag=           0 FMFlag=      100000 FMFlg1=         800
         NFxFlg=           0 DoJE=F BraDBF=F KetDBF=F FulRan=T
         wScrn=  0.000000 ICntrl=      2127 IOpCl=  0 I1Cent=           0 NGrid=           0
         NMat0=    1 NMatS0=      1 NMatT0=    0 NMatD0=    1 NMtDS0=    0 NMtDT0=    0
 Symmetry not used in FoFCou.
 Leave Link  703 at Wed Sep  7 15:33:28 2022, MaxMem=   131072000 cpu:               0.0 elap:               0.0
 (Enter /opt/g16/l716.exe)
 Dipole        = 4.71626882D-01-1.83528995D-01-2.96652722D-01
 ***** Axes restored to original set *****
 -------------------------------------------------------------------
 Center     Atomic                   Forces (Hartrees/Bohr)
 Number     Number              X              Y              Z
 -------------------------------------------------------------------
      1        6          -0.015403525   -0.014737708    0.011013660
      2        1          -0.000067477    0.002428661   -0.000558447
      3        1           0.000630884    0.002643870   -0.006941715
      4        1           0.005571018    0.008286662   -0.002502244
      5        6           0.009043224   -0.002161137   -0.008750846
      6        1          -0.004477912   -0.005666213    0.003644975
      7        1          -0.001503119    0.006029113    0.004314806
      8        6           0.021285160    0.008178349   -0.002288008
      9        1          -0.001705242   -0.004960364   -0.002523645
     10        8          -0.006826139    0.001867291   -0.009421641
     11        6          -0.007792576   -0.003585846    0.003930722
     12        1           0.003672186    0.004027222    0.009564753
     13        1          -0.004182214    0.003117799    0.004815415
     14        1          -0.002046488   -0.003379049   -0.003450477
     15        6           0.015077399   -0.002395233   -0.016361685
     16        1          -0.005941361   -0.003517400    0.003917216
     17        1          -0.002464814    0.001612215    0.001620064
     18        1          -0.002869003    0.002211769    0.009977098
 -------------------------------------------------------------------
 Cartesian Forces:  Max     0.021285160 RMS     0.007075019
 Leave Link  716 at Wed Sep  7 15:33:28 2022, MaxMem=   131072000 cpu:               0.0 elap:               0.0
 (Enter /opt/g16/l103.exe)

 GradGradGradGradGradGradGradGradGradGradGradGradGradGradGradGradGradGrad
 Berny optimization.
 Using GEDIIS/GDIIS optimizer.
 FormGI is forming the generalized inverse of G from B-inverse, IUseBI=4.
 Internal  Forces:  Max     0.010995019 RMS     0.003463204
 Search for a local minimum.
 Step number   2 out of a maximum of   97
 All quantities printed in internal units (Hartrees-Bohrs-Radians)
 RMS Force = .34632D-02 SwitMx=.10000D-02 MixMth= 1
 Mixed Optimization -- RFO/linear search
 Update second derivatives using D2CorX and points    1    2
 DE= -2.33D-02 DEPred=-2.94D-02 R= 7.95D-01
 TightC=F SS=  1.41D+00  RLast= 3.69D-01 DXNew= 5.0454D-01 1.1084D+00
 Trust test= 7.95D-01 RLast= 3.69D-01 DXMaxT set to 5.05D-01
 ITU=  1  0
 Use linear search instead of GDIIS.
     Eigenvalues ---    0.00278   0.00661   0.00873   0.01288   0.01605
     Eigenvalues ---    0.03615   0.04234   0.04645   0.04937   0.05018
     Eigenvalues ---    0.05183   0.05380   0.05390   0.05558   0.06071
     Eigenvalues ---    0.07575   0.08438   0.08718   0.12160   0.12405
     Eigenvalues ---    0.15832   0.16000   0.16000   0.16000   0.16000
     Eigenvalues ---    0.16000   0.16036   0.17442   0.20418   0.21330
     Eigenvalues ---    0.22891   0.27536   0.28961   0.29937   0.30677
     Eigenvalues ---    0.31548   0.31904   0.32132   0.32524   0.33146
     Eigenvalues ---    0.33348   0.33482   0.34938   0.35017   0.36486
     Eigenvalues ---    0.43624   0.50533   0.51325
 RFO step:  Lambda=-8.91736612D-03 EMin= 2.78493598D-03
 Quartic linear search produced a step of  0.21799.
 Iteration  1 RMS(Cart)=  0.04840622 RMS(Int)=  0.00173636
 Iteration  2 RMS(Cart)=  0.00191721 RMS(Int)=  0.00068267
 Iteration  3 RMS(Cart)=  0.00000115 RMS(Int)=  0.00068267
 Iteration  4 RMS(Cart)=  0.00000000 RMS(Int)=  0.00068267
 ITry= 1 IFail=0 DXMaxC= 1.53D-01 DCOld= 1.00D+10 DXMaxT= 5.05D-01 DXLimC= 3.00D+00 Rises=F
 Variable       Old X    -DE/DX   Delta X   Delta X   Delta X     New X
                                 (Linear)    (Quad)   (Total)
    R1        2.09342  -0.00243   0.00136  -0.00959  -0.00823   2.08519
    R2        2.07287  -0.00184  -0.00249  -0.00461  -0.00710   2.06577
    R3        2.06391   0.00278   0.00680   0.00384   0.01064   2.07455
    R4        2.89417  -0.00838   0.00972  -0.03836  -0.02864   2.86553
    R5        2.10738  -0.00580  -0.00525  -0.01811  -0.02335   2.08402
    R6        2.08058   0.00226   0.00524   0.00364   0.00889   2.08947
    R7        2.92046  -0.00408   0.03498  -0.03916  -0.00419   2.91627
    R8        2.12290   0.00031   0.00502  -0.00264   0.00238   2.12528
    R9        2.67869  -0.00516   0.00448  -0.01700  -0.01252   2.66617
   R10        2.88985   0.00440   0.01537   0.00400   0.01937   2.90922
   R11        1.81137  -0.01100  -0.00919  -0.01854  -0.02773   1.78365
   R12        2.09920  -0.00129  -0.00149  -0.00359  -0.00508   2.09412
   R13        2.10072  -0.00325  -0.00331  -0.00954  -0.01285   2.08787
   R14        2.85221  -0.00062  -0.01134   0.00599  -0.00534   2.84687
   R15        2.09454  -0.00583  -0.01086  -0.01444  -0.02531   2.06923
   R16        2.06216   0.00294   0.00111   0.00903   0.01013   2.07229
   R17        2.11487  -0.01052  -0.01577  -0.03185  -0.04761   2.06726
    A1        1.82860   0.00174   0.00198   0.03380   0.03595   1.86455
    A2        1.80906   0.00215   0.00670   0.04613   0.05148   1.86054
    A3        1.91092   0.00193   0.00840   0.03653   0.04429   1.95521
    A4        1.99063  -0.00531  -0.01116  -0.07494  -0.08917   1.90146
    A5        1.95638  -0.00127  -0.00356  -0.02431  -0.02946   1.92692
    A6        1.95613   0.00143   0.00048  -0.00264  -0.00453   1.95160
    A7        1.88028   0.00255  -0.00540   0.02943   0.02382   1.90410
    A8        1.90243   0.00046  -0.00500   0.01315   0.00729   1.90972
    A9        1.95730  -0.00081   0.02002  -0.00709   0.01238   1.96968
   A10        1.93761  -0.00353  -0.00910  -0.05302  -0.06213   1.87548
   A11        1.89100  -0.00067  -0.00195  -0.00410  -0.00624   1.88476
   A12        1.89572   0.00188   0.00235   0.01986   0.02185   1.91757
   A13        1.83888   0.00308   0.00564   0.06038   0.06564   1.90452
   A14        1.87613   0.00179   0.01154  -0.01800  -0.00808   1.86806
   A15        1.95383  -0.00190   0.00615  -0.02210  -0.01732   1.93651
   A16        1.92409  -0.00078  -0.00317  -0.00754  -0.01088   1.91321
   A17        1.87088   0.00232   0.00133   0.03400   0.03440   1.90528
   A18        1.99412  -0.00398  -0.01895  -0.03847  -0.05833   1.93578
   A19        1.85421  -0.00021   0.00496  -0.00530  -0.00034   1.85386
   A20        1.87174   0.00554   0.01074   0.04541   0.05653   1.92827
   A21        1.90690   0.00320   0.00851   0.00267   0.01072   1.91762
   A22        1.99816  -0.01086  -0.01420  -0.03890  -0.05268   1.94548
   A23        1.90360  -0.00455  -0.00787  -0.04405  -0.05228   1.85131
   A24        1.87827   0.00314   0.00181   0.02574   0.02851   1.90678
   A25        1.90311   0.00354   0.00079   0.00813   0.00888   1.91199
   A26        1.99697  -0.00526  -0.00799  -0.03532  -0.04393   1.95304
   A27        1.95878  -0.00109  -0.00273  -0.01399  -0.01752   1.94126
   A28        1.93963   0.00093   0.00247   0.01693   0.01969   1.95932
   A29        1.88527   0.00170   0.00210  -0.00945  -0.00894   1.87632
   A30        1.81213   0.00369   0.00519   0.03731   0.04293   1.85506
   A31        1.86064   0.00074   0.00237   0.01068   0.01317   1.87381
    D1        2.68791  -0.00120  -0.00908   0.00516  -0.00435   2.68357
    D2        0.58386   0.00129   0.00876   0.04410   0.05241   0.63628
    D3       -1.51592  -0.00087  -0.00317   0.01487   0.01138  -1.50454
    D4        0.66650  -0.00380  -0.01467  -0.04481  -0.05865   0.60785
    D5       -1.43755  -0.00131   0.00317  -0.00587  -0.00189  -1.43944
    D6        2.74585  -0.00346  -0.00875  -0.03509  -0.04292   2.70292
    D7       -1.59796   0.00341   0.00407   0.08216   0.08575  -1.51221
    D8        2.58118   0.00589   0.02191   0.12110   0.14251   2.72369
    D9        0.48139   0.00374   0.00998   0.09187   0.10148   0.58287
   D10       -0.76637   0.00028   0.00243   0.00902   0.01165  -0.75472
   D11        1.28556   0.00177   0.00648   0.02193   0.02874   1.31430
   D12       -2.79408  -0.00331  -0.00513  -0.05556  -0.06061  -2.85468
   D13        1.30667   0.00251   0.00624   0.03849   0.04476   1.35143
   D14       -2.92459   0.00400   0.01029   0.05139   0.06185  -2.86273
   D15       -0.72104  -0.00109  -0.00131  -0.02610  -0.02750  -0.74853
   D16       -2.87005  -0.00104  -0.00456  -0.01628  -0.02110  -2.89115
   D17       -0.81812   0.00045  -0.00052  -0.00338  -0.00401  -0.82213
   D18        1.38543  -0.00464  -0.01212  -0.08086  -0.09335   1.29207
   D19       -2.98087  -0.00301  -0.00407  -0.05563  -0.05919  -3.04005
   D20       -0.98516   0.00121   0.00715   0.00207   0.00848  -0.97669
   D21        1.12280   0.00087  -0.00837   0.01381   0.00567   1.12847
   D22       -2.67344   0.00233   0.00045   0.05162   0.05142  -2.62202
   D23       -0.61248   0.00176   0.00112   0.02622   0.02718  -0.58530
   D24        1.52736   0.00116  -0.00111   0.01141   0.01021   1.53757
   D25        1.60152  -0.00173  -0.01008  -0.02925  -0.03987   1.56165
   D26       -2.62070  -0.00230  -0.00941  -0.05464  -0.06411  -2.68481
   D27       -0.48087  -0.00290  -0.01163  -0.06945  -0.08108  -0.56194
   D28       -0.53574   0.00017   0.00672  -0.01933  -0.01246  -0.54819
   D29        1.52523  -0.00040   0.00738  -0.04472  -0.03670   1.48853
   D30       -2.61812  -0.00100   0.00516  -0.05953  -0.05367  -2.67179
   D31       -0.78486  -0.00075  -0.00231  -0.03475  -0.03664  -0.82150
   D32       -2.94105   0.00200   0.00376   0.01741   0.02061  -2.92043
   D33        1.26042   0.00114   0.00086   0.00163   0.00230   1.26272
   D34       -2.86358  -0.00323  -0.00853  -0.08594  -0.09393  -2.95751
   D35        1.26342  -0.00048  -0.00246  -0.03379  -0.03668   1.22674
   D36       -0.81830  -0.00134  -0.00535  -0.04957  -0.05499  -0.87329
   D37        1.35703  -0.00151  -0.00062  -0.05241  -0.05240   1.30463
   D38       -0.79916   0.00124   0.00546  -0.00025   0.00485  -0.79430
   D39       -2.88088   0.00039   0.00256  -0.01603  -0.01346  -2.89433
         Item               Value     Threshold  Converged?
 Maximum Force            0.010995     0.000450     NO 
 RMS     Force            0.003463     0.000300     NO 
 Maximum Displacement     0.152503     0.001800     NO 
 RMS     Displacement     0.048604     0.001200     NO 
 Predicted change in Energy=-4.765462D-03
 Lowest energy point so far.  Saving SCF results.
 GradGradGradGradGradGradGradGradGradGradGradGradGradGradGradGradGradGrad

[...]
 ! A10   A(6,5,7)              105.8366         -DE/DX =    0.0                 !
 ! A11   A(6,5,8)              107.789          -DE/DX =    0.0                 !
 ! A12   A(7,5,8)              110.2417         -DE/DX =    0.0                 !
 ! A13   A(5,8,9)              109.6624         -DE/DX =    0.0                 !
 ! A14   A(5,8,10)             107.0955         -DE/DX =    0.0                 !
 ! A15   A(5,8,11)             110.7125         -DE/DX =    0.0                 !
 ! A16   A(9,8,10)             108.927          -DE/DX =    0.0                 !
 ! A17   A(9,8,11)             109.2584         -DE/DX =    0.0                 !
 ! A18   A(10,8,11)            111.1425         -DE/DX =    0.0                 !
 ! A19   A(8,10,12)            106.5626         -DE/DX =    0.0                 !
 ! A20   A(8,11,13)            110.1236         -DE/DX =    0.0                 !
 ! A21   A(8,11,14)            109.7172         -DE/DX =    0.0                 !
 ! A22   A(8,11,15)            111.2107         -DE/DX =    0.0                 !
 ! A23   A(13,11,14)           105.5691         -DE/DX =    0.0                 !
 ! A24   A(13,11,15)           109.8956         -DE/DX =    0.0                 !
 ! A25   A(14,11,15)           110.1744         -DE/DX =    0.0                 !
 ! A26   A(11,15,16)           110.4588         -DE/DX =    0.0                 !
 ! A27   A(11,15,17)           111.5778         -DE/DX =    0.0                 !
 ! A28   A(11,15,18)           111.8179         -DE/DX =    0.0                 !
 ! A29   A(16,15,17)           107.8997         -DE/DX =    0.0                 !
 ! A30   A(16,15,18)           107.3112         -DE/DX =    0.0                 !
 ! A31   A(17,15,18)           107.5808         -DE/DX =    0.0                 !
 ! D1    D(2,1,5,6)            178.855          -DE/DX =    0.0                 !
 ! D2    D(2,1,5,7)             62.4595         -DE/DX =    0.0                 !
 ! D3    D(2,1,5,8)            -60.9144         -DE/DX =    0.0                 !
 ! D4    D(3,1,5,6)             58.9828         -DE/DX =    0.0                 !
 ! D5    D(3,1,5,7)            -57.4127         -DE/DX =    0.0                 !
 ! D6    D(3,1,5,8)            179.2134         -DE/DX =    0.0                 !
 ! D7    D(4,1,5,6)            -60.8974         -DE/DX =    0.0                 !
 ! D8    D(4,1,5,7)           -177.2929         -DE/DX =    0.0                 !
 ! D9    D(4,1,5,8)             59.3332         -DE/DX =    0.0                 !
 ! D10   D(1,5,8,9)            -41.8288         -DE/DX =    0.0                 !
 ! D11   D(1,5,8,10)            76.2225         -DE/DX =    0.0                 !
 ! D12   D(1,5,8,11)          -162.4633         -DE/DX =    0.0                 !
 ! D13   D(6,5,8,9)             79.767          -DE/DX =    0.0                 !
 ! D14   D(6,5,8,10)          -162.1817         -DE/DX =    0.0                 !
 ! D15   D(6,5,8,11)           -40.8675         -DE/DX =    0.0                 !
 ! D16   D(7,5,8,9)           -165.1596         -DE/DX =    0.0                 !
 ! D17   D(7,5,8,10)           -47.1083         -DE/DX =    0.0                 !
 ! D18   D(7,5,8,11)            74.2058         -DE/DX =    0.0                 !
 ! D19   D(5,8,10,12)         -178.9663         -DE/DX =    0.0                 !
 ! D20   D(9,8,10,12)          -60.4367         -DE/DX =    0.0                 !
 ! D21   D(11,8,10,12)          59.9913         -DE/DX =    0.0                 !
 ! D22   D(5,8,11,13)         -171.9484         -DE/DX =    0.0                 !
 ! D23   D(5,8,11,14)          -56.1648         -DE/DX =    0.0                 !
 ! D24   D(5,8,11,15)           65.9805         -DE/DX =    0.0                 !
 ! D25   D(9,8,11,13)           67.1772         -DE/DX =    0.0                 !
 ! D26   D(9,8,11,14)         -177.0392         -DE/DX =    0.0                 !
 ! D27   D(9,8,11,15)          -54.8939         -DE/DX =    0.0                 !
 ! D28   D(10,8,11,13)         -53.0547         -DE/DX =    0.0                 !
 ! D29   D(10,8,11,14)          62.729          -DE/DX =    0.0                 !
 ! D30   D(10,8,11,15)        -175.1257         -DE/DX =    0.0                 !
 ! D31   D(8,11,15,16)         -53.338          -DE/DX =    0.0                 !
 ! D32   D(8,11,15,17)        -173.3582         -DE/DX =    0.0                 !
 ! D33   D(8,11,15,18)          66.0978         -DE/DX =    0.0                 !
 ! D34   D(13,11,15,16)       -175.5413         -DE/DX =    0.0                 !
 ! D35   D(13,11,15,17)         64.4385         -DE/DX =    0.0                 !
 ! D36   D(13,11,15,18)        -56.1054         -DE/DX =    0.0                 !
 ! D37   D(14,11,15,16)         68.5419         -DE/DX =    0.0                 !
 ! D38   D(14,11,15,17)        -51.4783         -DE/DX =    0.0                 !
 ! D39   D(14,11,15,18)       -172.0222         -DE/DX =    0.0                 !
 --------------------------------------------------------------------------------
 Lowest energy point so far.  Saving SCF results.
 Largest change from initial coordinates is atom   18       0.853 Angstoms.
 GradGradGradGradGradGradGradGradGradGradGradGradGradGradGradGradGradGrad

 Leave Link  103 at Wed Sep  7 15:33:34 2022, MaxMem=   131072000 cpu:               0.0 elap:               0.0
 (Enter /opt/g16/l202.exe)
                          Input orientation:                          
 ---------------------------------------------------------------------
 Center     Atomic      Atomic             Coordinates (Angstroms)
 Number     Number       Type             X           Y           Z
 ---------------------------------------------------------------------
      1          6           0       12.407700   13.725660    6.068414
      2          1           0       12.439791   12.651651    6.293426
      3          1           0       12.987767   14.241302    6.844519
      4          1           0       12.930684   13.875610    5.114241
      5          6           0       10.988896   14.243083    6.017310
      6          1           0       10.986453   15.337614    5.808141
      7          1           0       10.502714   14.123037    7.005720
      8          6           0       10.153825   13.555267    4.927389
      9          1           0       10.766803   13.443358    3.997799
     10          8           0        9.815406   12.268279    5.412226
     11          6           0        8.891123   14.378418    4.607502
     12          1           0        9.314588   11.844936    4.728065
     13          1           0        8.225263   13.807496    3.929784
     14          1           0        8.305083   14.539395    5.534131
     15          6           0        9.248365   15.706027    3.979394
     16          1           0        9.974042   16.248064    4.609648
     17          1           0        8.365474   16.344663    3.856640
     18          1           0        9.706022   15.579139    2.989651
 ---------------------------------------------------------------------
                    Distance matrix (angstroms):
                    1          2          3          4          5
     1  C    0.000000
     2  H    1.097795   0.000000
     3  H    1.097590   1.769455   0.000000
     4  H    1.098383   1.769047   1.769422   0.000000
     5  C    1.511074   2.171173   2.163277   2.172812   0.000000
     6  H    2.164736   3.092263   2.506240   2.529623   1.114341
     7  H    2.159959   2.534681   2.493083   3.087710   1.108034
     8  C    2.531981   2.812156   3.489593   2.801514   1.535696
     9  H    2.657007   2.948829   3.697731   2.472987   2.183417
    10  O    3.045411   2.794796   4.001019   3.518133   2.375511
    11  C    3.863506   4.291516   4.669641   4.102153   2.531112
    12  H    3.860181   3.587204   4.869721   4.165203   3.196336
    13  H    4.698215   4.968403   5.600475   4.852687   3.490726
    14  H    4.216526   4.608244   4.871704   4.691812   2.743011
    15  C    4.274022   4.986898   4.933304   4.265885   3.053318
    16  H    3.796474   4.674314   4.254912   3.824250   2.651676
    17  H    5.300068   6.014675   5.892126   5.340312   3.995932
    18  H    4.495913   5.192167   5.236379   4.220703   3.549299
                    6          7          8          9         10
     6  H    0.000000
     7  H    1.772963   0.000000
     8  C    2.155401   2.182555   0.000000
     9  H    2.629409   3.095044   1.119108   0.000000
    10  O    3.308915   2.540028   1.416309   2.070403   0.000000
    11  C    2.598462   2.900672   1.540884   2.182716   2.440198
    12  H    4.020012   3.433526   1.915537   2.279730   0.947689
    13  H    3.673372   3.840278   2.185906   2.568394   2.663715
    14  H    2.811046   2.677407   2.180479   3.101882   2.730183
    15  C    2.549705   3.638392   2.518793   2.725006   3.767314
    16  H    1.813913   3.245981   2.717432   2.978121   4.063002
    17  H    3.419362   4.406827   3.482159   3.768803   4.597723
    18  H    3.105112   4.345545   2.837501   2.589049   4.103977
                   11         12         13         14         15
    11  C    0.000000
    12  H    2.571457   0.000000
    13  H    1.108433   2.382336   0.000000
    14  H    1.108151   2.988135   1.765213   0.000000
    15  C    1.511518   3.933563   2.157226   2.160560   0.000000
    16  H    2.160624   4.453812   3.078445   2.561180   1.103464
    17  H    2.169382   4.680570   2.542091   2.465080   1.096550
    18  H    2.173300   4.137581   2.493034   3.085138   1.097789
                   16         17         18
    16  H    0.000000
    17  H    1.778721   0.000000
    18  H    1.773044   1.770527   0.000000
 Stoichiometry    C5H12O
 Framework group  C1[X(C5H12O)]
 Deg. of freedom    48
 Full point group                 C1      NOp   1
 RotChk:  IX=0 Diff= 2.34D-16
 Largest Abelian subgroup         C1      NOp   1
 Largest concise Abelian subgroup C1      NOp   1
                         Standard orientation:                         
 ---------------------------------------------------------------------
 Center     Atomic      Atomic             Coordinates (Angstroms)
 Number     Number       Type             X           Y           Z
 ---------------------------------------------------------------------
      1          6           0       -2.179830   -0.847155   -0.204504
      2          1           0       -2.787912    0.064643   -0.267858
      3          1           0       -2.770764   -1.599281    0.333834
      4          1           0       -2.035278   -1.215632   -1.229089
      5          6           0       -0.862539   -0.592372    0.490604
      6          1           0       -0.275475   -1.537027    0.559426
      7          1           0       -1.038418   -0.268844    1.535656
      8          6           0       -0.001322    0.442466   -0.248164
      9          1           0       -0.051723    0.256249   -1.350519
     10          8           0       -0.553490    1.717103    0.028142
     11          6           0        1.466140    0.360302    0.214574
     12          1           0       -0.026715    2.347806   -0.443914
     13          1           0        2.048535    1.200788   -0.213238
     14          1           0        1.519405    0.490630    1.313744
     15          6           0        2.092767   -0.955803   -0.185292
     16          1           0        1.476202   -1.799806    0.168457
     17          1           0        3.096819   -1.070235    0.240392
     18          1           0        2.181950   -1.050742   -1.275326
 ---------------------------------------------------------------------
 Rotational constants (GHZ):           4.6351698           2.4250278           1.7588015
 Leave Link  202 at Wed Sep  7 15:33:34 2022, MaxMem=   131072000 cpu:               0.0 elap:               0.0
 (Enter /opt/g16/l601.exe)
 Copying SCF densities to generalized density rwf, IOpCl= 0 IROHF=0.

 **********************************************************************

            Population analysis using the SCF density.

 **********************************************************************

 Orbital symmetries:
       Occupied  (A) (A) (A) (A) (A) (A) (A) (A) (A) (A) (A) (A)
                 (A) (A) (A) (A) (A) (A) (A)
       Virtual   (A) (A) (A) (A) (A) (A) (A) (A) (A) (A) (A) (A)
                 (A) (A) (A) (A) (A)
 The electronic state is 1-A.
 Alpha  occ. eigenvalues --   -1.48430  -1.26481  -1.19344  -0.93009  -0.82693
 Alpha  occ. eigenvalues --   -0.74693  -0.66388  -0.59055  -0.58143  -0.55040
 Alpha  occ. eigenvalues --   -0.53780  -0.51984  -0.49104  -0.47913  -0.47207
 Alpha  occ. eigenvalues --   -0.45253  -0.43002  -0.42185  -0.40359
 Alpha virt. eigenvalues --    0.11607   0.12963   0.13133   0.13453   0.14133
 Alpha virt. eigenvalues --    0.14405   0.15015   0.15301   0.16008   0.16085
 Alpha virt. eigenvalues --    0.17083   0.17279   0.17372   0.18377   0.18629
 Alpha virt. eigenvalues --    0.18805   0.21153
          Condensed to atoms (all electrons):
               1          2          3          4          5          6
     1  C    4.105695   0.000000   0.000000   0.000000   0.000000   0.000000
     2  H    0.000000   0.951057   0.000000   0.000000   0.000000   0.000000
     3  H    0.000000   0.000000   0.964445   0.000000   0.000000   0.000000
     4  H    0.000000   0.000000   0.000000   0.966360   0.000000   0.000000
     5  C    0.000000   0.000000   0.000000   0.000000   4.115062   0.000000
     6  H    0.000000   0.000000   0.000000   0.000000   0.000000   0.941859
     7  H    0.000000   0.000000   0.000000   0.000000   0.000000   0.000000
     8  C    0.000000   0.000000   0.000000   0.000000   0.000000   0.000000
     9  H    0.000000   0.000000   0.000000   0.000000   0.000000   0.000000
    10  O    0.000000   0.000000   0.000000   0.000000   0.000000   0.000000
    11  C    0.000000   0.000000   0.000000   0.000000   0.000000   0.000000
    12  H    0.000000   0.000000   0.000000   0.000000   0.000000   0.000000
    13  H    0.000000   0.000000   0.000000   0.000000   0.000000   0.000000
    14  H    0.000000   0.000000   0.000000   0.000000   0.000000   0.000000
    15  C    0.000000   0.000000   0.000000   0.000000   0.000000   0.000000
    16  H    0.000000   0.000000   0.000000   0.000000   0.000000   0.000000
    17  H    0.000000   0.000000   0.000000   0.000000   0.000000   0.000000
    18  H    0.000000   0.000000   0.000000   0.000000   0.000000   0.000000
               7          8          9         10         11         12
     1  C    0.000000   0.000000   0.000000   0.000000   0.000000   0.000000
     2  H    0.000000   0.000000   0.000000   0.000000   0.000000   0.000000
     3  H    0.000000   0.000000   0.000000   0.000000   0.000000   0.000000
     4  H    0.000000   0.000000   0.000000   0.000000   0.000000   0.000000
     5  C    0.000000   0.000000   0.000000   0.000000   0.000000   0.000000
     6  H    0.000000   0.000000   0.000000   0.000000   0.000000   0.000000
     7  H    0.935415   0.000000   0.000000   0.000000   0.000000   0.000000
     8  C    0.000000   3.922614   0.000000   0.000000   0.000000   0.000000
     9  H    0.000000   0.000000   0.957661   0.000000   0.000000   0.000000
    10  O    0.000000   0.000000   0.000000   6.308014   0.000000   0.000000
    11  C    0.000000   0.000000   0.000000   0.000000   4.138950   0.000000
    12  H    0.000000   0.000000   0.000000   0.000000   0.000000   0.816471
    13  H    0.000000   0.000000   0.000000   0.000000   0.000000   0.000000
    14  H    0.000000   0.000000   0.000000   0.000000   0.000000   0.000000
    15  C    0.000000   0.000000   0.000000   0.000000   0.000000   0.000000
    16  H    0.000000   0.000000   0.000000   0.000000   0.000000   0.000000
    17  H    0.000000   0.000000   0.000000   0.000000   0.000000   0.000000
    18  H    0.000000   0.000000   0.000000   0.000000   0.000000   0.000000
              13         14         15         16         17         18
     1  C    0.000000   0.000000   0.000000   0.000000   0.000000   0.000000
     2  H    0.000000   0.000000   0.000000   0.000000   0.000000   0.000000
     3  H    0.000000   0.000000   0.000000   0.000000   0.000000   0.000000
     4  H    0.000000   0.000000   0.000000   0.000000   0.000000   0.000000
     5  C    0.000000   0.000000   0.000000   0.000000   0.000000   0.000000
     6  H    0.000000   0.000000   0.000000   0.000000   0.000000   0.000000
     7  H    0.000000   0.000000   0.000000   0.000000   0.000000   0.000000
     8  C    0.000000   0.000000   0.000000   0.000000   0.000000   0.000000
     9  H    0.000000   0.000000   0.000000   0.000000   0.000000   0.000000
    10  O    0.000000   0.000000   0.000000   0.000000   0.000000   0.000000
    11  C    0.000000   0.000000   0.000000   0.000000   0.000000   0.000000
    12  H    0.000000   0.000000   0.000000   0.000000   0.000000   0.000000
    13  H    0.952010   0.000000   0.000000   0.000000   0.000000   0.000000
    14  H    0.000000   0.938086   0.000000   0.000000   0.000000   0.000000
    15  C    0.000000   0.000000   4.113365   0.000000   0.000000   0.000000
    16  H    0.000000   0.000000   0.000000   0.952738   0.000000   0.000000
    17  H    0.000000   0.000000   0.000000   0.000000   0.958762   0.000000
    18  H    0.000000   0.000000   0.000000   0.000000   0.000000   0.961436
 Mulliken charges:
               1
     1  C   -0.105695
     2  H    0.048943
     3  H    0.035555
     4  H    0.033640
     5  C   -0.115062
     6  H    0.058141
     7  H    0.064585
     8  C    0.077386
     9  H    0.042339
    10  O   -0.308014
    11  C   -0.138950
    12  H    0.183529
    13  H    0.047990
    14  H    0.061914
    15  C   -0.113365
    16  H    0.047262
    17  H    0.041238
    18  H    0.038564
 Sum of Mulliken charges =   0.00000
 Mulliken charges with hydrogens summed into heavy atoms:
               1
     1  C    0.012443
     5  C    0.007664
     8  C    0.119724
    10  O   -0.124485
    11  C   -0.029046
    15  C    0.013699
 Charge=              0.0000 electrons
 Dipole moment (field-independent basis, Debye):
    X=              1.2055    Y=             -0.4048    Z=             -0.7550  Tot=              1.4789
 N-N= 1.704277942821D+02 E-N=-2.553363261909D+02  KE=-5.967282933707D+01
 Leave Link  601 at Wed Sep  7 15:33:34 2022, MaxMem=   131072000 cpu:               0.0 elap:               0.0
 (Enter /opt/g16/l9999.exe)
 1\1\GINC-TOTEM2\FOpt\RPM3\ZDO\C5H12O1\JRAMOS\07-Sep-2022\0\\#p opt pm3
 \\Conformer number 003. Energy MM = 0.000 kcal/mol\\0,1\C,12.407700379
 ,13.7256596033,6.0684144469\H,12.4397910153,12.6516514298,6.293425873\
 H,12.987766953,14.241301655,6.8445193349\H,12.930684272,13.8756096425,
 5.1142405243\C,10.9888956682,14.2430833246,6.0173096126\H,10.986453241
 8,15.3376142925,5.8081412084\H,10.5027138553,14.1230371907,7.005719914
 2\C,10.1538248073,13.5552674724,4.9273889583\H,10.7668025593,13.443358
 3196,3.9977989242\O,9.8154064496,12.2682792914,5.4122257116\C,8.891122
 5029,14.3784183312,4.6075018118\H,9.3145884692,11.8449360562,4.7280650
 573\H,8.2252626452,13.8074955835,3.9297839978\H,8.3050833803,14.539394
 6548,5.5341314266\C,9.2483654111,15.7060270913,3.9793937325\H,9.974042
 4081,16.2480642466,4.6096484973\H,8.3654736659,16.3446625756,3.8566396
 325\H,9.706022316,15.5791392389,2.9896513358\\Version=ES64L-G16RevA.03
 \State=1-A\HF=-0.1173978\RMSD=5.519e-09\RMSF=6.306e-06\Dipole=-0.14671
 37,0.2794385,-0.4888295\PG=C01 [X(C5H12O1)]\\@


 THERE IS NO SCIENCE WITHOUT FANCY, NOR ART WITHOUT FACTS.
     -- VLADIMIR NABAKOV
 Job cpu time:       0 days  0 hours  0 minutes  6.6 seconds.
 Elapsed time:       0 days  0 hours  0 minutes  5.4 seconds.
 File lengths (MBytes):  RWF=      6 Int=      0 D2E=      0 Chk=      2 Scr=      1
 Normal termination of Gaussian 16 at Wed Sep  7 15:33:34 2022.
