 Entering Gaussian System, Link 0=/opt/g16/g16
 Input=MD_extract_018_gaussian.com
 Output=MD_extract_018_gaussian.log
 Initial command:
 /opt/g16/l1.exe "/tmp/Gau-318118.inp" -scrdir="/tmp/"
 Entering Link 1 = /opt/g16/l1.exe PID=    318120.
  
 Copyright (c) 1988,1990,1992,1993,1995,1998,2003,2009,2016,
            Gaussian, Inc.  All Rights Reserved.
  
 This is part of the Gaussian(R) 16 program.  It is based on
 the Gaussian(R) 09 system (copyright 2009, Gaussian, Inc.),
 the Gaussian(R) 03 system (copyright 2003, Gaussian, Inc.),
 the Gaussian(R) 98 system (copyright 1998, Gaussian, Inc.),
 the Gaussian(R) 94 system (copyright 1995, Gaussian, Inc.),
 the Gaussian 92(TM) system (copyright 1992, Gaussian, Inc.),
 the Gaussian 90(TM) system (copyright 1990, Gaussian, Inc.),
 the Gaussian 88(TM) system (copyright 1988, Gaussian, Inc.),
 the Gaussian 86(TM) system (copyright 1986, Carnegie Mellon
 University), and the Gaussian 82(TM) system (copyright 1983,
 Carnegie Mellon University). Gaussian is a federally registered
 trademark of Gaussian, Inc.
  
 This software contains proprietary and confidential information,
 including trade secrets, belonging to Gaussian, Inc.
  
 This software is provided under written license and may be
 used, copied, transmitted, or stored only in accord with that
 written license.
  
 The following legend is applicable only to US Government
 contracts under FAR:
  
                    RESTRICTED RIGHTS LEGEND
  
 Use, reproduction and disclosure by the US Government is
 subject to restrictions as set forth in subparagraphs (a)
 and (c) of the Commercial Computer Software - Restricted
 Rights clause in FAR 52.227-19.
  
 Gaussian, Inc.
 340 Quinnipiac St., Bldg. 40, Wallingford CT 06492
  
  
 ---------------------------------------------------------------
 Warning -- This program may not be used in any manner that
 competes with the business of Gaussian, Inc. or will provide
 assistance to any competitor of Gaussian, Inc.  The licensee
 of this program is prohibited from giving any competitor of
 Gaussian, Inc. access to this program.  By using this program,
 the user acknowledges that Gaussian, Inc. is engaged in the
 business of creating and licensing software in the field of
 computational chemistry and represents and warrants to the
 licensee that it is not a competitor of Gaussian, Inc. and that
 it will not use this program in any manner prohibited above.
 ---------------------------------------------------------------
  

 Cite this work as:
 Gaussian 16, Revision A.03,
 M. J. Frisch, G. W. Trucks, H. B. Schlegel, G. E. Scuseria, 
 M. A. Robb, J. R. Cheeseman, G. Scalmani, V. Barone, 
 G. A. Petersson, H. Nakatsuji, X. Li, M. Caricato, A. V. Marenich, 
 J. Bloino, B. G. Janesko, R. Gomperts, B. Mennucci, H. P. Hratchian, 
 J. V. Ortiz, A. F. Izmaylov, J. L. Sonnenberg, D. Williams-Young, 
 F. Ding, F. Lipparini, F. Egidi, J. Goings, B. Peng, A. Petrone, 
 T. Henderson, D. Ranasinghe, V. G. Zakrzewski, J. Gao, N. Rega, 
 G. Zheng, W. Liang, M. Hada, M. Ehara, K. Toyota, R. Fukuda, 
 J. Hasegawa, M. Ishida, T. Nakajima, Y. Honda, O. Kitao, H. Nakai, 
 T. Vreven, K. Throssell, J. A. Montgomery, Jr., J. E. Peralta, 
 F. Ogliaro, M. J. Bearpark, J. J. Heyd, E. N. Brothers, K. N. Kudin, 
 V. N. Staroverov, T. A. Keith, R. Kobayashi, J. Normand, 
 K. Raghavachari, A. P. Rendell, J. C. Burant, S. S. Iyengar, 
 J. Tomasi, M. Cossi, J. M. Millam, M. Klene, C. Adamo, R. Cammi, 
 J. W. Ochterski, R. L. Martin, K. Morokuma, O. Farkas, 
 J. B. Foresman, and D. J. Fox, Gaussian, Inc., Wallingford CT, 2016.
 
 ******************************************
 Gaussian 16:  ES64L-G16RevA.03 25-Dec-2016
                 7-Sep-2022 
 ******************************************
 %chk=MD_extract_018_gaussian.chk
 %nproc=1
 Will use up to    1 processors via shared memory.
 %mem=1000Mb
 ----------
 #p opt pm3
 ----------
 1/18=20,19=15,26=1,38=1/1,3;
 2/9=110,12=2,17=6,18=5,40=1/2;
 3/5=2,25=1,41=800000,71=1/1,2,3;
 4/35=1/1;
 5/5=2,35=1,38=5/2;
 6/7=2,8=2,9=2,10=2,28=1/1;
 7//1,2,3,16;
 1/18=20,19=15,26=1/3(2);
 2/9=110/2;
 99//99;
 2/9=110/2;
 3/5=2,25=1,41=800000,71=1,135=20/1,2,3;
 4/5=5,16=3,35=1/1;
 5/5=2,35=1,38=5/2;
 7//1,2,3,16;
 1/18=20,19=15,26=1/3(-5);
 2/9=110/2;
 6/7=2,8=2,9=2,10=2,19=2,28=1/1;
 99/9=1/99;
 Leave Link    1 at Wed Sep  7 15:36:04 2022, MaxMem=   131072000 cpu:               0.0 elap:              28.6
 (Enter /opt/g16/l101.exe)
 ------------------------------------------------
 Conformer number 018. Energy MM = 0.000 kcal/mol
 ------------------------------------------------
 Symbolic Z-matrix:
 Charge =  0 Multiplicity = 1
 C                     10.972    9.22      9.4 
 H                     10.922    8.317     8.835 
 H                     10.461    9.148     10.332 
 H                     12.004    9.487     9.609 
 C                     10.333    10.375    8.628 
 H                     10.999    10.577    7.738 
 H                     10.237    11.265    9.303 
 C                     8.96      10.227    8.107 
 H                     8.371     10.029    9.018 
 O                     8.453     11.398    7.604 
 C                     8.879     9.058     7.217 
 H                     8.664     11.421    6.633 
 H                     9.654     9.213     6.486 
 H                     9.108     8.131     7.781 
 C                     7.672     8.938     6.419 
 H                     6.779     8.68      6.992 
 H                     7.706     8.111     5.756 
 H                     7.536     9.88      5.839 
 
 ITRead=  0  0  0  0  0  0  0  0  0  0  0  0  0  0  0  0  0  0
 MicOpt= -1 -1 -1 -1 -1 -1 -1 -1 -1 -1 -1 -1 -1 -1 -1 -1 -1 -1
 NAtoms=     18 NQM=       18 NQMF=       0 NMMI=      0 NMMIF=      0
                NMic=       0 NMicF=      0.
                    Isotopes and Nuclear Properties:
 (Nuclear quadrupole moments (NQMom) in fm**2, nuclear magnetic moments (NMagM)
  in nuclear magnetons)

  Atom         1           2           3           4           5           6           7           8           9          10
 IAtWgt=          12           1           1           1          12           1           1          12           1          16
 AtmWgt=  12.0000000   1.0078250   1.0078250   1.0078250  12.0000000   1.0078250   1.0078250  12.0000000   1.0078250  15.9949146
 NucSpn=           0           1           1           1           0           1           1           0           1           0
 AtZEff=  -0.0000000  -0.0000000  -0.0000000  -0.0000000  -0.0000000  -0.0000000  -0.0000000  -0.0000000  -0.0000000  -0.0000000
 NQMom=    0.0000000   0.0000000   0.0000000   0.0000000   0.0000000   0.0000000   0.0000000   0.0000000   0.0000000   0.0000000
 NMagM=    0.0000000   2.7928460   2.7928460   2.7928460   0.0000000   2.7928460   2.7928460   0.0000000   2.7928460   0.0000000
 AtZNuc=   6.0000000   1.0000000   1.0000000   1.0000000   6.0000000   1.0000000   1.0000000   6.0000000   1.0000000   8.0000000

  Atom        11          12          13          14          15          16          17          18
 IAtWgt=          12           1           1           1          12           1           1           1
 AtmWgt=  12.0000000   1.0078250   1.0078250   1.0078250  12.0000000   1.0078250   1.0078250   1.0078250
 NucSpn=           0           1           1           1           0           1           1           1
 AtZEff=  -0.0000000  -0.0000000  -0.0000000  -0.0000000  -0.0000000  -0.0000000  -0.0000000  -0.0000000
 NQMom=    0.0000000   0.0000000   0.0000000   0.0000000   0.0000000   0.0000000   0.0000000   0.0000000
 NMagM=    0.0000000   2.7928460   2.7928460   2.7928460   0.0000000   2.7928460   2.7928460   2.7928460
 AtZNuc=   6.0000000   1.0000000   1.0000000   1.0000000   6.0000000   1.0000000   1.0000000   1.0000000
 Leave Link  101 at Wed Sep  7 15:36:04 2022, MaxMem=   131072000 cpu:               0.1 elap:               0.1
 (Enter /opt/g16/l103.exe)

 GradGradGradGradGradGradGradGradGradGradGradGradGradGradGradGradGradGrad
 Berny optimization.
 Initialization pass.
                           ----------------------------
                           !    Initial Parameters    !
                           ! (Angstroms and Degrees)  !
 --------------------------                            --------------------------
 ! Name  Definition              Value          Derivative Info.                !
 --------------------------------------------------------------------------------
 ! R1    R(1,2)                  1.0664         estimate D2E/DX2                !
 ! R2    R(1,3)                  1.0653         estimate D2E/DX2                !
 ! R3    R(1,4)                  1.0863         estimate D2E/DX2                !
 ! R4    R(1,5)                  1.5292         estimate D2E/DX2                !
 ! R5    R(5,6)                  1.1298         estimate D2E/DX2                !
 ! R6    R(5,7)                  1.1211         estimate D2E/DX2                !
 ! R7    R(5,8)                  1.476          estimate D2E/DX2                !
 ! R8    R(8,9)                  1.1027         estimate D2E/DX2                !
 ! R9    R(8,10)                 1.3716         estimate D2E/DX2                !
 ! R10   R(8,11)                 1.4715         estimate D2E/DX2                !
 ! R11   R(10,12)                0.9939         estimate D2E/DX2                !
 ! R12   R(11,13)                1.0766         estimate D2E/DX2                !
 ! R13   R(11,14)                1.109          estimate D2E/DX2                !
 ! R14   R(11,15)                1.4519         estimate D2E/DX2                !
 ! R15   R(15,16)                1.0919         estimate D2E/DX2                !
 ! R16   R(15,17)                1.0605         estimate D2E/DX2                !
 ! R17   R(15,18)                1.1146         estimate D2E/DX2                !
 ! A1    A(2,1,3)              112.5696         estimate D2E/DX2                !
 ! A2    A(2,1,4)              110.7705         estimate D2E/DX2                !
 ! A3    A(2,1,5)              110.6416         estimate D2E/DX2                !
 ! A4    A(3,1,4)              107.6973         estimate D2E/DX2                !
 ! A5    A(3,1,5)              106.9943         estimate D2E/DX2                !
 ! A6    A(4,1,5)              107.9676         estimate D2E/DX2                !
 ! A7    A(1,5,6)              106.6431         estimate D2E/DX2                !
 ! A8    A(1,5,7)              109.3553         estimate D2E/DX2                !
 ! A9    A(1,5,8)              119.4191         estimate D2E/DX2                !
 ! A10   A(6,5,7)              112.5086         estimate D2E/DX2                !
 ! A11   A(6,5,8)              106.7515         estimate D2E/DX2                !
 ! A12   A(7,5,8)              102.2672         estimate D2E/DX2                !
 ! A13   A(5,8,9)              102.9002         estimate D2E/DX2                !
 ! A14   A(5,8,10)             112.8112         estimate D2E/DX2                !
 ! A15   A(5,8,11)             110.1433         estimate D2E/DX2                !
 ! A16   A(9,8,10)             104.9999         estimate D2E/DX2                !
 ! A17   A(9,8,11)             109.1246         estimate D2E/DX2                !
 ! A18   A(10,8,11)            115.8551         estimate D2E/DX2                !
 ! A19   A(8,10,12)            107.4306         estimate D2E/DX2                !
 ! A20   A(8,11,13)            104.8732         estimate D2E/DX2                !
 ! A21   A(8,11,14)            110.188          estimate D2E/DX2                !
 ! A22   A(8,11,15)            116.3499         estimate D2E/DX2                !
 ! A23   A(13,11,14)           108.4828         estimate D2E/DX2                !
 ! A24   A(13,11,15)           103.7184         estimate D2E/DX2                !
 ! A25   A(14,11,15)           112.4635         estimate D2E/DX2                !
 ! A26   A(11,15,16)           114.2658         estimate D2E/DX2                !
 ! A27   A(11,15,17)           112.421          estimate D2E/DX2                !
 ! A28   A(11,15,18)           108.5176         estimate D2E/DX2                !
 ! A29   A(16,15,17)            99.7895         estimate D2E/DX2                !
 ! A30   A(16,15,18)           111.8992         estimate D2E/DX2                !
 ! A31   A(17,15,18)           109.7347         estimate D2E/DX2                !
 ! D1    D(2,1,5,6)            -67.7635         estimate D2E/DX2                !
 ! D2    D(2,1,5,7)            170.3321         estimate D2E/DX2                !
 ! D3    D(2,1,5,8)             53.1624         estimate D2E/DX2                !
 ! D4    D(3,1,5,6)            169.281          estimate D2E/DX2                !
 ! D5    D(3,1,5,7)             47.3765         estimate D2E/DX2                !
 ! D6    D(3,1,5,8)            -69.7932         estimate D2E/DX2                !
 ! D7    D(4,1,5,6)             53.6053         estimate D2E/DX2                !
 ! D8    D(4,1,5,7)            -68.2992         estimate D2E/DX2                !
 ! D9    D(4,1,5,8)            174.5311         estimate D2E/DX2                !
 ! D10   D(1,5,8,9)             58.8542         estimate D2E/DX2                !
 ! D11   D(1,5,8,10)           171.4593         estimate D2E/DX2                !
 ! D12   D(1,5,8,11)           -57.3783         estimate D2E/DX2                !
 ! D13   D(6,5,8,9)            179.7257         estimate D2E/DX2                !
 ! D14   D(6,5,8,10)           -67.6692         estimate D2E/DX2                !
 ! D15   D(6,5,8,11)            63.4932         estimate D2E/DX2                !
 ! D16   D(7,5,8,9)            -61.9426         estimate D2E/DX2                !
 ! D17   D(7,5,8,10)            50.6625         estimate D2E/DX2                !
 ! D18   D(7,5,8,11)          -178.1751         estimate D2E/DX2                !
 ! D19   D(5,8,10,12)           91.884          estimate D2E/DX2                !
 ! D20   D(9,8,10,12)         -156.8047         estimate D2E/DX2                !
 ! D21   D(11,8,10,12)         -36.3566         estimate D2E/DX2                !
 ! D22   D(5,8,11,13)          -54.0421         estimate D2E/DX2                !
 ! D23   D(5,8,11,14)           62.5176         estimate D2E/DX2                !
 ! D24   D(5,8,11,15)         -167.9562         estimate D2E/DX2                !
 ! D25   D(9,8,11,13)         -166.3066         estimate D2E/DX2                !
 ! D26   D(9,8,11,14)          -49.7469         estimate D2E/DX2                !
 ! D27   D(9,8,11,15)           79.7793         estimate D2E/DX2                !
 ! D28   D(10,8,11,13)          75.5            estimate D2E/DX2                !
 ! D29   D(10,8,11,14)        -167.9403         estimate D2E/DX2                !
 ! D30   D(10,8,11,15)         -38.4141         estimate D2E/DX2                !
 ! D31   D(8,11,15,16)         -70.9177         estimate D2E/DX2                !
 ! D32   D(8,11,15,17)         176.2671         estimate D2E/DX2                !
 ! D33   D(8,11,15,18)          54.7053         estimate D2E/DX2                !
 ! D34   D(13,11,15,16)        174.5146         estimate D2E/DX2                !
 ! D35   D(13,11,15,17)         61.6995         estimate D2E/DX2                !
 ! D36   D(13,11,15,18)        -59.8623         estimate D2E/DX2                !
 ! D37   D(14,11,15,16)         57.5104         estimate D2E/DX2                !
 ! D38   D(14,11,15,17)        -55.3048         estimate D2E/DX2                !
 ! D39   D(14,11,15,18)       -176.8665         estimate D2E/DX2                !
 --------------------------------------------------------------------------------
 Trust Radius=3.00D-01 FncErr=1.00D-07 GrdErr=1.00D-07 EigMax=2.50D+02 EigMin=1.00D-04
 Number of steps in this run=     97 maximum allowed number of steps=    108.
 GradGradGradGradGradGradGradGradGradGradGradGradGradGradGradGradGradGrad

 Leave Link  103 at Wed Sep  7 15:36:04 2022, MaxMem=   131072000 cpu:               0.0 elap:               0.0
 (Enter /opt/g16/l202.exe)
                          Input orientation:                          
 ---------------------------------------------------------------------
 Center     Atomic      Atomic             Coordinates (Angstroms)
 Number     Number       Type             X           Y           Z
 ---------------------------------------------------------------------
      1          6           0       10.972000    9.220000    9.400000
      2          1           0       10.922000    8.317000    8.835000
      3          1           0       10.461000    9.148000   10.332000
      4          1           0       12.004000    9.487000    9.609000
      5          6           0       10.333000   10.375000    8.628000
      6          1           0       10.999000   10.577000    7.738000
      7          1           0       10.237000   11.265000    9.303000
      8          6           0        8.960000   10.227000    8.107000
      9          1           0        8.371000   10.029000    9.018000
     10          8           0        8.453000   11.398000    7.604000
     11          6           0        8.879000    9.058000    7.217000
     12          1           0        8.664000   11.421000    6.633000
     13          1           0        9.654000    9.213000    6.486000
     14          1           0        9.108000    8.131000    7.781000
     15          6           0        7.672000    8.938000    6.419000
     16          1           0        6.779000    8.680000    6.992000
     17          1           0        7.706000    8.111000    5.756000
     18          1           0        7.536000    9.880000    5.839000
 ---------------------------------------------------------------------
                    Distance matrix (angstroms):
                    1          2          3          4          5
     1  C    0.000000
     2  H    1.066365   0.000000
     3  H    1.065330   1.773158   0.000000
     4  H    1.086275   1.771638   1.737383   0.000000
     5  C    1.529160   2.150612   2.103694   2.131466   0.000000
     6  H    2.145792   2.513352   3.010037   2.387209   1.129805
     7  H    2.175238   3.062508   2.364467   2.525314   1.121134
     8  C    2.595003   2.833289   2.892727   3.474124   1.475965
     9  H    2.750565   3.077667   2.621232   3.720448   2.030089
    10  O    3.783472   4.135684   4.066515   4.503504   2.372658
    11  C    3.028594   2.709401   3.494860   3.958703   2.416511
    12  H    4.222269   4.425176   4.698759   4.873657   2.803516
    13  H    3.198213   2.815749   3.930291   3.917998   2.529713
    14  H    2.698440   2.106207   3.061454   3.683359   2.693245
    15  C    4.455994   4.096974   4.809801   5.407747   3.745073
    16  H    4.865317   4.548941   4.993170   5.899200   4.263852
    17  H    5.017507   4.457054   5.441063   5.933952   4.502800
    18  H    4.992236   4.783720   5.410961   5.859213   3.980798
                    6          7          8          9         10
     6  H    0.000000
     7  H    1.871687   0.000000
     8  C    2.101471   2.034352   0.000000
     9  H    2.974069   2.256297   1.102745   0.000000
    10  O    2.678453   2.467174   1.371605   1.969843   0.000000
    11  C    2.659549   3.326621   1.471469   2.108200   2.409740
    12  H    2.717643   3.102832   1.919877   2.777002   0.993927
    13  H    2.288455   3.533565   2.034078   2.953467   2.732499
    14  H    3.092029   3.662387   2.126357   2.382382   3.336711
    15  C    3.936370   4.506840   2.483910   2.904080   2.840033
    16  H    4.686526   4.897010   2.897101   2.908426   3.250284
    17  H    4.566545   5.379116   3.402525   3.842082   3.844149
    18  H    4.010534   4.605749   2.700372   3.290208   2.502087
                   11         12         13         14         15
    11  C    0.000000
    12  H    2.443573   0.000000
    13  H    1.076574   2.424247   0.000000
    14  H    1.108993   3.512711   1.773659   0.000000
    15  C    1.451914   2.682377   2.002108   2.137379   0.000000
    16  H    2.145579   3.345921   2.967448   2.519556   1.091944
    17  H    2.099347   3.555699   2.354147   2.463053   1.060497
    18  H    2.092419   2.068212   2.312882   3.049844   1.114567
                   16         17         18
    16  H    0.000000
    17  H    1.646446   0.000000
    18  H    1.828239   1.779087   0.000000
 Stoichiometry    C5H12O
 Framework group  C1[X(C5H12O)]
 Deg. of freedom    48
 Full point group                 C1      NOp   1
 Largest Abelian subgroup         C1      NOp   1
 Largest concise Abelian subgroup C1      NOp   1
                         Standard orientation:                         
 ---------------------------------------------------------------------
 Center     Atomic      Atomic             Coordinates (Angstroms)
 Number     Number       Type             X           Y           Z
 ---------------------------------------------------------------------
      1          6           0        2.284707   -0.748504    0.095086
      2          1           0        1.824638   -1.674576   -0.165417
      3          1           0        2.512513   -0.683022    1.133713
      4          1           0        3.210847   -0.610156   -0.455475
      5          6           0        1.360312    0.424176   -0.234524
      6          1           0        1.283571    0.469062   -1.360826
      7          1           0        1.782792    1.365194    0.204721
      8          6           0       -0.020658    0.427388    0.286424
      9          1           0        0.127871    0.377482    1.377980
     10          8           0       -0.667784    1.617260    0.070246
     11          6           0       -0.733046   -0.780672   -0.158902
     12          1           0       -1.148885    1.541400   -0.796171
     13          1           0       -0.625799   -0.785627   -1.230109
     14          1           0       -0.240572   -1.687216    0.247931
     15          6           0       -2.170770   -0.792323    0.043256
     16          1           0       -2.476378   -0.884442    1.087506
     17          1           0       -2.628326   -1.661788   -0.355903
     18          1           0       -2.603263    0.115229   -0.437950
 ---------------------------------------------------------------------
 Rotational constants (GHZ):           5.3667116           2.3731181           1.7752336
 Leave Link  202 at Wed Sep  7 15:36:04 2022, MaxMem=   131072000 cpu:               0.0 elap:               0.0
 (Enter /opt/g16/l301.exe)
 Standard basis: VSTO-6G (5D, 7F)
 Ernie: Thresh=  0.10000D-02 Tol=  0.10000D-05 Strict=F.
  NNHCO=     0 NNPyr=     0 NCTC=     0               EPep=         0.000000000
    EC=       130.334936098  ECS=         2.361602282   EG=         0.580604114
   EHC=         0.000000000  EAt=       -36.836480110  AtH=         2.452923921
 EPDDG=         0.000000000  ECC=       133.277142493 EAtT=        39.289404030
 There are    36 symmetry adapted cartesian basis functions of A   symmetry.
 There are    36 symmetry adapted basis functions of A   symmetry.
    36 basis functions,   216 primitive gaussians,    36 cartesian basis functions
    19 alpha electrons       19 beta electrons
       nuclear repulsion energy       172.5665465240 Hartrees.
 IExCor=    0 DFT=F Ex=HF Corr=None ExCW=0 ScaHFX=  1.000000
 ScaDFX=  1.000000  1.000000  1.000000  1.000000 ScalE2=  1.000000  1.000000
 IRadAn=      5 IRanWt=     -1 IRanGd=            0 ICorTp=0 IEmpDi=  4
 Integral buffers will be    131072 words long.
 Regular integral format.
 Two-electron integral symmetry is turned off.
 Leave Link  301 at Wed Sep  7 15:36:04 2022, MaxMem=   131072000 cpu:               0.0 elap:               0.0
 (Enter /opt/g16/l302.exe)
 Do NDO integrals.
 NPDir=0 NMtPBC=     1 NCelOv=     1 NCel=       1 NClECP=     1 NCelD=      1
         NCelK=      1 NCelE2=     1 NClLst=     1 CellRange=     0.0.
 One-electron integrals computed using PRISM.
 NBasis=    36 RedAO= F EigKep=  0.00D+00  NBF=    36
 NBsUse=    36 1.00D-04 EigRej=  0.00D+00 NBFU=    36
 Leave Link  302 at Wed Sep  7 15:36:04 2022, MaxMem=   131072000 cpu:               0.0 elap:               0.0
 (Enter /opt/g16/l303.exe)
 DipDrv:  MaxL=1.
 Leave Link  303 at Wed Sep  7 15:36:04 2022, MaxMem=   131072000 cpu:               0.0 elap:               0.0
 (Enter /opt/g16/l401.exe)
 Simple Huckel Guess.
 JPrj=0 DoOrth=F DoCkMO=F.
 Leave Link  401 at Wed Sep  7 15:36:04 2022, MaxMem=   131072000 cpu:               0.0 elap:               0.0
 (Enter /opt/g16/l502.exe)
 Keep J ints in memory in canonical form, NReq=862161.
 FoFCou: FMM=F IPFlag=           0 FMFlag=           0 FMFlg1=           0
         NFxFlg=           0 DoJE=F BraDBF=F KetDBF=F FulRan=T
         wScrn=  0.000000 ICntrl=       600 IOpCl=  2 I1Cent=           0 NGrid=           0
         NMat0=    1 NMatS0=     72 NMatT0=    0 NMatD0=    1 NMtDS0=    0 NMtDT0=    0
 Symmetry not used in FoFCou.
 Two-electron integral symmetry not used.
 Closed shell SCF:
 Using DIIS extrapolation, IDIIS=  1040.
 Overlap will be assumed to be unity.
 NGot=   131072000 LenX=   131006778 LenY=   131005041
 Requested convergence on RMS density matrix=1.00D-08 within 128 cycles.
 Requested convergence on MAX density matrix=1.00D-06.
 Requested convergence on             energy=1.00D-06.
 No special actions if energy rises.

 Cycle   1  Pass 1  IDiag  1:
 E= 0.195730987724488    
 DIIS: error= 6.96D-02 at cycle   1 NSaved=   1.
 NSaved= 1 IEnMin= 1 EnMin= 0.195730987724488     IErMin= 1 ErrMin= 6.96D-02
 ErrMax= 6.96D-02  0.00D+00 EMaxC= 1.00D-01 BMatC= 1.09D-01 BMatP= 1.09D-01
 IDIUse=3 WtCom= 3.04D-01 WtEn= 6.96D-01
 Coeff-Com:  0.100D+01
 Coeff-En:   0.100D+01
 Coeff:      0.100D+01
 GapD=    2.000 DampG=2.000 DampE=0.500 DampFc=1.0000 IDamp=-1.
 RMSDP=1.27D-02 MaxDP=1.52D-01              OVMax= 0.00D+00

 Cycle   2  Pass 1  IDiag  1:
 E=-0.648142904781253E-01 Delta-E=       -0.260545278203 Rises=F Damp=F
 DIIS: error= 1.48D-02 at cycle   2 NSaved=   2.
 NSaved= 2 IEnMin= 2 EnMin=-0.648142904781253E-01 IErMin= 2 ErrMin= 1.48D-02
 ErrMax= 1.48D-02  0.00D+00 EMaxC= 1.00D-01 BMatC= 7.23D-03 BMatP= 1.09D-01
 IDIUse=3 WtCom= 8.52D-01 WtEn= 1.48D-01
 Coeff-Com: -0.307D+00 0.131D+01
 Coeff-En:   0.000D+00 0.100D+01
 Coeff:     -0.261D+00 0.126D+01
 RMSDP=4.73D-03 MaxDP=5.23D-02 DE=-2.61D-01 OVMax= 0.00D+00

 Cycle   3  Pass 1  IDiag  3:
 E=-0.874709365771196E-01 Delta-E=       -0.022656646099 Rises=F Damp=F
 DIIS: error= 3.44D-03 at cycle   3 NSaved=   3.
 NSaved= 3 IEnMin= 3 EnMin=-0.874709365771196E-01 IErMin= 3 ErrMin= 3.44D-03
 ErrMax= 3.44D-03  0.00D+00 EMaxC= 1.00D-01 BMatC= 2.38D-04 BMatP= 7.23D-03
 IDIUse=3 WtCom= 9.66D-01 WtEn= 3.44D-02
 Coeff-Com:  0.145D+00-0.710D+00 0.157D+01
 Coeff-En:   0.000D+00 0.000D+00 0.100D+01
 Coeff:      0.140D+00-0.686D+00 0.155D+01
 Gap=     0.516 Goal=   None    Shift=    0.000
 RMSDP=1.41D-03 MaxDP=1.60D-02 DE=-2.27D-02 OVMax= 1.28D-02

 Cycle   4  Pass 1  IDiag  3:
 E=-0.887497414661595E-01 Delta-E=       -0.001278804889 Rises=F Damp=F
 DIIS: error= 6.97D-04 at cycle   4 NSaved=   4.
 NSaved= 4 IEnMin= 4 EnMin=-0.887497414661595E-01 IErMin= 4 ErrMin= 6.97D-04
 ErrMax= 6.97D-04  0.00D+00 EMaxC= 1.00D-01 BMatC= 9.79D-06 BMatP= 2.38D-04
 IDIUse=3 WtCom= 9.93D-01 WtEn= 6.97D-03
 Coeff-Com: -0.318D-01 0.171D+00-0.556D+00 0.142D+01
 Coeff-En:   0.000D+00 0.000D+00 0.000D+00 0.100D+01
 Coeff:     -0.316D-01 0.170D+00-0.552D+00 0.141D+01
 Gap=     0.517 Goal=   None    Shift=    0.000
 RMSDP=3.31D-04 MaxDP=3.53D-03 DE=-1.28D-03 OVMax= 2.94D-03

 Cycle   5  Pass 1  IDiag  3:
 E=-0.888078364616831E-01 Delta-E=       -0.000058094996 Rises=F Damp=F
 DIIS: error= 1.31D-04 at cycle   5 NSaved=   5.
 NSaved= 5 IEnMin= 5 EnMin=-0.888078364616831E-01 IErMin= 5 ErrMin= 1.31D-04
 ErrMax= 1.31D-04  0.00D+00 EMaxC= 1.00D-01 BMatC= 3.38D-07 BMatP= 9.79D-06
 IDIUse=3 WtCom= 9.99D-01 WtEn= 1.31D-03
 Coeff-Com:  0.215D-02-0.146D-01 0.798D-01-0.377D+00 0.131D+01
 Coeff-En:   0.000D+00 0.000D+00 0.000D+00 0.000D+00 0.100D+01
 Coeff:      0.214D-02-0.146D-01 0.797D-01-0.376D+00 0.131D+01
 Gap=     0.517 Goal=   None    Shift=    0.000
 RMSDP=5.63D-05 MaxDP=6.27D-04 DE=-5.81D-05 OVMax= 5.05D-04

 Cycle   6  Pass 1  IDiag  3:
 E=-0.888097560286099E-01 Delta-E=       -0.000001919567 Rises=F Damp=F
 DIIS: error= 4.15D-05 at cycle   6 NSaved=   6.
 NSaved= 6 IEnMin= 6 EnMin=-0.888097560286099E-01 IErMin= 6 ErrMin= 4.15D-05
 ErrMax= 4.15D-05  0.00D+00 EMaxC= 1.00D-01 BMatC= 2.48D-08 BMatP= 3.38D-07
 IDIUse=1 WtCom= 1.00D+00 WtEn= 0.00D+00
 Coeff-Com: -0.338D-03 0.327D-02-0.256D-01 0.148D+00-0.695D+00 0.157D+01
 Coeff:     -0.338D-03 0.327D-02-0.256D-01 0.148D+00-0.695D+00 0.157D+01
 Gap=     0.517 Goal=   None    Shift=    0.000
 RMSDP=1.71D-05 MaxDP=2.46D-04 DE=-1.92D-06 OVMax= 1.60D-04

 Cycle   7  Pass 1  IDiag  3:
 E=-0.888099140670136E-01 Delta-E=       -0.000000158038 Rises=F Damp=F
 DIIS: error= 7.14D-06 at cycle   7 NSaved=   7.
 NSaved= 7 IEnMin= 7 EnMin=-0.888099140670136E-01 IErMin= 7 ErrMin= 7.14D-06
 ErrMax= 7.14D-06  0.00D+00 EMaxC= 1.00D-01 BMatC= 1.55D-09 BMatP= 2.48D-08
 IDIUse=1 WtCom= 1.00D+00 WtEn= 0.00D+00
 Coeff-Com:  0.150D-03-0.147D-02 0.117D-01-0.684D-01 0.340D+00-0.934D+00
 Coeff-Com:  0.165D+01
 Coeff:      0.150D-03-0.147D-02 0.117D-01-0.684D-01 0.340D+00-0.934D+00
 Coeff:      0.165D+01
 Gap=     0.517 Goal=   None    Shift=    0.000
 RMSDP=4.76D-06 MaxDP=5.71D-05 DE=-1.58D-07 OVMax= 4.98D-05

 Cycle   8  Pass 1  IDiag  3:
 E=-0.888099245504179E-01 Delta-E=       -0.000000010483 Rises=F Damp=F
 DIIS: error= 1.34D-06 at cycle   8 NSaved=   8.
 NSaved= 8 IEnMin= 8 EnMin=-0.888099245504179E-01 IErMin= 8 ErrMin= 1.34D-06
 ErrMax= 1.34D-06  0.00D+00 EMaxC= 1.00D-01 BMatC= 7.29D-11 BMatP= 1.55D-09
 IDIUse=1 WtCom= 1.00D+00 WtEn= 0.00D+00
 Coeff-Com: -0.626D-04 0.660D-03-0.550D-02 0.324D-01-0.164D+00 0.469D+00
 Coeff-Com: -0.958D+00 0.163D+01
 Coeff:     -0.626D-04 0.660D-03-0.550D-02 0.324D-01-0.164D+00 0.469D+00
 Coeff:     -0.958D+00 0.163D+01
 Gap=     0.517 Goal=   None    Shift=    0.000
 RMSDP=1.06D-06 MaxDP=9.68D-06 DE=-1.05D-08 OVMax= 1.29D-05

 Cycle   9  Pass 1  IDiag  3:
 E=-0.888099250865650E-01 Delta-E=       -0.000000000536 Rises=F Damp=F
 DIIS: error= 4.41D-07 at cycle   9 NSaved=   9.
 NSaved= 9 IEnMin= 9 EnMin=-0.888099250865650E-01 IErMin= 9 ErrMin= 4.41D-07
 ErrMax= 4.41D-07  0.00D+00 EMaxC= 1.00D-01 BMatC= 5.09D-12 BMatP= 7.29D-11
 IDIUse=1 WtCom= 1.00D+00 WtEn= 0.00D+00
 Coeff-Com:  0.196D-04-0.250D-03 0.230D-02-0.139D-01 0.715D-01-0.208D+00
 Coeff-Com:  0.444D+00-0.943D+00 0.165D+01
 Coeff:      0.196D-04-0.250D-03 0.230D-02-0.139D-01 0.715D-01-0.208D+00
 Coeff:      0.444D+00-0.943D+00 0.165D+01
 Gap=     0.517 Goal=   None    Shift=    0.000
 RMSDP=3.03D-07 MaxDP=3.18D-06 DE=-5.36D-10 OVMax= 3.44D-06

 Cycle  10  Pass 1  IDiag  3:
 E=-0.888099251249912E-01 Delta-E=       -0.000000000038 Rises=F Damp=F
 DIIS: error= 8.59D-08 at cycle  10 NSaved=  10.
 NSaved=10 IEnMin=10 EnMin=-0.888099251249912E-01 IErMin=10 ErrMin= 8.59D-08
 ErrMax= 8.59D-08  0.00D+00 EMaxC= 1.00D-01 BMatC= 2.33D-13 BMatP= 5.09D-12
 IDIUse=1 WtCom= 1.00D+00 WtEn= 0.00D+00
 Coeff-Com: -0.649D-05 0.891D-04-0.850D-03 0.518D-02-0.269D-01 0.787D-01
 Coeff-Com: -0.169D+00 0.374D+00-0.800D+00 0.154D+01
 Coeff:     -0.649D-05 0.891D-04-0.850D-03 0.518D-02-0.269D-01 0.787D-01
 Coeff:     -0.169D+00 0.374D+00-0.800D+00 0.154D+01
 Gap=     0.517 Goal=   None    Shift=    0.000
 RMSDP=6.04D-08 MaxDP=6.14D-07 DE=-3.84D-11 OVMax= 6.02D-07

 Cycle  11  Pass 1  IDiag  3:
 E=-0.888099251268102E-01 Delta-E=       -0.000000000002 Rises=F Damp=F
 DIIS: error= 1.25D-08 at cycle  11 NSaved=  11.
 NSaved=11 IEnMin=11 EnMin=-0.888099251268102E-01 IErMin=11 ErrMin= 1.25D-08
 ErrMax= 1.25D-08  0.00D+00 EMaxC= 1.00D-01 BMatC= 1.15D-14 BMatP= 2.33D-13
 IDIUse=1 WtCom= 1.00D+00 WtEn= 0.00D+00
 Coeff-Com:  0.222D-05-0.304D-04 0.289D-03-0.176D-02 0.916D-02-0.269D-01
 Coeff-Com:  0.580D-01-0.129D+00 0.290D+00-0.704D+00 0.150D+01
 Coeff:      0.222D-05-0.304D-04 0.289D-03-0.176D-02 0.916D-02-0.269D-01
 Coeff:      0.580D-01-0.129D+00 0.290D+00-0.704D+00 0.150D+01
 Gap=     0.517 Goal=   None    Shift=    0.000
 RMSDP=1.19D-08 MaxDP=8.60D-08 DE=-1.82D-12 OVMax= 9.33D-08

 Cycle  12  Pass 1  IDiag  3:
 E=-0.888099251269523E-01 Delta-E=       -0.000000000000 Rises=F Damp=F
 DIIS: error= 3.43D-09 at cycle  12 NSaved=  12.
 NSaved=12 IEnMin=12 EnMin=-0.888099251269523E-01 IErMin=12 ErrMin= 3.43D-09
 ErrMax= 3.43D-09  0.00D+00 EMaxC= 1.00D-01 BMatC= 6.97D-16 BMatP= 1.15D-14
 IDIUse=1 WtCom= 1.00D+00 WtEn= 0.00D+00
 Coeff-Com: -0.567D-06 0.759D-05-0.715D-04 0.434D-03-0.226D-02 0.667D-02
 Coeff-Com: -0.144D-01 0.318D-01-0.740D-01 0.204D+00-0.642D+00 0.149D+01
 Coeff:     -0.567D-06 0.759D-05-0.715D-04 0.434D-03-0.226D-02 0.667D-02
 Coeff:     -0.144D-01 0.318D-01-0.740D-01 0.204D+00-0.642D+00 0.149D+01
 Gap=     0.517 Goal=   None    Shift=    0.000
 RMSDP=3.04D-09 MaxDP=2.28D-08 DE=-1.42D-13 OVMax= 2.31D-08

 Cycle  13  Pass 2  IDiag  1:
 SCF Done:  E(RPM3) = -0.888099251270E-01 A.U. after   13 cycles
            NFock= 12  Conv=0.30D-08     -V/T= 0.9985
 KE=-5.978400319966D+01 PE=-2.591059984660D+02 EE= 1.462346452165D+02
 Leave Link  502 at Wed Sep  7 15:36:04 2022, MaxMem=   131072000 cpu:               0.0 elap:               0.0
 (Enter /opt/g16/l601.exe)
 Copying SCF densities to generalized density rwf, IOpCl= 0 IROHF=0.

 **********************************************************************

            Population analysis using the SCF density.

 **********************************************************************

 Orbital symmetries:
       Occupied  (A) (A) (A) (A) (A) (A) (A) (A) (A) (A) (A) (A)
                 (A) (A) (A) (A) (A) (A) (A)
       Virtual   (A) (A) (A) (A) (A) (A) (A) (A) (A) (A) (A) (A)
                 (A) (A) (A) (A) (A)
 The electronic state is 1-A.
 Alpha  occ. eigenvalues --   -1.53107  -1.26357  -1.21514  -0.95993  -0.82549
 Alpha  occ. eigenvalues --   -0.75566  -0.64660  -0.63283  -0.59182  -0.57240
 Alpha  occ. eigenvalues --   -0.53997  -0.50931  -0.50097  -0.48526  -0.47088
 Alpha  occ. eigenvalues --   -0.45444  -0.43420  -0.42012  -0.40070
 Alpha virt. eigenvalues --    0.11566   0.12325   0.13399   0.13664   0.14031
 Alpha virt. eigenvalues --    0.14542   0.14603   0.15449   0.15613   0.16237
 Alpha virt. eigenvalues --    0.16593   0.16919   0.17545   0.17963   0.18555
 Alpha virt. eigenvalues --    0.19027   0.21725
          Condensed to atoms (all electrons):
               1          2          3          4          5          6
     1  C    4.092914   0.000000   0.000000   0.000000   0.000000   0.000000
     2  H    0.000000   0.954187   0.000000   0.000000   0.000000   0.000000
     3  H    0.000000   0.000000   0.962481   0.000000   0.000000   0.000000
     4  H    0.000000   0.000000   0.000000   0.958825   0.000000   0.000000
     5  C    0.000000   0.000000   0.000000   0.000000   4.165558   0.000000
     6  H    0.000000   0.000000   0.000000   0.000000   0.000000   0.950458
     7  H    0.000000   0.000000   0.000000   0.000000   0.000000   0.000000
     8  C    0.000000   0.000000   0.000000   0.000000   0.000000   0.000000
     9  H    0.000000   0.000000   0.000000   0.000000   0.000000   0.000000
    10  O    0.000000   0.000000   0.000000   0.000000   0.000000   0.000000
    11  C    0.000000   0.000000   0.000000   0.000000   0.000000   0.000000
    12  H    0.000000   0.000000   0.000000   0.000000   0.000000   0.000000
    13  H    0.000000   0.000000   0.000000   0.000000   0.000000   0.000000
    14  H    0.000000   0.000000   0.000000   0.000000   0.000000   0.000000
    15  C    0.000000   0.000000   0.000000   0.000000   0.000000   0.000000
    16  H    0.000000   0.000000   0.000000   0.000000   0.000000   0.000000
    17  H    0.000000   0.000000   0.000000   0.000000   0.000000   0.000000
    18  H    0.000000   0.000000   0.000000   0.000000   0.000000   0.000000
               7          8          9         10         11         12
     1  C    0.000000   0.000000   0.000000   0.000000   0.000000   0.000000
     2  H    0.000000   0.000000   0.000000   0.000000   0.000000   0.000000
     3  H    0.000000   0.000000   0.000000   0.000000   0.000000   0.000000
     4  H    0.000000   0.000000   0.000000   0.000000   0.000000   0.000000
     5  C    0.000000   0.000000   0.000000   0.000000   0.000000   0.000000
     6  H    0.000000   0.000000   0.000000   0.000000   0.000000   0.000000
     7  H    0.931231   0.000000   0.000000   0.000000   0.000000   0.000000
     8  C    0.000000   3.923577   0.000000   0.000000   0.000000   0.000000
     9  H    0.000000   0.000000   0.940529   0.000000   0.000000   0.000000
    10  O    0.000000   0.000000   0.000000   6.292953   0.000000   0.000000
    11  C    0.000000   0.000000   0.000000   0.000000   4.146046   0.000000
    12  H    0.000000   0.000000   0.000000   0.000000   0.000000   0.813745
    13  H    0.000000   0.000000   0.000000   0.000000   0.000000   0.000000
    14  H    0.000000   0.000000   0.000000   0.000000   0.000000   0.000000
    15  C    0.000000   0.000000   0.000000   0.000000   0.000000   0.000000
    16  H    0.000000   0.000000   0.000000   0.000000   0.000000   0.000000
    17  H    0.000000   0.000000   0.000000   0.000000   0.000000   0.000000
    18  H    0.000000   0.000000   0.000000   0.000000   0.000000   0.000000
              13         14         15         16         17         18
     1  C    0.000000   0.000000   0.000000   0.000000   0.000000   0.000000
     2  H    0.000000   0.000000   0.000000   0.000000   0.000000   0.000000
     3  H    0.000000   0.000000   0.000000   0.000000   0.000000   0.000000
     4  H    0.000000   0.000000   0.000000   0.000000   0.000000   0.000000
     5  C    0.000000   0.000000   0.000000   0.000000   0.000000   0.000000
     6  H    0.000000   0.000000   0.000000   0.000000   0.000000   0.000000
     7  H    0.000000   0.000000   0.000000   0.000000   0.000000   0.000000
     8  C    0.000000   0.000000   0.000000   0.000000   0.000000   0.000000
     9  H    0.000000   0.000000   0.000000   0.000000   0.000000   0.000000
    10  O    0.000000   0.000000   0.000000   0.000000   0.000000   0.000000
    11  C    0.000000   0.000000   0.000000   0.000000   0.000000   0.000000
    12  H    0.000000   0.000000   0.000000   0.000000   0.000000   0.000000
    13  H    0.956170   0.000000   0.000000   0.000000   0.000000   0.000000
    14  H    0.000000   0.925224   0.000000   0.000000   0.000000   0.000000
    15  C    0.000000   0.000000   4.108491   0.000000   0.000000   0.000000
    16  H    0.000000   0.000000   0.000000   0.957872   0.000000   0.000000
    17  H    0.000000   0.000000   0.000000   0.000000   0.964871   0.000000
    18  H    0.000000   0.000000   0.000000   0.000000   0.000000   0.954867
 Mulliken charges:
               1
     1  C   -0.092914
     2  H    0.045813
     3  H    0.037519
     4  H    0.041175
     5  C   -0.165558
     6  H    0.049542
     7  H    0.068769
     8  C    0.076423
     9  H    0.059471
    10  O   -0.292953
    11  C   -0.146046
    12  H    0.186255
    13  H    0.043830
    14  H    0.074776
    15  C   -0.108491
    16  H    0.042128
    17  H    0.035129
    18  H    0.045133
 Sum of Mulliken charges =   0.00000
 Mulliken charges with hydrogens summed into heavy atoms:
               1
     1  C    0.031593
     5  C   -0.047247
     8  C    0.135894
    10  O   -0.106698
    11  C   -0.027440
    15  C    0.013898
 Charge=              0.0000 electrons
 Dipole moment (field-independent basis, Debye):
    X=             -0.0142    Y=             -1.2513    Z=             -0.9280  Tot=              1.5579
 N-N= 1.725665465240D+02 E-N=-2.591059985357D+02  KE=-5.978400319966D+01
 Leave Link  601 at Wed Sep  7 15:36:04 2022, MaxMem=   131072000 cpu:               0.0 elap:               0.0
 (Enter /opt/g16/l701.exe)
 ... and contract with generalized density number  0.
 Compute integral first derivatives.
 Leave Link  701 at Wed Sep  7 15:36:04 2022, MaxMem=   131072000 cpu:               0.0 elap:               0.0
 (Enter /opt/g16/l702.exe)
 L702 exits ... SP integral derivatives will be done elsewhere.
 Leave Link  702 at Wed Sep  7 15:36:04 2022, MaxMem=   131072000 cpu:               0.0 elap:               0.0
 (Enter /opt/g16/l703.exe)
 Integral derivatives from FoFJK, PRISM(SPDF).
 Compute integral first derivatives, UseDBF=F ICtDFT=           0.
 Calling FoFJK, ICntrl=      2127 FMM=F ISym2X=0 I1Cent= 0 IOpClX= 0 NMat=1 NMatS=1 NMatT=0.
 FoFJK:  IHMeth= 9 ICntrl=    2127 DoSepK=F KAlg= 0 I1Cent=           0 FoldK=F
 IRaf=         0 NMat=       1 IRICut=       1 DoRegI=T DoRafI=F ISym2E= 0 IDoP0=3 IntGTp=3.
 FoFCou: FMM=F IPFlag=           0 FMFlag=      100000 FMFlg1=         800
         NFxFlg=           0 DoJE=F BraDBF=F KetDBF=F FulRan=T
         wScrn=  0.000000 ICntrl=      2127 IOpCl=  0 I1Cent=           0 NGrid=           0
         NMat0=    1 NMatS0=      1 NMatT0=    0 NMatD0=    1 NMtDS0=    0 NMtDT0=    0
 Symmetry not used in FoFCou.
 Leave Link  703 at Wed Sep  7 15:36:04 2022, MaxMem=   131072000 cpu:               0.0 elap:               0.0
 (Enter /opt/g16/l716.exe)
 Dipole        =-5.57781173D-03-4.92282814D-01-3.65094933D-01
 ***** Axes restored to original set *****
 -------------------------------------------------------------------
 Center     Atomic                   Forces (Hartrees/Bohr)
 Number     Number              X              Y              Z
 -------------------------------------------------------------------
      1        6          -0.009977254    0.034764377   -0.012755415
      2        1           0.000072896   -0.019658492   -0.007110248
      3        1          -0.009514104   -0.010354698    0.020022476
      4        1           0.008891315   -0.002236633    0.000884056
      5        6           0.052332738    0.019619334    0.005254997
      6        1          -0.002452803    0.006588901    0.013330878
      7        1           0.014565900   -0.002223660   -0.005880371
      8        6          -0.022161651   -0.019453507    0.040522972
      9        1          -0.015215104    0.002184996    0.005368163
     10        8          -0.005194414    0.033673154   -0.049399388
     11        6           0.020863014   -0.030517538   -0.007270066
     12        1          -0.007441633    0.001199261    0.036975059
     13        1           0.023526553   -0.006132643   -0.014912583
     14        1           0.000394342   -0.000993530    0.000133997
     15        6          -0.041237114    0.012151053   -0.010836323
     16        1          -0.007996486    0.010587752    0.008970204
     17        1           0.008184225   -0.019505635   -0.025633626
     18        1          -0.007640422   -0.009692493    0.002335218
 -------------------------------------------------------------------
 Cartesian Forces:  Max     0.052332738 RMS     0.019120369
 Leave Link  716 at Wed Sep  7 15:36:04 2022, MaxMem=   131072000 cpu:               0.0 elap:               0.0
 (Enter /opt/g16/l103.exe)

 GradGradGradGradGradGradGradGradGradGradGradGradGradGradGradGradGradGrad
 Berny optimization.
 FormGI is forming the generalized inverse of G from B-inverse, IUseBI=4.
 Internal  Forces:  Max     0.063808705 RMS     0.014644527
 Search for a local minimum.
 Step number   1 out of a maximum of   97
 All quantities printed in internal units (Hartrees-Bohrs-Radians)
 RMS Force = .14645D-01 SwitMx=.10000D-02 MixMth= 1
 Mixed Optimization -- RFO/linear search
 Second derivative matrix not updated -- first step.
 ITU=  0
     Eigenvalues ---    0.00380   0.01084   0.01143   0.01402   0.02067
     Eigenvalues ---    0.03451   0.03859   0.04325   0.05040   0.05625
     Eigenvalues ---    0.05638   0.05718   0.05934   0.06216   0.06219
     Eigenvalues ---    0.07498   0.09277   0.09406   0.12879   0.12901
     Eigenvalues ---    0.16000   0.16000   0.16000   0.16000   0.16000
     Eigenvalues ---    0.16000   0.16000   0.17659   0.21144   0.22088
     Eigenvalues ---    0.22291   0.29501   0.30590   0.31449   0.32121
     Eigenvalues ---    0.32707   0.33380   0.34589   0.35036   0.35247
     Eigenvalues ---    0.35565   0.36411   0.37693   0.37827   0.37995
     Eigenvalues ---    0.38457   0.48772   0.50669
 RFO step:  Lambda=-5.03184837D-02 EMin= 3.80217951D-03
 Linear search not attempted -- first point.
 Maximum step size (   0.300) exceeded in Quadratic search.
    -- Step size scaled by   0.825
 Iteration  1 RMS(Cart)=  0.07092688 RMS(Int)=  0.00119636
 Iteration  2 RMS(Cart)=  0.00129417 RMS(Int)=  0.00035285
 Iteration  3 RMS(Cart)=  0.00000139 RMS(Int)=  0.00035284
 Iteration  4 RMS(Cart)=  0.00000000 RMS(Int)=  0.00035284
 ITry= 1 IFail=0 DXMaxC= 2.24D-01 DCOld= 1.00D+10 DXMaxT= 3.00D-01 DXLimC= 3.00D+00 Rises=F
 Variable       Old X    -DE/DX   Delta X   Delta X   Delta X     New X
                                 (Linear)    (Quad)   (Total)
    R1        2.01514   0.02041   0.00000   0.03939   0.03939   2.05453
    R2        2.01318   0.02278   0.00000   0.04382   0.04382   2.05701
    R3        2.05276   0.00807   0.00000   0.01651   0.01651   2.06928
    R4        2.88969  -0.00577   0.00000  -0.01378  -0.01378   2.87591
    R5        2.13502  -0.01077   0.00000  -0.02493  -0.02493   2.11010
    R6        2.11864  -0.00655   0.00000  -0.01481  -0.01481   2.10383
    R7        2.78917   0.05767   0.00000   0.11867   0.11867   2.90784
    R8        2.08389   0.01217   0.00000   0.02612   0.02612   2.11001
    R9        2.59196   0.03900   0.00000   0.05773   0.05773   2.64968
   R10        2.78067   0.06381   0.00000   0.12959   0.12959   2.91027
   R11        1.87825  -0.03767   0.00000  -0.05773  -0.05773   1.82052
   R12        2.03443   0.02618   0.00000   0.05208   0.05208   2.08651
   R13        2.09569   0.00098   0.00000   0.00214   0.00214   2.09783
   R14        2.74372   0.05484   0.00000   0.10509   0.10509   2.84881
   R15        2.06348   0.00875   0.00000   0.01820   0.01820   2.08167
   R16        2.00405   0.03150   0.00000   0.05972   0.05972   2.06377
   R17        2.10623  -0.00847   0.00000  -0.01881  -0.01881   2.08742
    A1        1.96471  -0.00782   0.00000  -0.03411  -0.03422   1.93049
    A2        1.93331  -0.00451   0.00000  -0.02125  -0.02125   1.91206
    A3        1.93106   0.00271   0.00000   0.00716   0.00710   1.93816
    A4        1.87967  -0.00311   0.00000  -0.00426  -0.00495   1.87472
    A5        1.86740   0.00989   0.00000   0.04040   0.04002   1.90742
    A6        1.88439   0.00359   0.00000   0.01560   0.01527   1.89966
    A7        1.86127   0.00685   0.00000   0.01760   0.01830   1.87958
    A8        1.90861   0.00022   0.00000  -0.01064  -0.00952   1.89909
    A9        2.08426  -0.02277   0.00000  -0.06276  -0.06208   2.02218
   A10        1.96365  -0.00865   0.00000  -0.04599  -0.04714   1.91651
   A11        1.86316   0.00879   0.00000   0.03532   0.03517   1.89834
   A12        1.78490   0.01476   0.00000   0.06255   0.06206   1.84696
   A13        1.79595   0.00450   0.00000   0.03428   0.03399   1.82994
   A14        1.96893  -0.00814   0.00000  -0.02955  -0.02937   1.93956
   A15        1.92236   0.00754   0.00000   0.02717   0.02692   1.94929
   A16        1.83259  -0.00182   0.00000  -0.02271  -0.02247   1.81012
   A17        1.90458  -0.00261   0.00000  -0.00469  -0.00554   1.89904
   A18        2.02205   0.00058   0.00000  -0.00210  -0.00195   2.02010
   A19        1.87502   0.00295   0.00000   0.01158   0.01158   1.88660
   A20        1.83038   0.00453   0.00000   0.03490   0.03451   1.86489
   A21        1.92314  -0.00095   0.00000  -0.01529  -0.01556   1.90758
   A22        2.03069  -0.00162   0.00000  -0.00272  -0.00327   2.02742
   A23        1.89338  -0.00362   0.00000  -0.02372  -0.02330   1.87008
   A24        1.81023   0.00387   0.00000   0.03139   0.03098   1.84121
   A25        1.96286  -0.00164   0.00000  -0.01908  -0.01932   1.94354
   A26        1.99432  -0.00549   0.00000  -0.02014  -0.02001   1.97430
   A27        1.96212  -0.00434   0.00000  -0.01146  -0.01137   1.95075
   A28        1.89399   0.01165   0.00000   0.03873   0.03888   1.93287
   A29        1.74166   0.00976   0.00000   0.05132   0.05139   1.79304
   A30        1.95301  -0.00748   0.00000  -0.03863  -0.03846   1.91455
   A31        1.91523  -0.00523   0.00000  -0.02296  -0.02286   1.89237
    D1       -1.18270  -0.00249   0.00000  -0.02054  -0.02054  -1.20324
    D2        2.97286   0.00368   0.00000   0.03034   0.03061   3.00346
    D3        0.92786  -0.00063   0.00000  -0.00164  -0.00182   0.92604
    D4        2.95451  -0.00093   0.00000  -0.00910  -0.00897   2.94554
    D5        0.82688   0.00525   0.00000   0.04178   0.04218   0.86906
    D6       -1.21812   0.00093   0.00000   0.00980   0.00976  -1.20836
    D7        0.93559  -0.00410   0.00000  -0.03235  -0.03258   0.90301
    D8       -1.19205   0.00208   0.00000   0.01853   0.01857  -1.17347
    D9        3.04614  -0.00224   0.00000  -0.01345  -0.01385   3.03229
   D10        1.02720   0.00088   0.00000   0.00787   0.00802   1.03522
   D11        2.99253  -0.00221   0.00000  -0.01220  -0.01250   2.98003
   D12       -1.00144  -0.00175   0.00000  -0.01647  -0.01703  -1.01847
   D13        3.13681   0.00174   0.00000   0.01782   0.01769  -3.12869
   D14       -1.18105  -0.00135   0.00000  -0.00224  -0.00283  -1.18388
   D15        1.10817  -0.00089   0.00000  -0.00652  -0.00736   1.10081
   D16       -1.08110   0.00241   0.00000   0.00941   0.01056  -1.07055
   D17        0.88423  -0.00068   0.00000  -0.01065  -0.00996   0.87427
   D18       -3.10974  -0.00022   0.00000  -0.01493  -0.01449  -3.12423
   D19        1.60368   0.00015   0.00000  -0.01189  -0.01202   1.59166
   D20       -2.73676   0.00074   0.00000   0.00242   0.00266  -2.73410
   D21       -0.63454  -0.00352   0.00000  -0.02109  -0.02119  -0.65573
   D22       -0.94321   0.00645   0.00000   0.04148   0.04158  -0.90163
   D23        1.09114   0.00421   0.00000   0.02538   0.02523   1.11637
   D24       -2.93139  -0.00046   0.00000  -0.01866  -0.01877  -2.95016
   D25       -2.90260  -0.00144   0.00000  -0.01097  -0.01073  -2.91333
   D26       -0.86825  -0.00368   0.00000  -0.02706  -0.02708  -0.89533
   D27        1.39241  -0.00835   0.00000  -0.07111  -0.07108   1.32133
   D28        1.31772   0.00245   0.00000   0.02314   0.02326   1.34098
   D29       -2.93111   0.00021   0.00000   0.00704   0.00691  -2.92420
   D30       -0.67045  -0.00446   0.00000  -0.03701  -0.03709  -0.70754
   D31       -1.23775   0.00765   0.00000   0.06402   0.06407  -1.17368
   D32        3.07644   0.00165   0.00000   0.01935   0.01935   3.09579
   D33        0.95479   0.00301   0.00000   0.02897   0.02897   0.98376
   D34        3.04586   0.00039   0.00000   0.00217   0.00207   3.04792
   D35        1.07686  -0.00562   0.00000  -0.04250  -0.04265   1.03421
   D36       -1.04479  -0.00426   0.00000  -0.03288  -0.03303  -1.07782
   D37        1.00375   0.00320   0.00000   0.02108   0.02122   1.02497
   D38       -0.96525  -0.00280   0.00000  -0.02360  -0.02349  -0.98874
   D39       -3.08690  -0.00144   0.00000  -0.01397  -0.01387  -3.10077
         Item               Value     Threshold  Converged?
 Maximum Force            0.063809     0.000450     NO 
 RMS     Force            0.014645     0.000300     NO 
 Maximum Displacement     0.223954     0.001800     NO 
 RMS     Displacement     0.070661     0.001200     NO 
 Predicted change in Energy=-2.732669D-02
 Lowest energy point so far.  Saving SCF results.
 GradGradGradGradGradGradGradGradGradGradGradGradGradGradGradGradGradGrad

 Leave Link  103 at Wed Sep  7 15:36:04 2022, MaxMem=   131072000 cpu:               0.0 elap:               0.0
 (Enter /opt/g16/l202.exe)
                          Input orientation:                          
 ---------------------------------------------------------------------
 Center     Atomic      Atomic             Coordinates (Angstroms)
 Number     Number       Type             X           Y           Z
 ---------------------------------------------------------------------
      1          6           0       10.979473    9.249358    9.425532
      2          1           0       10.918902    8.335941    8.838997
      3          1           0       10.448803    9.134757   10.369000
      4          1           0       12.026773    9.463895    9.662582
      5          6           0       10.396849   10.429370    8.661203
      6          1           0       11.081598   10.652354    7.807842
      7          1           0       10.344874   11.308125    9.342758
      8          6           0        8.971240   10.237259    8.114835
      9          1           0        8.344475   10.033321    9.016110
     10          8           0        8.454509   11.441589    7.616226
     11          6           0        8.883861    9.027891    7.165341
     12          1           0        8.670908   11.494751    6.678975
     13          1           0        9.684535    9.151442    6.415162
     14          1           0        9.106711    8.099694    7.732059
     15          6           0        7.607631    8.894933    6.374020
     16          1           0        6.730811    8.670331    7.001878
     17          1           0        7.640559    8.042146    5.692588
     18          1           0        7.417489    9.807841    5.781889
 ---------------------------------------------------------------------
                    Distance matrix (angstroms):
                    1          2          3          4          5
     1  C    0.000000
     2  H    1.087208   0.000000
     3  H    1.088521   1.788857   0.000000
     4  H    1.095014   1.782681   1.759929   0.000000
     5  C    1.521866   2.164854   2.143663   2.142791   0.000000
     6  H    2.143769   2.540772   3.043528   2.397050   1.116615
     7  H    2.155943   3.068739   2.405723   2.516397   1.113297
     8  C    2.593622   2.816524   2.912038   3.511395   1.538761
     9  H    2.779467   3.088712   2.658181   3.781731   2.120154
    10  O    3.801961   4.148910   4.108096   4.567266   2.426778
    11  C    3.090161   2.724208   3.567057   4.037847   2.547720
    12  H    4.232593   4.438159   4.727237   4.928298   2.836043
    13  H    3.278533   2.839662   4.027061   4.016148   2.680521
    14  H    2.774313   2.136624   3.134649   3.756957   2.820488
    15  C    4.561432   4.165705   4.908120   5.537795   3.919878
    16  H    4.925495   4.585513   5.037526   5.979658   4.391744
    17  H    5.151755   4.553432   5.563170   6.084496   4.701984
    18  H    5.125989   4.875684   5.539269   6.035195   4.189670
                    6          7          8          9         10
     6  H    0.000000
     7  H    1.824490   0.000000
     8  C    2.172593   2.131060   0.000000
     9  H    3.055316   2.394456   1.116567   0.000000
    10  O    2.749765   2.563632   1.402153   1.988719   0.000000
    11  C    2.807443   3.474934   1.540047   2.174206   2.492705
    12  H    2.792025   3.151624   1.932144   2.775705   0.963376
    13  H    2.478726   3.695694   2.139317   3.055880   2.863616
    14  H    3.228312   3.797555   2.175788   2.443093   3.406911
    15  C    4.148834   4.704190   2.586833   2.969766   2.957319
    16  H    4.848437   5.049666   2.951858   2.918696   3.320908
    17  H    4.809183   5.594969   3.529379   3.937775   3.989876
    18  H    4.271228   4.847703   2.835698   3.371992   2.666333
                   11         12         13         14         15
    11  C    0.000000
    12  H    2.523351   0.000000
    13  H    1.104135   2.566737   0.000000
    14  H    1.110126   3.581246   1.781649   0.000000
    15  C    1.507525   2.825351   2.093088   2.173457   0.000000
    16  H    2.188651   3.441743   3.049621   2.550234   1.101574
    17  H    2.164832   3.735648   2.435260   2.512440   1.092099
    18  H    2.161599   2.285058   2.443644   3.094253   1.104615
                   16         17         18
    16  H    0.000000
    17  H    1.713621   0.000000
    18  H    1.803837   1.781969   0.000000
 Stoichiometry    C5H12O
 Framework group  C1[X(C5H12O)]
 Deg. of freedom    48
 Full point group                 C1      NOp   1
 RotChk:  IX=0 Diff= 5.25D-02
 Largest Abelian subgroup         C1      NOp   1
 Largest concise Abelian subgroup C1      NOp   1
                         Standard orientation:                         
 ---------------------------------------------------------------------
 Center     Atomic      Atomic             Coordinates (Angstroms)
 Number     Number       Type             X           Y           Z
 ---------------------------------------------------------------------
      1          6           0        2.278511   -0.811061    0.116433
      2          1           0        1.762305   -1.729164   -0.153084
      3          1           0        2.494264   -0.791810    1.183184
      4          1           0        3.235943   -0.760126   -0.412516
      5          6           0        1.448559    0.410609   -0.250685
      6          1           0        1.417170    0.477184   -1.364871
      7          1           0        1.940273    1.317565    0.167737
      8          6           0        0.006969    0.429030    0.287149
      9          1           0        0.114970    0.374002    1.397118
     10          8           0       -0.596343    1.676561    0.073345
     11          6           0       -0.795890   -0.793635   -0.194778
     12          1           0       -1.048116    1.648621   -0.777075
     13          1           0       -0.681912   -0.839111   -1.292072
     14          1           0       -0.341451   -1.717632    0.220066
     15          6           0       -2.282131   -0.753149    0.054379
     16          1           0       -2.542902   -0.800599    1.123591
     17          1           0       -2.785580   -1.631389   -0.355393
     18          1           0       -2.730337    0.149204   -0.398438
 ---------------------------------------------------------------------
 Rotational constants (GHZ):           5.0943262           2.2517310           1.6847489
 Leave Link  202 at Wed Sep  7 15:36:04 2022, MaxMem=   131072000 cpu:               0.0 elap:               0.0
 (Enter /opt/g16/l301.exe)
 Standard basis: VSTO-6G (5D, 7F)
 Ernie: Thresh=  0.10000D-02 Tol=  0.10000D-05 Strict=F.
  NNHCO=     0 NNPyr=     0 NCTC=     0               EPep=         0.000000000
    EC=       127.912814774  ECS=         2.208131858   EG=         0.566482371
   EHC=         0.000000000  EAt=       -36.836480110  AtH=         2.452923921
 EPDDG=         0.000000000  ECC=       130.687429003 EAtT=        39.289404030
 There are    36 symmetry adapted cartesian basis functions of A   symmetry.
 There are    36 symmetry adapted basis functions of A   symmetry.
    36 basis functions,   216 primitive gaussians,    36 cartesian basis functions
    19 alpha electrons       19 beta electrons
       nuclear repulsion energy       169.9768330336 Hartrees.
 IExCor=    0 DFT=F Ex=HF Corr=None ExCW=0 ScaHFX=  1.000000
 ScaDFX=  1.000000  1.000000  1.000000  1.000000 ScalE2=  1.000000  1.000000
 IRadAn=      5 IRanWt=     -1 IRanGd=            0 ICorTp=0 IEmpDi=  4
 Integral buffers will be    131072 words long.
 Regular integral format.
 Two-electron integral symmetry is turned off.
 Leave Link  301 at Wed Sep  7 15:36:04 2022, MaxMem=   131072000 cpu:               0.0 elap:               0.0
 (Enter /opt/g16/l302.exe)
 Do NDO integrals.
 NPDir=0 NMtPBC=     1 NCelOv=     1 NCel=       1 NClECP=     1 NCelD=      1
         NCelK=      1 NCelE2=     1 NClLst=     1 CellRange=     0.0.
 One-electron integrals computed using PRISM.
 NBasis=    36 RedAO= F EigKep=  0.00D+00  NBF=    36
 NBsUse=    36 1.00D-04 EigRej=  0.00D+00 NBFU=    36
 Leave Link  302 at Wed Sep  7 15:36:04 2022, MaxMem=   131072000 cpu:               0.0 elap:               0.0
 (Enter /opt/g16/l303.exe)
 DipDrv:  MaxL=1.
 Leave Link  303 at Wed Sep  7 15:36:04 2022, MaxMem=   131072000 cpu:               0.0 elap:               0.0
 (Enter /opt/g16/l401.exe)
 Initial guess from the checkpoint file:  "MD_extract_018_gaussian.chk"
 B after Tr=    -0.000000   -0.000000   -0.000000
         Rot=    0.999844    0.000146    0.001448    0.017594 Ang=   2.02 deg.
 Guess basis will be translated and rotated to current coordinates.
 JPrj=0 DoOrth=T DoCkMO=T.
 Leave Link  401 at Wed Sep  7 15:36:04 2022, MaxMem=   131072000 cpu:               0.0 elap:               0.0
 (Enter /opt/g16/l502.exe)
 Keep J ints in memory in canonical form, NReq=862161.
 FoFCou: FMM=F IPFlag=           0 FMFlag=           0 FMFlg1=           0
         NFxFlg=           0 DoJE=F BraDBF=F KetDBF=F FulRan=T
         wScrn=  0.000000 ICntrl=       600 IOpCl=  2 I1Cent=           0 NGrid=           0
         NMat0=    1 NMatS0=     72 NMatT0=    0 NMatD0=    1 NMtDS0=    0 NMtDT0=    0
 Symmetry not used in FoFCou.
 Two-electron integral symmetry not used.
 Closed shell SCF:
 Using DIIS extrapolation, IDIIS=  1040.
 Overlap will be assumed to be unity.
 NGot=   131072000 LenX=   131006778 LenY=   131005041
 Requested convergence on RMS density matrix=1.00D-08 within 128 cycles.
 Requested convergence on MAX density matrix=1.00D-06.
 Requested convergence on             energy=1.00D-06.
 No special actions if energy rises.

 Cycle   1  Pass 1  IDiag  1:
 E=-0.107260396111940    
 DIIS: error= 4.38D-03 at cycle   1 NSaved=   1.
 NSaved= 1 IEnMin= 1 EnMin=-0.107260396111940     IErMin= 1 ErrMin= 4.38D-03
 ErrMax= 4.38D-03  0.00D+00 EMaxC= 1.00D-01 BMatC= 1.53D-03 BMatP= 1.53D-03
 IDIUse=3 WtCom= 9.56D-01 WtEn= 4.38D-02
 Coeff-Com:  0.100D+01
 Coeff-En:   0.100D+01
 Coeff:      0.100D+01
 GapD=    2.000 DampG=2.000 DampE=1.000 DampFc=2.0000 IDamp=-1.
 RMSDP=1.78D-03 MaxDP=1.19D-02              OVMax= 0.00D+00

 Cycle   2  Pass 1  IDiag  3:
 E=-0.111791431163141     Delta-E=       -0.004531035051 Rises=F Damp=F
 DIIS: error= 1.86D-03 at cycle   2 NSaved=   2.
 NSaved= 2 IEnMin= 2 EnMin=-0.111791431163141     IErMin= 2 ErrMin= 1.86D-03
 ErrMax= 1.86D-03  0.00D+00 EMaxC= 1.00D-01 BMatC= 1.64D-04 BMatP= 1.53D-03
 IDIUse=3 WtCom= 9.81D-01 WtEn= 1.86D-02
 Coeff-Com: -0.409D+00 0.141D+01
 Coeff-En:   0.000D+00 0.100D+01
 Coeff:     -0.401D+00 0.140D+01
 Gap=     0.513 Goal=   None    Shift=    0.000
 RMSDP=9.31D-04 MaxDP=6.71D-03 DE=-4.53D-03 OVMax= 5.49D-03

 Cycle   3  Pass 1  IDiag  3:
 E=-0.112477085408329     Delta-E=       -0.000685654245 Rises=F Damp=F
 DIIS: error= 3.91D-04 at cycle   3 NSaved=   3.
 NSaved= 3 IEnMin= 3 EnMin=-0.112477085408329     IErMin= 3 ErrMin= 3.91D-04
 ErrMax= 3.91D-04  0.00D+00 EMaxC= 1.00D-01 BMatC= 5.96D-06 BMatP= 1.64D-04
 IDIUse=3 WtCom= 9.96D-01 WtEn= 3.91D-03
 Coeff-Com:  0.166D+00-0.673D+00 0.151D+01
 Coeff-En:   0.000D+00 0.000D+00 0.100D+01
 Coeff:      0.166D+00-0.670D+00 0.150D+01
 Gap=     0.513 Goal=   None    Shift=    0.000
 RMSDP=2.34D-04 MaxDP=1.64D-03 DE=-6.86D-04 OVMax= 1.42D-03

 Cycle   4  Pass 1  IDiag  3:
 E=-0.112509430423842     Delta-E=       -0.000032345016 Rises=F Damp=F
 DIIS: error= 1.09D-04 at cycle   4 NSaved=   4.
 NSaved= 4 IEnMin= 4 EnMin=-0.112509430423842     IErMin= 4 ErrMin= 1.09D-04
 ErrMax= 1.09D-04  0.00D+00 EMaxC= 1.00D-01 BMatC= 2.19D-07 BMatP= 5.96D-06
 IDIUse=3 WtCom= 9.99D-01 WtEn= 1.09D-03
 Coeff-Com: -0.702D-01 0.292D+00-0.758D+00 0.154D+01
 Coeff-En:   0.000D+00 0.000D+00 0.000D+00 0.100D+01
 Coeff:     -0.702D-01 0.292D+00-0.757D+00 0.153D+01
 Gap=     0.513 Goal=   None    Shift=    0.000
 RMSDP=4.87D-05 MaxDP=4.90D-04 DE=-3.23D-05 OVMax= 4.75D-04

 Cycle   5  Pass 1  IDiag  3:
 E=-0.112510773134176     Delta-E=       -0.000001342710 Rises=F Damp=F
 DIIS: error= 3.30D-05 at cycle   5 NSaved=   5.
 NSaved= 5 IEnMin= 5 EnMin=-0.112510773134176     IErMin= 5 ErrMin= 3.30D-05
 ErrMax= 3.30D-05  0.00D+00 EMaxC= 1.00D-01 BMatC= 1.51D-08 BMatP= 2.19D-07
 IDIUse=1 WtCom= 1.00D+00 WtEn= 0.00D+00
 Coeff-Com:  0.401D-01-0.168D+00 0.449D+00-0.106D+01 0.174D+01
 Coeff:      0.401D-01-0.168D+00 0.449D+00-0.106D+01 0.174D+01
 Gap=     0.513 Goal=   None    Shift=    0.000
 RMSDP=1.52D-05 MaxDP=2.13D-04 DE=-1.34D-06 OVMax= 1.51D-04

 Cycle   6  Pass 1  IDiag  3:
 E=-0.112510881893940     Delta-E=       -0.000000108760 Rises=F Damp=F
 DIIS: error= 6.74D-06 at cycle   6 NSaved=   6.
 NSaved= 6 IEnMin= 6 EnMin=-0.112510881893940     IErMin= 6 ErrMin= 6.74D-06
 ErrMax= 6.74D-06  0.00D+00 EMaxC= 1.00D-01 BMatC= 7.92D-10 BMatP= 1.51D-08
 IDIUse=1 WtCom= 1.00D+00 WtEn= 0.00D+00
 Coeff-Com: -0.154D-01 0.647D-01-0.174D+00 0.426D+00-0.861D+00 0.156D+01
 Coeff:     -0.154D-01 0.647D-01-0.174D+00 0.426D+00-0.861D+00 0.156D+01
 Gap=     0.513 Goal=   None    Shift=    0.000
 RMSDP=3.55D-06 MaxDP=5.13D-05 DE=-1.09D-07 OVMax= 3.37D-05

 Cycle   7  Pass 1  IDiag  3:
 E=-0.112510887524223     Delta-E=       -0.000000005630 Rises=F Damp=F
 DIIS: error= 9.93D-07 at cycle   7 NSaved=   7.
 NSaved= 7 IEnMin= 7 EnMin=-0.112510887524223     IErMin= 7 ErrMin= 9.93D-07
 ErrMax= 9.93D-07  0.00D+00 EMaxC= 1.00D-01 BMatC= 3.96D-11 BMatP= 7.92D-10
 IDIUse=1 WtCom= 1.00D+00 WtEn= 0.00D+00
 Coeff-Com:  0.603D-02-0.252D-01 0.677D-01-0.167D+00 0.354D+00-0.790D+00
 Coeff-Com:  0.155D+01
 Coeff:      0.603D-02-0.252D-01 0.677D-01-0.167D+00 0.354D+00-0.790D+00
 Coeff:      0.155D+01
 Gap=     0.513 Goal=   None    Shift=    0.000
 RMSDP=7.52D-07 MaxDP=8.29D-06 DE=-5.63D-09 OVMax= 6.85D-06

 Cycle   8  Pass 1  IDiag  3:
 E=-0.112510887798805     Delta-E=       -0.000000000275 Rises=F Damp=F
 DIIS: error= 3.35D-07 at cycle   8 NSaved=   8.
 NSaved= 8 IEnMin= 8 EnMin=-0.112510887798805     IErMin= 8 ErrMin= 3.35D-07
 ErrMax= 3.35D-07  0.00D+00 EMaxC= 1.00D-01 BMatC= 2.37D-12 BMatP= 3.96D-11
 IDIUse=1 WtCom= 1.00D+00 WtEn= 0.00D+00
 Coeff-Com: -0.167D-02 0.700D-02-0.187D-01 0.464D-01-0.102D+00 0.249D+00
 Coeff-Com: -0.674D+00 0.149D+01
 Coeff:     -0.167D-02 0.700D-02-0.187D-01 0.464D-01-0.102D+00 0.249D+00
 Coeff:     -0.674D+00 0.149D+01
 Gap=     0.513 Goal=   None    Shift=    0.000
 RMSDP=1.83D-07 MaxDP=1.61D-06 DE=-2.75D-10 OVMax= 1.77D-06

 Cycle   9  Pass 1  IDiag  3:
 E=-0.112510887815233     Delta-E=       -0.000000000016 Rises=F Damp=F
 DIIS: error= 9.76D-08 at cycle   9 NSaved=   9.
 NSaved= 9 IEnMin= 9 EnMin=-0.112510887815233     IErMin= 9 ErrMin= 9.76D-08
 ErrMax= 9.76D-08  0.00D+00 EMaxC= 1.00D-01 BMatC= 1.74D-13 BMatP= 2.37D-12
 IDIUse=1 WtCom= 1.00D+00 WtEn= 0.00D+00
 Coeff-Com:  0.380D-03-0.158D-02 0.423D-02-0.105D-01 0.239D-01-0.637D-01
 Coeff-Com:  0.206D+00-0.674D+00 0.152D+01
 Coeff:      0.380D-03-0.158D-02 0.423D-02-0.105D-01 0.239D-01-0.637D-01
 Coeff:      0.206D+00-0.674D+00 0.152D+01
 Gap=     0.513 Goal=   None    Shift=    0.000
 RMSDP=5.09D-08 MaxDP=5.08D-07 DE=-1.64D-11 OVMax= 5.48D-07

 Cycle  10  Pass 1  IDiag  3:
 E=-0.112510887816541     Delta-E=       -0.000000000001 Rises=F Damp=F
 DIIS: error= 2.31D-08 at cycle  10 NSaved=  10.
 NSaved=10 IEnMin=10 EnMin=-0.112510887816541     IErMin=10 ErrMin= 2.31D-08
 ErrMax= 2.31D-08  0.00D+00 EMaxC= 1.00D-01 BMatC= 1.43D-14 BMatP= 1.74D-13
 IDIUse=1 WtCom= 1.00D+00 WtEn= 0.00D+00
 Coeff-Com: -0.837D-04 0.348D-03-0.920D-03 0.232D-02-0.559D-02 0.168D-01
 Coeff-Com: -0.628D-01 0.253D+00-0.827D+00 0.162D+01
 Coeff:     -0.837D-04 0.348D-03-0.920D-03 0.232D-02-0.559D-02 0.168D-01
 Coeff:     -0.628D-01 0.253D+00-0.827D+00 0.162D+01
 Gap=     0.513 Goal=   None    Shift=    0.000
 RMSDP=1.61D-08 MaxDP=1.45D-07 DE=-1.31D-12 OVMax= 1.92D-07

 Cycle  11  Pass 1  IDiag  3:
 E=-0.112510887816711     Delta-E=       -0.000000000000 Rises=F Damp=F
 DIIS: error= 2.74D-09 at cycle  11 NSaved=  11.
 NSaved=11 IEnMin=11 EnMin=-0.112510887816711     IErMin=11 ErrMin= 2.74D-09
 ErrMax= 2.74D-09  0.00D+00 EMaxC= 1.00D-01 BMatC= 5.54D-16 BMatP= 1.43D-14
 IDIUse=1 WtCom= 1.00D+00 WtEn= 0.00D+00
 Coeff-Com:  0.916D-05-0.375D-04 0.965D-04-0.250D-03 0.712D-03-0.271D-02
 Coeff-Com:  0.124D-01-0.602D-01 0.235D+00-0.625D+00 0.144D+01
 Coeff:      0.916D-05-0.375D-04 0.965D-04-0.250D-03 0.712D-03-0.271D-02
 Coeff:      0.124D-01-0.602D-01 0.235D+00-0.625D+00 0.144D+01
 Gap=     0.513 Goal=   None    Shift=    0.000
 RMSDP=2.84D-09 MaxDP=1.85D-08 DE=-1.71D-13 OVMax= 3.73D-08

 Cycle  12  Pass 2  IDiag  1:
 SCF Done:  E(RPM3) = -0.112510887817     A.U. after   12 cycles
            NFock= 11  Conv=0.28D-08     -V/T= 0.9981
 KE=-5.967070385539D+01 PE=-2.543415510744D+02 EE= 1.439229110083D+02
 Leave Link  502 at Wed Sep  7 15:36:04 2022, MaxMem=   131072000 cpu:               0.0 elap:               0.0
 (Enter /opt/g16/l701.exe)
 ... and contract with generalized density number  0.
 Compute integral first derivatives.
 Leave Link  701 at Wed Sep  7 15:36:04 2022, MaxMem=   131072000 cpu:               0.0 elap:               0.0
 (Enter /opt/g16/l702.exe)
 L702 exits ... SP integral derivatives will be done elsewhere.
 Leave Link  702 at Wed Sep  7 15:36:05 2022, MaxMem=   131072000 cpu:               0.0 elap:               0.0
 (Enter /opt/g16/l703.exe)
 Integral derivatives from FoFJK, PRISM(SPDF).
 Compute integral first derivatives, UseDBF=F ICtDFT=           0.
 Calling FoFJK, ICntrl=      2127 FMM=F ISym2X=0 I1Cent= 0 IOpClX= 0 NMat=1 NMatS=1 NMatT=0.
 FoFJK:  IHMeth= 9 ICntrl=    2127 DoSepK=F KAlg= 0 I1Cent=           0 FoldK=F
 IRaf=         0 NMat=       1 IRICut=       1 DoRegI=T DoRafI=F ISym2E= 0 IDoP0=3 IntGTp=3.
 FoFCou: FMM=F IPFlag=           0 FMFlag=      100000 FMFlg1=         800
         NFxFlg=           0 DoJE=F BraDBF=F KetDBF=F FulRan=T
         wScrn=  0.000000 ICntrl=      2127 IOpCl=  0 I1Cent=           0 NGrid=           0
         NMat0=    1 NMatS0=      1 NMatT0=    0 NMatD0=    1 NMtDS0=    0 NMtDT0=    0
 Symmetry not used in FoFCou.
 Leave Link  703 at Wed Sep  7 15:36:05 2022, MaxMem=   131072000 cpu:               0.0 elap:               0.0
 (Enter /opt/g16/l716.exe)
 Dipole        =-2.03218400D-02-4.97110355D-01-3.66637180D-01
 ***** Axes restored to original set *****
 -------------------------------------------------------------------
 Center     Atomic                   Forces (Hartrees/Bohr)
 Number     Number              X              Y              Z
 -------------------------------------------------------------------
      1        6          -0.006944486    0.017703012   -0.004772028
      2        1           0.000289986   -0.006606704   -0.000531281
      3        1          -0.002477466   -0.005995041    0.004432977
      4        1           0.002178372   -0.002972889    0.000277422
      5        6           0.006325304    0.002541760   -0.007476020
      6        1          -0.003142079    0.004005040    0.005855895
      7        1           0.006347903   -0.000413295   -0.004936917
      8        6          -0.003913632   -0.018609577    0.015236479
      9        1          -0.005722044    0.002290552   -0.002511084
     10        8           0.001711641    0.002231460   -0.015624432
     11        6           0.005560994    0.007188018   -0.007612047
     12        1          -0.000771212   -0.001085656    0.014133169
     13        1           0.006231537   -0.003527968   -0.000586388
     14        1          -0.000760341    0.002093096   -0.000627076
     15        6          -0.007695624    0.001109886    0.006572872
     16        1           0.001026317    0.007077476    0.002022466
     17        1           0.004629841   -0.001918757   -0.006203680
     18        1          -0.002875011   -0.005110415    0.002349672
 -------------------------------------------------------------------
 Cartesian Forces:  Max     0.018609577 RMS     0.006501768
 Leave Link  716 at Wed Sep  7 15:36:05 2022, MaxMem=   131072000 cpu:               0.0 elap:               0.0
 (Enter /opt/g16/l103.exe)

 GradGradGradGradGradGradGradGradGradGradGradGradGradGradGradGradGradGrad
 Berny optimization.
 Using GEDIIS/GDIIS optimizer.
 FormGI is forming the generalized inverse of G from B-inverse, IUseBI=4.
 Internal  Forces:  Max     0.013983042 RMS     0.003711976
 Search for a local minimum.
 Step number   2 out of a maximum of   97
 All quantities printed in internal units (Hartrees-Bohrs-Radians)
 RMS Force = .37120D-02 SwitMx=.10000D-02 MixMth= 1
 Mixed Optimization -- RFO/linear search
 Update second derivatives using D2CorX and points    1    2
 DE= -2.37D-02 DEPred=-2.73D-02 R= 8.67D-01
 TightC=F SS=  1.41D+00  RLast= 3.41D-01 DXNew= 5.0454D-01 1.0235D+00
 Trust test= 8.67D-01 RLast= 3.41D-01 DXMaxT set to 5.05D-01
 ITU=  1  0
 Use linear search instead of GDIIS.
     Eigenvalues ---    0.00380   0.01084   0.01143   0.01402   0.02065
     Eigenvalues ---    0.03663   0.03898   0.04286   0.05111   0.05444
     Eigenvalues ---    0.05539   0.05584   0.05923   0.05944   0.06169
     Eigenvalues ---    0.07739   0.08990   0.09300   0.12536   0.12834
     Eigenvalues ---    0.15366   0.16000   0.16000   0.16000   0.16000
     Eigenvalues ---    0.16000   0.16070   0.17810   0.20841   0.21092
     Eigenvalues ---    0.22157   0.29402   0.30450   0.31392   0.32025
     Eigenvalues ---    0.32695   0.33397   0.34591   0.35197   0.35233
     Eigenvalues ---    0.36196   0.37115   0.37562   0.37781   0.38351
     Eigenvalues ---    0.46481   0.47778   0.54985
 RFO step:  Lambda=-8.96429327D-03 EMin= 3.80199010D-03
 Quartic linear search produced a step of  0.25269.
 Iteration  1 RMS(Cart)=  0.05692502 RMS(Int)=  0.00217831
 Iteration  2 RMS(Cart)=  0.00266570 RMS(Int)=  0.00068240
 Iteration  3 RMS(Cart)=  0.00000672 RMS(Int)=  0.00068239
 Iteration  4 RMS(Cart)=  0.00000001 RMS(Int)=  0.00068239
 ITry= 1 IFail=0 DXMaxC= 2.07D-01 DCOld= 1.00D+10 DXMaxT= 5.05D-01 DXLimC= 3.00D+00 Rises=F
 Variable       Old X    -DE/DX   Delta X   Delta X   Delta X     New X
                                 (Linear)    (Quad)   (Total)
    R1        2.05453   0.00582   0.00995   0.01183   0.02178   2.07631
    R2        2.05701   0.00568   0.01107   0.01055   0.02162   2.07863
    R3        2.06928   0.00156   0.00417   0.00247   0.00665   2.07592
    R4        2.87591  -0.00461  -0.00348  -0.01636  -0.01984   2.85607
    R5        2.11010  -0.00560  -0.00630  -0.01767  -0.02397   2.08613
    R6        2.10383  -0.00364  -0.00374  -0.01136  -0.01510   2.08872
    R7        2.90784   0.00088   0.02999  -0.01762   0.01237   2.92021
    R8        2.11001   0.00077   0.00660  -0.00178   0.00482   2.11482
    R9        2.64968   0.00117   0.01459  -0.00715   0.00743   2.65712
   R10        2.91027  -0.00326   0.03275  -0.03360  -0.00085   2.90942
   R11        1.82052  -0.01398  -0.01459  -0.02488  -0.03947   1.78105
   R12        2.08651   0.00452   0.01316   0.00595   0.01911   2.10562
   R13        2.09783  -0.00222   0.00054  -0.00856  -0.00802   2.08982
   R14        2.84881   0.00157   0.02655  -0.01325   0.01330   2.86211
   R15        2.08167  -0.00111   0.00460  -0.00703  -0.00243   2.07924
   R16        2.06377   0.00551   0.01509   0.00696   0.02205   2.08582
   R17        2.08742  -0.00499  -0.00475  -0.01542  -0.02017   2.06725
    A1        1.93049  -0.00501  -0.00865  -0.04069  -0.04929   1.88120
    A2        1.91206  -0.00332  -0.00537  -0.02470  -0.03008   1.88197
    A3        1.93816   0.00204   0.00179   0.00629   0.00810   1.94626
    A4        1.87472  -0.00215  -0.00125   0.00107  -0.00176   1.87296
    A5        1.90742   0.00512   0.01011   0.03226   0.04158   1.94899
    A6        1.89966   0.00331   0.00386   0.02670   0.02972   1.92937
    A7        1.87958   0.00567   0.00462   0.03242   0.03763   1.91720
    A8        1.89909   0.00231  -0.00240   0.01045   0.00930   1.90840
    A9        2.02218  -0.01312  -0.01569  -0.05139  -0.06613   1.95604
   A10        1.91651  -0.00517  -0.01191  -0.04832  -0.06093   1.85558
   A11        1.89834   0.00349   0.00889   0.01403   0.02326   1.92159
   A12        1.84696   0.00665   0.01568   0.03963   0.05524   1.90220
   A13        1.82994   0.00447   0.00859   0.07047   0.07887   1.90881
   A14        1.93956  -0.00136  -0.00742  -0.02340  -0.03184   1.90772
   A15        1.94929  -0.00116   0.00680  -0.01871  -0.01379   1.93549
   A16        1.81012  -0.00101  -0.00568  -0.00776  -0.01240   1.79773
   A17        1.89904   0.00035  -0.00140   0.02292   0.02053   1.91957
   A18        2.02010  -0.00063  -0.00049  -0.02941  -0.03113   1.98897
   A19        1.88660  -0.00255   0.00293  -0.02076  -0.01783   1.86876
   A20        1.86489   0.00312   0.00872   0.04052   0.04956   1.91445
   A21        1.90758   0.00155  -0.00393  -0.01972  -0.02609   1.88149
   A22        2.02742  -0.00795  -0.00083  -0.04254  -0.04510   1.98232
   A23        1.87008  -0.00258  -0.00589  -0.01470  -0.01944   1.85064
   A24        1.84121   0.00527   0.00783   0.06457   0.07274   1.91395
   A25        1.94354   0.00109  -0.00488  -0.02013  -0.02738   1.91615
   A26        1.97430  -0.00338  -0.00506  -0.01912  -0.02407   1.95024
   A27        1.95075  -0.00329  -0.00287  -0.01316  -0.01589   1.93486
   A28        1.93287   0.00504   0.00983   0.01875   0.02869   1.96156
   A29        1.79304   0.00608   0.01299   0.05630   0.06941   1.86246
   A30        1.91455  -0.00299  -0.00972  -0.03040  -0.04004   1.87450
   A31        1.89237  -0.00156  -0.00578  -0.01130  -0.01692   1.87545
    D1       -1.20324  -0.00063  -0.00519  -0.00118  -0.00625  -1.20949
    D2        3.00346   0.00104   0.00773   0.03231   0.04018   3.04365
    D3        0.92604  -0.00063  -0.00046   0.00719   0.00643   0.93247
    D4        2.94554   0.00086  -0.00227   0.02401   0.02230   2.96785
    D5        0.86906   0.00253   0.01066   0.05750   0.06874   0.93780
    D6       -1.20836   0.00086   0.00247   0.03238   0.03499  -1.17337
    D7        0.90301  -0.00132  -0.00823  -0.01054  -0.01905   0.88396
    D8       -1.17347   0.00035   0.00469   0.02295   0.02738  -1.14609
    D9        3.03229  -0.00132  -0.00350  -0.00217  -0.00637   3.02593
   D10        1.03522  -0.00010   0.00203  -0.00609  -0.00386   1.03136
   D11        2.98003   0.00046  -0.00316   0.01130   0.00740   2.98743
   D12       -1.01847  -0.00256  -0.00430  -0.06530  -0.07009  -1.08856
   D13       -3.12869   0.00093   0.00447   0.01160   0.01634  -3.11235
   D14       -1.18388   0.00148  -0.00071   0.02898   0.02760  -1.15628
   D15        1.10081  -0.00154  -0.00186  -0.04762  -0.04990   1.05091
   D16       -1.07055   0.00019   0.00267  -0.01667  -0.01284  -1.08339
   D17        0.87427   0.00075  -0.00252   0.00072  -0.00158   0.87268
   D18       -3.12423  -0.00227  -0.00366  -0.07588  -0.07908   3.07987
   D19        1.59166  -0.00366  -0.00304  -0.09321  -0.09583   1.49583
   D20       -2.73410   0.00039   0.00067  -0.02590  -0.02519  -2.75929
   D21       -0.65573  -0.00021  -0.00535  -0.01897  -0.02478  -0.68051
   D22       -0.90163   0.00390   0.01051   0.05530   0.06576  -0.83587
   D23        1.11637   0.00332   0.00638   0.04974   0.05533   1.17170
   D24       -2.95016  -0.00024  -0.00474  -0.02971  -0.03419  -2.98435
   D25       -2.91333  -0.00110  -0.00271  -0.03354  -0.03613  -2.94946
   D26       -0.89533  -0.00167  -0.00684  -0.03910  -0.04657  -0.94189
   D27        1.32133  -0.00524  -0.01796  -0.11854  -0.13609   1.18524
   D28        1.34098   0.00033   0.00588  -0.02168  -0.01543   1.32555
   D29       -2.92420  -0.00025   0.00175  -0.02725  -0.02587  -2.95007
   D30       -0.70754  -0.00381  -0.00937  -0.10669  -0.11539  -0.82294
   D31       -1.17368   0.00429   0.01619   0.08697   0.10267  -1.07101
   D32        3.09579   0.00096   0.00489   0.03684   0.04126   3.13705
   D33        0.98376   0.00171   0.00732   0.04723   0.05410   1.03786
   D34        3.04792   0.00124   0.00052   0.01514   0.01550   3.06342
   D35        1.03421  -0.00208  -0.01078  -0.03499  -0.04592   0.98829
[...]
 ! A10   A(6,5,7)              105.6308         -DE/DX =    0.0                 !
 ! A11   A(6,5,8)              109.8577         -DE/DX =    0.0                 !
 ! A12   A(7,5,8)              109.8168         -DE/DX =    0.0                 !
 ! A13   A(5,8,9)              110.2437         -DE/DX =    0.0                 !
 ! A14   A(5,8,10)             111.2749         -DE/DX =    0.0                 !
 ! A15   A(5,8,11)             110.2772         -DE/DX =    0.0                 !
 ! A16   A(9,8,10)             101.6103         -DE/DX =    0.0                 !
 ! A17   A(9,8,11)             110.5199         -DE/DX =    0.0                 !
 ! A18   A(10,8,11)            112.6304         -DE/DX =    0.0                 !
 ! A19   A(8,10,12)            107.3418         -DE/DX =    0.0                 !
 ! A20   A(8,11,13)            110.2685         -DE/DX =    0.0                 !
 ! A21   A(8,11,14)            107.7886         -DE/DX =    0.0                 !
 ! A22   A(8,11,15)            112.4193         -DE/DX =    0.0                 !
 ! A23   A(13,11,14)           105.6194         -DE/DX =    0.0                 !
 ! A24   A(13,11,15)           110.1885         -DE/DX =    0.0                 !
 ! A25   A(14,11,15)           110.3091         -DE/DX =    0.0                 !
 ! A26   A(11,15,16)           111.6226         -DE/DX =    0.0                 !
 ! A27   A(11,15,17)           111.1834         -DE/DX =    0.0                 !
 ! A28   A(11,15,18)           111.6201         -DE/DX =    0.0                 !
 ! A29   A(16,15,17)           107.434          -DE/DX =    0.0                 !
 ! A30   A(16,15,18)           107.2529         -DE/DX =    0.0                 !
 ! A31   A(17,15,18)           107.4977         -DE/DX =    0.0                 !
 ! D1    D(2,1,5,6)            -69.2256         -DE/DX =    0.0                 !
 ! D2    D(2,1,5,7)            174.6781         -DE/DX =    0.0                 !
 ! D3    D(2,1,5,8)             52.7548         -DE/DX =    0.0                 !
 ! D4    D(3,1,5,6)            171.3505         -DE/DX =    0.0                 !
 ! D5    D(3,1,5,7)             55.2542         -DE/DX =    0.0                 !
 ! D6    D(3,1,5,8)            -66.6691         -DE/DX =    0.0                 !
 ! D7    D(4,1,5,6)             50.875          -DE/DX =    0.0                 !
 ! D8    D(4,1,5,7)            -65.2213         -DE/DX =    0.0                 !
 ! D9    D(4,1,5,8)            172.8554         -DE/DX =    0.0                 !
 ! D10   D(1,5,8,9)             55.8126         -DE/DX =    0.0                 !
 ! D11   D(1,5,8,10)           167.7623         -DE/DX =    0.0                 !
 ! D12   D(1,5,8,11)           -66.5007         -DE/DX =    0.0                 !
 ! D13   D(6,5,8,9)            177.9501         -DE/DX =    0.0                 !
 ! D14   D(6,5,8,10)           -70.1002         -DE/DX =    0.0                 !
 ! D15   D(6,5,8,11)            55.6368         -DE/DX =    0.0                 !
 ! D16   D(7,5,8,9)            -66.2869         -DE/DX =    0.0                 !
 ! D17   D(7,5,8,10)            45.6628         -DE/DX =    0.0                 !
 ! D18   D(7,5,8,11)           171.3998         -DE/DX =    0.0                 !
 ! D19   D(5,8,10,12)           64.6254         -DE/DX =    0.0                 !
 ! D20   D(9,8,10,12)         -178.0471         -DE/DX =    0.0                 !
 ! D21   D(11,8,10,12)         -59.7946         -DE/DX =    0.0                 !
 ! D22   D(5,8,11,13)          -70.2941         -DE/DX =    0.0                 !
 ! D23   D(5,8,11,14)           44.535          -DE/DX =    0.0                 !
 ! D24   D(5,8,11,15)          166.3167         -DE/DX =    0.0                 !
 ! D25   D(9,8,11,13)          167.5554         -DE/DX =    0.0                 !
 ! D26   D(9,8,11,14)          -77.6155         -DE/DX =    0.0                 !
 ! D27   D(9,8,11,15)           44.1662         -DE/DX =    0.0                 !
 ! D28   D(10,8,11,13)          54.6728         -DE/DX =    0.0                 !
 ! D29   D(10,8,11,14)         169.5019         -DE/DX =    0.0                 !
 ! D30   D(10,8,11,15)         -68.7164         -DE/DX =    0.0                 !
 ! D31   D(8,11,15,16)         -59.9654         -DE/DX =    0.0                 !
 ! D32   D(8,11,15,17)        -179.9163         -DE/DX =    0.0                 !
 ! D33   D(8,11,15,18)          60.0535         -DE/DX =    0.0                 !
 ! D34   D(13,11,15,16)        176.6007         -DE/DX =    0.0                 !
 ! D35   D(13,11,15,17)         56.6497         -DE/DX =    0.0                 !
 ! D36   D(13,11,15,18)        -63.3804         -DE/DX =    0.0                 !
 ! D37   D(14,11,15,16)         60.3711         -DE/DX =    0.0                 !
 ! D38   D(14,11,15,17)        -59.5798         -DE/DX =    0.0                 !
 ! D39   D(14,11,15,18)       -179.6099         -DE/DX =    0.0                 !
 --------------------------------------------------------------------------------
 Lowest energy point so far.  Saving SCF results.
 Largest change from initial coordinates is atom   14       0.663 Angstoms.
 GradGradGradGradGradGradGradGradGradGradGradGradGradGradGradGradGradGrad

 Leave Link  103 at Wed Sep  7 15:36:09 2022, MaxMem=   131072000 cpu:               0.0 elap:               0.0
 (Enter /opt/g16/l202.exe)
                          Input orientation:                          
 ---------------------------------------------------------------------
 Center     Atomic      Atomic             Coordinates (Angstroms)
 Number     Number       Type             X           Y           Z
 ---------------------------------------------------------------------
      1          6           0       10.771844    9.218681    9.452482
      2          1           0       10.652540    8.301633    8.850461
      3          1           0       10.135241    9.111441   10.340315
      4          1           0       11.812583    9.264288    9.794833
      5          6           0       10.399481   10.438370    8.641088
      6          1           0       11.150115   10.609624    7.843311
      7          1           0       10.429539   11.343843    9.278545
      8          6           0        8.999621   10.284823    8.017963
      9          1           0        8.245146   10.075447    8.811321
     10          8           0        8.533625   11.509390    7.499552
     11          6           0        9.003912    9.160997    6.967992
     12          1           0        9.110126   11.752021    6.785266
     13          1           0        9.582705    9.471871    6.075092
     14          1           0        9.557876    8.295482    7.398127
     15          6           0        7.609502    8.743266    6.565738
     16          1           0        7.034092    8.373532    7.425002
     17          1           0        7.636225    7.940435    5.817914
     18          1           0        7.045828    9.579855    6.131995
 ---------------------------------------------------------------------
                    Distance matrix (angstroms):
                    1          2          3          4          5
     1  C    0.000000
     2  H    1.103467   0.000000
     3  H    1.097730   1.772866   0.000000
     4  H    1.096550   1.778831   1.770420   0.000000
     5  C    1.511508   2.161832   2.172081   2.169436   0.000000
     6  H    2.160380   2.566856   3.083756   2.461144   1.108705
     7  H    2.159569   3.080264   2.489495   2.550277   1.107762
     8  C    2.516998   2.712607   2.838974   3.480160   1.539957
     9  H    2.743964   2.990567   2.615261   3.788387   2.191312
    10  O    3.751121   4.074857   4.047872   4.589157   2.435489
    11  C    3.049853   2.645784   3.557376   3.986268   2.525577
    12  H    4.036479   4.306884   4.545536   4.748640   2.613846
    13  H    3.589557   3.196353   4.315939   4.341880   2.861044
    14  H    2.558592   1.818681   3.107348   3.430232   2.616337
    15  C    4.308099   3.830807   4.556572   5.325825   3.868389
    16  H    4.335406   3.889765   4.319802   5.407728   4.131375
    17  H    4.967505   4.292431   5.297967   5.916962   4.673924
    18  H    5.003926   4.693856   5.241550   6.019794   4.275462
                    6          7          8          9         10
     6  H    0.000000
     7  H    1.765843   0.000000
     8  C    2.181886   2.180656   0.000000
     9  H    3.108252   2.568794   1.114669   0.000000
    10  O    2.788148   2.605132   1.409066   1.964727   0.000000
    11  C    2.733293   3.483660   1.537999   2.193128   2.453299
    12  H    2.566337   2.850246   1.919486   2.768392   0.949436
    13  H    2.622567   3.805722   2.185320   3.104886   2.698359
    14  H    2.844059   3.686228   2.157156   2.624624   3.374698
    15  C    4.201360   4.698397   2.533335   2.687265   3.062263
    16  H    4.702844   4.877237   2.804985   2.507000   3.476746
    17  H    4.855330   5.600157   3.492165   3.726868   4.046069
    18  H    4.564450   4.945901   2.805559   2.977039   2.794075
                   11         12         13         14         15
    11  C    0.000000
    12  H    2.599629   0.000000
    13  H    1.108563   2.434495   0.000000
    14  H    1.114006   3.538890   1.770573   0.000000
    15  C    1.510195   3.369372   2.159890   2.165535   0.000000
    16  H    2.170059   4.016636   3.086103   2.525134   1.098242
    17  H    2.164029   4.199564   2.490024   2.513140   1.097494
    18  H    2.169891   3.066984   2.539812   3.092425   1.098063
                   16         17         18
    16  H    0.000000
    17  H    1.769992   0.000000
    18  H    1.768395   1.770569   0.000000
 Stoichiometry    C5H12O
 Framework group  C1[X(C5H12O)]
 Deg. of freedom    48
 Full point group                 C1      NOp   1
 RotChk:  IX=2 Diff= 1.63D-15
 Largest Abelian subgroup         C1      NOp   1
 Largest concise Abelian subgroup C1      NOp   1
                         Standard orientation:                         
 ---------------------------------------------------------------------
 Center     Atomic      Atomic             Coordinates (Angstroms)
 Number     Number       Type             X           Y           Z
 ---------------------------------------------------------------------
      1          6           0        2.121715   -0.917191    0.184176
      2          1           0        1.515167   -1.778910   -0.143206
      3          1           0        2.235000   -0.992752    1.273427
      4          1           0        3.119021   -1.018523   -0.260272
      5          6           0        1.461725    0.380863   -0.220950
      6          1           0        1.500346    0.500983   -1.322452
      7          1           0        2.025086    1.240198    0.192939
      8          6           0       -0.000163    0.434527    0.260166
      9          1           0       -0.049403    0.277341    1.362597
     10          8           0       -0.532310    1.733210    0.134837
     11          6           0       -0.841875   -0.623259   -0.473354
     12          1           0       -0.556405    1.941017   -0.791265
     13          1           0       -0.974994   -0.338520   -1.536422
     14          1           0       -0.258570   -1.572236   -0.487799
     15          6           0       -2.185759   -0.843917    0.179313
     16          1           0       -2.080136   -1.185594    1.217695
     17          1           0       -2.768217   -1.602605   -0.358858
     18          1           0       -2.782272    0.077785    0.198824
 ---------------------------------------------------------------------
 Rotational constants (GHZ):           4.6744639           2.4037281           1.7578240
 Leave Link  202 at Wed Sep  7 15:36:09 2022, MaxMem=   131072000 cpu:               0.0 elap:               0.0
 (Enter /opt/g16/l601.exe)
 Copying SCF densities to generalized density rwf, IOpCl= 0 IROHF=0.

 **********************************************************************

            Population analysis using the SCF density.

 **********************************************************************

 Orbital symmetries:
       Occupied  (A) (A) (A) (A) (A) (A) (A) (A) (A) (A) (A) (A)
                 (A) (A) (A) (A) (A) (A) (A)
       Virtual   (A) (A) (A) (A) (A) (A) (A) (A) (A) (A) (A) (A)
                 (A) (A) (A) (A) (A)
 The electronic state is 1-A.
 Alpha  occ. eigenvalues --   -1.49045  -1.26196  -1.19476  -0.93056  -0.82718
 Alpha  occ. eigenvalues --   -0.77246  -0.62502  -0.61285  -0.58261  -0.57004
 Alpha  occ. eigenvalues --   -0.53795  -0.49770  -0.49643  -0.48798  -0.46856
 Alpha  occ. eigenvalues --   -0.45724  -0.43423  -0.42383  -0.40674
 Alpha virt. eigenvalues --    0.11477   0.12882   0.13132   0.13334   0.14050
 Alpha virt. eigenvalues --    0.14377   0.14578   0.15241   0.15520   0.16060
 Alpha virt. eigenvalues --    0.16908   0.17230   0.17340   0.17654   0.18307
 Alpha virt. eigenvalues --    0.18462   0.21301
          Condensed to atoms (all electrons):
               1          2          3          4          5          6
     1  C    4.112175   0.000000   0.000000   0.000000   0.000000   0.000000
     2  H    0.000000   0.956047   0.000000   0.000000   0.000000   0.000000
     3  H    0.000000   0.000000   0.958623   0.000000   0.000000   0.000000
     4  H    0.000000   0.000000   0.000000   0.959218   0.000000   0.000000
     5  C    0.000000   0.000000   0.000000   0.000000   4.136717   0.000000
     6  H    0.000000   0.000000   0.000000   0.000000   0.000000   0.951881
     7  H    0.000000   0.000000   0.000000   0.000000   0.000000   0.000000
     8  C    0.000000   0.000000   0.000000   0.000000   0.000000   0.000000
     9  H    0.000000   0.000000   0.000000   0.000000   0.000000   0.000000
    10  O    0.000000   0.000000   0.000000   0.000000   0.000000   0.000000
    11  C    0.000000   0.000000   0.000000   0.000000   0.000000   0.000000
    12  H    0.000000   0.000000   0.000000   0.000000   0.000000   0.000000
    13  H    0.000000   0.000000   0.000000   0.000000   0.000000   0.000000
    14  H    0.000000   0.000000   0.000000   0.000000   0.000000   0.000000
    15  C    0.000000   0.000000   0.000000   0.000000   0.000000   0.000000
    16  H    0.000000   0.000000   0.000000   0.000000   0.000000   0.000000
    17  H    0.000000   0.000000   0.000000   0.000000   0.000000   0.000000
    18  H    0.000000   0.000000   0.000000   0.000000   0.000000   0.000000
               7          8          9         10         11         12
     1  C    0.000000   0.000000   0.000000   0.000000   0.000000   0.000000
     2  H    0.000000   0.000000   0.000000   0.000000   0.000000   0.000000
     3  H    0.000000   0.000000   0.000000   0.000000   0.000000   0.000000
     4  H    0.000000   0.000000   0.000000   0.000000   0.000000   0.000000
     5  C    0.000000   0.000000   0.000000   0.000000   0.000000   0.000000
     6  H    0.000000   0.000000   0.000000   0.000000   0.000000   0.000000
     7  H    0.936976   0.000000   0.000000   0.000000   0.000000   0.000000
     8  C    0.000000   3.929113   0.000000   0.000000   0.000000   0.000000
     9  H    0.000000   0.000000   0.925114   0.000000   0.000000   0.000000
    10  O    0.000000   0.000000   0.000000   6.305938   0.000000   0.000000
    11  C    0.000000   0.000000   0.000000   0.000000   4.142450   0.000000
    12  H    0.000000   0.000000   0.000000   0.000000   0.000000   0.818451
    13  H    0.000000   0.000000   0.000000   0.000000   0.000000   0.000000
    14  H    0.000000   0.000000   0.000000   0.000000   0.000000   0.000000
    15  C    0.000000   0.000000   0.000000   0.000000   0.000000   0.000000
    16  H    0.000000   0.000000   0.000000   0.000000   0.000000   0.000000
    17  H    0.000000   0.000000   0.000000   0.000000   0.000000   0.000000
    18  H    0.000000   0.000000   0.000000   0.000000   0.000000   0.000000
              13         14         15         16         17         18
     1  C    0.000000   0.000000   0.000000   0.000000   0.000000   0.000000
     2  H    0.000000   0.000000   0.000000   0.000000   0.000000   0.000000
     3  H    0.000000   0.000000   0.000000   0.000000   0.000000   0.000000
     4  H    0.000000   0.000000   0.000000   0.000000   0.000000   0.000000
     5  C    0.000000   0.000000   0.000000   0.000000   0.000000   0.000000
     6  H    0.000000   0.000000   0.000000   0.000000   0.000000   0.000000
     7  H    0.000000   0.000000   0.000000   0.000000   0.000000   0.000000
     8  C    0.000000   0.000000   0.000000   0.000000   0.000000   0.000000
     9  H    0.000000   0.000000   0.000000   0.000000   0.000000   0.000000
    10  O    0.000000   0.000000   0.000000   0.000000   0.000000   0.000000
    11  C    0.000000   0.000000   0.000000   0.000000   0.000000   0.000000
    12  H    0.000000   0.000000   0.000000   0.000000   0.000000   0.000000
    13  H    0.949297   0.000000   0.000000   0.000000   0.000000   0.000000
    14  H    0.000000   0.935630   0.000000   0.000000   0.000000   0.000000
    15  C    0.000000   0.000000   4.105081   0.000000   0.000000   0.000000
    16  H    0.000000   0.000000   0.000000   0.960590   0.000000   0.000000
    17  H    0.000000   0.000000   0.000000   0.000000   0.963996   0.000000
    18  H    0.000000   0.000000   0.000000   0.000000   0.000000   0.952703
 Mulliken charges:
               1
     1  C   -0.112175
     2  H    0.043953
     3  H    0.041377
     4  H    0.040782
     5  C   -0.136717
     6  H    0.048119
     7  H    0.063024
     8  C    0.070887
     9  H    0.074886
    10  O   -0.305938
    11  C   -0.142450
    12  H    0.181549
    13  H    0.050703
    14  H    0.064370
    15  C   -0.105081
    16  H    0.039410
    17  H    0.036004
    18  H    0.047297
 Sum of Mulliken charges =  -0.00000
 Mulliken charges with hydrogens summed into heavy atoms:
               1
     1  C    0.013937
     5  C   -0.025575
     8  C    0.145772
    10  O   -0.124388
    11  C   -0.027377
    15  C    0.017630
 Charge=              0.0000 electrons
 Dipole moment (field-independent basis, Debye):
    X=              0.4955    Y=             -1.0086    Z=             -1.0779  Tot=              1.5571
 N-N= 1.705115526650D+02 E-N=-2.554044565525D+02  KE=-5.970260240236D+01
 Leave Link  601 at Wed Sep  7 15:36:09 2022, MaxMem=   131072000 cpu:               0.0 elap:               0.0
 (Enter /opt/g16/l9999.exe)
 1\1\GINC-TOTEM2\FOpt\RPM3\ZDO\C5H12O1\JRAMOS\07-Sep-2022\0\\#p opt pm3
 \\Conformer number 018. Energy MM = 0.000 kcal/mol\\0,1\C,10.771844082
 4,9.2186813047,9.452482168\H,10.6525404167,8.301633424,8.8504609974\H,
 10.1352410553,9.1114414585,10.3403154178\H,11.8125829101,9.2642880567,
 9.7948331915\C,10.3994806306,10.4383696847,8.6410877427\H,11.150114930
 3,10.6096241831,7.8433113373\H,10.4295394982,11.3438430972,9.278545163
 7\C,8.9996206514,10.284822586,8.0179633482\H,8.2451460592,10.075446798
 6,8.8113214673\O,8.533624577,11.5093900134,7.4995524559\C,9.003912409,
 9.1609974476,6.9679917245\H,9.1101256446,11.7520210727,6.7852660497\H,
 9.5827048935,9.4718706545,6.0750923932\H,9.5578758286,8.2954816956,7.3
 981272734\C,7.60950224,8.743266029,6.5657377291\H,7.0340915615,8.37353
 19754,7.4250021844\H,7.6362249302,7.9404351704,5.817913861\H,7.0458276
 814,9.5798553479,6.1319954949\\Version=ES64L-G16RevA.03\State=1-A\HF=-
 0.1205352\RMSD=5.387e-09\RMSF=3.492e-06\Dipole=0.475493,-0.35021,-0.16
 29869\PG=C01 [X(C5H12O1)]\\@


 ON A TOMBSTONE, "HERE LIES LESTER MOORE,
 FOUR SLUGS FROM A 44, NO LES, NO MORE".
 Job cpu time:       0 days  0 hours  0 minutes  5.1 seconds.
 Elapsed time:       0 days  0 hours  0 minutes 32.7 seconds.
 File lengths (MBytes):  RWF=      6 Int=      0 D2E=      0 Chk=      2 Scr=      1
 Normal termination of Gaussian 16 at Wed Sep  7 15:36:09 2022.
