 Entering Gaussian System, Link 0=/opt/gaussian/g16_legacy/g16
 Input=05-PET_1602_gaussian.com
 Output=05-PET_1602_gaussian.log
 Initial command:
 /opt/gaussian/g16_legacy/l1.exe "/scratch-local/jramos/2648139/Gau-12526.inp" -scrdir="/scratch-local/jramos/2648139/"
 Entering Link 1 = /opt/gaussian/g16_legacy/l1.exe PID=     12529.
  
 Copyright (c) 1988,1990,1992,1993,1995,1998,2003,2009,2016,
            Gaussian, Inc.  All Rights Reserved.
  
 This is part of the Gaussian(R) 16 program.  It is based on
 the Gaussian(R) 09 system (copyright 2009, Gaussian, Inc.),
 the Gaussian(R) 03 system (copyright 2003, Gaussian, Inc.),
 the Gaussian(R) 98 system (copyright 1998, Gaussian, Inc.),
 the Gaussian(R) 94 system (copyright 1995, Gaussian, Inc.),
 the Gaussian 92(TM) system (copyright 1992, Gaussian, Inc.),
 the Gaussian 90(TM) system (copyright 1990, Gaussian, Inc.),
 the Gaussian 88(TM) system (copyright 1988, Gaussian, Inc.),
 the Gaussian 86(TM) system (copyright 1986, Carnegie Mellon
 University), and the Gaussian 82(TM) system (copyright 1983,
 Carnegie Mellon University). Gaussian is a federally registered
 trademark of Gaussian, Inc.
  
 This software contains proprietary and confidential information,
 including trade secrets, belonging to Gaussian, Inc.
  
 This software is provided under written license and may be
 used, copied, transmitted, or stored only in accord with that
 written license.
  
 The following legend is applicable only to US Government
 contracts under FAR:
  
                    RESTRICTED RIGHTS LEGEND
  
 Use, reproduction and disclosure by the US Government is
 subject to restrictions as set forth in subparagraphs (a)
 and (c) of the Commercial Computer Software - Restricted
 Rights clause in FAR 52.227-19.
  
 Gaussian, Inc.
 340 Quinnipiac St., Bldg. 40, Wallingford CT 06492
  
  
 ---------------------------------------------------------------
 Warning -- This program may not be used in any manner that
 competes with the business of Gaussian, Inc. or will provide
 assistance to any competitor of Gaussian, Inc.  The licensee
 of this program is prohibited from giving any competitor of
 Gaussian, Inc. access to this program.  By using this program,
 the user acknowledges that Gaussian, Inc. is engaged in the
 business of creating and licensing software in the field of
 computational chemistry and represents and warrants to the
 licensee that it is not a competitor of Gaussian, Inc. and that
 it will not use this program in any manner prohibited above.
 ---------------------------------------------------------------
  

 Cite this work as:
 Gaussian 16, Revision A.03,
 M. J. Frisch, G. W. Trucks, H. B. Schlegel, G. E. Scuseria, 
 M. A. Robb, J. R. Cheeseman, G. Scalmani, V. Barone, 
 G. A. Petersson, H. Nakatsuji, X. Li, M. Caricato, A. V. Marenich, 
 J. Bloino, B. G. Janesko, R. Gomperts, B. Mennucci, H. P. Hratchian, 
 J. V. Ortiz, A. F. Izmaylov, J. L. Sonnenberg, D. Williams-Young, 
 F. Ding, F. Lipparini, F. Egidi, J. Goings, B. Peng, A. Petrone, 
 T. Henderson, D. Ranasinghe, V. G. Zakrzewski, J. Gao, N. Rega, 
 G. Zheng, W. Liang, M. Hada, M. Ehara, K. Toyota, R. Fukuda, 
 J. Hasegawa, M. Ishida, T. Nakajima, Y. Honda, O. Kitao, H. Nakai, 
 T. Vreven, K. Throssell, J. A. Montgomery, Jr., J. E. Peralta, 
 F. Ogliaro, M. J. Bearpark, J. J. Heyd, E. N. Brothers, K. N. Kudin, 
 V. N. Staroverov, T. A. Keith, R. Kobayashi, J. Normand, 
 K. Raghavachari, A. P. Rendell, J. C. Burant, S. S. Iyengar, 
 J. Tomasi, M. Cossi, J. M. Millam, M. Klene, C. Adamo, R. Cammi, 
 J. W. Ochterski, R. L. Martin, K. Morokuma, O. Farkas, 
 J. B. Foresman, and D. J. Fox, Gaussian, Inc., Wallingford CT, 2016.
 
 ******************************************
 Gaussian 16:  EM64L-G16RevA.03 25-Dec-2016
                27-Jul-2021 
 ******************************************
 %chk=05-PET_1602_gaussian.chk
 %nproc=4
 Will use up to    4 processors via shared memory.
 %mem=4000Mb
 -----------------------------
 #p opt=loose m062x/6-31g(d,p)
 -----------------------------
 1/7=-1,18=20,19=15,26=3,38=1/1,3;
 2/9=110,12=2,17=6,18=5,40=1/2;
 3/5=1,6=6,7=101,11=2,25=1,30=1,71=1,74=-55/1,2,3;
 4//1;
 5/5=2,38=5/2;
 6/7=2,8=2,9=2,10=2,28=1/1;
 7//1,2,3,16;
 1/7=-1,18=20,19=15,26=3/3(2);
 2/9=110/2;
 99//99;
 2/9=110/2;
 3/5=1,6=6,7=101,11=2,25=1,30=1,71=1,74=-55/1,2,3;
 4/5=5,16=3,69=1/1;
 5/5=2,38=5/2;
 7//1,2,3,16;
 1/7=-1,18=20,19=15,26=3/3(-5);
 2/9=110/2;
 6/7=2,8=2,9=2,10=2,19=2,28=1/1;
 99/9=1/99;
 Leave Link    1 at Tue Jul 27 19:32:26 2021, MaxMem=   524288000 cpu:               1.0 elap:               0.3
 (Enter /opt/gaussian/g16_legacy/l101.exe)
 --------------------------------------------------
 Conformer number 1602. Energy MM = 73.121 kcal/mol
 --------------------------------------------------
 Symbolic Z-matrix:
 Charge =  0 Multiplicity = 1
 C                     1.0147   -3.1175   -0.2069 
 C                     4.2016   -1.1642   -0.7329 
 H                     5.0683   -1.2136   -1.3908 
 C                     3.1887   -2.1203   -0.8615 
 H                     3.283    -2.8984   -1.6178 
 C                     2.0641   -2.0773   -0.0269 
 C                     1.9638   -1.0656    0.9382 
 H                     1.102    -1.0073    1.5991 
 C                     2.978    -0.1084    1.0669 
 H                     2.8748    0.6656    1.8242 
 C                     4.1031   -0.1525    0.2318 
 O                     6.196     0.8152   -0.3924 
 C                     5.2095    0.8398    0.3257 
 O                     4.9534    1.747     1.3006 
 O                     0.0017   -2.9332    0.6747 
 O                     1.0774   -4.0025   -1.0448 
 C                     5.9538    2.7594    1.4883 
 H                     6.9631    2.3522    1.3573 
 H                     5.8756    3.0971    2.5268 
 C                     5.6991    3.9257    0.552 
 H                     6.4205    4.7286    0.7275 
 H                     5.7721    3.6127   -0.4943 
 H                     4.6882    4.3208    0.6965 
 C                    -5.8666    3.3051    0.289 
 C                    -3.7117    0.1772    0.4471 
 H                    -2.9497   -0.2493    1.0955 
 C                    -4.2675    1.4168    0.7851 
 H                    -3.9265    1.9227    1.6857 
 C                    -5.2498    1.9943   -0.0294 
 C                    -5.6723    1.3243   -1.184 
 H                    -6.4348    1.7626   -1.826 
 C                    -5.1171    0.0859   -1.5216 
 H                    -5.4555   -0.4227   -2.4233 
 C                    -4.1343   -0.4955   -0.7084 
 O                    -3.9171   -2.4099   -2.1237 
 C                    -3.576    -1.8145   -1.1147 
 O                    -2.6577   -2.2412   -0.2142 
 O                    -5.3779    3.8508    1.4165 
 O                    -6.724     3.8672   -0.3662 
 C                    -2.0423   -3.4986   -0.547 
 H                    -2.8168   -4.2683   -0.6382 
 H                    -1.5097   -3.3888   -1.4975 
 C                    -1.0816   -3.8779    0.5768 
 H                    -0.6929   -4.8941    0.4441 
 H                    -1.6026   -3.8457    1.5396 
 H                    -5.8681    4.6961    1.4986 
 
 ITRead=  0  0  0  0  0  0  0  0  0  0  0  0  0  0  0  0  0  0  0  0
 ITRead=  0  0  0  0  0  0  0  0  0  0  0  0  0  0  0  0  0  0  0  0
 ITRead=  0  0  0  0  0  0
 MicOpt= -1 -1 -1 -1 -1 -1 -1 -1 -1 -1 -1 -1 -1 -1 -1 -1 -1 -1 -1 -1
 MicOpt= -1 -1 -1 -1 -1 -1 -1 -1 -1 -1 -1 -1 -1 -1 -1 -1 -1 -1 -1 -1
 MicOpt= -1 -1 -1 -1 -1 -1
 NAtoms=     46 NQM=       46 NQMF=       0 NMMI=      0 NMMIF=      0
                NMic=       0 NMicF=      0.
                    Isotopes and Nuclear Properties:
 (Nuclear quadrupole moments (NQMom) in fm**2, nuclear magnetic moments (NMagM)
  in nuclear magnetons)

  Atom         1           2           3           4           5           6           7           8           9          10
 IAtWgt=          12          12           1          12           1          12          12           1          12           1
 AtmWgt=  12.0000000  12.0000000   1.0078250  12.0000000   1.0078250  12.0000000  12.0000000   1.0078250  12.0000000   1.0078250
 NucSpn=           0           0           1           0           1           0           0           1           0           1
 AtZEff=  -0.0000000  -0.0000000  -0.0000000  -0.0000000  -0.0000000  -0.0000000  -0.0000000  -0.0000000  -0.0000000  -0.0000000
 NQMom=    0.0000000   0.0000000   0.0000000   0.0000000   0.0000000   0.0000000   0.0000000   0.0000000   0.0000000   0.0000000
 NMagM=    0.0000000   0.0000000   2.7928460   0.0000000   2.7928460   0.0000000   0.0000000   2.7928460   0.0000000   2.7928460
 AtZNuc=   6.0000000   6.0000000   1.0000000   6.0000000   1.0000000   6.0000000   6.0000000   1.0000000   6.0000000   1.0000000

  Atom        11          12          13          14          15          16          17          18          19          20
 IAtWgt=          12          16          12          16          16          16          12           1           1          12
 AtmWgt=  12.0000000  15.9949146  12.0000000  15.9949146  15.9949146  15.9949146  12.0000000   1.0078250   1.0078250  12.0000000
 NucSpn=           0           0           0           0           0           0           0           1           1           0
 AtZEff=  -0.0000000  -0.0000000  -0.0000000  -0.0000000  -0.0000000  -0.0000000  -0.0000000  -0.0000000  -0.0000000  -0.0000000
 NQMom=    0.0000000   0.0000000   0.0000000   0.0000000   0.0000000   0.0000000   0.0000000   0.0000000   0.0000000   0.0000000
 NMagM=    0.0000000   0.0000000   0.0000000   0.0000000   0.0000000   0.0000000   0.0000000   2.7928460   2.7928460   0.0000000
 AtZNuc=   6.0000000   8.0000000   6.0000000   8.0000000   8.0000000   8.0000000   6.0000000   1.0000000   1.0000000   6.0000000

  Atom        21          22          23          24          25          26          27          28          29          30
 IAtWgt=           1           1           1          12          12           1          12           1          12          12
 AtmWgt=   1.0078250   1.0078250   1.0078250  12.0000000  12.0000000   1.0078250  12.0000000   1.0078250  12.0000000  12.0000000
 NucSpn=           1           1           1           0           0           1           0           1           0           0
 AtZEff=  -0.0000000  -0.0000000  -0.0000000  -0.0000000  -0.0000000  -0.0000000  -0.0000000  -0.0000000  -0.0000000  -0.0000000
 NQMom=    0.0000000   0.0000000   0.0000000   0.0000000   0.0000000   0.0000000   0.0000000   0.0000000   0.0000000   0.0000000
 NMagM=    2.7928460   2.7928460   2.7928460   0.0000000   0.0000000   2.7928460   0.0000000   2.7928460   0.0000000   0.0000000
 AtZNuc=   1.0000000   1.0000000   1.0000000   6.0000000   6.0000000   1.0000000   6.0000000   1.0000000   6.0000000   6.0000000

  Atom        31          32          33          34          35          36          37          38          39          40
 IAtWgt=           1          12           1          12          16          12          16          16          16          12
 AtmWgt=   1.0078250  12.0000000   1.0078250  12.0000000  15.9949146  12.0000000  15.9949146  15.9949146  15.9949146  12.0000000
 NucSpn=           1           0           1           0           0           0           0           0           0           0
 AtZEff=  -0.0000000  -0.0000000  -0.0000000  -0.0000000  -0.0000000  -0.0000000  -0.0000000  -0.0000000  -0.0000000  -0.0000000
 NQMom=    0.0000000   0.0000000   0.0000000   0.0000000   0.0000000   0.0000000   0.0000000   0.0000000   0.0000000   0.0000000
 NMagM=    2.7928460   0.0000000   2.7928460   0.0000000   0.0000000   0.0000000   0.0000000   0.0000000   0.0000000   0.0000000
 AtZNuc=   1.0000000   6.0000000   1.0000000   6.0000000   8.0000000   6.0000000   8.0000000   8.0000000   8.0000000   6.0000000

  Atom        41          42          43          44          45          46
 IAtWgt=           1           1          12           1           1           1
 AtmWgt=   1.0078250   1.0078250  12.0000000   1.0078250   1.0078250   1.0078250
 NucSpn=           1           1           0           1           1           1
 AtZEff=  -0.0000000  -0.0000000  -0.0000000  -0.0000000  -0.0000000  -0.0000000
 NQMom=    0.0000000   0.0000000   0.0000000   0.0000000   0.0000000   0.0000000
 NMagM=    2.7928460   2.7928460   0.0000000   2.7928460   2.7928460   2.7928460
 AtZNuc=   1.0000000   1.0000000   6.0000000   1.0000000   1.0000000   1.0000000
 Leave Link  101 at Tue Jul 27 19:32:26 2021, MaxMem=   524288000 cpu:               1.3 elap:               0.4
 (Enter /opt/gaussian/g16_legacy/l103.exe)

 GradGradGradGradGradGradGradGradGradGradGradGradGradGradGradGradGradGrad
 Berny optimization.
 Initialization pass.
                           ----------------------------
                           !    Initial Parameters    !
                           ! (Angstroms and Degrees)  !
 --------------------------                            --------------------------
 ! Name  Definition              Value          Derivative Info.                !
 --------------------------------------------------------------------------------
 ! R1    R(1,6)                  1.4885         estimate D2E/DX2                !
 ! R2    R(1,15)                 1.3555         estimate D2E/DX2                !
 ! R3    R(1,16)                 1.2203         estimate D2E/DX2                !
 ! R4    R(2,3)                  1.0892         estimate D2E/DX2                !
 ! R5    R(2,4)                  1.3988         estimate D2E/DX2                !
 ! R6    R(2,11)                 1.4014         estimate D2E/DX2                !
 ! R7    R(4,5)                  1.0892         estimate D2E/DX2                !
 ! R8    R(4,6)                  1.4011         estimate D2E/DX2                !
 ! R9    R(6,7)                  1.4018         estimate D2E/DX2                !
 ! R10   R(7,8)                  1.0876         estimate D2E/DX2                !
 ! R11   R(7,9)                  1.4005         estimate D2E/DX2                !
 ! R12   R(9,10)                 1.0878         estimate D2E/DX2                !
 ! R13   R(9,11)                 1.4019         estimate D2E/DX2                !
 ! R14   R(11,13)                1.4892         estimate D2E/DX2                !
 ! R15   R(12,13)                1.2204         estimate D2E/DX2                !
 ! R16   R(13,14)                1.3561         estimate D2E/DX2                !
 ! R17   R(14,17)                1.4356         estimate D2E/DX2                !
 ! R18   R(15,43)                1.4407         estimate D2E/DX2                !
 ! R19   R(17,18)                1.0962         estimate D2E/DX2                !
 ! R20   R(17,19)                1.0948         estimate D2E/DX2                !
 ! R21   R(17,20)                1.5172         estimate D2E/DX2                !
 ! R22   R(20,21)                1.0936         estimate D2E/DX2                !
 ! R23   R(20,22)                1.0946         estimate D2E/DX2                !
 ! R24   R(20,23)                1.0949         estimate D2E/DX2                !
 ! R25   R(24,29)                1.4832         estimate D2E/DX2                !
 ! R26   R(24,38)                1.3446         estimate D2E/DX2                !
 ! R27   R(24,39)                1.2167         estimate D2E/DX2                !
 ! R28   R(25,26)                1.0876         estimate D2E/DX2                !
 ! R29   R(25,27)                1.3999         estimate D2E/DX2                !
 ! R30   R(25,34)                1.4022         estimate D2E/DX2                !
 ! R31   R(27,28)                1.0878         estimate D2E/DX2                !
 ! R32   R(27,29)                1.4007         estimate D2E/DX2                !
 ! R33   R(29,30)                1.4002         estimate D2E/DX2                !
 ! R34   R(30,31)                1.0889         estimate D2E/DX2                !
 ! R35   R(30,32)                1.3985         estimate D2E/DX2                !
 ! R36   R(32,33)                1.0892         estimate D2E/DX2                !
 ! R37   R(32,34)                1.4019         estimate D2E/DX2                !
 ! R38   R(34,36)                1.4888         estimate D2E/DX2                !
 ! R39   R(35,36)                1.2202         estimate D2E/DX2                !
 ! R40   R(36,37)                1.3551         estimate D2E/DX2                !
 ! R41   R(37,40)                1.4389         estimate D2E/DX2                !
 ! R42   R(38,46)                0.9806         estimate D2E/DX2                !
 ! R43   R(40,41)                1.0957         estimate D2E/DX2                !
 ! R44   R(40,42)                1.0951         estimate D2E/DX2                !
 ! R45   R(40,43)                1.5263         estimate D2E/DX2                !
 ! R46   R(43,44)                1.0961         estimate D2E/DX2                !
 ! R47   R(43,45)                1.0952         estimate D2E/DX2                !
 ! A1    A(6,1,15)             110.6834         estimate D2E/DX2                !
 ! A2    A(6,1,16)             123.6141         estimate D2E/DX2                !
 ! A3    A(15,1,16)            125.7018         estimate D2E/DX2                !
 ! A4    A(3,2,4)              119.3176         estimate D2E/DX2                !
 ! A5    A(3,2,11)             120.2952         estimate D2E/DX2                !
 ! A6    A(4,2,11)             120.3872         estimate D2E/DX2                !
 ! A7    A(2,4,5)              119.3038         estimate D2E/DX2                !
 ! A8    A(2,4,6)              120.3627         estimate D2E/DX2                !
 ! A9    A(5,4,6)              120.3334         estimate D2E/DX2                !
 ! A10   A(1,6,4)              118.1894         estimate D2E/DX2                !
 ! A11   A(1,6,7)              122.4908         estimate D2E/DX2                !
 ! A12   A(4,6,7)              119.3197         estimate D2E/DX2                !
 ! A13   A(6,7,8)              120.9137         estimate D2E/DX2                !
 ! A14   A(6,7,9)              120.3133         estimate D2E/DX2                !
 ! A15   A(8,7,9)              118.773          estimate D2E/DX2                !
 ! A16   A(7,9,10)             118.7898         estimate D2E/DX2                !
 ! A17   A(7,9,11)             120.3288         estimate D2E/DX2                !
 ! A18   A(10,9,11)            120.8814         estimate D2E/DX2                !
 ! A19   A(2,11,9)             119.2883         estimate D2E/DX2                !
 ! A20   A(2,11,13)            118.1799         estimate D2E/DX2                !
 ! A21   A(9,11,13)            122.5318         estimate D2E/DX2                !
 ! A22   A(11,13,12)           123.3686         estimate D2E/DX2                !
 ! A23   A(11,13,14)           110.5357         estimate D2E/DX2                !
 ! A24   A(12,13,14)           126.0954         estimate D2E/DX2                !
 ! A25   A(13,14,17)           115.7316         estimate D2E/DX2                !
 ! A26   A(1,15,43)            115.3781         estimate D2E/DX2                !
 ! A27   A(14,17,18)           111.3473         estimate D2E/DX2                !
 ! A28   A(14,17,19)           106.9638         estimate D2E/DX2                !
 ! A29   A(14,17,20)           110.1478         estimate D2E/DX2                !
 ! A30   A(18,17,19)           107.0795         estimate D2E/DX2                !
 ! A31   A(18,17,20)           111.4924         estimate D2E/DX2                !
 ! A32   A(19,17,20)           109.6504         estimate D2E/DX2                !
 ! A33   A(17,20,21)           110.7705         estimate D2E/DX2                !
 ! A34   A(17,20,22)           111.0331         estimate D2E/DX2                !
 ! A35   A(17,20,23)           110.5449         estimate D2E/DX2                !
 ! A36   A(21,20,22)           108.6248         estimate D2E/DX2                !
 ! A37   A(21,20,23)           108.8405         estimate D2E/DX2                !
 ! A38   A(22,20,23)           106.9127         estimate D2E/DX2                !
 ! A39   A(29,24,38)           112.8011         estimate D2E/DX2                !
 ! A40   A(29,24,39)           125.8536         estimate D2E/DX2                !
 ! A41   A(38,24,39)           121.3453         estimate D2E/DX2                !
 ! A42   A(26,25,27)           118.7797         estimate D2E/DX2                !
 ! A43   A(26,25,34)           120.9489         estimate D2E/DX2                !
 ! A44   A(27,25,34)           120.2714         estimate D2E/DX2                !
 ! A45   A(25,27,28)           119.1597         estimate D2E/DX2                !
 ! A46   A(25,27,29)           120.2071         estimate D2E/DX2                !
 ! A47   A(28,27,29)           120.6332         estimate D2E/DX2                !
 ! A48   A(24,29,27)           122.0852         estimate D2E/DX2                !
 ! A49   A(24,29,30)           118.321          estimate D2E/DX2                !
 ! A50   A(27,29,30)           119.5938         estimate D2E/DX2                !
 ! A51   A(29,30,31)           120.3229         estimate D2E/DX2                !
 ! A52   A(29,30,32)           120.1982         estimate D2E/DX2                !
 ! A53   A(31,30,32)           119.479          estimate D2E/DX2                !
 ! A54   A(30,32,33)           119.3413         estimate D2E/DX2                !
 ! A55   A(30,32,34)           120.367          estimate D2E/DX2                !
 ! A56   A(33,32,34)           120.2917         estimate D2E/DX2                !
 ! A57   A(25,34,32)           119.3625         estimate D2E/DX2                !
 ! A58   A(25,34,36)           122.4716         estimate D2E/DX2                !
 ! A59   A(32,34,36)           118.1658         estimate D2E/DX2                !
 ! A60   A(34,36,35)           123.582          estimate D2E/DX2                !
 ! A61   A(34,36,37)           110.5941         estimate D2E/DX2                !
 ! A62   A(35,36,37)           125.8237         estimate D2E/DX2                !
 ! A63   A(36,37,40)           114.2861         estimate D2E/DX2                !
 ! A64   A(24,38,46)           103.7904         estimate D2E/DX2                !
 ! A65   A(37,40,41)           109.3167         estimate D2E/DX2                !
 ! A66   A(37,40,42)           108.7318         estimate D2E/DX2                !
 ! A67   A(37,40,43)           108.4242         estimate D2E/DX2                !
 ! A68   A(41,40,42)           109.997          estimate D2E/DX2                !
 ! A69   A(41,40,43)           109.3666         estimate D2E/DX2                !
 ! A70   A(42,40,43)           110.969          estimate D2E/DX2                !
 ! A71   A(15,43,40)           111.1221         estimate D2E/DX2                !
 ! A72   A(15,43,44)           110.4577         estimate D2E/DX2                !
 ! A73   A(15,43,45)           106.1818         estimate D2E/DX2                !
 ! A74   A(40,43,44)           111.3746         estimate D2E/DX2                !
 ! A75   A(40,43,45)           109.9094         estimate D2E/DX2                !
 ! A76   A(44,43,45)           107.6015         estimate D2E/DX2                !
 ! D1    D(15,1,6,4)           179.9812         estimate D2E/DX2                !
 ! D2    D(15,1,6,7)            -0.1411         estimate D2E/DX2                !
 ! D3    D(16,1,6,4)            -0.3002         estimate D2E/DX2                !
 ! D4    D(16,1,6,7)           179.5775         estimate D2E/DX2                !
 ! D5    D(6,1,15,43)          179.2225         estimate D2E/DX2                !
 ! D6    D(16,1,15,43)          -0.4889         estimate D2E/DX2                !
 ! D7    D(3,2,4,5)             -0.027          estimate D2E/DX2                !
 ! D8    D(3,2,4,6)           -179.9878         estimate D2E/DX2                !
 ! D9    D(11,2,4,5)           179.9514         estimate D2E/DX2                !
 ! D10   D(11,2,4,6)            -0.0094         estimate D2E/DX2                !
 ! D11   D(3,2,11,9)           179.9618         estimate D2E/DX2                !
 ! D12   D(3,2,11,13)           -0.0068         estimate D2E/DX2                !
 ! D13   D(4,2,11,9)            -0.0163         estimate D2E/DX2                !
 ! D14   D(4,2,11,13)         -179.985          estimate D2E/DX2                !
 ! D15   D(2,4,6,1)            179.9181         estimate D2E/DX2                !
 ! D16   D(2,4,6,7)              0.0364         estimate D2E/DX2                !
 ! D17   D(5,4,6,1)             -0.0423         estimate D2E/DX2                !
 ! D18   D(5,4,6,7)           -179.9239         estimate D2E/DX2                !
 ! D19   D(1,6,7,8)              0.0802         estimate D2E/DX2                !
 ! D20   D(1,6,7,9)           -179.9143         estimate D2E/DX2                !
 ! D21   D(4,6,7,8)            179.9566         estimate D2E/DX2                !
 ! D22   D(4,6,7,9)             -0.0379         estimate D2E/DX2                !
 ! D23   D(6,7,9,10)          -179.9907         estimate D2E/DX2                !
 ! D24   D(6,7,9,11)             0.0124         estimate D2E/DX2                !
 ! D25   D(8,7,9,10)             0.0147         estimate D2E/DX2                !
 ! D26   D(8,7,9,11)          -179.9822         estimate D2E/DX2                !
 ! D27   D(7,9,11,2)             0.0149         estimate D2E/DX2                !
 ! D28   D(7,9,11,13)          179.982          estimate D2E/DX2                !
 ! D29   D(10,9,11,2)         -179.982          estimate D2E/DX2                !
 ! D30   D(10,9,11,13)          -0.0148         estimate D2E/DX2                !
 ! D31   D(2,11,13,12)          -0.0956         estimate D2E/DX2                !
 ! D32   D(2,11,13,14)         179.7308         estimate D2E/DX2                !
 ! D33   D(9,11,13,12)         179.9369         estimate D2E/DX2                !
 ! D34   D(9,11,13,14)          -0.2367         estimate D2E/DX2                !
 ! D35   D(11,13,14,17)        179.9459         estimate D2E/DX2                !
 ! D36   D(12,13,14,17)         -0.2336         estimate D2E/DX2                !
 ! D37   D(13,14,17,18)        -37.4236         estimate D2E/DX2                !
 ! D38   D(13,14,17,19)       -154.0966         estimate D2E/DX2                !
 ! D39   D(13,14,17,20)         86.7985         estimate D2E/DX2                !
 ! D40   D(1,15,43,40)         -81.1859         estimate D2E/DX2                !
 ! D41   D(1,15,43,44)          42.9479         estimate D2E/DX2                !
 ! D42   D(1,15,43,45)         159.3274         estimate D2E/DX2                !
 ! D43   D(14,17,20,21)        176.6563         estimate D2E/DX2                !
 ! D44   D(14,17,20,22)        -62.5604         estimate D2E/DX2                !
 ! D45   D(14,17,20,23)         55.9268         estimate D2E/DX2                !
 ! D46   D(18,17,20,21)        -59.2056         estimate D2E/DX2                !
 ! D47   D(18,17,20,22)         61.5778         estimate D2E/DX2                !
 ! D48   D(18,17,20,23)       -179.9351         estimate D2E/DX2                !
 ! D49   D(19,17,20,21)         59.2038         estimate D2E/DX2                !
 ! D50   D(19,17,20,22)        179.9871         estimate D2E/DX2                !
 ! D51   D(19,17,20,23)        -61.5257         estimate D2E/DX2                !
 ! D52   D(38,24,29,27)          0.1653         estimate D2E/DX2                !
 ! D53   D(38,24,29,30)       -179.8222         estimate D2E/DX2                !
 ! D54   D(39,24,29,27)       -179.8478         estimate D2E/DX2                !
 ! D55   D(39,24,29,30)          0.1647         estimate D2E/DX2                !
 ! D56   D(29,24,38,46)       -179.9952         estimate D2E/DX2                !
 ! D57   D(39,24,38,46)          0.0173         estimate D2E/DX2                !
 ! D58   D(26,25,27,28)         -0.0608         estimate D2E/DX2                !
 ! D59   D(26,25,27,29)        179.9289         estimate D2E/DX2                !
 ! D60   D(34,25,27,28)        179.9843         estimate D2E/DX2                !
 ! D61   D(34,25,27,29)         -0.0259         estimate D2E/DX2                !
 ! D62   D(26,25,34,32)       -179.8925         estimate D2E/DX2                !
 ! D63   D(26,25,34,36)         -0.0075         estimate D2E/DX2                !
 ! D64   D(27,25,34,32)          0.0614         estimate D2E/DX2                !
 ! D65   D(27,25,34,36)        179.9463         estimate D2E/DX2                !
 ! D66   D(25,27,29,24)        179.9987         estimate D2E/DX2                !
 ! D67   D(25,27,29,30)         -0.014          estimate D2E/DX2                !
 ! D68   D(28,27,29,24)         -0.0117         estimate D2E/DX2                !
 ! D69   D(28,27,29,30)        179.9756         estimate D2E/DX2                !
 ! D70   D(24,29,30,31)          0.0205         estimate D2E/DX2                !
 ! D71   D(24,29,30,32)       -179.9943         estimate D2E/DX2                !
 ! D72   D(27,29,30,31)       -179.9673         estimate D2E/DX2                !
 ! D73   D(27,29,30,32)          0.0179         estimate D2E/DX2                !
 ! D74   D(29,30,32,33)       -179.9531         estimate D2E/DX2                !
 ! D75   D(29,30,32,34)          0.0181         estimate D2E/DX2                !
 ! D76   D(31,30,32,33)          0.0322         estimate D2E/DX2                !
 ! D77   D(31,30,32,34)       -179.9966         estimate D2E/DX2                !
 ! D78   D(30,32,34,25)         -0.0576         estimate D2E/DX2                !
 ! D79   D(30,32,34,36)       -179.9474         estimate D2E/DX2                !
 ! D80   D(33,32,34,25)        179.9134         estimate D2E/DX2                !
 ! D81   D(33,32,34,36)          0.0235         estimate D2E/DX2                !
 ! D82   D(25,34,36,35)       -179.0912         estimate D2E/DX2                !
 ! D83   D(25,34,36,37)          1.0281         estimate D2E/DX2                !
 ! D84   D(32,34,36,35)          0.795          estimate D2E/DX2                !
 ! D85   D(32,34,36,37)       -179.0857         estimate D2E/DX2                !
 ! D86   D(34,36,37,40)       -178.6084         estimate D2E/DX2                !
 ! D87   D(35,36,37,40)          1.5142         estimate D2E/DX2                !
 ! D88   D(36,37,40,41)        -58.5217         estimate D2E/DX2                !
 ! D89   D(36,37,40,42)         61.5776         estimate D2E/DX2                !
 ! D90   D(36,37,40,43)       -177.6749         estimate D2E/DX2                !
 ! D91   D(37,40,43,15)        -64.4984         estimate D2E/DX2                !
 ! D92   D(37,40,43,44)        171.8899         estimate D2E/DX2                !
 ! D93   D(37,40,43,45)         52.7381         estimate D2E/DX2                !
 ! D94   D(41,40,43,15)        176.3799         estimate D2E/DX2                !
 ! D95   D(41,40,43,44)         52.7682         estimate D2E/DX2                !
 ! D96   D(41,40,43,45)        -66.3836         estimate D2E/DX2                !
 ! D97   D(42,40,43,15)         54.8529         estimate D2E/DX2                !
 ! D98   D(42,40,43,44)        -68.7588         estimate D2E/DX2                !
 ! D99   D(42,40,43,45)        172.0894         estimate D2E/DX2                !
 --------------------------------------------------------------------------------
 Trust Radius=3.00D-01 FncErr=1.00D-07 GrdErr=1.00D-06 EigMax=2.50D+02 EigMin=1.00D-04
 Number of steps in this run=    232 maximum allowed number of steps=    276.
 GradGradGradGradGradGradGradGradGradGradGradGradGradGradGradGradGradGrad

 Leave Link  103 at Tue Jul 27 19:32:26 2021, MaxMem=   524288000 cpu:               0.2 elap:               0.1
 (Enter /opt/gaussian/g16_legacy/l202.exe)
                          Input orientation:                          
 ---------------------------------------------------------------------
 Center     Atomic      Atomic             Coordinates (Angstroms)
 Number     Number       Type             X           Y           Z
 ---------------------------------------------------------------------
      1          6           0        1.014700   -3.117500   -0.206900
      2          6           0        4.201600   -1.164200   -0.732900
      3          1           0        5.068300   -1.213600   -1.390800
      4          6           0        3.188700   -2.120300   -0.861500
      5          1           0        3.283000   -2.898400   -1.617800
      6          6           0        2.064100   -2.077300   -0.026900
      7          6           0        1.963800   -1.065600    0.938200
      8          1           0        1.102000   -1.007300    1.599100
      9          6           0        2.978000   -0.108400    1.066900
     10          1           0        2.874800    0.665600    1.824200
     11          6           0        4.103100   -0.152500    0.231800
     12          8           0        6.196000    0.815200   -0.392400
     13          6           0        5.209500    0.839800    0.325700
     14          8           0        4.953400    1.747000    1.300600
     15          8           0        0.001700   -2.933200    0.674700
     16          8           0        1.077400   -4.002500   -1.044800
     17          6           0        5.953800    2.759400    1.488300
     18          1           0        6.963100    2.352200    1.357300
     19          1           0        5.875600    3.097100    2.526800
     20          6           0        5.699100    3.925700    0.552000
     21          1           0        6.420500    4.728600    0.727500
     22          1           0        5.772100    3.612700   -0.494300
     23          1           0        4.688200    4.320800    0.696500
     24          6           0       -5.866600    3.305100    0.289000
     25          6           0       -3.711700    0.177200    0.447100
     26          1           0       -2.949700   -0.249300    1.095500
     27          6           0       -4.267500    1.416800    0.785100
     28          1           0       -3.926500    1.922700    1.685700
     29          6           0       -5.249800    1.994300   -0.029400
     30          6           0       -5.672300    1.324300   -1.184000
     31          1           0       -6.434800    1.762600   -1.826000
     32          6           0       -5.117100    0.085900   -1.521600
     33          1           0       -5.455500   -0.422700   -2.423300
     34          6           0       -4.134300   -0.495500   -0.708400
     35          8           0       -3.917100   -2.409900   -2.123700
     36          6           0       -3.576000   -1.814500   -1.114700
     37          8           0       -2.657700   -2.241200   -0.214200
     38          8           0       -5.377900    3.850800    1.416500
     39          8           0       -6.724000    3.867200   -0.366200
     40          6           0       -2.042300   -3.498600   -0.547000
     41          1           0       -2.816800   -4.268300   -0.638200
     42          1           0       -1.509700   -3.388800   -1.497500
     43          6           0       -1.081600   -3.877900    0.576800
     44          1           0       -0.692900   -4.894100    0.444100
     45          1           0       -1.602600   -3.845700    1.539600
     46          1           0       -5.868100    4.696100    1.498600
 ---------------------------------------------------------------------
                    Distance matrix (angstroms):
                    1          2          3          4          5
     1  C    0.000000
     2  C    3.774704   0.000000
     3  H    4.632292   1.089239   0.000000
     4  C    2.479755   1.398796   2.152942   0.000000
     5  H    2.680266   2.152748   2.465233   1.089184   0.000000
     6  C    1.488508   2.429217   3.410487   1.401118   2.165845
     7  C    2.534233   2.794646   3.883821   2.419027   3.410657
     8  H    2.778885   3.882056   4.971277   3.412864   4.322206
     9  C    3.812059   2.418923   3.410441   2.794792   3.883908
    10  H    4.679443   3.412818   4.321928   3.882365   4.971528
    11  C    4.303707   1.401387   2.165727   2.429747   3.410799
    12  O    6.507412   2.830476   2.526765   4.228601   4.876269
    13  C    5.791393   2.480426   2.680067   3.775615   4.632789
    14  O    6.438111   3.629795   4.002748   4.769156   5.734722
    15  O    1.355490   4.769681   5.735307   3.630108   4.002961
    16  O    1.220341   4.232476   4.881082   2.834407   2.532200
    17  C    7.861702   4.837207   4.985785   6.081020   6.985108
    18  H    8.230905   4.935574   4.884388   6.258788   7.068462
    19  H    8.350013   5.620196   5.880600   6.776524   7.735975
    20  C    8.492714   5.458989   5.530351   6.697328   7.557375
    21  H    9.573769   6.463852   6.451773   7.738015   8.574116
    22  H    8.246881   5.034101   4.959054   6.298895   7.060616
    23  H    8.345001   5.689041   5.927131   6.794382   7.710215
    24  C    9.425922  11.062892  11.950415  10.618713  11.217597
    25  C    5.798415   8.112464   9.077478   7.389618   7.915109
    26  H    5.063525   7.437821   8.449845   6.708982   7.295634
    27  C    7.031755   8.982847   9.940357   8.415301   9.022468
    28  H    7.307599   9.024665  10.010377   8.570890   9.280787
    29  C    8.087395   9.989995  10.890694   9.424999   9.963443
    30  C    8.087044  10.192646  11.038306   9.512444   9.910438
    31  H    9.051625  11.085758  11.889848  10.422040  10.779792
    32  C    7.041958   9.435198  10.268797   8.619128   8.914986
    33  H    7.351045   9.831930  10.603865   8.946690   9.118076
    34  C    5.799878   8.362714   9.255765   7.502649   7.849667
    35  O    5.338302   8.330629   9.094267   7.222840   7.234363
    36  C    4.857616   7.814072   8.669558   6.776340   6.962315
    37  O    3.775510   6.962684   7.882349   5.883367   6.139538
    38  O    9.594684  11.024381  11.943709  10.687841  11.391658
    39  O   10.425876  12.034043  12.881098  11.591251  12.144130
    40  C    3.099380   6.668603   7.516239   5.418670   5.464949
    41  H    4.023773   7.674786   8.489547   6.381990   6.328017
    42  H    2.848131   6.176763   6.929139   4.908009   4.819226
    43  C    2.363656   6.082079   6.985071   4.836665   4.982512
    44  H    2.548726   6.265270   7.078444   4.946249   4.903267
    45  H    3.229674   6.785531   7.747006   5.630172   5.893695
    46  H   10.551493  11.862612  12.762368  11.578385  12.293535
                    6          7          8          9         10
     6  C    0.000000
     7  C    1.401790   0.000000
     8  H    2.171270   1.087606   0.000000
     9  C    2.430675   1.400499   2.147239   0.000000
    10  H    3.406950   2.147550   2.447873   1.087764   0.000000
    11  C    2.815902   2.430917   3.406874   1.401851   2.171116
    12  O    5.056950   4.818654   5.765103   3.652139   3.995756
    13  C    4.304340   3.813171   4.680265   2.535361   2.779689
    14  O    4.973488   4.120651   4.744318   2.720171   2.400867
    15  O    2.340577   2.721617   2.402970   4.122096   4.746305
    16  O    2.390835   3.652859   3.995252   4.820329   5.766538
    17  C    6.388996   5.554578   6.143311   4.154183   3.738592
    18  H    6.748087   6.070420   6.759970   4.692537   4.447113
    19  H    6.915442   5.929072   6.363488   4.560989   3.925639
    20  C    7.041616   6.246174   6.823799   4.893207   4.497045
    21  H    8.115887   7.312956   7.870621   5.946643   5.502973
    22  H    6.807630   6.200137   6.894676   4.908251   4.738691
    23  H    6.953049   6.041033   6.485689   4.762331   4.233275
    24  C    9.589892   8.991087   8.299069   9.512311   9.259367
    25  C    6.218305   5.830697   5.089386   6.724419   6.746623
    26  H    5.453399   4.983329   4.152644   5.929443   5.940778
    27  C    7.277172   6.709311   5.947301   7.409650   7.256478
    28  H    7.404072   6.647129   5.820499   7.223600   6.917887
    29  C    8.370846   7.895268   7.211586   8.562705   8.438626
    30  C    8.530044   8.278006   7.685906   9.052451   9.084937
    31  H    9.498047   9.283103   8.729663  10.023488  10.059623
    32  C    7.647431   7.583911   7.043512   8.501102   8.683369
    33  H    8.063797   8.170619   7.715067   9.132590   9.413796
    34  C    6.433249   6.342171   5.745027   7.340732   7.542526
    35  O    6.346806   6.765158   6.404521   7.938466   8.436499
    36  C    5.750052   5.955219   5.468086   7.115130   7.510050
    37  O    4.728355   4.905948   4.352690   6.160452   6.573668
    38  O    9.623364   8.848747   8.100838   9.253029   8.855438
    39  O   10.615221  10.075309   9.427058  10.582437  10.353022
    40  C    4.376428   4.916721   4.549609   6.269094   6.865932
    41  H    5.384919   5.966277   5.567461   7.334292   7.924714
    42  H    4.081022   4.836848   4.699090   6.121815   6.833425
    43  C    3.674513   4.161022   3.748807   5.561446   6.152439
    44  H    3.969541   4.686107   4.434287   6.063523   6.748587
    45  H    4.361863   4.561781   3.921086   5.930662   6.362384
    46  H   10.541627   9.739091   9.006729  10.075866   9.632717
                   11         12         13         14         15
    11  C    0.000000
    12  O    2.388786   0.000000
    13  C    1.489160   1.220432   0.000000
    14  O    2.339539   2.297511   1.356108   0.000000
    15  O    4.974931   7.318371   6.440381   6.842175   0.000000
    16  O    5.060343   7.059456   6.511558   7.319906   2.292861
    17  C    3.671927   2.715807   2.364421   1.435613   8.276179
    18  H    3.964829   2.451991   2.535087   2.099613   8.767125
    19  H    4.355305   3.719066   3.222411   2.043719   8.619599
    20  C    4.391066   3.288466   3.132682   2.421405   8.917395
    21  H    5.425974   4.076675   4.092766   3.372056   9.995347
    22  H    4.182047   2.831268   2.945826   2.715285   8.804140
    23  H    4.535273   3.968425   3.539295   2.657012   8.636219
    24  C   10.552402  12.335730  11.347204  10.978315   8.573336
    25  C    7.824714   9.963650   8.946596   8.847412   4.849302
    26  H    7.106148   9.326888   8.267483   8.153911   4.011378
    27  C    8.534389  10.546718   9.505657   9.241200   6.095962
    28  H    8.419902  10.392789   9.299934   8.889983   6.327135
    29  C    9.599673  11.512097  10.528814  10.292490   7.235625
    30  C    9.987185  11.905560  10.996704  10.920504   7.333168
    31  H   10.906397  12.747152  11.877335  11.809613   8.350603
    32  C    9.388468  11.392682  10.517583  10.589572   6.335678
    33  H    9.924182  11.891779  11.085717  11.265888   6.758790
    34  C    8.297975  10.417912   9.495209   9.573462   4.996183
    35  O    8.658397  10.755160   9.992744  10.377448   4.843746
    36  C    7.971442  10.145394   9.290052   9.553461   4.153719
    37  O    7.090134   9.368102   8.466220   8.725205   2.888151
    38  O   10.359502  12.101328  11.061148  10.543964   8.689823
    39  O   11.564674  13.275609  12.330949  11.984788   9.621016
    40  C    7.040515   9.300664   8.495406   8.936989   2.447481
    41  H    8.098254  10.350505   9.562598  10.015927   3.383806
    42  H    6.705792   8.847185   8.145721   8.716505   2.685210
    43  C    6.393649   8.713667   7.867508   8.281583   1.440688
    44  H    6.747552   8.986255   8.229821   8.758910   2.093030
    45  H    6.921350   9.288422   8.356564   8.620705   2.038256
    46  H   11.159683  12.813266  11.788128  11.217899   9.661241
                   16         17         18         19         20
    16  O    0.000000
    17  C    8.713160   0.000000
    18  H    8.988535   1.096202   0.000000
    19  H    9.283500   1.094824   1.762176   0.000000
    20  C    9.314840   1.517164   2.173041   2.148852   0.000000
    21  H   10.388545   2.162030   2.517606   2.489214   1.093557
    22  H    8.962953   2.166065   2.536881   3.066529   1.094551
    23  H    9.238362   2.160245   3.080132   2.501471   1.094944
    24  C   10.168539  11.893610  12.909318  11.955345  11.585324
    25  C    6.529252  10.058516  10.932083  10.235589  10.130420
    26  H    5.906346   9.406321  10.251826   9.546357   9.619135
    27  C    7.828493  10.333056  11.284005  10.427819  10.280177
    28  H    8.222082   9.917629  10.903014   9.907968   9.896942
    29  C    8.776452  11.331789  12.296583  11.468428  11.133137
    30  C    8.599571  12.015278  12.929351  12.258338  11.793630
    31  H    9.501568  12.862955  13.783496  13.125308  12.552506
    32  C    7.437351  11.780150  12.623605  12.095302  11.663364
    33  H    7.575884  12.473913  13.274586  12.856372  12.336373
    34  C    6.290789  10.825416  11.641684  11.116267  10.855016
    35  O    5.352143  11.713363  12.376337  12.159407  11.822457
    36  C    5.142603  10.886379  11.599345  11.256868  11.034277
    37  O    4.212250  10.102596  10.776304  10.432053  10.414117
    38  O   10.459599  11.384364  12.431797  11.333230  11.110936
    39  O   11.102005  12.860521  13.878126  12.950383  12.457124
    40  C    3.199101  10.355802  10.906670  10.753820  10.782268
    41  H    3.924381  11.438269  11.977457  11.824727  11.877658
    42  H    2.697156  10.120237  10.625314  10.620948  10.472304
    43  C    2.703034   9.715011  10.204926  10.042697  10.338021
    44  H    2.479059  10.190438  10.580980  10.551877  10.893033
    45  H    3.726407  10.036392  10.574423  10.251854  10.709101
    46  H   11.418165  11.979492  13.044291  11.896575  11.631409
                   21         22         23         24         25
    21  H    0.000000
    22  H    1.777203   0.000000
    23  H    1.779923   1.759048   0.000000
    24  C   12.377054  11.669084  10.611386   0.000000
    25  C   11.111046  10.130714   9.369629   3.801624   0.000000
    26  H   10.616758   9.670176   8.909688   4.668245   1.087644
    27  C   11.189490  10.356274   9.415181   2.523671   1.399916
    28  H   10.763440  10.083221   8.996803   2.761483   2.151055
    29  C   12.010212  11.149782  10.232467   1.483246   2.427891
    30  C   12.707435  11.691311  10.947842   2.476096   2.796476
    31  H   13.437867  12.417919  11.688820   2.678690   3.885325
    32  C   12.638407  11.492099  10.908632   3.768723   2.420592
    33  H   13.323018  12.085715  11.624483   4.628398   3.411732
    34  C   11.864098  10.726598  10.149236   4.294209   1.402247
    35  O   12.882294  11.524203  11.283042   6.502530   3.652983
    36  C   12.088667  10.827113  10.450806   5.781654   2.534660
    37  O   11.483842  10.266846   9.891990   6.427417   2.719723
    38  O   11.851055  11.315050  10.102756   1.344571   4.148650
    39  O   13.218021  12.499348  11.470545   1.216708   4.832340
    40  C   11.871401  10.565899  10.391773   7.849490   4.157720
    41  H   12.966767  11.657619  11.483862   8.216895   4.662745
    42  H   11.564207  10.151454  10.132400   8.184281   4.620241
    43  C   11.418234  10.209287  10.026146   8.635655   4.835089
    44  H   11.969843  10.725785  10.674002   9.696294   5.901800
    45  H   11.770653  10.684132  10.342954   8.419005   4.671786
    46  H   12.312812  11.859159  10.593379   1.843371   5.116265
                   26         27         28         29         30
    26  H    0.000000
    27  C    2.146820   0.000000
    28  H    2.453581   1.087794   0.000000
    29  C    3.404350   1.400653   2.167445   0.000000
    30  C    3.883927   2.420614   3.411902   1.400181   0.000000
    31  H    4.972809   3.410954   4.318476   2.164643   1.088888
    32  C    3.414556   2.795350   3.883058   2.426162   1.398519
    33  H    4.323315   3.884448   4.972185   3.408073   2.152876
    34  C    2.172084   2.430057   3.409192   2.811492   2.429673
    35  O    3.995911   4.819495   5.769145   5.055607   4.231786
    36  C    2.779764   3.811655   4.683135   4.299586   3.775095
    37  O    2.401717   4.119590   4.749478   4.969164   4.768765
    38  O    4.775983   2.748820   2.428292   2.356614   3.637647
    39  O    5.772996   3.655728   3.977107   2.407167   2.870751
    40  C    3.752217   5.557622   6.158381   6.381843   6.069846
    41  H    4.379011   6.037439   6.705254   6.746131   6.303091
    42  H    4.318994   5.992455   6.647234   6.717249   6.295938
    43  C    4.114072   6.182815   6.555156   7.226625   7.158060
    44  H    5.204963   7.260958   7.646339   8.272823   8.131029
    45  H    3.866005   5.946837   6.220635   7.061829   7.121050
    46  H    5.756434   3.718173   3.390658   3.164933   4.313202
                   31         32         33         34         35
    31  H    0.000000
    32  C    2.154139   0.000000
    33  H    2.468062   1.089152   0.000000
    34  C    3.411795   1.401862   2.166045   0.000000
    35  O    4.882335   2.833998   2.530889   2.390644   0.000000
    36  C    4.634040   2.480338   2.679937   1.488805   1.220218
    37  O    5.735399   3.629509   4.001843   2.339241   2.293630
    38  O    3.998928   4.782773   5.745684   4.995204   7.339163
    39  O    2.577595   4.267939   4.923819   5.084958   7.097146
    40  C    6.972096   4.822124   4.963023   3.663485   2.680695
    41  H    7.132499   5.003082   4.993792   3.996843   2.621263
    42  H    7.134525   5.008738   5.022369   3.985271   2.673190
    43  C    8.139130   6.033262   6.330088   4.734062   4.181840
    44  H    9.079341   6.945353   7.134267   5.702558   4.812516
    45  H    8.132063   6.097551   6.501257   4.763071   4.564888
    46  H    4.469847   5.562333   6.461707   5.901663   8.211132
                   36         37         38         39         40
    36  C    0.000000
    37  O    1.355082   0.000000
    38  O    6.461381   6.868125   0.000000
    39  O    6.538492   7.339649   2.233892   0.000000
    40  C    2.347491   1.438933   8.306337   8.729606   0.000000
    41  H    2.612388   2.077071   8.757900   9.029206   1.095722
    42  H    2.625748   2.069239   8.710119   9.006570   1.095066
    43  C    3.652509   2.405942   8.882347   9.628733   1.526348
    44  H    4.497339   3.366256   9.968353  10.667293   2.179582
    45  H    3.881416   2.600667   8.573456   9.452494   2.160489
    46  H    7.380445   7.833676   0.980596   2.212944   9.272235
                   41         42         43         44         45
    41  H    0.000000
    42  H    1.794555   0.000000
    43  C    2.153963   2.173755   0.000000
    44  H    2.464539   2.588996   1.096065   0.000000
    45  H    2.528969   3.072680   1.095199   1.768281   0.000000
    46  H    9.707565   9.661153   9.862747  10.948361   9.547697
                   46
    46  H    0.000000
 Stoichiometry    C20H18O8
 Framework group  C1[X(C20H18O8)]
 Deg. of freedom   132
 Full point group                 C1      NOp   1
 Largest Abelian subgroup         C1      NOp   1
 Largest concise Abelian subgroup C1      NOp   1
                         Standard orientation:                         
 ---------------------------------------------------------------------
 Center     Atomic      Atomic             Coordinates (Angstroms)
 Number     Number       Type             X           Y           Z
 ---------------------------------------------------------------------
      1          6           0        1.470074   -2.917679    0.254152
      2          6           0        4.515080   -0.990319   -0.869064
      3          1           0        5.335033   -1.132711   -1.571804
      4          6           0        3.542674   -1.987514   -0.739985
      5          1           0        3.621064   -2.890013   -1.344693
      6          6           0        2.478410   -1.827041    0.157078
      7          6           0        2.397440   -0.656259    0.923714
      8          1           0        1.582152   -0.504401    1.627370
      9          6           0        3.371095    0.342078    0.794429
     10          1           0        3.284103    1.240437    1.401564
     11          6           0        4.435875    0.180449   -0.102960
     12          8           0        6.431207    1.084595   -1.055572
     13          6           0        5.497283    1.209855   -0.279975
     14          8           0        5.266768    2.274584    0.527642
     15          8           0        0.513520   -2.605879    1.162523
     16          8           0        1.516399   -3.941502   -0.408323
     17          6           0        6.228152    3.337707    0.447046
     18          1           0        7.244183    2.947789    0.315501
     19          1           0        6.206648    3.861378    1.408267
     20          6           0        5.852993    4.298274   -0.665766
     21          1           0        6.545572    5.143947   -0.697994
     22          1           0        5.867586    3.797210   -1.638784
     23          1           0        4.836891    4.678793   -0.518637
     24          6           0       -5.659708    3.245671    0.088878
     25          6           0       -3.351549    0.278238    0.653758
     26          1           0       -2.526512    0.007170    1.308590
     27          6           0       -3.941148    1.539570    0.799290
     28          1           0       -3.562667    2.216766    1.561821
     29          6           0       -5.004544    1.920201   -0.029046
     30          6           0       -5.474123    1.031487   -1.003823
     31          1           0       -6.299776    1.315322   -1.654524
     32          6           0       -4.885150   -0.228613   -1.149138
     33          1           0       -5.260989   -0.908577   -1.912450
     34          6           0       -3.821160   -0.613299   -0.321395
     35          8           0       -3.611907   -2.750696   -1.371595
     36          6           0       -3.230038   -1.965302   -0.519384
     37          8           0       -2.231630   -2.183946    0.370348
     38          8           0       -5.120103    4.009537    1.054904
     39          8           0       -6.586778    3.645326   -0.590237
     40          6           0       -1.581428   -3.459746    0.228570
     41          1           0       -2.322613   -4.258821    0.341385
     42          1           0       -1.122461   -3.512135   -0.764292
     43          6           0       -0.527432   -3.588521    1.325041
     44          1           0       -0.100689   -4.597730    1.352396
     45          1           0       -0.980788   -3.394034    2.302847
     46          1           0       -5.643325    4.838030    1.017393
 ---------------------------------------------------------------------
 Rotational constants (GHZ):           0.1866652           0.0689259           0.0529390
 Leave Link  202 at Tue Jul 27 19:32:27 2021, MaxMem=   524288000 cpu:               0.3 elap:               0.2
 (Enter /opt/gaussian/g16_legacy/l301.exe)
 Standard basis: 6-31G(d,p) (6D, 7F)
 Ernie: Thresh=  0.10000D-02 Tol=  0.10000D-05 Strict=F.
 There are   510 symmetry adapted cartesian basis functions of A   symmetry.
 There are   510 symmetry adapted basis functions of A   symmetry.
   510 basis functions,   910 primitive gaussians,   510 cartesian basis functions
   101 alpha electrons      101 beta electrons
       nuclear repulsion energy      2353.2969661716 Hartrees.
 IExCor= 4336 DFT=T Ex+Corr=M062X ExCW=0 ScaHFX=  0.540000
 ScaDFX=  1.000000  1.000000  1.000000  1.000000 ScalE2=  1.000000  1.000000
 IRadAn=      5 IRanWt=     -1 IRanGd=            0 ICorTp=0 IEmpDi=  4
 NAtoms=   46 NActive=   46 NUniq=   46 SFac= 1.00D+00 NAtFMM=   60 NAOKFM=F Big=F
 Integral buffers will be    131072 words long.
 Raffenetti 2 integral format.
 Two-electron integral symmetry is turned on.
 Leave Link  301 at Tue Jul 27 19:32:27 2021, MaxMem=   524288000 cpu:               0.5 elap:               0.3
 (Enter /opt/gaussian/g16_legacy/l302.exe)
 NPDir=0 NMtPBC=     1 NCelOv=     1 NCel=       1 NClECP=     1 NCelD=      1
         NCelK=      1 NCelE2=     1 NClLst=     1 CellRange=     0.0.
 One-electron integrals computed using PRISM.
 One-electron integral symmetry used in STVInt
 NBasis=   510 RedAO= T EigKep=  4.16D-04  NBF=   510
 NBsUse=   510 1.00D-06 EigRej= -1.00D+00 NBFU=   510
 Precomputing XC quadrature grid using
 IXCGrd= 4 IRadAn=           5 IRanWt=          -1 IRanGd=           0 AccXCQ= 0.00D+00.
 Generated NRdTot=       0 NPtTot=           0 NUsed=           0 NTot=          32
 NSgBfM=   476   476   476   476   476 MxSgAt=    46 MxSgA2=    46.
 Leave Link  302 at Tue Jul 27 19:32:30 2021, MaxMem=   524288000 cpu:               8.8 elap:               2.6
 (Enter /opt/gaussian/g16_legacy/l303.exe)
 DipDrv:  MaxL=1.
 Leave Link  303 at Tue Jul 27 19:32:30 2021, MaxMem=   524288000 cpu:               0.3 elap:               0.1
 (Enter /opt/gaussian/g16_legacy/l401.exe)
 ExpMin= 1.61D-01 ExpMax= 5.48D+03 ExpMxC= 8.25D+02 IAcc=3 IRadAn=         5 AccDes= 0.00D+00
 Harris functional with IExCor= 1009 and IRadAn=       5 diagonalized for initial guess.
 HarFok:  IExCor= 1009 AccDes= 0.00D+00 IRadAn=         5 IDoV= 1 UseB2=F ITyADJ=14
 ICtDFT=  3500011 ScaDFX=  1.000000  1.000000  1.000000  1.000000
 FoFCou: FMM=F IPFlag=           0 FMFlag=      100000 FMFlg1=           0
         NFxFlg=           0 DoJE=T BraDBF=F KetDBF=T FulRan=T
         wScrn=  0.000000 ICntrl=       500 IOpCl=  0 I1Cent=   200000004 NGrid=           0
         NMat0=    1 NMatS0=      1 NMatT0=    0 NMatD0=    1 NMtDS0=    0 NMtDT0=    0
 Petite list used in FoFCou.
 Harris En= -1373.60490299386    
 JPrj=0 DoOrth=F DoCkMO=F.
 Leave Link  401 at Tue Jul 27 19:32:42 2021, MaxMem=   524288000 cpu:              46.0 elap:              11.7
 (Enter /opt/gaussian/g16_legacy/l502.exe)
 Integral symmetry usage will be decided dynamically.
 Closed shell SCF:
 Using DIIS extrapolation, IDIIS=  1040.
 NGot=   524288000 LenX=   523759406 LenY=   523498796
 Requested convergence on RMS density matrix=1.00D-08 within 128 cycles.
 Requested convergence on MAX density matrix=1.00D-06.
 Requested convergence on             energy=1.00D-06.
 No special actions if energy rises.
 Fock matrices will be formed incrementally for  20 cycles.
 Integral accuracy reduced to 1.0D-05 until final iterations.

 Cycle   1  Pass 0  IDiag  1:
 FoFJK:  IHMeth= 1 ICntrl=       0 DoSepK=F KAlg= 0 I1Cent=           0 FoldK=F
 IRaf= 520000000 NMat=       1 IRICut=       1 DoRegI=T DoRafI=F ISym2E= 0 IDoP0=0 IntGTp=1.
 FoFCou: FMM=F IPFlag=           0 FMFlag=      100000 FMFlg1=           0
         NFxFlg=           0 DoJE=F BraDBF=F KetDBF=F FulRan=T
         wScrn=  0.000000 ICntrl=         0 IOpCl=  0 I1Cent=           0 NGrid=           0
         NMat0=    1 NMatS0=      1 NMatT0=    0 NMatD0=    1 NMtDS0=    0 NMtDT0=    0
 Symmetry not used in FoFCou.
 E= -1373.71762797089    
 DIIS: error= 2.72D-02 at cycle   1 NSaved=   1.
 NSaved= 1 IEnMin= 1 EnMin= -1373.71762797089     IErMin= 1 ErrMin= 2.72D-02
 ErrMax= 2.72D-02  0.00D+00 EMaxC= 1.00D-01 BMatC= 7.51D-01 BMatP= 7.51D-01
 IDIUse=3 WtCom= 7.28D-01 WtEn= 2.72D-01
 Coeff-Com:  0.100D+01
 Coeff-En:   0.100D+01
 Coeff:      0.100D+01
 Gap=     0.284 Goal=   None    Shift=    0.000
 GapD=    0.284 DampG=1.000 DampE=0.500 DampFc=0.5000 IDamp=-1.
 Damping current iteration by 5.00D-01
 RMSDP=2.98D-03 MaxDP=1.34D-01              OVMax= 1.85D-01

 Cycle   2  Pass 0  IDiag  1:
 RMSU=  1.47D-03    CP:  9.85D-01
 E= -1373.98117267120     Delta-E=       -0.263544700307 Rises=F Damp=T
 DIIS: error= 1.16D-02 at cycle   2 NSaved=   2.
 NSaved= 2 IEnMin= 2 EnMin= -1373.98117267120     IErMin= 2 ErrMin= 1.16D-02
 ErrMax= 1.16D-02  0.00D+00 EMaxC= 1.00D-01 BMatC= 8.50D-02 BMatP= 7.51D-01
 IDIUse=3 WtCom= 8.84D-01 WtEn= 1.16D-01
 Coeff-Com:  0.191D-01 0.981D+00
 Coeff-En:   0.261D-01 0.974D+00
 Coeff:      0.199D-01 0.980D+00
 Gap=     0.270 Goal=   None    Shift=    0.000
 RMSDP=8.93D-04 MaxDP=2.84D-02 DE=-2.64D-01 OVMax= 1.04D-01

 Cycle   3  Pass 0  IDiag  1:
 RMSU=  8.83D-04    CP:  9.77D-01  9.48D-01
 E= -1374.25736821685     Delta-E=       -0.276195545659 Rises=F Damp=F
 DIIS: error= 5.12D-03 at cycle   3 NSaved=   3.
 NSaved= 3 IEnMin= 3 EnMin= -1374.25736821685     IErMin= 3 ErrMin= 5.12D-03
 ErrMax= 5.12D-03  0.00D+00 EMaxC= 1.00D-01 BMatC= 5.67D-02 BMatP= 8.50D-02
 IDIUse=3 WtCom= 9.49D-01 WtEn= 5.12D-02
 Coeff-Com: -0.857D-01 0.476D+00 0.609D+00
 Coeff-En:   0.000D+00 0.000D+00 0.100D+01
 Coeff:     -0.813D-01 0.452D+00 0.629D+00
 Gap=     0.278 Goal=   None    Shift=    0.000
 RMSDP=5.43D-04 MaxDP=2.64D-02 DE=-2.76D-01 OVMax= 5.06D-02

 Cycle   4  Pass 0  IDiag  1:
 RMSU=  3.17D-04    CP:  9.80D-01  1.08D+00  5.51D-01
 E= -1374.29543226281     Delta-E=       -0.038064045958 Rises=F Damp=F
 DIIS: error= 2.04D-03 at cycle   4 NSaved=   4.
 NSaved= 4 IEnMin= 4 EnMin= -1374.29543226281     IErMin= 4 ErrMin= 2.04D-03
 ErrMax= 2.04D-03  0.00D+00 EMaxC= 1.00D-01 BMatC= 9.29D-03 BMatP= 5.67D-02
 IDIUse=3 WtCom= 9.80D-01 WtEn= 2.04D-02
 Coeff-Com: -0.349D-01 0.103D+00 0.331D+00 0.601D+00
 Coeff-En:   0.000D+00 0.000D+00 0.125D+00 0.875D+00
 Coeff:     -0.342D-01 0.101D+00 0.327D+00 0.607D+00
 Gap=     0.274 Goal=   None    Shift=    0.000
 RMSDP=1.89D-04 MaxDP=7.84D-03 DE=-3.81D-02 OVMax= 1.39D-02

 Cycle   5  Pass 0  IDiag  1:
 RMSU=  8.52D-05    CP:  9.79D-01  1.05D+00  6.81D-01  6.37D-01
 E= -1374.30257015663     Delta-E=       -0.007137893815 Rises=F Damp=F
 DIIS: error= 4.05D-04 at cycle   5 NSaved=   5.
 NSaved= 5 IEnMin= 5 EnMin= -1374.30257015663     IErMin= 5 ErrMin= 4.05D-04
 ErrMax= 4.05D-04  0.00D+00 EMaxC= 1.00D-01 BMatC= 3.68D-04 BMatP= 9.29D-03
 IDIUse=3 WtCom= 9.96D-01 WtEn= 4.05D-03
 Coeff-Com: -0.933D-02 0.186D-01 0.114D+00 0.271D+00 0.606D+00
 Coeff-En:   0.000D+00 0.000D+00 0.000D+00 0.000D+00 0.100D+01
 Coeff:     -0.930D-02 0.185D-01 0.113D+00 0.270D+00 0.608D+00
 Gap=     0.275 Goal=   None    Shift=    0.000
 RMSDP=3.94D-05 MaxDP=1.83D-03 DE=-7.14D-03 OVMax= 3.38D-03

 Cycle   6  Pass 0  IDiag  1:
 RMSU=  2.97D-05    CP:  9.79D-01  1.05D+00  6.85D-01  6.73D-01  7.38D-01
 E= -1374.30287180809     Delta-E=       -0.000301651466 Rises=F Damp=F
 DIIS: error= 1.35D-04 at cycle   6 NSaved=   6.
 NSaved= 6 IEnMin= 6 EnMin= -1374.30287180809     IErMin= 6 ErrMin= 1.35D-04
 ErrMax= 1.35D-04  0.00D+00 EMaxC= 1.00D-01 BMatC= 3.20D-05 BMatP= 3.68D-04
 IDIUse=3 WtCom= 9.99D-01 WtEn= 1.35D-03
 Coeff-Com: -0.127D-02 0.403D-03 0.257D-01 0.667D-01 0.273D+00 0.635D+00
 Coeff-En:   0.000D+00 0.000D+00 0.000D+00 0.000D+00 0.000D+00 0.100D+01
 Coeff:     -0.127D-02 0.402D-03 0.257D-01 0.666D-01 0.273D+00 0.636D+00
 Gap=     0.275 Goal=   None    Shift=    0.000
 RMSDP=1.29D-05 MaxDP=5.12D-04 DE=-3.02D-04 OVMax= 1.16D-03

 Cycle   7  Pass 0  IDiag  1:
 RMSU=  9.21D-06    CP:  9.79D-01  1.05D+00  6.88D-01  6.77D-01  7.91D-01
                    CP:  7.66D-01
 E= -1374.30290088351     Delta-E=       -0.000029075414 Rises=F Damp=F
 DIIS: error= 7.52D-05 at cycle   7 NSaved=   7.
 NSaved= 7 IEnMin= 7 EnMin= -1374.30290088351     IErMin= 7 ErrMin= 7.52D-05
 ErrMax= 7.52D-05  0.00D+00 EMaxC= 1.00D-01 BMatC= 3.41D-06 BMatP= 3.20D-05
 IDIUse=1 WtCom= 1.00D+00 WtEn= 0.00D+00
 Coeff-Com:  0.103D-02-0.298D-02-0.538D-02-0.143D-01 0.306D-01 0.238D+00
 Coeff-Com:  0.753D+00
 Coeff:      0.103D-02-0.298D-02-0.538D-02-0.143D-01 0.306D-01 0.238D+00
 Coeff:      0.753D+00
 Gap=     0.275 Goal=   None    Shift=    0.000
 RMSDP=5.94D-06 MaxDP=3.35D-04 DE=-2.91D-05 OVMax= 5.10D-04

 Initial convergence to 1.0D-05 achieved.  Increase integral accuracy.
 Cycle   8  Pass 1  IDiag  1:
 E= -1374.30274132659     Delta-E=        0.000159556914 Rises=F Damp=F
 DIIS: error= 4.73D-05 at cycle   1 NSaved=   1.
 NSaved= 1 IEnMin= 1 EnMin= -1374.30274132659     IErMin= 1 ErrMin= 4.73D-05
 ErrMax= 4.73D-05  0.00D+00 EMaxC= 1.00D-01 BMatC= 1.96D-06 BMatP= 1.96D-06
 IDIUse=1 WtCom= 1.00D+00 WtEn= 0.00D+00
 Coeff-Com:  0.100D+01
 Coeff:      0.100D+01
 Gap=     0.275 Goal=   None    Shift=    0.000
 RMSDP=5.94D-06 MaxDP=3.35D-04 DE= 1.60D-04 OVMax= 5.29D-04

 Cycle   9  Pass 1  IDiag  1:
 RMSU=  2.12D-05    CP:  1.00D+00
 E= -1374.30274154198     Delta-E=       -0.000000215383 Rises=F Damp=F
 DIIS: error= 4.52D-05 at cycle   2 NSaved=   2.
 NSaved= 2 IEnMin= 2 EnMin= -1374.30274154198     IErMin= 2 ErrMin= 4.52D-05
 ErrMax= 4.52D-05  0.00D+00 EMaxC= 1.00D-01 BMatC= 2.10D-06 BMatP= 1.96D-06
 IDIUse=1 WtCom= 1.00D+00 WtEn= 0.00D+00
 Coeff-Com:  0.511D+00 0.489D+00
 Coeff:      0.511D+00 0.489D+00
 Gap=     0.275 Goal=   None    Shift=    0.000
 RMSDP=3.18D-06 MaxDP=1.72D-04 DE=-2.15D-07 OVMax= 2.86D-04

 Cycle  10  Pass 1  IDiag  1:
 RMSU=  3.17D-06    CP:  1.00D+00  9.87D-01
 E= -1374.30274306003     Delta-E=       -0.000001518051 Rises=F Damp=F
 DIIS: error= 1.41D-05 at cycle   3 NSaved=   3.
 NSaved= 3 IEnMin= 3 EnMin= -1374.30274306003     IErMin= 3 ErrMin= 1.41D-05
 ErrMax= 1.41D-05  0.00D+00 EMaxC= 1.00D-01 BMatC= 2.11D-07 BMatP= 1.96D-06
 IDIUse=1 WtCom= 1.00D+00 WtEn= 0.00D+00
 Coeff-Com: -0.616D-02 0.232D+00 0.774D+00
 Coeff:     -0.616D-02 0.232D+00 0.774D+00
 Gap=     0.275 Goal=   None    Shift=    0.000
 RMSDP=9.90D-07 MaxDP=4.83D-05 DE=-1.52D-06 OVMax= 8.94D-05

 Cycle  11  Pass 1  IDiag  1:
 RMSU=  6.05D-07    CP:  1.00D+00  1.01D+00  7.99D-01
 E= -1374.30274322558     Delta-E=       -0.000000165549 Rises=F Damp=F
 DIIS: error= 3.36D-06 at cycle   4 NSaved=   4.
 NSaved= 4 IEnMin= 4 EnMin= -1374.30274322558     IErMin= 4 ErrMin= 3.36D-06
 ErrMax= 3.36D-06  0.00D+00 EMaxC= 1.00D-01 BMatC= 1.25D-08 BMatP= 2.11D-07
 IDIUse=1 WtCom= 1.00D+00 WtEn= 0.00D+00
 Coeff-Com: -0.206D-01 0.952D-01 0.363D+00 0.563D+00
 Coeff:     -0.206D-01 0.952D-01 0.363D+00 0.563D+00
 Gap=     0.275 Goal=   None    Shift=    0.000
 RMSDP=2.33D-07 MaxDP=1.50D-05 DE=-1.66D-07 OVMax= 2.67D-05

 Cycle  12  Pass 1  IDiag  1:
 RMSU=  2.20D-07    CP:  1.00D+00  1.01D+00  8.07D-01  8.92D-01
 E= -1374.30274323709     Delta-E=       -0.000000011519 Rises=F Damp=F
 DIIS: error= 9.40D-07 at cycle   5 NSaved=   5.
 NSaved= 5 IEnMin= 5 EnMin= -1374.30274323709     IErMin= 5 ErrMin= 9.40D-07
 ErrMax= 9.40D-07  0.00D+00 EMaxC= 1.00D-01 BMatC= 1.24D-09 BMatP= 1.25D-08
 IDIUse=1 WtCom= 1.00D+00 WtEn= 0.00D+00
 Coeff-Com: -0.428D-02-0.142D-01-0.449D-01 0.167D+00 0.896D+00
 Coeff:     -0.428D-02-0.142D-01-0.449D-01 0.167D+00 0.896D+00
 Gap=     0.275 Goal=   None    Shift=    0.000
 RMSDP=1.39D-07 MaxDP=4.62D-06 DE=-1.15D-08 OVMax= 1.08D-05

 Cycle  13  Pass 1  IDiag  1:
 RMSU=  8.44D-08    CP:  1.00D+00  1.01D+00  8.06D-01  1.06D+00  1.20D+00
 E= -1374.30274323854     Delta-E=       -0.000000001447 Rises=F Damp=F
 DIIS: error= 7.58D-07 at cycle   6 NSaved=   6.
 NSaved= 6 IEnMin= 6 EnMin= -1374.30274323854     IErMin= 6 ErrMin= 7.58D-07
 ErrMax= 7.58D-07  0.00D+00 EMaxC= 1.00D-01 BMatC= 2.86D-10 BMatP= 1.24D-09
 IDIUse=1 WtCom= 1.00D+00 WtEn= 0.00D+00
 Coeff-Com:  0.183D-02-0.234D-01-0.874D-01-0.462D-02 0.447D+00 0.667D+00
 Coeff:      0.183D-02-0.234D-01-0.874D-01-0.462D-02 0.447D+00 0.667D+00
 Gap=     0.275 Goal=   None    Shift=    0.000
 RMSDP=4.75D-08 MaxDP=3.07D-06 DE=-1.45D-09 OVMax= 8.26D-06

 Cycle  14  Pass 1  IDiag  1:
 RMSU=  2.94D-08    CP:  1.00D+00  1.01D+00  8.06D-01  1.10D+00  1.28D+00
                    CP:  7.82D-01
 E= -1374.30274323904     Delta-E=       -0.000000000497 Rises=F Damp=F
 DIIS: error= 2.68D-07 at cycle   7 NSaved=   7.
 NSaved= 7 IEnMin= 7 EnMin= -1374.30274323904     IErMin= 7 ErrMin= 2.68D-07
 ErrMax= 2.68D-07  0.00D+00 EMaxC= 1.00D-01 BMatC= 4.89D-11 BMatP= 2.86D-10
 IDIUse=1 WtCom= 1.00D+00 WtEn= 0.00D+00
 Coeff-Com:  0.145D-02-0.125D-01-0.474D-01-0.189D-01 0.155D+00 0.370D+00
 Coeff-Com:  0.552D+00
 Coeff:      0.145D-02-0.125D-01-0.474D-01-0.189D-01 0.155D+00 0.370D+00
 Coeff:      0.552D+00
 Gap=     0.275 Goal=   None    Shift=    0.000
 RMSDP=1.79D-08 MaxDP=1.19D-06 DE=-4.97D-10 OVMax= 1.67D-06

 Cycle  15  Pass 1  IDiag  1:
 RMSU=  1.09D-08    CP:  1.00D+00  1.01D+00  8.06D-01  1.12D+00  1.30D+00
                    CP:  8.69D-01  8.26D-01
 E= -1374.30274323909     Delta-E=       -0.000000000051 Rises=F Damp=F
 DIIS: error= 4.31D-08 at cycle   8 NSaved=   8.
 NSaved= 8 IEnMin= 8 EnMin= -1374.30274323909     IErMin= 8 ErrMin= 4.31D-08
 ErrMax= 4.31D-08  0.00D+00 EMaxC= 1.00D-01 BMatC= 1.96D-12 BMatP= 4.89D-11
 IDIUse=1 WtCom= 1.00D+00 WtEn= 0.00D+00
 Coeff-Com:  0.225D-03-0.834D-03-0.346D-02-0.382D-02-0.104D-01 0.382D-01
 Coeff-Com:  0.179D+00 0.801D+00
 Coeff:      0.225D-03-0.834D-03-0.346D-02-0.382D-02-0.104D-01 0.382D-01
 Coeff:      0.179D+00 0.801D+00
 Gap=     0.275 Goal=   None    Shift=    0.000
 RMSDP=4.25D-09 MaxDP=1.73D-07 DE=-5.09D-11 OVMax= 5.82D-07

 SCF Done:  E(RM062X) =  -1374.30274324     A.U. after   15 cycles
            NFock= 15  Conv=0.42D-08     -V/T= 2.0087
 KE= 1.362392570538D+03 PE=-7.913490223027D+03 EE= 2.823497943078D+03
 Leave Link  502 at Tue Jul 27 19:39:53 2021, MaxMem=   524288000 cpu:            1721.9 elap:             431.1
 (Enter /opt/gaussian/g16_legacy/l601.exe)
 Copying SCF densities to generalized density rwf, IOpCl= 0 IROHF=0.

 **********************************************************************

            Population analysis using the SCF density.

 **********************************************************************

 Orbital symmetries:
       Occupied  (A) (A) (A) (A) (A) (A) (A) (A) (A) (A) (A) (A)
                 (A) (A) (A) (A) (A) (A) (A) (A) (A) (A) (A) (A)
                 (A) (A) (A) (A) (A) (A) (A) (A) (A) (A) (A) (A)
                 (A) (A) (A) (A) (A) (A) (A) (A) (A) (A) (A) (A)
                 (A) (A) (A) (A) (A) (A) (A) (A) (A) (A) (A) (A)
                 (A) (A) (A) (A) (A) (A) (A) (A) (A) (A) (A) (A)
                 (A) (A) (A) (A) (A) (A) (A) (A) (A) (A) (A) (A)
                 (A) (A) (A) (A) (A) (A) (A) (A) (A) (A) (A) (A)
                 (A) (A) (A) (A) (A)
       Virtual   (A) (A) (A) (A) (A) (A) (A) (A) (A) (A) (A) (A)
                 (A) (A) (A) (A) (A) (A) (A) (A) (A) (A) (A) (A)
                 (A) (A) (A) (A) (A) (A) (A) (A) (A) (A) (A) (A)
                 (A) (A) (A) (A) (A) (A) (A) (A) (A) (A) (A) (A)
                 (A) (A) (A) (A) (A) (A) (A) (A) (A) (A) (A) (A)
                 (A) (A) (A) (A) (A) (A) (A) (A) (A) (A) (A) (A)
                 (A) (A) (A) (A) (A) (A) (A) (A) (A) (A) (A) (A)
                 (A) (A) (A) (A) (A) (A) (A) (A) (A) (A) (A) (A)
                 (A) (A) (A) (A) (A) (A) (A) (A) (A) (A) (A) (A)
                 (A) (A) (A) (A) (A) (A) (A) (A) (A) (A) (A) (A)
                 (A) (A) (A) (A) (A) (A) (A) (A) (A) (A) (A) (A)
                 (A) (A) (A) (A) (A) (A) (A) (A) (A) (A) (A) (A)
                 (A) (A) (A) (A) (A) (A) (A) (A) (A) (A) (A) (A)
                 (A) (A) (A) (A) (A) (A) (A) (A) (A) (A) (A) (A)
                 (A) (A) (A) (A) (A) (A) (A) (A) (A) (A) (A) (A)
                 (A) (A) (A) (A) (A) (A) (A) (A) (A) (A) (A) (A)
                 (A) (A) (A) (A) (A) (A) (A) (A) (A) (A) (A) (A)
                 (A) (A) (A) (A) (A) (A) (A) (A) (A) (A) (A) (A)
                 (A) (A) (A) (A) (A) (A) (A) (A) (A) (A) (A) (A)
                 (A) (A) (A) (A) (A) (A) (A) (A) (A) (A) (A) (A)
                 (A) (A) (A) (A) (A) (A) (A) (A) (A) (A) (A) (A)
                 (A) (A) (A) (A) (A) (A) (A) (A) (A) (A) (A) (A)
                 (A) (A) (A) (A) (A) (A) (A) (A) (A) (A) (A) (A)
                 (A) (A) (A) (A) (A) (A) (A) (A) (A) (A) (A) (A)
                 (A) (A) (A) (A) (A) (A) (A) (A) (A) (A) (A) (A)
                 (A) (A) (A) (A) (A) (A) (A) (A) (A) (A) (A) (A)
                 (A) (A) (A) (A) (A) (A) (A) (A) (A) (A) (A) (A)
                 (A) (A) (A) (A) (A) (A) (A) (A) (A) (A) (A) (A)
                 (A) (A) (A) (A) (A) (A) (A) (A) (A) (A) (A) (A)
                 (A) (A) (A) (A) (A) (A) (A) (A) (A) (A) (A) (A)
                 (A) (A) (A) (A) (A) (A) (A) (A) (A) (A) (A) (A)
                 (A) (A) (A) (A) (A) (A) (A) (A) (A) (A) (A) (A)
                 (A) (A) (A) (A) (A) (A) (A) (A) (A) (A) (A) (A)
                 (A) (A) (A) (A) (A) (A) (A) (A) (A) (A) (A) (A)
                 (A)
 The electronic state is 1-A.
 Alpha  occ. eigenvalues --  -19.70314 -19.70153 -19.69611 -19.69433 -19.64632
 Alpha  occ. eigenvalues --  -19.64460 -19.64012 -19.63980 -10.69880 -10.69692
 Alpha  occ. eigenvalues --  -10.69574 -10.69314 -10.62692 -10.62233 -10.61069
 Alpha  occ. eigenvalues --  -10.58433 -10.58413 -10.58223 -10.58104 -10.57694
 Alpha  occ. eigenvalues --  -10.57602 -10.57441 -10.57390 -10.57331 -10.57294
 Alpha  occ. eigenvalues --  -10.57153 -10.57047 -10.54553  -1.24441  -1.24207
 Alpha  occ. eigenvalues --   -1.23627  -1.23252  -1.15081  -1.14503  -1.14229
 Alpha  occ. eigenvalues --   -1.13862  -0.98297  -0.98035  -0.91142  -0.89679
 Alpha  occ. eigenvalues --   -0.88001  -0.86235  -0.85863  -0.85611  -0.80035
 Alpha  occ. eigenvalues --   -0.77353  -0.75532  -0.72334  -0.70832  -0.70227
 Alpha  occ. eigenvalues --   -0.69500  -0.67193  -0.65654  -0.64493  -0.63117
 Alpha  occ. eigenvalues --   -0.62746  -0.60530  -0.59804  -0.59051  -0.58269
 Alpha  occ. eigenvalues --   -0.57451  -0.56991  -0.56142  -0.55247  -0.54753
 Alpha  occ. eigenvalues --   -0.54083  -0.53223  -0.53099  -0.53008  -0.52200
 Alpha  occ. eigenvalues --   -0.51834  -0.50771  -0.50608  -0.49970  -0.49747
 Alpha  occ. eigenvalues --   -0.48360  -0.48040  -0.47565  -0.46411  -0.46126
 Alpha  occ. eigenvalues --   -0.45306  -0.44475  -0.44191  -0.43834  -0.43410
 Alpha  occ. eigenvalues --   -0.43028  -0.41786  -0.41669  -0.40734  -0.39685
 Alpha  occ. eigenvalues --   -0.38715  -0.38174  -0.37339  -0.36417  -0.36347
 Alpha  occ. eigenvalues --   -0.35926  -0.35682  -0.32602  -0.32322  -0.32177
 Alpha  occ. eigenvalues --   -0.31924
 Alpha virt. eigenvalues --   -0.04383  -0.04229   0.01508   0.01741   0.04937
 Alpha virt. eigenvalues --    0.05083   0.11717   0.12454   0.12802   0.13036
 Alpha virt. eigenvalues --    0.14126   0.14931   0.15069   0.15697   0.16078
 Alpha virt. eigenvalues --    0.17550   0.18237   0.18664   0.19047   0.19386
 Alpha virt. eigenvalues --    0.19948   0.20348   0.20727   0.21559   0.21869
 Alpha virt. eigenvalues --    0.22235   0.22615   0.22820   0.23294   0.23795
 Alpha virt. eigenvalues --    0.24845   0.25485   0.26912   0.28159   0.28711
 Alpha virt. eigenvalues --    0.29302   0.29627   0.30718   0.31401   0.31906
 Alpha virt. eigenvalues --    0.32359   0.32926   0.33316   0.33527   0.33809
 Alpha virt. eigenvalues --    0.37347   0.37990   0.38517   0.39052   0.44314
 Alpha virt. eigenvalues --    0.44465   0.47668   0.48965   0.50783   0.51551
 Alpha virt. eigenvalues --    0.53073   0.53527   0.54199   0.54738   0.55277
 Alpha virt. eigenvalues --    0.55756   0.55962   0.57312   0.57585   0.57986
 Alpha virt. eigenvalues --    0.58602   0.58802   0.59166   0.59730   0.60002
 Alpha virt. eigenvalues --    0.60708   0.61028   0.62168   0.62518   0.62601
 Alpha virt. eigenvalues --    0.62856   0.63128   0.63366   0.63544   0.64531
 Alpha virt. eigenvalues --    0.64967   0.65243   0.66276   0.66567   0.67955
 Alpha virt. eigenvalues --    0.68891   0.69167   0.69375   0.69786   0.70964
 Alpha virt. eigenvalues --    0.71376   0.71962   0.74115   0.74973   0.75670
 Alpha virt. eigenvalues --    0.75831   0.77163   0.77505   0.78661   0.79101
 Alpha virt. eigenvalues --    0.80121   0.81360   0.81642   0.82247   0.82832
 Alpha virt. eigenvalues --    0.83032   0.83757   0.84760   0.85095   0.85869
 Alpha virt. eigenvalues --    0.86362   0.86659   0.87150   0.87535   0.87586
 Alpha virt. eigenvalues --    0.88409   0.88805   0.89103   0.89829   0.90678
 Alpha virt. eigenvalues --    0.91709   0.93203   0.93597   0.94047   0.94462
 Alpha virt. eigenvalues --    0.95168   0.96592   0.97185   0.98908   0.99400
 Alpha virt. eigenvalues --    0.99709   0.99846   0.99994   1.01079   1.01584
 Alpha virt. eigenvalues --    1.01795   1.03289   1.04230   1.05161   1.05864
 Alpha virt. eigenvalues --    1.06546   1.07975   1.08420   1.09430   1.10764
 Alpha virt. eigenvalues --    1.10891   1.11470   1.12613   1.13958   1.14746
 Alpha virt. eigenvalues --    1.16505   1.16639   1.17925   1.18909   1.20285
 Alpha virt. eigenvalues --    1.22103   1.23281   1.24296   1.27344   1.27796
 Alpha virt. eigenvalues --    1.28227   1.28254   1.29382   1.29804   1.31614
 Alpha virt. eigenvalues --    1.32459   1.32732   1.33666   1.33840   1.34443
 Alpha virt. eigenvalues --    1.34846   1.35220   1.36042   1.36283   1.37299
 Alpha virt. eigenvalues --    1.38668   1.41645   1.41991   1.42337   1.42589
 Alpha virt. eigenvalues --    1.42871   1.43777   1.44265   1.44575   1.44981
 Alpha virt. eigenvalues --    1.46641   1.47022   1.47469   1.48506   1.49491
 Alpha virt. eigenvalues --    1.50637   1.51036   1.52076   1.56062   1.57404
 Alpha virt. eigenvalues --    1.59071   1.61125   1.61167   1.63448   1.64416
 Alpha virt. eigenvalues --    1.67855   1.68309   1.68823   1.69996   1.70678
 Alpha virt. eigenvalues --    1.71221   1.72674   1.75339   1.76813   1.77831
 Alpha virt. eigenvalues --    1.78142   1.78687   1.79273   1.79689   1.80156
 Alpha virt. eigenvalues --    1.81510   1.82173   1.82942   1.83355   1.86788
 Alpha virt. eigenvalues --    1.88052   1.88832   1.88970   1.89784   1.90051
 Alpha virt. eigenvalues --    1.90369   1.90712   1.90935   1.92222   1.92753
 Alpha virt. eigenvalues --    1.92999   1.93479   1.94077   1.94688   1.95276
 Alpha virt. eigenvalues --    1.95923   1.96527   1.97316   1.98565   1.98822
 Alpha virt. eigenvalues --    1.99639   1.99671   1.99844   2.00473   2.00782
 Alpha virt. eigenvalues --    2.02479   2.03152   2.03463   2.04550   2.06552
 Alpha virt. eigenvalues --    2.07040   2.08358   2.08612   2.10069   2.10405
 Alpha virt. eigenvalues --    2.11023   2.11661   2.12391   2.12540   2.12693
 Alpha virt. eigenvalues --    2.13114   2.13126   2.13408   2.14760   2.15237
 Alpha virt. eigenvalues --    2.17767   2.18981   2.20374   2.22301   2.23180
 Alpha virt. eigenvalues --    2.26594   2.27128   2.28747   2.29015   2.30223
 Alpha virt. eigenvalues --    2.30813   2.31487   2.31983   2.33173   2.33324
 Alpha virt. eigenvalues --    2.34981   2.36444   2.39063   2.40021   2.40225
 Alpha virt. eigenvalues --    2.40905   2.41183   2.41813   2.42251   2.42527
 Alpha virt. eigenvalues --    2.42753   2.43374   2.43641   2.43831   2.44798
 Alpha virt. eigenvalues --    2.45946   2.46512   2.49084   2.53041   2.53148
 Alpha virt. eigenvalues --    2.54131   2.54503   2.55575   2.56710   2.57047
 Alpha virt. eigenvalues --    2.57948   2.58866   2.59655   2.59799   2.60425
 Alpha virt. eigenvalues --    2.60983   2.61867   2.62788   2.63301   2.63701
 Alpha virt. eigenvalues --    2.64182   2.65141   2.66109   2.67493   2.67927
 Alpha virt. eigenvalues --    2.69163   2.70897   2.71352   2.71672   2.72406
 Alpha virt. eigenvalues --    2.73814   2.75218   2.75851   2.76735   2.77121
 Alpha virt. eigenvalues --    2.77753   2.78922   2.79366   2.79604   2.80792
 Alpha virt. eigenvalues --    2.82326   2.83841   2.85407   2.85574   2.86334
 Alpha virt. eigenvalues --    2.88248   2.89556   2.90143   2.93393   2.94575
 Alpha virt. eigenvalues --    2.95683   2.97147   2.99782   3.00156   3.01086
 Alpha virt. eigenvalues --    3.01519   3.04580   3.04808   3.12788   3.14901
 Alpha virt. eigenvalues --    3.15138   3.16396   3.18031   3.18640   3.19475
 Alpha virt. eigenvalues --    3.21910   3.22298   3.23361   3.23895   3.27662
 Alpha virt. eigenvalues --    3.28665   3.29111   3.35382   3.36218   3.37471
 Alpha virt. eigenvalues --    3.38361   3.39670   3.40129   3.44551   3.45157
 Alpha virt. eigenvalues --    3.48388   3.49636   3.50041   3.52267   3.80686
 Alpha virt. eigenvalues --    3.80910   3.95827   3.99088   4.02163   4.04845
 Alpha virt. eigenvalues --    4.11512   4.12139   4.16409   4.16656   4.16703
 Alpha virt. eigenvalues --    4.18006   4.26992   4.28757   4.36923   4.37886
[...]
    44  H   -0.000000   0.000000  -0.000000  -0.000000   0.000000  -0.000000
    45  H    0.000000   0.000000  -0.000000  -0.000000  -0.000000  -0.000000
    46  H    0.000000   0.000000  -0.000000   0.000000  -0.000000  -0.015109
              25         26         27         28         29         30
     1  C   -0.000001   0.000018   0.000000  -0.000000   0.000000   0.000000
     2  C   -0.000000  -0.000000   0.000000  -0.000000  -0.000000   0.000000
     3  H   -0.000000   0.000000   0.000000  -0.000000   0.000000  -0.000000
     4  C    0.000000  -0.000000  -0.000000   0.000000  -0.000000   0.000000
     5  H    0.000000  -0.000000   0.000000   0.000000  -0.000000   0.000000
     6  C    0.000001  -0.000006  -0.000000   0.000000  -0.000000   0.000000
     7  C   -0.000006   0.000010   0.000000  -0.000000   0.000000  -0.000000
     8  H   -0.000009   0.000102  -0.000000  -0.000000   0.000000  -0.000000
     9  C   -0.000000   0.000001   0.000000  -0.000000   0.000000  -0.000000
    10  H    0.000000  -0.000000  -0.000000   0.000000  -0.000000   0.000000
    11  C   -0.000000   0.000000   0.000000  -0.000000   0.000000  -0.000000
    12  O   -0.000000   0.000000   0.000000  -0.000000   0.000000   0.000000
    13  C    0.000000  -0.000000  -0.000000   0.000000  -0.000000   0.000000
    14  O   -0.000000   0.000000   0.000000  -0.000000   0.000000  -0.000000
    15  O   -0.000077   0.000359  -0.000000  -0.000000   0.000000  -0.000000
    16  O   -0.000000   0.000000  -0.000000  -0.000000   0.000000  -0.000000
    17  C    0.000000  -0.000000  -0.000000   0.000000  -0.000000   0.000000
    18  H    0.000000  -0.000000  -0.000000   0.000000  -0.000000   0.000000
    19  H    0.000000  -0.000000  -0.000000   0.000000  -0.000000   0.000000
    20  C   -0.000000   0.000000   0.000000  -0.000000   0.000000  -0.000000
    21  H    0.000000  -0.000000  -0.000000   0.000000  -0.000000   0.000000
    22  H    0.000000  -0.000000  -0.000000   0.000000  -0.000000   0.000000
    23  H    0.000000  -0.000000   0.000000  -0.000000   0.000000  -0.000000
    24  C    0.004244  -0.000114  -0.036778  -0.008719   0.308008  -0.042404
    25  C    4.922589   0.375125   0.493906  -0.032326  -0.033099  -0.042502
    26  H    0.375125   0.535182  -0.033445  -0.003861   0.003076   0.000456
    27  C    0.493906  -0.033445   4.923691   0.375842   0.522405  -0.058734
    28  H   -0.032326  -0.003861   0.375842   0.530943  -0.032778   0.004326
    29  C   -0.033099   0.003076   0.522405  -0.032778   5.005815   0.534365
    30  C   -0.042502   0.000456  -0.058734   0.004326   0.534365   4.923234
    31  H    0.000537   0.000015   0.004250  -0.000138  -0.037660   0.376938
    32  C   -0.058366   0.004492  -0.042986   0.000502  -0.036055   0.483754
    33  H    0.004426  -0.000135   0.000495   0.000015   0.002927  -0.031291
    34  C    0.522119  -0.034738  -0.030403   0.002898  -0.028616  -0.034011
    35  O    0.003829   0.000123  -0.000072   0.000000  -0.000011   0.000752
    36  C   -0.042167  -0.009163   0.004342  -0.000128   0.000533   0.005710
    37  O    0.001322   0.008504   0.000347  -0.000001  -0.000003  -0.000051
    38  O    0.000296  -0.000001   0.000628   0.006279  -0.103989   0.004078
    39  O   -0.000063   0.000000   0.003729   0.000105  -0.100229   0.002808
    40  C   -0.000219  -0.000395   0.000000  -0.000000   0.000000   0.000001
    41  H    0.000046   0.000026   0.000001  -0.000000  -0.000000   0.000000
    42  H    0.000031   0.000021   0.000001  -0.000000  -0.000000  -0.000000
    43  C   -0.000050  -0.000086   0.000000  -0.000000   0.000000  -0.000000
    44  H   -0.000000   0.000004   0.000000  -0.000000   0.000000   0.000000
    45  H    0.000006   0.000060   0.000000  -0.000000   0.000000   0.000000
    46  H    0.000005  -0.000000  -0.000562  -0.000195   0.011444  -0.000225
              31         32         33         34         35         36
     1  C   -0.000000  -0.000000  -0.000000  -0.000002  -0.000003  -0.000020
     2  C   -0.000000  -0.000000  -0.000000  -0.000000   0.000000   0.000000
     3  H   -0.000000  -0.000000   0.000000   0.000000   0.000000   0.000000
     4  C    0.000000   0.000000  -0.000000  -0.000000  -0.000000  -0.000000
     5  H    0.000000   0.000000  -0.000000  -0.000000  -0.000000  -0.000000
     6  C    0.000000   0.000000   0.000000  -0.000000  -0.000000  -0.000002
     7  C   -0.000000   0.000000   0.000000   0.000000   0.000000   0.000001
     8  H    0.000000   0.000000  -0.000000  -0.000000   0.000000   0.000000
     9  C   -0.000000   0.000000   0.000000   0.000000  -0.000000   0.000000
    10  H   -0.000000  -0.000000   0.000000   0.000000  -0.000000  -0.000000
    11  C    0.000000   0.000000  -0.000000  -0.000000  -0.000000  -0.000000
    12  O    0.000000   0.000000   0.000000   0.000000   0.000000   0.000000
    13  C    0.000000   0.000000   0.000000   0.000000  -0.000000  -0.000000
    14  O    0.000000   0.000000  -0.000000  -0.000000   0.000000   0.000000
    15  O   -0.000000   0.000000   0.000000  -0.000003  -0.000004   0.000052
    16  O    0.000000  -0.000000   0.000000   0.000000   0.000000   0.000009
    17  C    0.000000  -0.000000  -0.000000   0.000000   0.000000  -0.000000
    18  H    0.000000  -0.000000   0.000000   0.000000   0.000000  -0.000000
    19  H    0.000000  -0.000000   0.000000   0.000000   0.000000   0.000000
    20  C    0.000000   0.000000   0.000000  -0.000000   0.000000   0.000000
    21  H    0.000000   0.000000   0.000000   0.000000   0.000000   0.000000
    22  H    0.000000   0.000000  -0.000000   0.000000   0.000000   0.000000
    23  H    0.000000   0.000000  -0.000000  -0.000000  -0.000000   0.000000
    24  C   -0.008056   0.006625  -0.000130   0.000252  -0.000000   0.000003
    25  C    0.000537  -0.058366   0.004426   0.522119   0.003829  -0.042167
    26  H    0.000015   0.004492  -0.000135  -0.034738   0.000123  -0.009163
    27  C    0.004250  -0.042986   0.000495  -0.030403  -0.000072   0.004342
    28  H   -0.000138   0.000502   0.000015   0.002898   0.000000  -0.000128
    29  C   -0.037660  -0.036055   0.002927  -0.028616  -0.000011   0.000533
    30  C    0.376938   0.483754  -0.031291  -0.034011   0.000752   0.005710
    31  H    0.520267  -0.031086  -0.003252   0.002878   0.000001  -0.000136
    32  C   -0.031086   4.919958   0.376371   0.530855   0.002000  -0.039354
    33  H   -0.003252   0.376371   0.520488  -0.038148   0.010712  -0.007668
    34  C    0.002878   0.530855  -0.038148   4.965805  -0.087122   0.355184
    35  O    0.000001   0.002000   0.010712  -0.087122   8.078215   0.561606
    36  C   -0.000136  -0.039354  -0.007668   0.355184   0.561606   4.279110
    37  O    0.000000   0.004147   0.000286  -0.098897  -0.092091   0.267737
    38  O    0.000267  -0.000047   0.000000  -0.000005  -0.000000  -0.000000
    39  O    0.009841   0.000863   0.000001  -0.000019  -0.000000  -0.000000
    40  C   -0.000000  -0.000129  -0.000012   0.007008   0.000428  -0.023782
    41  H   -0.000000  -0.000003  -0.000001  -0.000002   0.006254  -0.004332
    42  H    0.000000  -0.000003  -0.000001  -0.000086   0.003951  -0.003333
    43  C    0.000000   0.000000  -0.000000  -0.000014   0.000875   0.003677
    44  H   -0.000000  -0.000000  -0.000000   0.000005   0.000011   0.000042
    45  H    0.000000  -0.000000   0.000000  -0.000057  -0.000011  -0.000042
    46  H   -0.000018   0.000001  -0.000000   0.000001   0.000000   0.000000
              37         38         39         40         41         42
     1  C    0.001474   0.000000  -0.000000  -0.004706   0.000205   0.003713
     2  C    0.000000  -0.000000   0.000000   0.000000   0.000000  -0.000000
     3  H    0.000000   0.000000   0.000000   0.000000  -0.000000  -0.000000
     4  C   -0.000001   0.000000   0.000000   0.000023  -0.000000   0.000001
     5  H   -0.000000   0.000000   0.000000   0.000002  -0.000000   0.000001
     6  C   -0.000072  -0.000000   0.000000  -0.000642   0.000002   0.000171
     7  C    0.000016  -0.000000  -0.000000   0.000016   0.000000  -0.000026
     8  H    0.000013   0.000000   0.000000   0.000018  -0.000000  -0.000001
     9  C    0.000000   0.000000  -0.000000   0.000000  -0.000000   0.000000
    10  H   -0.000000  -0.000000  -0.000000   0.000000  -0.000000  -0.000000
    11  C    0.000000   0.000000   0.000000  -0.000000   0.000000   0.000000
    12  O   -0.000000   0.000000   0.000000  -0.000000  -0.000000  -0.000000
    13  C   -0.000000  -0.000000   0.000000   0.000000  -0.000000   0.000000
    14  O    0.000000   0.000000   0.000000  -0.000000   0.000000  -0.000000
    15  O    0.001031   0.000000  -0.000000  -0.037161   0.002809  -0.006054
    16  O    0.000050   0.000000   0.000000  -0.005264   0.000081   0.005910
    17  C   -0.000000  -0.000000   0.000000   0.000000   0.000000   0.000000
    18  H   -0.000000   0.000000   0.000000  -0.000000  -0.000000  -0.000000
    19  H   -0.000000   0.000000   0.000000   0.000000  -0.000000  -0.000000
    20  C    0.000000   0.000000   0.000000  -0.000000   0.000000  -0.000000
    21  H    0.000000   0.000000   0.000000  -0.000000   0.000000  -0.000000
    22  H   -0.000000   0.000000   0.000000  -0.000000  -0.000000  -0.000000
    23  H    0.000000  -0.000000   0.000000   0.000000  -0.000000  -0.000000
    24  C   -0.000000   0.279782   0.595476   0.000000  -0.000000  -0.000000
    25  C    0.001322   0.000296  -0.000063  -0.000219   0.000046   0.000031
    26  H    0.008504  -0.000001   0.000000  -0.000395   0.000026   0.000021
    27  C    0.000347   0.000628   0.003729   0.000000   0.000001   0.000001
    28  H   -0.000001   0.006279   0.000105  -0.000000  -0.000000  -0.000000
    29  C   -0.000003  -0.103989  -0.100229   0.000000  -0.000000  -0.000000
    30  C   -0.000051   0.004078   0.002808   0.000001   0.000000  -0.000000
    31  H    0.000000   0.000267   0.009841  -0.000000  -0.000000   0.000000
    32  C    0.004147  -0.000047   0.000863  -0.000129  -0.000003  -0.000003
    33  H    0.000286   0.000000   0.000001  -0.000012  -0.000001  -0.000001
    34  C   -0.098897  -0.000005  -0.000019   0.007008  -0.000002  -0.000086
    35  O   -0.092091  -0.000000  -0.000000   0.000428   0.006254   0.003951
    36  C    0.267737  -0.000000  -0.000000  -0.023782  -0.004332  -0.003333
    37  O    8.358478   0.000000  -0.000000   0.179465  -0.032698  -0.034968
    38  O    0.000000   8.161904  -0.097301  -0.000000   0.000000   0.000000
    39  O   -0.000000  -0.097301   8.056990   0.000000  -0.000000  -0.000000
    40  C    0.179465  -0.000000   0.000000   4.834899   0.383287   0.392844
    41  H   -0.032698   0.000000  -0.000000   0.383287   0.562908  -0.033507
    42  H   -0.034968   0.000000  -0.000000   0.392844  -0.033507   0.528532
    43  C   -0.047118  -0.000000   0.000000   0.349797  -0.035182  -0.032231
    44  H    0.002792   0.000000  -0.000000  -0.041524   0.001308  -0.001824
    45  H   -0.000469   0.000000  -0.000000  -0.039066  -0.002301   0.004285
    46  H    0.000000   0.284565   0.006547  -0.000000   0.000000   0.000000
              43         44         45         46
     1  C   -0.027628  -0.006626   0.003610  -0.000000
     2  C    0.000001   0.000000  -0.000000   0.000000
     3  H   -0.000000  -0.000000   0.000000   0.000000
     4  C   -0.000165  -0.000020   0.000003  -0.000000
     5  H   -0.000013  -0.000005   0.000000  -0.000000
     6  C    0.007626   0.000028   0.000046   0.000000
     7  C   -0.000278   0.000058  -0.000058   0.000000
     8  H   -0.000249   0.000019  -0.000007  -0.000000
     9  C    0.000003   0.000001  -0.000001  -0.000000
    10  H   -0.000000  -0.000000  -0.000000   0.000000
    11  C    0.000000  -0.000000   0.000000  -0.000000
    12  O    0.000000  -0.000000   0.000000   0.000000
    13  C    0.000000  -0.000000   0.000000   0.000000
    14  O    0.000000   0.000000  -0.000000  -0.000000
    15  O    0.186824  -0.031459  -0.036261   0.000000
    16  O   -0.001419   0.011901   0.000366  -0.000000
    17  C   -0.000000   0.000000  -0.000000  -0.000000
    18  H    0.000000   0.000000  -0.000000   0.000000
    19  H   -0.000000  -0.000000   0.000000   0.000000
    20  C    0.000000   0.000000   0.000000   0.000000
    21  H    0.000000  -0.000000  -0.000000  -0.000000
    22  H    0.000000  -0.000000  -0.000000   0.000000
    23  H    0.000000   0.000000  -0.000000  -0.000000
    24  C    0.000000  -0.000000  -0.000000  -0.015109
    25  C   -0.000050  -0.000000   0.000006   0.000005
    26  H   -0.000086   0.000004   0.000060  -0.000000
    27  C    0.000000   0.000000   0.000000  -0.000562
    28  H   -0.000000  -0.000000  -0.000000  -0.000195
    29  C    0.000000   0.000000   0.000000   0.011444
    30  C   -0.000000   0.000000   0.000000  -0.000225
    31  H    0.000000  -0.000000   0.000000  -0.000018
    32  C    0.000000  -0.000000  -0.000000   0.000001
    33  H   -0.000000  -0.000000   0.000000  -0.000000
    34  C   -0.000014   0.000005  -0.000057   0.000001
    35  O    0.000875   0.000011  -0.000011   0.000000
    36  C    0.003677   0.000042  -0.000042   0.000000
    37  O   -0.047118   0.002792  -0.000469   0.000000
    38  O   -0.000000   0.000000   0.000000   0.284565
    39  O    0.000000  -0.000000  -0.000000   0.006547
    40  C    0.349797  -0.041524  -0.039066  -0.000000
    41  H   -0.035182   0.001308  -0.002301   0.000000
    42  H   -0.032231  -0.001824   0.004285   0.000000
    43  C    4.824237   0.384559   0.397199  -0.000000
    44  H    0.384559   0.547606  -0.026298  -0.000000
    45  H    0.397199  -0.026298   0.546884   0.000000
    46  H   -0.000000  -0.000000   0.000000   0.360348
 Mulliken charges:
               1
     1  C    0.647279
     2  C   -0.124961
     3  H    0.164278
     4  C   -0.123892
     5  H    0.163879
     6  C   -0.032146
     7  C   -0.121643
     8  H    0.152840
     9  C   -0.123700
    10  H    0.154404
    11  C   -0.030007
    12  O   -0.494141
    13  C    0.647659
    14  O   -0.514813
    15  O   -0.511488
    16  O   -0.494376
    17  C    0.006418
    18  H    0.150212
    19  H    0.136272
    20  C   -0.387698
    21  H    0.131460
    22  H    0.158687
    23  H    0.135835
    24  C    0.602451
    25  C   -0.119598
    26  H    0.154371
    27  C   -0.126658
    28  H    0.157237
    29  C   -0.016132
    30  C   -0.127205
    31  H    0.165350
    32  C   -0.121542
    33  H    0.164918
    34  C   -0.034882
    35  O   -0.489444
    36  C    0.652124
    37  O   -0.519295
    38  O   -0.536456
    39  O   -0.478750
    40  C    0.005110
    41  H    0.151099
    42  H    0.172573
    43  C   -0.010366
    44  H    0.159425
    45  H    0.152115
    46  H    0.353198
 Sum of Mulliken charges =  -0.00000
 Mulliken charges with hydrogens summed into heavy atoms:
               1
     1  C    0.647279
     2  C    0.039316
     4  C    0.039986
     6  C   -0.032146
     7  C    0.031197
     9  C    0.030703
    11  C   -0.030007
    12  O   -0.494141
    13  C    0.647659
    14  O   -0.514813
    15  O   -0.511488
    16  O   -0.494376
    17  C    0.292902
    20  C    0.038284
    24  C    0.602451
    25  C    0.034773
    27  C    0.030579
    29  C   -0.016132
    30  C    0.038145
    32  C    0.043376
    34  C   -0.034882
    35  O   -0.489444
    36  C    0.652124
    37  O   -0.519295
    38  O   -0.183259
    39  O   -0.478750
    40  C    0.328783
    43  C    0.301173
 Electronic spatial extent (au):  <R**2>=          18552.7678
 Charge=              0.0000 electrons
 Dipole moment (field-independent basis, Debye):
    X=              1.0846    Y=              2.3894    Z=              4.0253  Tot=              4.8051
 Quadrupole moment (field-independent basis, Debye-Ang):
   XX=           -176.1553   YY=           -145.6113   ZZ=           -157.9449
   XY=             10.2999   XZ=             -2.6464   YZ=             -0.5550
 Traceless Quadrupole moment (field-independent basis, Debye-Ang):
   XX=            -16.2515   YY=             14.2926   ZZ=              1.9589
   XY=             10.2999   XZ=             -2.6464   YZ=             -0.5550
 Octapole moment (field-independent basis, Debye-Ang**2):
  XXX=             84.1910  YYY=             99.9057  ZZZ=              7.6439  XYY=             25.2585
  XXY=             47.2564  XXZ=             84.1021  XZZ=             -5.6154  YZZ=              0.4717
  YYZ=             69.4266  XYZ=             -0.3533
 Hexadecapole moment (field-independent basis, Debye-Ang**3):
 XXXX=         -18279.5817 YYYY=          -5503.6549 ZZZZ=           -731.1512 XXXY=            683.8867
 XXXZ=            120.1083 YYYX=             -6.7084 YYYZ=             10.8238 ZZZX=             -8.8997
 ZZZY=             10.2915 XXYY=          -3559.7921 XXZZ=          -3003.0065 YYZZ=          -1117.7438
 XXYZ=            288.9961 YYXZ=           -234.3632 ZZXY=            -37.6373
 N-N= 2.370606745102D+03 E-N=-7.948726904065D+03  KE= 1.363040779221D+03
 No NMR shielding tensors so no spin-rotation constants.
 Leave Link  601 at Tue Jul 27 20:55:43 2021, MaxMem=   524288000 cpu:               2.3 elap:               0.7
 (Enter /opt/gaussian/g16_legacy/l9999.exe)
 1\1\GINC-TRUENO90\FOpt\RM062X\6-31G(d,p)\C20H18O8\JRAMOS\27-Jul-2021\0
 \\#p opt=loose m062x/6-31g(d,p)\\Conformer number 1602. Energy MM = 73
 .121 kcal/mol\\0,1\C,0.9558673167,-3.0461931681,-0.224959946\C,4.09924
 3446,-1.0659717816,-0.7483099802\H,4.9633479384,-1.0479836257,-1.40332
 27026\C,3.098375891,-2.0153883149,-0.8917950988\H,3.1429043626,-2.7747
 969923,-1.6647408642\C,2.0027249333,-2.0025261717,-0.0262971506\C,1.90
 5075617,-1.0413897963,0.9816592172\H,1.047142724,-1.0452399678,1.64360
 36327\C,2.9079158248,-0.0905780346,1.124765451\H,2.8497970964,0.663270
 5379,1.9008871237\C,4.0035633309,-0.1048231594,0.2597931424\O,6.073209
 2785,0.9129516943,-0.3603675168\C,5.1099538372,0.894274311,0.369330893
 8\O,4.915311045,1.763877632,1.3718083622\O,-0.045428525,-2.9465702618,
 0.6688911537\O,0.9946876387,-3.8930185671,-1.0861249818\C,5.9331185596
 ,2.7654243232,1.5383663032\H,6.9115704872,2.2920151531,1.4300362095\H,
 5.8079308343,3.1130676837,2.5649940117\C,5.7560562646,3.8930931948,0.5
 393033353\H,6.492532586,4.6777149401,0.7300825065\H,5.8996554752,3.522
 9077956,-0.4771609669\H,4.7572226495,4.326780143,0.6260770062\C,-5.767
 5262557,3.2922356367,0.2586703818\C,-3.5913189744,0.1947682008,0.39509
 3072\H,-2.7759778153,-0.2278150939,0.9705869007\C,-4.1186637812,1.4395
 135104,0.7157542927\H,-3.7250903183,2.0093192081,1.5494267076\C,-5.166
 2585224,1.9623560858,-0.0444402193\C,-5.6873173803,1.2478951742,-1.125
 0230757\H,-6.5003494518,1.6847679295,-1.6944768751\C,-5.1596186497,0.0
 063363862,-1.4463792498\H,-5.5387834469,-0.5738075022,-2.2805567098\C,
 -4.1139492579,-0.5190610184,-0.684861582\O,-3.9620296796,-2.4926470829
 ,-2.0277700521\C,-3.5813670867,-1.8585677094,-1.0738591411\O,-2.623572
 5379,-2.2905333148,-0.2364187129\O,-5.1941071078,3.8991470256,1.314729
 9624\O,-6.6731507495,3.7909636503,-0.3636217926\C,-2.0435237379,-3.552
 5989726,-0.5750927979\H,-2.8292195,-4.3085928751,-0.6675671494\H,-1.52
 56873928,-3.4768730359,-1.5343978984\C,-1.0894342764,-3.91467859,0.538
 5902589\H,-0.6584871143,-4.8998339475,0.3450834825\H,-1.6042446856,-3.
 9092271756,1.5003841122\H,-5.6521008896,4.7458359429,1.4247269441\\Ver
 sion=EM64L-G16RevA.03\State=1-A\HF=-1374.3097962\RMSD=8.135e-09\RMSF=1
 .281e-05\Dipole=0.3090598,0.6215938,1.7583874\Quadrupole=-11.4806374,1
 0.0192569,1.4613805,8.367502,-1.507771,1.9347861\PG=C01 [X(C20H18O8)]\
 \@


 THERE IS NO CURE FOR BIRTH AND DEATH SAVE TO ENJOY THE INTERVAL.

                               -- GEORGE SANTAYANA
 Job cpu time:       0 days  5 hours 32 minutes 34.8 seconds.
 Elapsed time:       0 days  1 hours 23 minutes 16.6 seconds.
 File lengths (MBytes):  RWF=    165 Int=      0 D2E=      0 Chk=     21 Scr=      1
 Normal termination of Gaussian 16 at Tue Jul 27 20:55:44 2021.
