 Entering Gaussian System, Link 0=/opt/gaussian/g16_legacy/g16
 Input=05-PET_1983_gaussian.com
 Output=05-PET_1983_gaussian.log
 Initial command:
 /opt/gaussian/g16_legacy/l1.exe "/scratch-local/jramos/2648142/Gau-2881.inp" -scrdir="/scratch-local/jramos/2648142/"
 Entering Link 1 = /opt/gaussian/g16_legacy/l1.exe PID=      2897.
  
 Copyright (c) 1988,1990,1992,1993,1995,1998,2003,2009,2016,
            Gaussian, Inc.  All Rights Reserved.
  
 This is part of the Gaussian(R) 16 program.  It is based on
 the Gaussian(R) 09 system (copyright 2009, Gaussian, Inc.),
 the Gaussian(R) 03 system (copyright 2003, Gaussian, Inc.),
 the Gaussian(R) 98 system (copyright 1998, Gaussian, Inc.),
 the Gaussian(R) 94 system (copyright 1995, Gaussian, Inc.),
 the Gaussian 92(TM) system (copyright 1992, Gaussian, Inc.),
 the Gaussian 90(TM) system (copyright 1990, Gaussian, Inc.),
 the Gaussian 88(TM) system (copyright 1988, Gaussian, Inc.),
 the Gaussian 86(TM) system (copyright 1986, Carnegie Mellon
 University), and the Gaussian 82(TM) system (copyright 1983,
 Carnegie Mellon University). Gaussian is a federally registered
 trademark of Gaussian, Inc.
  
 This software contains proprietary and confidential information,
 including trade secrets, belonging to Gaussian, Inc.
  
 This software is provided under written license and may be
 used, copied, transmitted, or stored only in accord with that
 written license.
  
 The following legend is applicable only to US Government
 contracts under FAR:
  
                    RESTRICTED RIGHTS LEGEND
  
 Use, reproduction and disclosure by the US Government is
 subject to restrictions as set forth in subparagraphs (a)
 and (c) of the Commercial Computer Software - Restricted
 Rights clause in FAR 52.227-19.
  
 Gaussian, Inc.
 340 Quinnipiac St., Bldg. 40, Wallingford CT 06492
  
  
 ---------------------------------------------------------------
 Warning -- This program may not be used in any manner that
 competes with the business of Gaussian, Inc. or will provide
 assistance to any competitor of Gaussian, Inc.  The licensee
 of this program is prohibited from giving any competitor of
 Gaussian, Inc. access to this program.  By using this program,
 the user acknowledges that Gaussian, Inc. is engaged in the
 business of creating and licensing software in the field of
 computational chemistry and represents and warrants to the
 licensee that it is not a competitor of Gaussian, Inc. and that
 it will not use this program in any manner prohibited above.
 ---------------------------------------------------------------
  

 Cite this work as:
 Gaussian 16, Revision A.03,
 M. J. Frisch, G. W. Trucks, H. B. Schlegel, G. E. Scuseria, 
 M. A. Robb, J. R. Cheeseman, G. Scalmani, V. Barone, 
 G. A. Petersson, H. Nakatsuji, X. Li, M. Caricato, A. V. Marenich, 
 J. Bloino, B. G. Janesko, R. Gomperts, B. Mennucci, H. P. Hratchian, 
 J. V. Ortiz, A. F. Izmaylov, J. L. Sonnenberg, D. Williams-Young, 
 F. Ding, F. Lipparini, F. Egidi, J. Goings, B. Peng, A. Petrone, 
 T. Henderson, D. Ranasinghe, V. G. Zakrzewski, J. Gao, N. Rega, 
 G. Zheng, W. Liang, M. Hada, M. Ehara, K. Toyota, R. Fukuda, 
 J. Hasegawa, M. Ishida, T. Nakajima, Y. Honda, O. Kitao, H. Nakai, 
 T. Vreven, K. Throssell, J. A. Montgomery, Jr., J. E. Peralta, 
 F. Ogliaro, M. J. Bearpark, J. J. Heyd, E. N. Brothers, K. N. Kudin, 
 V. N. Staroverov, T. A. Keith, R. Kobayashi, J. Normand, 
 K. Raghavachari, A. P. Rendell, J. C. Burant, S. S. Iyengar, 
 J. Tomasi, M. Cossi, J. M. Millam, M. Klene, C. Adamo, R. Cammi, 
 J. W. Ochterski, R. L. Martin, K. Morokuma, O. Farkas, 
 J. B. Foresman, and D. J. Fox, Gaussian, Inc., Wallingford CT, 2016.
 
 ******************************************
 Gaussian 16:  EM64L-G16RevA.03 25-Dec-2016
                27-Jul-2021 
 ******************************************
 %chk=05-PET_1983_gaussian.chk
 %nproc=4
 Will use up to    4 processors via shared memory.
 %mem=4000Mb
 -----------------------------
 #p opt=loose m062x/6-31g(d,p)
 -----------------------------
 1/7=-1,18=20,19=15,26=3,38=1/1,3;
 2/9=110,12=2,17=6,18=5,40=1/2;
 3/5=1,6=6,7=101,11=2,25=1,30=1,71=1,74=-55/1,2,3;
 4//1;
 5/5=2,38=5/2;
 6/7=2,8=2,9=2,10=2,28=1/1;
 7//1,2,3,16;
 1/7=-1,18=20,19=15,26=3/3(2);
 2/9=110/2;
 99//99;
 2/9=110/2;
 3/5=1,6=6,7=101,11=2,25=1,30=1,71=1,74=-55/1,2,3;
 4/5=5,16=3,69=1/1;
 5/5=2,38=5/2;
 7//1,2,3,16;
 1/7=-1,18=20,19=15,26=3/3(-5);
 2/9=110/2;
 6/7=2,8=2,9=2,10=2,19=2,28=1/1;
 99/9=1/99;
 Leave Link    1 at Tue Jul 27 19:32:25 2021, MaxMem=   524288000 cpu:               0.2 elap:               0.1
 (Enter /opt/gaussian/g16_legacy/l101.exe)
 --------------------------------------------------
 Conformer number 1983. Energy MM = 71.187 kcal/mol
 --------------------------------------------------
 Symbolic Z-matrix:
 Charge =  0 Multiplicity = 1
 C                     1.0329   -2.5985   -0.4575 
 C                     2.5604    0.8818   -0.7153 
 H                     2.3272    1.8487   -1.1596 
 C                     1.6658   -0.1817   -0.8801 
 H                     0.7545   -0.0159   -1.4504 
 C                     1.9483   -1.4332   -0.3169 
 C                     3.1334   -1.6066    0.4117 
 H                     3.3672   -2.5733    0.8559 
 C                     4.028    -0.543     0.5763 
 H                     4.9394   -0.7082    1.1465 
 C                     3.7459    0.7086    0.0129 
 O                     4.4304    2.9726   -0.3272 
 C                     4.6599    1.8751    0.1556 
 O                     5.7535    1.5395    0.8832 
 O                    -0.0544   -2.2659   -1.1941 
 O                     1.2514   -3.692     0.0388 
 C                     6.6874    2.6105    1.0678 
 H                     7.0516    2.9556    0.0937 
 H                     6.2008    3.4386    1.5953 
 C                     7.8474    2.0887    1.893 
 H                     7.4958    1.7199    2.8622 
 H                     8.5904    2.8731    2.0616 
 H                     8.331     1.2458    1.3882 
 C                    -6.3771    2.9108    0.6854 
 C                    -5.5628   -0.4072   -0.9772 
 H                    -5.9651   -1.0528   -1.7567 
 C                    -6.2199    0.7899   -0.673 
 H                    -7.1216    1.0538   -1.2213 
 C                    -5.7171    1.632     0.326 
 C                    -4.554     1.268     1.0168 
 H                    -4.1545    1.9157    1.7958 
 C                    -3.8968    0.0707    0.7126 
 H                    -2.9957   -0.1872    1.2645 
 C                    -4.3986   -0.7743   -0.2871 
 O                    -4.1502   -2.801    -1.5307 
 C                    -3.7398   -2.0577   -0.6538 
 O                    -2.6395   -2.265     0.1091 
 O                    -7.4795    3.1519   -0.045 
 O                    -5.9997    3.6902    1.5402 
 C                    -1.9139   -3.4798   -0.1635 
 H                    -1.3157   -3.6823    0.73 
 H                    -2.6081   -4.319    -0.2877 
 C                    -1.0177   -3.3193   -1.3916 
 H                    -0.5099   -4.2595   -1.636 
 H                    -1.6068   -3.0307   -2.2673 
 H                    -7.8042    4.0126    0.2941 
 
 ITRead=  0  0  0  0  0  0  0  0  0  0  0  0  0  0  0  0  0  0  0  0
 ITRead=  0  0  0  0  0  0  0  0  0  0  0  0  0  0  0  0  0  0  0  0
 ITRead=  0  0  0  0  0  0
 MicOpt= -1 -1 -1 -1 -1 -1 -1 -1 -1 -1 -1 -1 -1 -1 -1 -1 -1 -1 -1 -1
 MicOpt= -1 -1 -1 -1 -1 -1 -1 -1 -1 -1 -1 -1 -1 -1 -1 -1 -1 -1 -1 -1
 MicOpt= -1 -1 -1 -1 -1 -1
 NAtoms=     46 NQM=       46 NQMF=       0 NMMI=      0 NMMIF=      0
                NMic=       0 NMicF=      0.
                    Isotopes and Nuclear Properties:
 (Nuclear quadrupole moments (NQMom) in fm**2, nuclear magnetic moments (NMagM)
  in nuclear magnetons)

  Atom         1           2           3           4           5           6           7           8           9          10
 IAtWgt=          12          12           1          12           1          12          12           1          12           1
 AtmWgt=  12.0000000  12.0000000   1.0078250  12.0000000   1.0078250  12.0000000  12.0000000   1.0078250  12.0000000   1.0078250
 NucSpn=           0           0           1           0           1           0           0           1           0           1
 AtZEff=  -0.0000000  -0.0000000  -0.0000000  -0.0000000  -0.0000000  -0.0000000  -0.0000000  -0.0000000  -0.0000000  -0.0000000
 NQMom=    0.0000000   0.0000000   0.0000000   0.0000000   0.0000000   0.0000000   0.0000000   0.0000000   0.0000000   0.0000000
 NMagM=    0.0000000   0.0000000   2.7928460   0.0000000   2.7928460   0.0000000   0.0000000   2.7928460   0.0000000   2.7928460
 AtZNuc=   6.0000000   6.0000000   1.0000000   6.0000000   1.0000000   6.0000000   6.0000000   1.0000000   6.0000000   1.0000000

  Atom        11          12          13          14          15          16          17          18          19          20
 IAtWgt=          12          16          12          16          16          16          12           1           1          12
 AtmWgt=  12.0000000  15.9949146  12.0000000  15.9949146  15.9949146  15.9949146  12.0000000   1.0078250   1.0078250  12.0000000
 NucSpn=           0           0           0           0           0           0           0           1           1           0
 AtZEff=  -0.0000000  -0.0000000  -0.0000000  -0.0000000  -0.0000000  -0.0000000  -0.0000000  -0.0000000  -0.0000000  -0.0000000
 NQMom=    0.0000000   0.0000000   0.0000000   0.0000000   0.0000000   0.0000000   0.0000000   0.0000000   0.0000000   0.0000000
 NMagM=    0.0000000   0.0000000   0.0000000   0.0000000   0.0000000   0.0000000   0.0000000   2.7928460   2.7928460   0.0000000
 AtZNuc=   6.0000000   8.0000000   6.0000000   8.0000000   8.0000000   8.0000000   6.0000000   1.0000000   1.0000000   6.0000000

  Atom        21          22          23          24          25          26          27          28          29          30
 IAtWgt=           1           1           1          12          12           1          12           1          12          12
 AtmWgt=   1.0078250   1.0078250   1.0078250  12.0000000  12.0000000   1.0078250  12.0000000   1.0078250  12.0000000  12.0000000
 NucSpn=           1           1           1           0           0           1           0           1           0           0
 AtZEff=  -0.0000000  -0.0000000  -0.0000000  -0.0000000  -0.0000000  -0.0000000  -0.0000000  -0.0000000  -0.0000000  -0.0000000
 NQMom=    0.0000000   0.0000000   0.0000000   0.0000000   0.0000000   0.0000000   0.0000000   0.0000000   0.0000000   0.0000000
 NMagM=    2.7928460   2.7928460   2.7928460   0.0000000   0.0000000   2.7928460   0.0000000   2.7928460   0.0000000   0.0000000
 AtZNuc=   1.0000000   1.0000000   1.0000000   6.0000000   6.0000000   1.0000000   6.0000000   1.0000000   6.0000000   6.0000000

  Atom        31          32          33          34          35          36          37          38          39          40
 IAtWgt=           1          12           1          12          16          12          16          16          16          12
 AtmWgt=   1.0078250  12.0000000   1.0078250  12.0000000  15.9949146  12.0000000  15.9949146  15.9949146  15.9949146  12.0000000
 NucSpn=           1           0           1           0           0           0           0           0           0           0
 AtZEff=  -0.0000000  -0.0000000  -0.0000000  -0.0000000  -0.0000000  -0.0000000  -0.0000000  -0.0000000  -0.0000000  -0.0000000
 NQMom=    0.0000000   0.0000000   0.0000000   0.0000000   0.0000000   0.0000000   0.0000000   0.0000000   0.0000000   0.0000000
 NMagM=    2.7928460   0.0000000   2.7928460   0.0000000   0.0000000   0.0000000   0.0000000   0.0000000   0.0000000   0.0000000
 AtZNuc=   1.0000000   6.0000000   1.0000000   6.0000000   8.0000000   6.0000000   8.0000000   8.0000000   8.0000000   6.0000000

  Atom        41          42          43          44          45          46
 IAtWgt=           1           1          12           1           1           1
 AtmWgt=   1.0078250   1.0078250  12.0000000   1.0078250   1.0078250   1.0078250
 NucSpn=           1           1           0           1           1           1
 AtZEff=  -0.0000000  -0.0000000  -0.0000000  -0.0000000  -0.0000000  -0.0000000
 NQMom=    0.0000000   0.0000000   0.0000000   0.0000000   0.0000000   0.0000000
 NMagM=    2.7928460   2.7928460   0.0000000   2.7928460   2.7928460   2.7928460
 AtZNuc=   1.0000000   1.0000000   6.0000000   1.0000000   1.0000000   1.0000000
 Leave Link  101 at Tue Jul 27 19:32:26 2021, MaxMem=   524288000 cpu:               1.2 elap:               0.4
 (Enter /opt/gaussian/g16_legacy/l103.exe)

 GradGradGradGradGradGradGradGradGradGradGradGradGradGradGradGradGradGrad
 Berny optimization.
 Initialization pass.
                           ----------------------------
                           !    Initial Parameters    !
                           ! (Angstroms and Degrees)  !
 --------------------------                            --------------------------
 ! Name  Definition              Value          Derivative Info.                !
 --------------------------------------------------------------------------------
 ! R1    R(1,6)                  1.4885         estimate D2E/DX2                !
 ! R2    R(1,15)                 1.3548         estimate D2E/DX2                !
 ! R3    R(1,16)                 1.2206         estimate D2E/DX2                !
 ! R4    R(2,3)                  1.0893         estimate D2E/DX2                !
 ! R5    R(2,4)                  1.3995         estimate D2E/DX2                !
 ! R6    R(2,11)                 1.402          estimate D2E/DX2                !
 ! R7    R(4,5)                  1.0877         estimate D2E/DX2                !
 ! R8    R(4,6)                  1.4012         estimate D2E/DX2                !
 ! R9    R(6,7)                  1.4019         estimate D2E/DX2                !
 ! R10   R(7,8)                  1.0893         estimate D2E/DX2                !
 ! R11   R(7,9)                  1.3995         estimate D2E/DX2                !
 ! R12   R(9,10)                 1.0877         estimate D2E/DX2                !
 ! R13   R(9,11)                 1.4013         estimate D2E/DX2                !
 ! R14   R(11,13)                1.4888         estimate D2E/DX2                !
 ! R15   R(12,13)                1.2208         estimate D2E/DX2                !
 ! R16   R(13,14)                1.3557         estimate D2E/DX2                !
 ! R17   R(14,17)                1.4329         estimate D2E/DX2                !
 ! R18   R(15,43)                1.441          estimate D2E/DX2                !
 ! R19   R(17,18)                1.0957         estimate D2E/DX2                !
 ! R20   R(17,19)                1.0958         estimate D2E/DX2                !
 ! R21   R(17,20)                1.5162         estimate D2E/DX2                !
 ! R22   R(20,21)                1.095          estimate D2E/DX2                !
 ! R23   R(20,22)                1.0935         estimate D2E/DX2                !
 ! R24   R(20,23)                1.0951         estimate D2E/DX2                !
 ! R25   R(24,29)                1.4833         estimate D2E/DX2                !
 ! R26   R(24,38)                1.3442         estimate D2E/DX2                !
 ! R27   R(24,39)                1.2168         estimate D2E/DX2                !
 ! R28   R(25,26)                1.0892         estimate D2E/DX2                !
 ! R29   R(25,27)                1.3991         estimate D2E/DX2                !
 ! R30   R(25,34)                1.4023         estimate D2E/DX2                !
 ! R31   R(27,28)                1.0878         estimate D2E/DX2                !
 ! R32   R(27,29)                1.4            estimate D2E/DX2                !
 ! R33   R(29,30)                1.4009         estimate D2E/DX2                !
 ! R34   R(30,31)                1.089          estimate D2E/DX2                !
 ! R35   R(30,32)                1.3993         estimate D2E/DX2                !
 ! R36   R(32,33)                1.0877         estimate D2E/DX2                !
 ! R37   R(32,34)                1.4019         estimate D2E/DX2                !
 ! R38   R(34,36)                1.4885         estimate D2E/DX2                !
 ! R39   R(35,36)                1.2206         estimate D2E/DX2                !
 ! R40   R(36,37)                1.3549         estimate D2E/DX2                !
 ! R41   R(37,40)                1.441          estimate D2E/DX2                !
 ! R42   R(38,46)                0.9804         estimate D2E/DX2                !
 ! R43   R(40,41)                1.0942         estimate D2E/DX2                !
 ! R44   R(40,42)                1.0962         estimate D2E/DX2                !
 ! R45   R(40,43)                1.5288         estimate D2E/DX2                !
 ! R46   R(43,44)                1.0962         estimate D2E/DX2                !
 ! R47   R(43,45)                1.0942         estimate D2E/DX2                !
 ! A1    A(6,1,15)             110.654          estimate D2E/DX2                !
 ! A2    A(6,1,16)             123.5638         estimate D2E/DX2                !
 ! A3    A(15,1,16)            125.7811         estimate D2E/DX2                !
 ! A4    A(3,2,4)              119.3169         estimate D2E/DX2                !
 ! A5    A(3,2,11)             120.1654         estimate D2E/DX2                !
 ! A6    A(4,2,11)             120.5177         estimate D2E/DX2                !
 ! A7    A(2,4,5)              118.7806         estimate D2E/DX2                !
 ! A8    A(2,4,6)              120.1686         estimate D2E/DX2                !
 ! A9    A(5,4,6)              121.0508         estimate D2E/DX2                !
 ! A10   A(1,6,4)              122.4992         estimate D2E/DX2                !
 ! A11   A(1,6,7)              118.1724         estimate D2E/DX2                !
 ! A12   A(4,6,7)              119.3283         estimate D2E/DX2                !
 ! A13   A(6,7,8)              120.209          estimate D2E/DX2                !
 ! A14   A(6,7,9)              120.4963         estimate D2E/DX2                !
 ! A15   A(8,7,9)              119.2947         estimate D2E/DX2                !
 ! A16   A(7,9,10)             118.8061         estimate D2E/DX2                !
 ! A17   A(7,9,11)             120.1878         estimate D2E/DX2                !
 ! A18   A(10,9,11)            121.0061         estimate D2E/DX2                !
 ! A19   A(2,11,9)             119.3012         estimate D2E/DX2                !
 ! A20   A(2,11,13)            118.1707         estimate D2E/DX2                !
 ! A21   A(9,11,13)            122.5281         estimate D2E/DX2                !
 ! A22   A(11,13,12)           123.4415         estimate D2E/DX2                !
 ! A23   A(11,13,14)           110.6531         estimate D2E/DX2                !
 ! A24   A(12,13,14)           125.9054         estimate D2E/DX2                !
 ! A25   A(13,14,17)           114.1955         estimate D2E/DX2                !
 ! A26   A(1,15,43)            115.566          estimate D2E/DX2                !
 ! A27   A(14,17,18)           109.7248         estimate D2E/DX2                !
 ! A28   A(14,17,19)           109.7204         estimate D2E/DX2                !
 ! A29   A(14,17,20)           108.1509         estimate D2E/DX2                !
 ! A30   A(18,17,19)           109.7269         estimate D2E/DX2                !
 ! A31   A(18,17,20)           109.7515         estimate D2E/DX2                !
 ! A32   A(19,17,20)           109.744          estimate D2E/DX2                !
 ! A33   A(17,20,21)           110.6089         estimate D2E/DX2                !
 ! A34   A(17,20,22)           110.9092         estimate D2E/DX2                !
 ! A35   A(17,20,23)           110.6025         estimate D2E/DX2                !
 ! A36   A(21,20,22)           108.863          estimate D2E/DX2                !
 ! A37   A(21,20,23)           106.8925         estimate D2E/DX2                !
 ! A38   A(22,20,23)           108.8538         estimate D2E/DX2                !
 ! A39   A(29,24,38)           112.8236         estimate D2E/DX2                !
 ! A40   A(29,24,39)           125.7639         estimate D2E/DX2                !
 ! A41   A(38,24,39)           121.4125         estimate D2E/DX2                !
 ! A42   A(26,25,27)           119.2957         estimate D2E/DX2                !
 ! A43   A(26,25,34)           120.2448         estimate D2E/DX2                !
 ! A44   A(27,25,34)           120.4595         estimate D2E/DX2                !
 ! A45   A(25,27,28)           119.1632         estimate D2E/DX2                !
 ! A46   A(25,27,29)           120.0763         estimate D2E/DX2                !
 ! A47   A(28,27,29)           120.7605         estimate D2E/DX2                !
 ! A48   A(24,29,27)           122.1194         estimate D2E/DX2                !
 ! A49   A(24,29,30)           118.292          estimate D2E/DX2                !
 ! A50   A(27,29,30)           119.5886         estimate D2E/DX2                !
 ! A51   A(29,30,31)           120.1837         estimate D2E/DX2                !
 ! A52   A(29,30,32)           120.3363         estimate D2E/DX2                !
 ! A53   A(31,30,32)           119.4801         estimate D2E/DX2                !
 ! A54   A(30,32,33)           118.7946         estimate D2E/DX2                !
 ! A55   A(30,32,34)           120.177          estimate D2E/DX2                !
 ! A56   A(33,32,34)           121.0284         estimate D2E/DX2                !
 ! A57   A(25,34,32)           119.3623         estimate D2E/DX2                !
 ! A58   A(25,34,36)           118.1599         estimate D2E/DX2                !
 ! A59   A(32,34,36)           122.4777         estimate D2E/DX2                !
 ! A60   A(34,36,35)           123.5888         estimate D2E/DX2                !
 ! A61   A(34,36,37)           110.649          estimate D2E/DX2                !
 ! A62   A(35,36,37)           125.7611         estimate D2E/DX2                !
 ! A63   A(36,37,40)           115.5558         estimate D2E/DX2                !
 ! A64   A(24,38,46)           103.9534         estimate D2E/DX2                !
 ! A65   A(37,40,41)           106.0712         estimate D2E/DX2                !
 ! A66   A(37,40,42)           110.3612         estimate D2E/DX2                !
 ! A67   A(37,40,43)           111.0168         estimate D2E/DX2                !
 ! A68   A(41,40,42)           107.2818         estimate D2E/DX2                !
 ! A69   A(41,40,43)           110.7891         estimate D2E/DX2                !
 ! A70   A(42,40,43)           111.1373         estimate D2E/DX2                !
 ! A71   A(15,43,40)           111.0093         estimate D2E/DX2                !
 ! A72   A(15,43,44)           110.3575         estimate D2E/DX2                !
 ! A73   A(15,43,45)           106.0686         estimate D2E/DX2                !
 ! A74   A(40,43,44)           111.1388         estimate D2E/DX2                !
 ! A75   A(40,43,45)           110.7934         estimate D2E/DX2                !
 ! A76   A(44,43,45)           107.2901         estimate D2E/DX2                !
 ! D1    D(15,1,6,4)             0.5955         estimate D2E/DX2                !
 ! D2    D(15,1,6,7)          -179.5557         estimate D2E/DX2                !
 ! D3    D(16,1,6,4)          -179.0462         estimate D2E/DX2                !
 ! D4    D(16,1,6,7)             0.8026         estimate D2E/DX2                !
 ! D5    D(6,1,15,43)         -179.7131         estimate D2E/DX2                !
 ! D6    D(16,1,15,43)          -0.0811         estimate D2E/DX2                !
 ! D7    D(3,2,4,5)             -0.0271         estimate D2E/DX2                !
 ! D8    D(3,2,4,6)            179.9645         estimate D2E/DX2                !
 ! D9    D(11,2,4,5)          -179.9996         estimate D2E/DX2                !
 ! D10   D(11,2,4,6)            -0.0081         estimate D2E/DX2                !
 ! D11   D(3,2,11,9)          -179.9798         estimate D2E/DX2                !
 ! D12   D(3,2,11,13)            0.0305         estimate D2E/DX2                !
 ! D13   D(4,2,11,9)            -0.0075         estimate D2E/DX2                !
 ! D14   D(4,2,11,13)         -179.9971         estimate D2E/DX2                !
 ! D15   D(2,4,6,1)            179.8772         estimate D2E/DX2                !
 ! D16   D(2,4,6,7)              0.03           estimate D2E/DX2                !
 ! D17   D(5,4,6,1)             -0.1314         estimate D2E/DX2                !
 ! D18   D(5,4,6,7)           -179.9786         estimate D2E/DX2                !
 ! D19   D(1,6,7,8)              0.1301         estimate D2E/DX2                !
 ! D20   D(1,6,7,9)           -179.8906         estimate D2E/DX2                !
 ! D21   D(4,6,7,8)            179.9839         estimate D2E/DX2                !
 ! D22   D(4,6,7,9)             -0.0368         estimate D2E/DX2                !
 ! D23   D(6,7,9,10)          -179.9796         estimate D2E/DX2                !
 ! D24   D(6,7,9,11)             0.0215         estimate D2E/DX2                !
 ! D25   D(8,7,9,10)            -0.0001         estimate D2E/DX2                !
 ! D26   D(8,7,9,11)          -179.999          estimate D2E/DX2                !
 ! D27   D(7,9,11,2)             0.0008         estimate D2E/DX2                !
 ! D28   D(7,9,11,13)          179.99           estimate D2E/DX2                !
 ! D29   D(10,9,11,2)         -179.998          estimate D2E/DX2                !
 ! D30   D(10,9,11,13)          -0.0088         estimate D2E/DX2                !
 ! D31   D(2,11,13,12)           0.0409         estimate D2E/DX2                !
 ! D32   D(2,11,13,14)        -179.9704         estimate D2E/DX2                !
 ! D33   D(9,11,13,12)        -179.9484         estimate D2E/DX2                !
 ! D34   D(9,11,13,14)           0.0403         estimate D2E/DX2                !
 ! D35   D(11,13,14,17)        179.9966         estimate D2E/DX2                !
 ! D36   D(12,13,14,17)         -0.015          estimate D2E/DX2                !
 ! D37   D(13,14,17,18)        -60.3099         estimate D2E/DX2                !
 ! D38   D(13,14,17,19)         60.3165         estimate D2E/DX2                !
 ! D39   D(13,14,17,20)        179.9975         estimate D2E/DX2                !
 ! D40   D(1,15,43,40)          79.962          estimate D2E/DX2                !
 ! D41   D(1,15,43,44)         -43.7176         estimate D2E/DX2                !
 ! D42   D(1,15,43,45)        -159.6161         estimate D2E/DX2                !
 ! D43   D(14,17,20,21)        -59.1092         estimate D2E/DX2                !
 ! D44   D(14,17,20,22)        179.9981         estimate D2E/DX2                !
 ! D45   D(14,17,20,23)         59.1214         estimate D2E/DX2                !
 ! D46   D(18,17,20,21)       -178.785          estimate D2E/DX2                !
 ! D47   D(18,17,20,22)         60.3223         estimate D2E/DX2                !
 ! D48   D(18,17,20,23)        -60.5544         estimate D2E/DX2                !
 ! D49   D(19,17,20,21)         60.5569         estimate D2E/DX2                !
 ! D50   D(19,17,20,22)        -60.3357         estimate D2E/DX2                !
 ! D51   D(19,17,20,23)        178.7876         estimate D2E/DX2                !
 ! D52   D(38,24,29,27)         -0.0899         estimate D2E/DX2                !
 ! D53   D(38,24,29,30)        179.9105         estimate D2E/DX2                !
 ! D54   D(39,24,29,27)        179.9321         estimate D2E/DX2                !
 ! D55   D(39,24,29,30)         -0.0675         estimate D2E/DX2                !
 ! D56   D(29,24,38,46)       -179.9862         estimate D2E/DX2                !
 ! D57   D(39,24,38,46)         -0.0071         estimate D2E/DX2                !
 ! D58   D(26,25,27,28)          0.009          estimate D2E/DX2                !
 ! D59   D(26,25,27,29)        179.9969         estimate D2E/DX2                !
 ! D60   D(34,25,27,28)       -179.9789         estimate D2E/DX2                !
 ! D61   D(34,25,27,29)          0.009          estimate D2E/DX2                !
 ! D62   D(26,25,34,32)        179.9867         estimate D2E/DX2                !
 ! D63   D(26,25,34,36)          0.1136         estimate D2E/DX2                !
 ! D64   D(27,25,34,32)         -0.0255         estimate D2E/DX2                !
 ! D65   D(27,25,34,36)       -179.8987         estimate D2E/DX2                !
 ! D66   D(25,27,29,24)       -179.9901         estimate D2E/DX2                !
 ! D67   D(25,27,29,30)          0.0095         estimate D2E/DX2                !
 ! D68   D(28,27,29,24)         -0.0024         estimate D2E/DX2                !
 ! D69   D(28,27,29,30)        179.9973         estimate D2E/DX2                !
 ! D70   D(24,29,30,31)          0.0094         estimate D2E/DX2                !
 ! D71   D(24,29,30,32)        179.9882         estimate D2E/DX2                !
 ! D72   D(27,29,30,31)       -179.9903         estimate D2E/DX2                !
 ! D73   D(27,29,30,32)         -0.0115         estimate D2E/DX2                !
 ! D74   D(29,30,32,33)        179.9929         estimate D2E/DX2                !
 ! D75   D(29,30,32,34)         -0.0052         estimate D2E/DX2                !
 ! D76   D(31,30,32,33)         -0.0281         estimate D2E/DX2                !
 ! D77   D(31,30,32,34)        179.9738         estimate D2E/DX2                !
 ! D78   D(30,32,34,25)          0.0236         estimate D2E/DX2                !
 ! D79   D(30,32,34,36)        179.891          estimate D2E/DX2                !
 ! D80   D(33,32,34,25)       -179.9745         estimate D2E/DX2                !
 ! D81   D(33,32,34,36)         -0.107          estimate D2E/DX2                !
 ! D82   D(25,34,36,35)          0.7395         estimate D2E/DX2                !
 ! D83   D(25,34,36,37)       -179.6196         estimate D2E/DX2                !
 ! D84   D(32,34,36,35)       -179.1294         estimate D2E/DX2                !
 ! D85   D(32,34,36,37)          0.5115         estimate D2E/DX2                !
 ! D86   D(34,36,37,40)       -179.7055         estimate D2E/DX2                !
 ! D87   D(35,36,37,40)         -0.0741         estimate D2E/DX2                !
 ! D88   D(36,37,40,41)       -159.6328         estimate D2E/DX2                !
 ! D89   D(36,37,40,42)        -43.7409         estimate D2E/DX2                !
 ! D90   D(36,37,40,43)         79.9447         estimate D2E/DX2                !
 ! D91   D(37,40,43,15)         60.1184         estimate D2E/DX2                !
 ! D92   D(37,40,43,44)       -176.6499         estimate D2E/DX2                !
 ! D93   D(37,40,43,45)        -57.462          estimate D2E/DX2                !
 ! D94   D(41,40,43,15)        -57.4671         estimate D2E/DX2                !
 ! D95   D(41,40,43,44)         65.7646         estimate D2E/DX2                !
 ! D96   D(41,40,43,45)       -175.0475         estimate D2E/DX2                !
 ! D97   D(42,40,43,15)       -176.6408         estimate D2E/DX2                !
 ! D98   D(42,40,43,44)        -53.4091         estimate D2E/DX2                !
 ! D99   D(42,40,43,45)         65.7788         estimate D2E/DX2                !
 --------------------------------------------------------------------------------
 Trust Radius=3.00D-01 FncErr=1.00D-07 GrdErr=1.00D-06 EigMax=2.50D+02 EigMin=1.00D-04
 Number of steps in this run=    232 maximum allowed number of steps=    276.
 GradGradGradGradGradGradGradGradGradGradGradGradGradGradGradGradGradGrad

 Leave Link  103 at Tue Jul 27 19:32:26 2021, MaxMem=   524288000 cpu:               0.2 elap:               0.1
 (Enter /opt/gaussian/g16_legacy/l202.exe)
                          Input orientation:                          
 ---------------------------------------------------------------------
 Center     Atomic      Atomic             Coordinates (Angstroms)
 Number     Number       Type             X           Y           Z
 ---------------------------------------------------------------------
      1          6           0        1.032900   -2.598500   -0.457500
      2          6           0        2.560400    0.881800   -0.715300
      3          1           0        2.327200    1.848700   -1.159600
      4          6           0        1.665800   -0.181700   -0.880100
      5          1           0        0.754500   -0.015900   -1.450400
      6          6           0        1.948300   -1.433200   -0.316900
      7          6           0        3.133400   -1.606600    0.411700
      8          1           0        3.367200   -2.573300    0.855900
      9          6           0        4.028000   -0.543000    0.576300
     10          1           0        4.939400   -0.708200    1.146500
     11          6           0        3.745900    0.708600    0.012900
     12          8           0        4.430400    2.972600   -0.327200
     13          6           0        4.659900    1.875100    0.155600
     14          8           0        5.753500    1.539500    0.883200
     15          8           0       -0.054400   -2.265900   -1.194100
     16          8           0        1.251400   -3.692000    0.038800
     17          6           0        6.687400    2.610500    1.067800
     18          1           0        7.051600    2.955600    0.093700
     19          1           0        6.200800    3.438600    1.595300
     20          6           0        7.847400    2.088700    1.893000
     21          1           0        7.495800    1.719900    2.862200
     22          1           0        8.590400    2.873100    2.061600
     23          1           0        8.331000    1.245800    1.388200
     24          6           0       -6.377100    2.910800    0.685400
     25          6           0       -5.562800   -0.407200   -0.977200
     26          1           0       -5.965100   -1.052800   -1.756700
     27          6           0       -6.219900    0.789900   -0.673000
     28          1           0       -7.121600    1.053800   -1.221300
     29          6           0       -5.717100    1.632000    0.326000
     30          6           0       -4.554000    1.268000    1.016800
     31          1           0       -4.154500    1.915700    1.795800
     32          6           0       -3.896800    0.070700    0.712600
     33          1           0       -2.995700   -0.187200    1.264500
     34          6           0       -4.398600   -0.774300   -0.287100
     35          8           0       -4.150200   -2.801000   -1.530700
     36          6           0       -3.739800   -2.057700   -0.653800
     37          8           0       -2.639500   -2.265000    0.109100
     38          8           0       -7.479500    3.151900   -0.045000
     39          8           0       -5.999700    3.690200    1.540200
     40          6           0       -1.913900   -3.479800   -0.163500
     41          1           0       -1.315700   -3.682300    0.730000
     42          1           0       -2.608100   -4.319000   -0.287700
     43          6           0       -1.017700   -3.319300   -1.391600
     44          1           0       -0.509900   -4.259500   -1.636000
     45          1           0       -1.606800   -3.030700   -2.267300
     46          1           0       -7.804200    4.012600    0.294100
 ---------------------------------------------------------------------
                    Distance matrix (angstroms):
                    1          2          3          4          5
     1  C    0.000000
     2  C    3.809489   0.000000
     3  H    4.684629   1.089349   0.000000
     4  C    2.533787   1.399464   2.153624   0.000000
     5  H    2.780860   2.146512   2.456559   1.087750   0.000000
     6  C    1.488506   2.427471   3.409483   1.401161   2.172261
     7  C    2.480217   2.791163   3.880469   2.419284   3.414221
     8  H    2.678546   3.880375   4.969701   3.410016   4.322675
     9  C    3.776830   2.419119   3.409736   2.798505   3.886020
    10  H    4.626747   3.413801   4.321970   3.885971   4.973586
    11  C    4.303319   1.402028   2.165016   2.432468   3.408023
    12  O    6.526648   2.831778   2.525765   4.230641   4.868773
    13  C    5.791728   2.480527   2.678047   3.777266   4.626799
    14  O    6.419080   3.630931   4.001021   4.772950   5.731925
    15  O    1.354778   4.120005   4.754276   2.720583   2.404685
    16  O    1.220573   4.816824   5.769997   3.652165   3.997291
    17  C    7.837958   4.816636   4.955098   6.066891   6.959785
    18  H    8.208325   5.012585   5.011581   6.308548   7.132147
    19  H    8.207786   5.012845   5.012188   6.308756   7.132464
    20  C    8.598378   6.017658   6.312573   7.145417   8.118922
    21  H    8.452104   6.152974   6.550259   7.183996   8.188812
    22  H    9.664372   6.930898   7.117106   8.120067   9.059900
    23  H    8.452663   6.152807   6.549839   7.183859   8.188583
    24  C    9.304123   9.271338   8.960855   8.758001   7.999183
    25  C    6.969587   8.229003   8.208194   7.232768   6.347071
    26  H    7.283482   8.804053   8.805536   7.730322   6.806027
    27  C    8.008171   8.780883   8.626167   7.948029   7.063704
    28  H    8.967639   9.696739   9.482378   8.880387   7.951710
    29  C    8.004593   8.376402   8.183198   7.697493   6.910338
    30  C    6.952470   7.332394   7.240500   6.662265   5.992966
    31  H    7.236331   7.243235   7.123996   6.740580   6.194124
    32  C    5.726753   6.662748   6.738293   5.791625   5.130366
    33  H    5.000927   5.994382   6.193094   5.131172   4.632928
    34  C    5.732184   7.166150   7.271710   6.122072   5.336935
    35  O    5.296913   7.698055   7.982114   6.411698   5.640861
    36  C    4.807251   6.952479   7.233553   5.726351   5.000225
    37  O    3.730788   6.133592   6.572689   4.884083   4.360015
    38  O   10.280963  10.315147   9.955502   9.769687   8.933581
    39  O    9.643444   9.287072   8.945239   8.922407   8.264265
    40  C    3.089783   6.272750   6.882736   4.919881   4.557968
    41  H    2.846173   6.159874   6.887182   4.871957   4.741557
    42  H    4.030612   7.344696   7.947196   5.977827   5.583513
    43  C    2.365810   5.559624   6.160390   4.160209   3.749213
    44  H    2.554998   6.058663   6.751755   4.683322   4.431850
    45  H    3.229580   5.922999   6.364896   4.555330   3.915620
    46  H   11.061911  10.874085  10.461404  10.423617   9.618910
                    6          7          8          9         10
     6  C    0.000000
     7  C    1.401923   0.000000
     8  H    2.165309   1.089259   0.000000
     9  C    2.432162   1.399517   2.153358   0.000000
    10  H    3.407909   2.146786   2.456595   1.087690   0.000000
    11  C    2.815571   2.427828   3.409535   1.401250   2.171823
    12  O    5.056877   4.816353   5.769500   3.652079   3.997394
    13  C    4.303589   3.810253   4.685057   2.534461   2.780907
    14  O    4.975614   4.121308   4.755029   2.721827   2.405045
    15  O    2.339589   3.629785   4.000543   4.771655   5.730870
    16  O    2.390475   2.833703   2.528982   4.232566   4.871489
    17  C    6.381847   5.553856   6.159579   4.154340   3.751729
    18  H    6.743429   6.022216   6.687637   4.649222   4.358120
    19  H    6.743493   6.021951   6.687222   4.648931   4.357580
    20  C    7.217120   6.170193   6.548436   4.821552   4.103215
    21  H    7.129058   6.008418   6.285073   4.729872   3.921030
    22  H    8.265529   7.250430   7.641911   5.889936   5.195471
    23  H    7.129044   6.008726   6.285553   4.730200   3.921669
    24  C    9.443899  10.532399  11.182835  10.963884  11.890036
    25  C    7.609553   8.887716   9.370013   9.716751  10.718998
    26  H    8.052306   9.369704   9.809660  10.274475  11.289616
    27  C    8.472808   9.716172  10.274295  10.409459  11.405475
    28  H    9.448079  10.719582  11.290949  11.405907  12.416877
    29  C    8.280527   9.424820  10.024463   9.988005  10.941241
    30  C    7.166250   8.229556   8.804935   8.782055   9.697775
    31  H    7.274806   8.211931   8.809682   8.630509   9.487121
    32  C    6.122645   7.233781   7.731557   7.949696   8.881069
    33  H    5.338209   6.348845   6.807857   7.066299   7.953061
    34  C    6.381080   7.609998   8.052981   8.473874   9.447636
    35  O    6.366780   7.632191   7.890438   8.741909   9.704022
    36  C    5.732188   6.969911   7.283851   8.009131   8.966088
    37  O    4.682016   5.818198   6.060792   6.902110   7.806379
    38  O   10.487158  11.639826  12.297985  12.102101  13.059446
    39  O    9.636843  10.618056  11.288867  10.927207  11.796814
    40  C    4.373636   5.414330   5.454442   6.669203   7.507702
    41  H    4.099774   4.919790   4.814071   6.199513   6.938661
    42  H    5.393466   6.388356   6.329257   7.683911   8.488790
    43  C    3.675528   4.839097   4.983485   6.086014   6.981893
    44  H    3.971240   4.950211   4.907621   6.268906   7.074525
    45  H    4.358303   5.628019   5.891033   6.784223   7.739559
    46  H   11.186658  12.297168  12.980365  12.682038  13.616603
                   11         12         13         14         15
    11  C    0.000000
    12  O    2.389541   0.000000
    13  C    1.488785   1.220767   0.000000
    14  O    2.340571   2.295526   1.355725   0.000000
    15  O    4.974613   6.950311   6.418270   7.247617   0.000000
    16  O    5.058506   7.393030   6.528715   6.953453   2.293233
    17  C    3.658204   2.677908   2.341725   1.432930   8.622490
    18  H    3.997898   2.654832   2.625174   2.076948   8.911662
    19  H    3.997927   2.654709   2.625194   2.076956   8.913450
    20  C    4.718236   4.169707   3.636529   2.388668   9.535784
    21  H    4.816948   4.597631   3.923277   2.642838   9.452285
    22  H    5.687830   4.798111   4.480811   3.348898  10.570784
    23  H    4.816968   4.597729   3.923302   2.642876   9.450674
    24  C   10.381574  10.855010  11.098141  12.209465   8.384944
    25  C    9.427471  10.569276  10.535451  11.632256   5.817584
    26  H   10.026841  11.238938  11.185710  12.288803   6.060075
    27  C    9.989707  10.877162  10.965140  12.097354   6.900931
    28  H   10.942804  11.744357  11.890085  13.055000   7.808102
    29  C    9.513100  10.256492  10.381246  11.484498   7.040632
    30  C    8.379086   9.242913   9.273952  10.311941   6.133753
    31  H    8.188537   8.906440   8.965799   9.957049   6.575416
    32  C    7.701127   8.879441   8.762604   9.762928   4.884592
    33  H    6.915065   8.225862   8.005682   8.926107   4.360843
    34  C    8.283832   9.591252   9.448372  10.477996   4.681837
    35  O    8.777721  10.411991  10.115700  11.079266   4.144298
    36  C    8.008284   9.600143   9.310049  10.267666   3.730609
    37  O    7.044493   8.809444   8.391891   9.247481   2.895008
    38  O   11.488371  11.914592  12.208009  13.363146   9.263104
    39  O   10.305305  10.620222  10.901320  11.966406   8.848622
    40  C    7.043234   9.050437   8.484788   9.223772   2.448148
    41  H    6.738993   8.855678   8.180613   8.790009   2.701708
    42  H    8.108048  10.134568   9.559666  10.276643   3.399730
    43  C    6.394410   8.390634   7.849252   8.638970   1.441043
    44  H    6.746312   8.855664   8.220096   8.899716   2.092175
    45  H    6.916146   8.732204   8.319185   9.218807   2.036326
    46  H   12.016668  12.294432  12.646813  13.794002  10.084330
                   16         17         18         19         20
    16  O    0.000000
    17  C    8.386325   0.000000
    18  H    8.822467   1.095722   0.000000
    19  H    8.818430   1.095804   1.792192   0.000000
    20  C    8.964472   1.516189   2.149952   2.149918   0.000000
    21  H    8.732284   2.160220   3.064125   2.497196   1.094982
    22  H   10.052521   2.162870   2.499468   2.499483   1.093507
    23  H    8.736331   2.160204   2.497201   3.064150   1.095067
    24  C   10.109850  13.073545  13.441804  12.621809  14.299320
    25  C    7.632528  12.781077  13.098791  12.640816  13.939190
    26  H    7.890949  13.471575  13.745026  13.394689  14.627867
    27  C    8.741534  13.150793  13.468883  12.900953  14.358279
    28  H    9.706575  14.083742  14.360559  13.824140  15.324518
    29  C    8.774249  12.465125  12.839220  12.120696  13.662347
    30  C    7.698101  11.321395  11.763930  10.986896  12.459374
    31  H    7.984805  10.888504  11.382232  10.468604  12.003540
    32  C    6.412167  10.890456  11.339010  10.680985  11.974636
    33  H    5.641261  10.081083  10.592271   9.890979  11.097187
    34  C    6.367235  11.670134  12.048412  11.560244  12.763782
    35  O    5.695129  12.389112  12.698718  12.483897  13.400496
    36  C    5.297425  11.553463  11.922510  11.579434  12.567499
    37  O    4.144921  10.567908  11.007830  10.625006  11.494002
    38  O   11.093899  14.220847  14.533088  13.781270  15.485480
    39  O   10.456076  12.741720  13.151746  12.203218  13.943868
    40  C    3.178849  10.610854  11.039054  10.807682  11.424551
    41  H    2.658544  10.186415  10.699453  10.390079  10.891254
    42  H    3.923706  11.673117  12.098557  11.887925  12.455182
    43  C    2.708092  10.028945  10.329283  10.329449  10.891513
    44  H    2.495834  10.310604  10.593669  10.711468  11.072396
    45  H    3.731584  10.570704  10.787864  10.850352  11.528150
    46  H   11.892432  14.579814  14.894704  14.077025  15.850251
                   21         22         23         24         25
    21  H    0.000000
    22  H    1.780163   0.000000
    23  H    1.759263   1.780130   0.000000
    24  C   14.093050  15.030682  14.818716   0.000000
    25  C   13.776523  14.842767  14.190321   3.799533   0.000000
    26  H   14.498894  15.551678  14.817302   4.673727   1.089158
    27  C   14.194470  15.204037  14.703234   2.523525   1.399059
    28  H   15.191677  16.154078  15.672562   2.763736   2.150340
    29  C   13.454396  14.465725  14.093493   1.483273   2.424969
    30  C   12.198664  13.283193  12.890371   2.476350   2.792850
    31  H   11.700643  12.783573  12.510100   2.676409   3.881843
    32  C   11.710336  12.868699  12.302698   3.770782   2.420613
    33  H   10.782451  12.009934  11.417658   4.622427   3.415204
    34  C   12.554516  13.694307  12.997313   4.294203   1.402270
    35  O   13.242561  14.402185  13.441612   6.518807   2.834092
    36  C   12.364110  13.554336  12.680185   5.782283   2.480336
    37  O   11.233134  12.502919  11.589378   6.410201   3.630035
    38  O   15.321947  16.209787  15.989346   1.344209   4.148485
    39  O   13.702492  14.622261  14.538472   1.216790   4.828755
    40  C   11.168446  12.476006  11.388461   7.840954   4.839158
    41  H   10.553321  11.953127  10.852567   8.311963   5.628381
    42  H   12.185195  13.514878  12.387072   8.211108   4.950540
    43  C   10.768845  11.940938  10.768733   8.476511   5.413870
    44  H   10.958023  12.139262  10.845074   9.551237   6.387960
    45  H   11.477687  12.552972  11.419764   8.171635   4.919049
    46  H   15.682526  16.528927  16.407221   1.844910   5.116123
                   26         27         28         29         30
    26  H    0.000000
    27  C    2.152875   0.000000
    28  H    2.462094   1.087814   0.000000
    29  C    3.406948   1.399979   2.168196   0.000000
    30  C    3.881961   2.420584   3.412850   1.400893   0.000000
    31  H    4.970968   3.410026   4.318500   2.163912   1.089016
    32  C    3.411387   2.798916   3.886617   2.429117   1.399277
    33  H    4.323685   3.886399   4.974167   3.405332   2.146453
    34  C    2.165920   2.431620   3.410192   2.811514   2.428023
    35  O    2.530048   4.232478   4.876928   5.055096   4.817631
    36  C    2.679211   3.776253   4.630341   4.299257   3.809738
    37  O    4.001282   4.771096   5.733552   4.970440   4.119626
    38  O    4.785690   2.749549   2.431830   2.356648   3.638001
    39  O    5.776400   3.654926   3.979340   2.406311   2.868980
    40  C    4.984058   6.085357   6.985171   6.390183   5.559212
    41  H    5.891932   6.783816   7.742525   6.912114   5.922357
    42  H    4.908714   6.268526   7.078861   6.742174   6.058285
    43  C    5.454089   6.668193   7.510699   7.039168   6.272888
    44  H    6.329036   7.682962   8.492215   8.103959   7.344750
    45  H    4.813271   6.198344   6.941922   6.735024   6.160367
    46  H    5.765964   3.719017   3.393653   3.166111   4.314965
                   31         32         33         34         35
    31  H    0.000000
    32  C    2.154938   0.000000
    33  H    2.459123   1.087698   0.000000
    34  C    3.410888   1.401866   2.172620   0.000000
    35  O    5.771731   3.652844   3.997245   2.390765   0.000000
    36  C    4.686195   2.534124   2.780707   1.488490   1.220605
    37  O    4.755884   2.720388   2.403972   2.339571   2.293132
    38  O    3.996544   4.785759   5.741850   4.996559   6.980585
    39  O    2.572731   4.267070   4.912663   5.082746   7.415305
    40  C    6.162026   4.159987   3.748425   3.675424   2.707590
    41  H    6.366500   4.554930   3.914564   4.358352   3.731199
    42  H    6.753059   4.683035   4.430726   3.971245   2.495485
    43  C    6.885075   4.920262   4.558224   4.373492   3.178135
    44  H    7.949431   5.978097   5.583523   5.393342   3.923021
    45  H    6.889589   4.872636   4.742167   4.099595   2.657861
    46  H    4.469049   5.566102   6.457683   5.903416   7.943976
                   36         37         38         39         40
    36  C    0.000000
    37  O    1.354862   0.000000
    38  O    6.441733   7.265821   0.000000
    39  O    6.554322   6.985943   2.234376   0.000000
    40  C    2.365729   1.441022   8.658487   8.426462   0.000000
    41  H    3.229627   2.036345   9.235764   8.772117   1.094163
    42  H    2.555044   2.092212   8.922095   8.887714   1.096173
    43  C    3.089630   2.448241   9.243626   9.085641   1.528779
    44  H    4.030496   3.399794  10.297352  10.169753   2.178854
    45  H    2.846015   2.701859   8.812024   8.886232   2.173011
    46  H    7.366573   8.131212   0.980420   2.216512   9.541545
                   41         42         43         44         45
    41  H    0.000000
    42  H    1.763916   0.000000
    43  C    2.172961   2.178845   0.000000
    44  H    2.565235   2.494774   1.096161   0.000000
    45  H    3.081092   2.565372   1.094157   1.763995   0.000000
    46  H   10.074826   9.836336  10.131877  11.196416   9.725051
                   46
    46  H    0.000000
 Stoichiometry    C20H18O8
 Framework group  C1[X(C20H18O8)]
 Deg. of freedom   132
 Full point group                 C1      NOp   1
 Largest Abelian subgroup         C1      NOp   1
 Largest concise Abelian subgroup C1      NOp   1
                         Standard orientation:                         
 ---------------------------------------------------------------------
 Center     Atomic      Atomic             Coordinates (Angstroms)
 Number     Number       Type             X           Y           Z
 ---------------------------------------------------------------------
      1          6           0       -1.375902   -2.675140   -0.075258
      2          6           0       -3.001472    0.577225    1.061339
      3          1           0       -2.775717    1.424533    1.707701
      4          6           0       -2.063958   -0.453488    0.930185
      5          1           0       -1.127682   -0.382819    1.479358
      6          6           0       -2.336187   -1.552062    0.104183
      7          6           0       -3.554432   -1.605964   -0.587453
      8          1           0       -3.780786   -2.453129   -1.233642
      9          6           0       -4.491937   -0.575201   -0.456081
     10          1           0       -5.428328   -0.645314   -1.005012
     11          6           0       -4.220100    0.523406    0.370157
     12          8           0       -4.959247    2.613330    1.262225
     13          6           0       -5.179147    1.648201    0.547773
     14          8           0       -6.300625    1.440636   -0.185163
     15          8           0       -0.260098   -2.472863    0.666017
     16          8           0       -1.585729   -3.632752   -0.802410
     17          6           0       -7.278731    2.481426   -0.069612
     18          1           0       -7.598144    2.574485    0.974381
     19          1           0       -6.850872    3.430545   -0.411512
     20          6           0       -8.465814    2.112497   -0.937688
     21          1           0       -8.157904    1.994697   -1.981862
     22          1           0       -9.242964    2.879811   -0.882682
     23          1           0       -8.891478    1.154392   -0.621435
     24          6           0        5.769034    3.281864   -0.250482
     25          6           0        5.161923   -0.364670    0.627388
     26          1           0        5.629296   -1.154187    1.214321
     27          6           0        5.760325    0.899087    0.580467
     28          1           0        6.682496    1.069739    1.131662
     29          6           0        5.173609    1.925798   -0.168912
     30          6           0        3.985827    1.678935   -0.869437
     31          1           0        3.521207    2.470505   -1.455527
     32          6           0        3.387333    0.414980   -0.822558
     33          1           0        2.465355    0.251019   -1.375876
     34          6           0        3.973187   -0.614758   -0.073129
     35          8           0        3.863794   -2.883575    0.672696
     36          6           0        3.379529   -1.976929    0.014397
     37          8           0        2.245075   -2.051951   -0.722512
     38          8           0        6.902604    3.397354    0.462666
     39          8           0        5.317752    4.219979   -0.880453
     40          6           0        1.577113   -3.328719   -0.707153
     41          1           0        0.936062   -3.345873   -1.593691
     42          1           0        2.304868   -4.141229   -0.815761
     43          6           0        0.747492   -3.498195    0.565706
     44          1           0        0.286088   -4.491638    0.607487
     45          1           0        1.375577   -3.393668    1.455517
     46          1           0        7.178563    4.327111    0.319060
 ---------------------------------------------------------------------
 Rotational constants (GHZ):           0.2191642           0.0621058           0.0501682
 Leave Link  202 at Tue Jul 27 19:32:27 2021, MaxMem=   524288000 cpu:               0.4 elap:               0.2
 (Enter /opt/gaussian/g16_legacy/l301.exe)
 Standard basis: 6-31G(d,p) (6D, 7F)
 Ernie: Thresh=  0.10000D-02 Tol=  0.10000D-05 Strict=F.
 There are   510 symmetry adapted cartesian basis functions of A   symmetry.
 There are   510 symmetry adapted basis functions of A   symmetry.
   510 basis functions,   910 primitive gaussians,   510 cartesian basis functions
   101 alpha electrons      101 beta electrons
       nuclear repulsion energy      2349.4240076020 Hartrees.
 IExCor= 4336 DFT=T Ex+Corr=M062X ExCW=0 ScaHFX=  0.540000
 ScaDFX=  1.000000  1.000000  1.000000  1.000000 ScalE2=  1.000000  1.000000
 IRadAn=      5 IRanWt=     -1 IRanGd=            0 ICorTp=0 IEmpDi=  4
 NAtoms=   46 NActive=   46 NUniq=   46 SFac= 1.00D+00 NAtFMM=   60 NAOKFM=F Big=F
 Integral buffers will be    131072 words long.
 Raffenetti 2 integral format.
 Two-electron integral symmetry is turned on.
 Leave Link  301 at Tue Jul 27 19:32:27 2021, MaxMem=   524288000 cpu:               0.7 elap:               0.3
 (Enter /opt/gaussian/g16_legacy/l302.exe)
 NPDir=0 NMtPBC=     1 NCelOv=     1 NCel=       1 NClECP=     1 NCelD=      1
         NCelK=      1 NCelE2=     1 NClLst=     1 CellRange=     0.0.
 One-electron integrals computed using PRISM.
 One-electron integral symmetry used in STVInt
 NBasis=   510 RedAO= T EigKep=  4.17D-04  NBF=   510
 NBsUse=   510 1.00D-06 EigRej= -1.00D+00 NBFU=   510
 Precomputing XC quadrature grid using
 IXCGrd= 4 IRadAn=           5 IRanWt=          -1 IRanGd=           0 AccXCQ= 0.00D+00.
 Generated NRdTot=       0 NPtTot=           0 NUsed=           0 NTot=          32
 NSgBfM=   480   480   480   480   480 MxSgAt=    46 MxSgA2=    46.
 Leave Link  302 at Tue Jul 27 19:32:30 2021, MaxMem=   524288000 cpu:               8.5 elap:               2.5
 (Enter /opt/gaussian/g16_legacy/l303.exe)
 DipDrv:  MaxL=1.
 Leave Link  303 at Tue Jul 27 19:32:30 2021, MaxMem=   524288000 cpu:               0.4 elap:               0.2
 (Enter /opt/gaussian/g16_legacy/l401.exe)
 ExpMin= 1.61D-01 ExpMax= 5.48D+03 ExpMxC= 8.25D+02 IAcc=3 IRadAn=         5 AccDes= 0.00D+00
 Harris functional with IExCor= 1009 and IRadAn=       5 diagonalized for initial guess.
 HarFok:  IExCor= 1009 AccDes= 0.00D+00 IRadAn=         5 IDoV= 1 UseB2=F ITyADJ=14
 ICtDFT=  3500011 ScaDFX=  1.000000  1.000000  1.000000  1.000000
 FoFCou: FMM=F IPFlag=           0 FMFlag=      100000 FMFlg1=           0
         NFxFlg=           0 DoJE=T BraDBF=F KetDBF=T FulRan=T
         wScrn=  0.000000 ICntrl=       500 IOpCl=  0 I1Cent=   200000004 NGrid=           0
         NMat0=    1 NMatS0=      1 NMatT0=    0 NMatD0=    1 NMtDS0=    0 NMtDT0=    0
 Petite list used in FoFCou.
 Harris En= -1373.60481684157    
 JPrj=0 DoOrth=F DoCkMO=F.
 Leave Link  401 at Tue Jul 27 19:32:42 2021, MaxMem=   524288000 cpu:              45.3 elap:              11.6
 (Enter /opt/gaussian/g16_legacy/l502.exe)
 Integral symmetry usage will be decided dynamically.
 Closed shell SCF:
 Using DIIS extrapolation, IDIIS=  1040.
 NGot=   524288000 LenX=   523759406 LenY=   523498796
 Requested convergence on RMS density matrix=1.00D-08 within 128 cycles.
 Requested convergence on MAX density matrix=1.00D-06.
 Requested convergence on             energy=1.00D-06.
 No special actions if energy rises.
 Fock matrices will be formed incrementally for  20 cycles.
 Integral accuracy reduced to 1.0D-05 until final iterations.

 Cycle   1  Pass 0  IDiag  1:
 FoFJK:  IHMeth= 1 ICntrl=       0 DoSepK=F KAlg= 0 I1Cent=           0 FoldK=F
 IRaf= 520000000 NMat=       1 IRICut=       1 DoRegI=T DoRafI=F ISym2E= 0 IDoP0=0 IntGTp=1.
 FoFCou: FMM=F IPFlag=           0 FMFlag=      100000 FMFlg1=           0
         NFxFlg=           0 DoJE=F BraDBF=F KetDBF=F FulRan=T
         wScrn=  0.000000 ICntrl=         0 IOpCl=  0 I1Cent=           0 NGrid=           0
         NMat0=    1 NMatS0=      1 NMatT0=    0 NMatD0=    1 NMtDS0=    0 NMtDT0=    0
 Symmetry not used in FoFCou.
 E= -1373.72264233503    
 DIIS: error= 3.92D-02 at cycle   1 NSaved=   1.
 NSaved= 1 IEnMin= 1 EnMin= -1373.72264233503     IErMin= 1 ErrMin= 3.92D-02
 ErrMax= 3.92D-02  0.00D+00 EMaxC= 1.00D-01 BMatC= 7.49D-01 BMatP= 7.49D-01
 IDIUse=3 WtCom= 6.08D-01 WtEn= 3.92D-01
 Coeff-Com:  0.100D+01
 Coeff-En:   0.100D+01
 Coeff:      0.100D+01
 Gap=     0.297 Goal=   None    Shift=    0.000
 GapD=    0.297 DampG=1.000 DampE=0.500 DampFc=0.5000 IDamp=-1.
 Damping current iteration by 5.00D-01
 RMSDP=2.95D-03 MaxDP=1.36D-01              OVMax= 1.82D-01

 Cycle   2  Pass 0  IDiag  1:
 RMSU=  1.46D-03    CP:  9.85D-01
 E= -1373.98739827922     Delta-E=       -0.264755944195 Rises=F Damp=T
 DIIS: error= 1.14D-02 at cycle   2 NSaved=   2.
 NSaved= 2 IEnMin= 2 EnMin= -1373.98739827922     IErMin= 2 ErrMin= 1.14D-02
 ErrMax= 1.14D-02  0.00D+00 EMaxC= 1.00D-01 BMatC= 8.29D-02 BMatP= 7.49D-01
 IDIUse=3 WtCom= 8.86D-01 WtEn= 1.14D-01
 Coeff-Com:  0.126D-01 0.987D+00
 Coeff-En:   0.127D-01 0.987D+00
 Coeff:      0.126D-01 0.987D+00
 Gap=     0.268 Goal=   None    Shift=    0.000
 RMSDP=8.73D-04 MaxDP=2.95D-02 DE=-2.65D-01 OVMax= 1.06D-01

 Cycle   3  Pass 0  IDiag  1:
 RMSU=  8.64D-04    CP:  9.77D-01  9.58D-01
 E= -1374.26308944389     Delta-E=       -0.275691164667 Rises=F Damp=F
 DIIS: error= 5.61D-03 at cycle   3 NSaved=   3.
 NSaved= 3 IEnMin= 3 EnMin= -1374.26308944389     IErMin= 3 ErrMin= 5.61D-03
 ErrMax= 5.61D-03  0.00D+00 EMaxC= 1.00D-01 BMatC= 5.22D-02 BMatP= 8.29D-02
 IDIUse=3 WtCom= 9.44D-01 WtEn= 5.61D-02
 Coeff-Com: -0.879D-01 0.468D+00 0.619D+00
 Coeff-En:   0.000D+00 0.000D+00 0.100D+01
 Coeff:     -0.830D-01 0.442D+00 0.641D+00
 Gap=     0.280 Goal=   None    Shift=    0.000
 RMSDP=5.21D-04 MaxDP=2.74D-02 DE=-2.76D-01 OVMax= 4.70D-02

 Cycle   4  Pass 0  IDiag  1:
 RMSU=  3.06D-04    CP:  9.80D-01  1.08D+00  5.61D-01
 E= -1374.29781142518     Delta-E=       -0.034721981292 Rises=F Damp=F
 DIIS: error= 2.19D-03 at cycle   4 NSaved=   4.
 NSaved= 4 IEnMin= 4 EnMin= -1374.29781142518     IErMin= 4 ErrMin= 2.19D-03
 ErrMax= 2.19D-03  0.00D+00 EMaxC= 1.00D-01 BMatC= 8.64D-03 BMatP= 5.22D-02
 IDIUse=3 WtCom= 9.78D-01 WtEn= 2.19D-02
 Coeff-Com: -0.340D-01 0.988D-01 0.333D+00 0.603D+00
 Coeff-En:   0.000D+00 0.000D+00 0.121D+00 0.879D+00
 Coeff:     -0.332D-01 0.966D-01 0.328D+00 0.609D+00
 Gap=     0.273 Goal=   None    Shift=    0.000
 RMSDP=1.82D-04 MaxDP=7.68D-03 DE=-3.47D-02 OVMax= 1.33D-02

 Cycle   5  Pass 0  IDiag  1:
 RMSU=  8.07D-05    CP:  9.79D-01  1.06D+00  6.90D-01  6.37D-01
 E= -1374.30436148969     Delta-E=       -0.006550064512 Rises=F Damp=F
 DIIS: error= 4.45D-04 at cycle   5 NSaved=   5.
 NSaved= 5 IEnMin= 5 EnMin= -1374.30436148969     IErMin= 5 ErrMin= 4.45D-04
 ErrMax= 4.45D-04  0.00D+00 EMaxC= 1.00D-01 BMatC= 3.13D-04 BMatP= 8.64D-03
 IDIUse=3 WtCom= 9.96D-01 WtEn= 4.45D-03
 Coeff-Com: -0.863D-02 0.170D-01 0.112D+00 0.264D+00 0.616D+00
 Coeff-En:   0.000D+00 0.000D+00 0.000D+00 0.000D+00 0.100D+01
 Coeff:     -0.859D-02 0.169D-01 0.111D+00 0.263D+00 0.617D+00
 Gap=     0.273 Goal=   None    Shift=    0.000
 RMSDP=3.43D-05 MaxDP=1.92D-03 DE=-6.55D-03 OVMax= 3.29D-03

 Cycle   6  Pass 0  IDiag  1:
 RMSU=  2.64D-05    CP:  9.79D-01  1.06D+00  6.95D-01  6.69D-01  7.71D-01
 E= -1374.30460750977     Delta-E=       -0.000246020076 Rises=F Damp=F
 DIIS: error= 1.39D-04 at cycle   6 NSaved=   6.
 NSaved= 6 IEnMin= 6 EnMin= -1374.30460750977     IErMin= 6 ErrMin= 1.39D-04
 ErrMax= 1.39D-04  0.00D+00 EMaxC= 1.00D-01 BMatC= 2.89D-05 BMatP= 3.13D-04
 IDIUse=3 WtCom= 9.99D-01 WtEn= 1.39D-03
 Coeff-Com: -0.121D-02 0.399D-03 0.261D-01 0.675D-01 0.280D+00 0.627D+00
 Coeff-En:   0.000D+00 0.000D+00 0.000D+00 0.000D+00 0.000D+00 0.100D+01
 Coeff:     -0.121D-02 0.398D-03 0.260D-01 0.674D-01 0.280D+00 0.627D+00
 Gap=     0.273 Goal=   None    Shift=    0.000
 RMSDP=1.17D-05 MaxDP=6.62D-04 DE=-2.46D-04 OVMax= 1.14D-03

 Cycle   7  Pass 0  IDiag  1:
 RMSU=  8.95D-06    CP:  9.79D-01  1.06D+00  6.97D-01  6.75D-01  8.14D-01
                    CP:  7.77D-01
 E= -1374.30463119941     Delta-E=       -0.000023689644 Rises=F Damp=F
 DIIS: error= 7.18D-05 at cycle   7 NSaved=   7.
 NSaved= 7 IEnMin= 7 EnMin= -1374.30463119941     IErMin= 7 ErrMin= 7.18D-05
 ErrMax= 7.18D-05  0.00D+00 EMaxC= 1.00D-01 BMatC= 3.73D-06 BMatP= 2.89D-05
 IDIUse=1 WtCom= 1.00D+00 WtEn= 0.00D+00
 Coeff-Com:  0.988D-03-0.291D-02-0.487D-02-0.125D-01 0.405D-01 0.262D+00
 Coeff-Com:  0.717D+00
 Coeff:      0.988D-03-0.291D-02-0.487D-02-0.125D-01 0.405D-01 0.262D+00
 Coeff:      0.717D+00
 Gap=     0.273 Goal=   None    Shift=    0.000
 RMSDP=5.89D-06 MaxDP=3.18D-04 DE=-2.37D-05 OVMax= 5.33D-04

 Initial convergence to 1.0D-05 achieved.  Increase integral accuracy.
 Cycle   8  Pass 1  IDiag  1:
 E= -1374.30445391664     Delta-E=        0.000177282776 Rises=F Damp=F
 DIIS: error= 5.28D-05 at cycle   1 NSaved=   1.
 NSaved= 1 IEnMin= 1 EnMin= -1374.30445391664     IErMin= 1 ErrMin= 5.28D-05
 ErrMax= 5.28D-05  0.00D+00 EMaxC= 1.00D-01 BMatC= 2.01D-06 BMatP= 2.01D-06
 IDIUse=1 WtCom= 1.00D+00 WtEn= 0.00D+00
 Coeff-Com:  0.100D+01
 Coeff:      0.100D+01
 Gap=     0.273 Goal=   None    Shift=    0.000
 RMSDP=5.89D-06 MaxDP=3.18D-04 DE= 1.77D-04 OVMax= 5.17D-04

 Cycle   9  Pass 1  IDiag  1:
 RMSU=  2.24D-05    CP:  1.00D+00
 E= -1374.30445399981     Delta-E=       -0.000000083176 Rises=F Damp=F
 DIIS: error= 4.29D-05 at cycle   2 NSaved=   2.
 NSaved= 2 IEnMin= 2 EnMin= -1374.30445399981     IErMin= 2 ErrMin= 4.29D-05
 ErrMax= 4.29D-05  0.00D+00 EMaxC= 1.00D-01 BMatC= 2.33D-06 BMatP= 2.01D-06
 IDIUse=1 WtCom= 1.00D+00 WtEn= 0.00D+00
 Coeff-Com:  0.522D+00 0.478D+00
 Coeff:      0.522D+00 0.478D+00
 Gap=     0.273 Goal=   None    Shift=    0.000
 RMSDP=3.32D-06 MaxDP=2.14D-04 DE=-8.32D-08 OVMax= 3.37D-04

 Cycle  10  Pass 1  IDiag  1:
 RMSU=  3.31D-06    CP:  1.00D+00  9.88D-01
 E= -1374.30445571558     Delta-E=       -0.000001715764 Rises=F Damp=F
 DIIS: error= 1.39D-05 at cycle   3 NSaved=   3.
 NSaved= 3 IEnMin= 3 EnMin= -1374.30445571558     IErMin= 3 ErrMin= 1.39D-05
 ErrMax= 1.39D-05  0.00D+00 EMaxC= 1.00D-01 BMatC= 2.07D-07 BMatP= 2.01D-06
 IDIUse=1 WtCom= 1.00D+00 WtEn= 0.00D+00
 Coeff-Com: -0.761D-02 0.221D+00 0.787D+00
 Coeff:     -0.761D-02 0.221D+00 0.787D+00
 Gap=     0.273 Goal=   None    Shift=    0.000
 RMSDP=9.66D-07 MaxDP=5.01D-05 DE=-1.72D-06 OVMax= 9.33D-05

 Cycle  11  Pass 1  IDiag  1:
 RMSU=  5.69D-07    CP:  1.00D+00  1.01D+00  8.08D-01
 E= -1374.30445588136     Delta-E=       -0.000000165779 Rises=F Damp=F
 DIIS: error= 2.64D-06 at cycle   4 NSaved=   4.
 NSaved= 4 IEnMin= 4 EnMin= -1374.30445588136     IErMin= 4 ErrMin= 2.64D-06
 ErrMax= 2.64D-06  0.00D+00 EMaxC= 1.00D-01 BMatC= 1.11D-08 BMatP= 2.07D-07
 IDIUse=1 WtCom= 1.00D+00 WtEn= 0.00D+00
 Coeff-Com: -0.215D-01 0.874D-01 0.356D+00 0.578D+00
 Coeff:     -0.215D-01 0.874D-01 0.356D+00 0.578D+00
 Gap=     0.273 Goal=   None    Shift=    0.000
 RMSDP=2.35D-07 MaxDP=1.38D-05 DE=-1.66D-07 OVMax= 2.24D-05

 Cycle  12  Pass 1  IDiag  1:
 RMSU=  2.26D-07    CP:  1.00D+00  1.01D+00  8.15D-01  9.26D-01
 E= -1374.30445589203     Delta-E=       -0.000000010671 Rises=F Damp=F
 DIIS: error= 6.26D-07 at cycle   5 NSaved=   5.
 NSaved= 5 IEnMin= 5 EnMin= -1374.30445589203     IErMin= 5 ErrMin= 6.26D-07
 ErrMax= 6.26D-07  0.00D+00 EMaxC= 1.00D-01 BMatC= 1.08D-09 BMatP= 1.11D-08
 IDIUse=1 WtCom= 1.00D+00 WtEn= 0.00D+00
 Coeff-Com: -0.374D-02-0.166D-01-0.597D-01 0.152D+00 0.928D+00
 Coeff:     -0.374D-02-0.166D-01-0.597D-01 0.152D+00 0.928D+00
 Gap=     0.273 Goal=   None    Shift=    0.000
 RMSDP=1.35D-07 MaxDP=4.54D-06 DE=-1.07D-08 OVMax= 1.29D-05

 Cycle  13  Pass 1  IDiag  1:
 RMSU=  7.96D-08    CP:  1.00D+00  1.01D+00  8.13D-01  1.10D+00  1.20D+00
 E= -1374.30445589341     Delta-E=       -0.000000001379 Rises=F Damp=F
 DIIS: error= 5.40D-07 at cycle   6 NSaved=   6.
 NSaved= 6 IEnMin= 6 EnMin= -1374.30445589341     IErMin= 6 ErrMin= 5.40D-07
 ErrMax= 5.40D-07  0.00D+00 EMaxC= 1.00D-01 BMatC= 2.74D-10 BMatP= 1.08D-09
 IDIUse=1 WtCom= 1.00D+00 WtEn= 0.00D+00
 Coeff-Com:  0.181D-02-0.224D-01-0.895D-01-0.131D-01 0.463D+00 0.660D+00
 Coeff:      0.181D-02-0.224D-01-0.895D-01-0.131D-01 0.463D+00 0.660D+00
 Gap=     0.273 Goal=   None    Shift=    0.000
 RMSDP=4.54D-08 MaxDP=3.14D-06 DE=-1.38D-09 OVMax= 7.83D-06

 Cycle  14  Pass 1  IDiag  1:
 RMSU=  2.58D-08    CP:  1.00D+00  1.01D+00  8.13D-01  1.15D+00  1.28D+00
                    CP:  7.78D-01
 E= -1374.30445589373     Delta-E=       -0.000000000319 Rises=F Damp=F
 DIIS: error= 2.64D-07 at cycle   7 NSaved=   7.
 NSaved= 7 IEnMin= 7 EnMin= -1374.30445589373     IErMin= 7 ErrMin= 2.64D-07
 ErrMax= 2.64D-07  0.00D+00 EMaxC= 1.00D-01 BMatC= 3.32D-11 BMatP= 2.74D-10
 IDIUse=1 WtCom= 1.00D+00 WtEn= 0.00D+00
 Coeff-Com:  0.128D-02-0.109D-01-0.444D-01-0.196D-01 0.169D+00 0.347D+00
 Coeff-Com:  0.558D+00
 Coeff:      0.128D-02-0.109D-01-0.444D-01-0.196D-01 0.169D+00 0.347D+00
 Coeff:      0.558D+00
 Gap=     0.273 Goal=   None    Shift=    0.000
 RMSDP=1.44D-08 MaxDP=1.00D-06 DE=-3.19D-10 OVMax= 1.34D-06

 Cycle  15  Pass 1  IDiag  1:
 RMSU=  9.44D-09    CP:  1.00D+00  1.01D+00  8.13D-01  1.16D+00  1.30D+00
                    CP:  8.44D-01  8.03D-01
 E= -1374.30445589380     Delta-E=       -0.000000000070 Rises=F Damp=F
 DIIS: error= 5.43D-08 at cycle   8 NSaved=   8.
 NSaved= 8 IEnMin= 8 EnMin= -1374.30445589380     IErMin= 8 ErrMin= 5.43D-08
 ErrMax= 5.43D-08  0.00D+00 EMaxC= 1.00D-01 BMatC= 2.34D-12 BMatP= 3.32D-11
 IDIUse=1 WtCom= 1.00D+00 WtEn= 0.00D+00
 Coeff-Com:  0.267D-03-0.121D-02-0.532D-02-0.533D-02 0.346D-02 0.507D-01
 Coeff-Com:  0.231D+00 0.727D+00
 Coeff:      0.267D-03-0.121D-02-0.532D-02-0.533D-02 0.346D-02 0.507D-01
 Coeff:      0.231D+00 0.727D+00
 Gap=     0.273 Goal=   None    Shift=    0.000
 RMSDP=3.62D-09 MaxDP=2.42D-07 DE=-6.96D-11 OVMax= 4.67D-07

 SCF Done:  E(RM062X) =  -1374.30445589     A.U. after   15 cycles
            NFock= 15  Conv=0.36D-08     -V/T= 2.0087
 KE= 1.362397964788D+03 PE=-7.905909567748D+03 EE= 2.819783139464D+03
 Leave Link  502 at Tue Jul 27 19:39:53 2021, MaxMem=   524288000 cpu:            1720.9 elap:             431.1
 (Enter /opt/gaussian/g16_legacy/l601.exe)
 Copying SCF densities to generalized density rwf, IOpCl= 0 IROHF=0.

 **********************************************************************

            Population analysis using the SCF density.

 **********************************************************************

 Orbital symmetries:
       Occupied  (A) (A) (A) (A) (A) (A) (A) (A) (A) (A) (A) (A)
                 (A) (A) (A) (A) (A) (A) (A) (A) (A) (A) (A) (A)
                 (A) (A) (A) (A) (A) (A) (A) (A) (A) (A) (A) (A)
                 (A) (A) (A) (A) (A) (A) (A) (A) (A) (A) (A) (A)
                 (A) (A) (A) (A) (A) (A) (A) (A) (A) (A) (A) (A)
                 (A) (A) (A) (A) (A) (A) (A) (A) (A) (A) (A) (A)
                 (A) (A) (A) (A) (A) (A) (A) (A) (A) (A) (A) (A)
                 (A) (A) (A) (A) (A) (A) (A) (A) (A) (A) (A) (A)
                 (A) (A) (A) (A) (A)
       Virtual   (A) (A) (A) (A) (A) (A) (A) (A) (A) (A) (A) (A)
                 (A) (A) (A) (A) (A) (A) (A) (A) (A) (A) (A) (A)
                 (A) (A) (A) (A) (A) (A) (A) (A) (A) (A) (A) (A)
                 (A) (A) (A) (A) (A) (A) (A) (A) (A) (A) (A) (A)
                 (A) (A) (A) (A) (A) (A) (A) (A) (A) (A) (A) (A)
                 (A) (A) (A) (A) (A) (A) (A) (A) (A) (A) (A) (A)
                 (A) (A) (A) (A) (A) (A) (A) (A) (A) (A) (A) (A)
                 (A) (A) (A) (A) (A) (A) (A) (A) (A) (A) (A) (A)
                 (A) (A) (A) (A) (A) (A) (A) (A) (A) (A) (A) (A)
                 (A) (A) (A) (A) (A) (A) (A) (A) (A) (A) (A) (A)
                 (A) (A) (A) (A) (A) (A) (A) (A) (A) (A) (A) (A)
                 (A) (A) (A) (A) (A) (A) (A) (A) (A) (A) (A) (A)
                 (A) (A) (A) (A) (A) (A) (A) (A) (A) (A) (A) (A)
                 (A) (A) (A) (A) (A) (A) (A) (A) (A) (A) (A) (A)
                 (A) (A) (A) (A) (A) (A) (A) (A) (A) (A) (A) (A)
                 (A) (A) (A) (A) (A) (A) (A) (A) (A) (A) (A) (A)
                 (A) (A) (A) (A) (A) (A) (A) (A) (A) (A) (A) (A)
                 (A) (A) (A) (A) (A) (A) (A) (A) (A) (A) (A) (A)
                 (A) (A) (A) (A) (A) (A) (A) (A) (A) (A) (A) (A)
                 (A) (A) (A) (A) (A) (A) (A) (A) (A) (A) (A) (A)
                 (A) (A) (A) (A) (A) (A) (A) (A) (A) (A) (A) (A)
                 (A) (A) (A) (A) (A) (A) (A) (A) (A) (A) (A) (A)
                 (A) (A) (A) (A) (A) (A) (A) (A) (A) (A) (A) (A)
                 (A) (A) (A) (A) (A) (A) (A) (A) (A) (A) (A) (A)
                 (A) (A) (A) (A) (A) (A) (A) (A) (A) (A) (A) (A)
                 (A) (A) (A) (A) (A) (A) (A) (A) (A) (A) (A) (A)
                 (A) (A) (A) (A) (A) (A) (A) (A) (A) (A) (A) (A)
                 (A) (A) (A) (A) (A) (A) (A) (A) (A) (A) (A) (A)
                 (A) (A) (A) (A) (A) (A) (A) (A) (A) (A) (A) (A)
                 (A) (A) (A) (A) (A) (A) (A) (A) (A) (A) (A) (A)
                 (A) (A) (A) (A) (A) (A) (A) (A) (A) (A) (A) (A)
                 (A) (A) (A) (A) (A) (A) (A) (A) (A) (A) (A) (A)
                 (A) (A) (A) (A) (A) (A) (A) (A) (A) (A) (A) (A)
                 (A) (A) (A) (A) (A) (A) (A) (A) (A) (A) (A) (A)
                 (A)
 The electronic state is 1-A.
 Alpha  occ. eigenvalues --  -19.70168 -19.70039 -19.69547 -19.69361 -19.64650
 Alpha  occ. eigenvalues --  -19.64464 -19.63928 -19.63891 -10.69887 -10.69693
 Alpha  occ. eigenvalues --  -10.69528 -10.69077 -10.62146 -10.62097 -10.60972
 Alpha  occ. eigenvalues --  -10.58431 -10.58422 -10.58055 -10.57950 -10.57587
 Alpha  occ. eigenvalues --  -10.57523 -10.57420 -10.57401 -10.57177 -10.57157
 Alpha  occ. eigenvalues --  -10.57064 -10.56965 -10.54872  -1.24338  -1.24143
 Alpha  occ. eigenvalues --   -1.23468  -1.23266  -1.15009  -1.14483  -1.14110
 Alpha  occ. eigenvalues --   -1.13813  -0.98290  -0.97884  -0.90875  -0.89676
 Alpha  occ. eigenvalues --   -0.87839  -0.86254  -0.85912  -0.85432  -0.80273
 Alpha  occ. eigenvalues --   -0.77090  -0.75246  -0.72028  -0.71217  -0.70345
 Alpha  occ. eigenvalues --   -0.68938  -0.67093  -0.65729  -0.64100  -0.62733
 Alpha  occ. eigenvalues --   -0.62326  -0.60470  -0.60103  -0.58623  -0.58245
 Alpha  occ. eigenvalues --   -0.57934  -0.57242  -0.56733  -0.55742  -0.54057
 Alpha  occ. eigenvalues --   -0.53880  -0.53367  -0.52942  -0.52773  -0.51840
 Alpha  occ. eigenvalues --   -0.51382  -0.50359  -0.50320  -0.50151  -0.49917
 Alpha  occ. eigenvalues --   -0.48705  -0.48301  -0.47111  -0.46346  -0.44781
 Alpha  occ. eigenvalues --   -0.44703  -0.44575  -0.44251  -0.44038  -0.43105
 Alpha  occ. eigenvalues --   -0.42466  -0.42326  -0.41695  -0.41144  -0.39884
 Alpha  occ. eigenvalues --   -0.39581  -0.37443  -0.37304  -0.36493  -0.36037
 Alpha  occ. eigenvalues --   -0.35889  -0.35595  -0.32663  -0.32180  -0.32129
 Alpha  occ. eigenvalues --   -0.31758
 Alpha virt. eigenvalues --   -0.04443  -0.04071   0.01532   0.01887   0.04969
 Alpha virt. eigenvalues --    0.05103   0.11812   0.12687   0.12764   0.13271
 Alpha virt. eigenvalues --    0.13949   0.14698   0.15646   0.16043   0.16412
 Alpha virt. eigenvalues --    0.17641   0.18582   0.18827   0.19387   0.19526
 Alpha virt. eigenvalues --    0.19839   0.20671   0.21069   0.21505   0.22183
 Alpha virt. eigenvalues --    0.22282   0.22519   0.22685   0.23694   0.23785
 Alpha virt. eigenvalues --    0.24589   0.25540   0.26384   0.28355   0.28955
 Alpha virt. eigenvalues --    0.29347   0.29968   0.31164   0.31811   0.32291
 Alpha virt. eigenvalues --    0.32482   0.32870   0.33253   0.33452   0.33614
 Alpha virt. eigenvalues --    0.37326   0.38181   0.38501   0.38577   0.44728
 Alpha virt. eigenvalues --    0.45088   0.47866   0.48648   0.50611   0.52160
 Alpha virt. eigenvalues --    0.52377   0.53038   0.54442   0.54781   0.56160
 Alpha virt. eigenvalues --    0.56344   0.56832   0.57307   0.57482   0.57734
 Alpha virt. eigenvalues --    0.58054   0.58543   0.58831   0.59735   0.59881
 Alpha virt. eigenvalues --    0.60704   0.61430   0.62367   0.62590   0.63006
 Alpha virt. eigenvalues --    0.63142   0.63267   0.63457   0.63553   0.64695
 Alpha virt. eigenvalues --    0.65115   0.65448   0.65602   0.67319   0.67724
 Alpha virt. eigenvalues --    0.68540   0.69287   0.69596   0.70662   0.70805
 Alpha virt. eigenvalues --    0.71328   0.72063   0.74402   0.75134   0.75383
 Alpha virt. eigenvalues --    0.76170   0.77498   0.78075   0.78667   0.79225
 Alpha virt. eigenvalues --    0.79789   0.80325   0.82151   0.82530   0.83101
 Alpha virt. eigenvalues --    0.83427   0.84798   0.85321   0.85782   0.85980
 Alpha virt. eigenvalues --    0.86198   0.86668   0.87090   0.87334   0.87557
 Alpha virt. eigenvalues --    0.87774   0.89318   0.89609   0.90317   0.91865
 Alpha virt. eigenvalues --    0.92238   0.92539   0.94056   0.94311   0.94523
 Alpha virt. eigenvalues --    0.95169   0.95237   0.97755   0.98232   0.99473
 Alpha virt. eigenvalues --    0.99920   1.00172   1.00553   1.01365   1.01835
 Alpha virt. eigenvalues --    1.02465   1.02795   1.03814   1.04847   1.06057
 Alpha virt. eigenvalues --    1.06337   1.07186   1.08915   1.09503   1.09729
 Alpha virt. eigenvalues --    1.10620   1.10915   1.12529   1.13341   1.15269
 Alpha virt. eigenvalues --    1.16625   1.17041   1.18039   1.18995   1.20393
 Alpha virt. eigenvalues --    1.21840   1.22826   1.25666   1.27199   1.27885
 Alpha virt. eigenvalues --    1.28177   1.29006   1.29313   1.30287   1.31589
 Alpha virt. eigenvalues --    1.31856   1.32983   1.33651   1.33760   1.34761
 Alpha virt. eigenvalues --    1.35416   1.35762   1.36126   1.36433   1.38592
 Alpha virt. eigenvalues --    1.39750   1.41615   1.41691   1.42682   1.42915
 Alpha virt. eigenvalues --    1.43638   1.44185   1.44530   1.44732   1.45155
 Alpha virt. eigenvalues --    1.46073   1.47085   1.47854   1.48683   1.48843
 Alpha virt. eigenvalues --    1.50382   1.51040   1.51215   1.55631   1.57759
 Alpha virt. eigenvalues --    1.59444   1.60479   1.61264   1.61631   1.63413
 Alpha virt. eigenvalues --    1.67777   1.68859   1.69799   1.70283   1.71567
 Alpha virt. eigenvalues --    1.71758   1.72434   1.74436   1.77533   1.77694
 Alpha virt. eigenvalues --    1.78052   1.78838   1.79177   1.79649   1.79848
 Alpha virt. eigenvalues --    1.80586   1.81982   1.82942   1.85395   1.86276
 Alpha virt. eigenvalues --    1.88550   1.89006   1.89817   1.89949   1.90063
 Alpha virt. eigenvalues --    1.90383   1.90560   1.91349   1.92795   1.92995
 Alpha virt. eigenvalues --    1.93250   1.93545   1.94756   1.94948   1.95419
 Alpha virt. eigenvalues --    1.95755   1.96018   1.97793   1.98458   1.98930
 Alpha virt. eigenvalues --    1.99277   1.99630   1.99853   2.00105   2.00956
 Alpha virt. eigenvalues --    2.02409   2.03338   2.04601   2.05523   2.06153
 Alpha virt. eigenvalues --    2.07293   2.07862   2.08570   2.10233   2.10687
 Alpha virt. eigenvalues --    2.11422   2.11530   2.12232   2.12466   2.12888
 Alpha virt. eigenvalues --    2.13162   2.13286   2.13491   2.15076   2.15708
 Alpha virt. eigenvalues --    2.17453   2.18525   2.20588   2.21371   2.23417
 Alpha virt. eigenvalues --    2.26183   2.27154   2.29082   2.29303   2.29739
 Alpha virt. eigenvalues --    2.30952   2.31382   2.32291   2.33308   2.34845
 Alpha virt. eigenvalues --    2.35425   2.36699   2.38804   2.39669   2.39910
 Alpha virt. eigenvalues --    2.40293   2.41562   2.41700   2.41984   2.42507
 Alpha virt. eigenvalues --    2.42933   2.43846   2.44360   2.44896   2.45912
 Alpha virt. eigenvalues --    2.46404   2.47226   2.50066   2.52270   2.52732
 Alpha virt. eigenvalues --    2.53004   2.54499   2.55006   2.56088   2.57248
 Alpha virt. eigenvalues --    2.57940   2.59673   2.59780   2.59974   2.60415
 Alpha virt. eigenvalues --    2.60807   2.61540   2.62411   2.63406   2.63588
 Alpha virt. eigenvalues --    2.65136   2.66161   2.67016   2.68151   2.68354
 Alpha virt. eigenvalues --    2.68498   2.70088   2.70642   2.71686   2.72398
 Alpha virt. eigenvalues --    2.74541   2.75338   2.76620   2.77110   2.77313
 Alpha virt. eigenvalues --    2.78051   2.78574   2.79333   2.79753   2.80705
 Alpha virt. eigenvalues --    2.83339   2.84126   2.84712   2.86258   2.87305
 Alpha virt. eigenvalues --    2.89074   2.89670   2.89961   2.92356   2.93665
 Alpha virt. eigenvalues --    2.95783   2.98204   2.98715   2.99841   3.01399
 Alpha virt. eigenvalues --    3.02328   3.04512   3.04881   3.11529   3.14190
 Alpha virt. eigenvalues --    3.15785   3.17062   3.17657   3.18533   3.20073
 Alpha virt. eigenvalues --    3.21712   3.22739   3.23386   3.23951   3.28098
 Alpha virt. eigenvalues --    3.28644   3.31156   3.35552   3.36085   3.36380
 Alpha virt. eigenvalues --    3.38048   3.39843   3.41904   3.44563   3.45287
 Alpha virt. eigenvalues --    3.48842   3.49721   3.50429   3.51329   3.80791
 Alpha virt. eigenvalues --    3.80903   3.95367   3.97038   4.02942   4.08422
 Alpha virt. eigenvalues --    4.11540   4.12620   4.16429   4.16705   4.16827
 Alpha virt. eigenvalues --    4.19415   4.27049   4.29495   4.35049   4.37490
[...]
    45  H   -0.000000   0.000000  -0.000000  -0.000000   0.000000   0.000000
    46  H    0.000000   0.000000   0.000000   0.000000   0.000000  -0.015023
              25         26         27         28         29         30
     1  C   -0.000000  -0.000000   0.000000   0.000000   0.000000   0.000000
     2  C   -0.000000  -0.000000   0.000000   0.000000   0.000000   0.000000
     3  H    0.000000   0.000000   0.000000  -0.000000   0.000000  -0.000000
     4  C    0.000000   0.000000   0.000000  -0.000000   0.000000  -0.000000
     5  H   -0.000000  -0.000000  -0.000000   0.000000  -0.000000   0.000000
     6  C    0.000000   0.000000  -0.000000  -0.000000   0.000000  -0.000000
     7  C    0.000000   0.000000  -0.000000  -0.000000  -0.000000  -0.000000
     8  H    0.000000   0.000000  -0.000000  -0.000000  -0.000000  -0.000000
     9  C   -0.000000  -0.000000   0.000000   0.000000   0.000000   0.000000
    10  H   -0.000000  -0.000000   0.000000   0.000000   0.000000   0.000000
    11  C   -0.000000  -0.000000   0.000000   0.000000   0.000000   0.000000
    12  O    0.000000  -0.000000  -0.000000   0.000000  -0.000000   0.000000
    13  C    0.000000   0.000000  -0.000000  -0.000000  -0.000000  -0.000000
    14  O    0.000000   0.000000   0.000000   0.000000   0.000000   0.000000
    15  O   -0.000001  -0.000000   0.000000   0.000000   0.000000  -0.000000
    16  O   -0.000000   0.000000   0.000000   0.000000  -0.000000   0.000000
    17  C    0.000000   0.000000   0.000000   0.000000  -0.000000  -0.000000
    18  H    0.000000   0.000000   0.000000   0.000000   0.000000   0.000000
    19  H   -0.000000   0.000000   0.000000   0.000000  -0.000000  -0.000000
    20  C    0.000000   0.000000   0.000000   0.000000   0.000000  -0.000000
    21  H    0.000000   0.000000   0.000000   0.000000   0.000000   0.000000
    22  H    0.000000   0.000000   0.000000   0.000000   0.000000   0.000000
    23  H    0.000000   0.000000   0.000000   0.000000   0.000000   0.000000
    24  C    0.004229  -0.000112  -0.036418  -0.008539   0.307429  -0.042625
    25  C    4.911115   0.376107   0.492102  -0.032368  -0.032157  -0.043423
    26  H    0.376107   0.522972  -0.031169  -0.003518   0.002872   0.000471
    27  C    0.492102  -0.031169   4.926427   0.376633   0.520095  -0.058657
    28  H   -0.032368  -0.003518   0.376633   0.527537  -0.033194   0.004247
    29  C   -0.032157   0.002872   0.520095  -0.033194   5.006673   0.537658
    30  C   -0.043423   0.000471  -0.058657   0.004247   0.537658   4.917107
    31  H    0.000524   0.000016   0.004281  -0.000138  -0.037236   0.376361
    32  C   -0.059029   0.004403  -0.041656   0.000523  -0.037899   0.487417
    33  H    0.004315  -0.000136   0.000505   0.000015   0.003011  -0.032814
    34  C    0.534211  -0.037798  -0.036898   0.002945  -0.028233  -0.029264
    35  O    0.002570   0.010792   0.000788   0.000001  -0.000010  -0.000065
    36  C   -0.039406  -0.007986   0.005937  -0.000141   0.000497   0.004363
    37  O    0.004229   0.000285  -0.000053   0.000000  -0.000006   0.000353
    38  O    0.000287  -0.000001   0.000591   0.006152  -0.103932   0.004103
    39  O   -0.000062   0.000000   0.003709   0.000105  -0.100726   0.002910
    40  C   -0.000162  -0.000014   0.000001  -0.000000   0.000000   0.000003
    41  H    0.000002   0.000000  -0.000000   0.000000   0.000000  -0.000001
    42  H   -0.000018  -0.000005   0.000000  -0.000000  -0.000000   0.000001
    43  C    0.000025   0.000003  -0.000000   0.000000  -0.000000   0.000000
    44  H   -0.000000  -0.000000   0.000000  -0.000000   0.000000  -0.000000
    45  H   -0.000001   0.000001  -0.000000  -0.000000   0.000000   0.000000
    46  H    0.000005  -0.000000  -0.000558  -0.000194   0.011430  -0.000225
              31         32         33         34         35         36
     1  C   -0.000000   0.000001   0.000008  -0.000000   0.000003   0.000062
     2  C   -0.000000  -0.000000   0.000000  -0.000000   0.000000   0.000000
     3  H    0.000000  -0.000000  -0.000000   0.000000   0.000000  -0.000000
     4  C   -0.000000  -0.000001   0.000003  -0.000001   0.000000   0.000001
     5  H   -0.000000   0.000004   0.000002  -0.000000   0.000000   0.000009
     6  C    0.000000  -0.000001  -0.000000   0.000001   0.000000  -0.000001
     7  C    0.000000   0.000000  -0.000000   0.000000  -0.000000  -0.000000
     8  H    0.000000   0.000000  -0.000000   0.000000   0.000000  -0.000000
     9  C    0.000000   0.000000  -0.000000  -0.000000   0.000000   0.000000
    10  H   -0.000000  -0.000000   0.000000  -0.000000   0.000000   0.000000
    11  C    0.000000   0.000000  -0.000000   0.000000  -0.000000   0.000000
    12  O   -0.000000  -0.000000   0.000000  -0.000000   0.000000   0.000000
    13  C    0.000000   0.000000  -0.000000   0.000000  -0.000000  -0.000000
    14  O   -0.000000  -0.000000   0.000000  -0.000000   0.000000   0.000000
    15  O   -0.000000   0.000011   0.000013  -0.000043   0.000043   0.001579
    16  O    0.000000   0.000000   0.000000   0.000000  -0.000000   0.000003
    17  C    0.000000   0.000000  -0.000000   0.000000   0.000000  -0.000000
    18  H   -0.000000  -0.000000   0.000000  -0.000000   0.000000   0.000000
    19  H    0.000000   0.000000  -0.000000  -0.000000   0.000000   0.000000
    20  C    0.000000  -0.000000  -0.000000   0.000000   0.000000   0.000000
    21  H   -0.000000  -0.000000   0.000000   0.000000   0.000000  -0.000000
    22  H    0.000000   0.000000  -0.000000   0.000000   0.000000   0.000000
    23  H    0.000000   0.000000  -0.000000   0.000000   0.000000   0.000000
    24  C   -0.008170   0.006686  -0.000134   0.000241  -0.000000   0.000002
    25  C    0.000524  -0.059029   0.004315   0.534211   0.002570  -0.039406
    26  H    0.000016   0.004403  -0.000136  -0.037798   0.010792  -0.007986
    27  C    0.004281  -0.041656   0.000505  -0.036898   0.000788   0.005937
    28  H   -0.000138   0.000523   0.000015   0.002945   0.000001  -0.000141
    29  C   -0.037236  -0.037899   0.003011  -0.028233  -0.000010   0.000497
    30  C    0.376361   0.487417  -0.032814  -0.029264  -0.000065   0.004363
    31  H    0.520689  -0.030727  -0.003483   0.002797   0.000000  -0.000126
    32  C   -0.030727   4.927562   0.376733   0.520585   0.003719  -0.039967
    33  H   -0.003483   0.376733   0.526867  -0.034093   0.000117  -0.008539
    34  C    0.002797   0.520585  -0.034093   4.972078  -0.091052   0.349082
    35  O    0.000000   0.003719   0.000117  -0.091052   8.101502   0.551618
    36  C   -0.000126  -0.039967  -0.008539   0.349082   0.551618   4.300302
    37  O   -0.000001   0.001146   0.007862  -0.098290  -0.093451   0.265686
    38  O    0.000272  -0.000048   0.000000  -0.000006   0.000000  -0.000000
    39  O    0.010065   0.000860   0.000001  -0.000017  -0.000000  -0.000000
    40  C   -0.000000  -0.000287  -0.000251   0.007641   0.000171  -0.028612
    41  H   -0.000000  -0.000050  -0.000007   0.000035   0.000376   0.003317
    42  H   -0.000000   0.000056   0.000019   0.000023   0.011119  -0.005962
    43  C    0.000000   0.000017   0.000019  -0.000685  -0.006799  -0.004651
    44  H   -0.000000  -0.000000  -0.000000   0.000002   0.000068   0.000236
    45  H   -0.000000  -0.000024  -0.000001   0.000241   0.007001   0.004127
    46  H   -0.000018   0.000001  -0.000000   0.000001   0.000000   0.000000
              37         38         39         40         41         42
     1  C    0.001560   0.000000   0.000000  -0.004675   0.004107   0.000234
     2  C   -0.000000   0.000000   0.000000   0.000000   0.000000  -0.000000
     3  H   -0.000000  -0.000000  -0.000000   0.000000  -0.000000  -0.000000
     4  C    0.000011  -0.000000  -0.000000   0.000017  -0.000024  -0.000000
     5  H    0.000013   0.000000   0.000000   0.000019  -0.000001  -0.000000
     6  C   -0.000042  -0.000000  -0.000000  -0.000678   0.000241   0.000002
     7  C   -0.000001   0.000000   0.000000   0.000024  -0.000001  -0.000000
     8  H   -0.000000   0.000000  -0.000000   0.000003   0.000000  -0.000000
     9  C    0.000000   0.000000  -0.000000  -0.000000  -0.000000   0.000000
    10  H    0.000000   0.000000   0.000000   0.000000  -0.000000  -0.000000
    11  C    0.000000   0.000000  -0.000000  -0.000000   0.000000   0.000000
    12  O    0.000000   0.000000   0.000000  -0.000000   0.000000   0.000000
    13  C   -0.000000   0.000000  -0.000000   0.000000   0.000000  -0.000000
    14  O   -0.000000   0.000000   0.000000  -0.000000  -0.000000  -0.000000
    15  O    0.000030  -0.000000   0.000000  -0.039082  -0.006307   0.002840
    16  O    0.000044   0.000000   0.000000  -0.006826   0.007090   0.000069
    17  C   -0.000000   0.000000   0.000000   0.000000  -0.000000  -0.000000
    18  H   -0.000000   0.000000   0.000000  -0.000000  -0.000000  -0.000000
    19  H   -0.000000   0.000000   0.000000  -0.000000   0.000000   0.000000
    20  C    0.000000   0.000000   0.000000   0.000000  -0.000000   0.000000
    21  H   -0.000000   0.000000   0.000000  -0.000000  -0.000000  -0.000000
    22  H    0.000000   0.000000   0.000000   0.000000  -0.000000   0.000000
    23  H    0.000000   0.000000   0.000000  -0.000000   0.000000   0.000000
    24  C   -0.000000   0.280172   0.595893   0.000000   0.000000  -0.000000
    25  C    0.004229   0.000287  -0.000062  -0.000162   0.000002  -0.000018
    26  H    0.000285  -0.000001   0.000000  -0.000014   0.000000  -0.000005
    27  C   -0.000053   0.000591   0.003709   0.000001  -0.000000   0.000000
    28  H    0.000000   0.006152   0.000105  -0.000000   0.000000  -0.000000
    29  C   -0.000006  -0.103932  -0.100726   0.000000   0.000000  -0.000000
    30  C    0.000353   0.004103   0.002910   0.000003  -0.000001   0.000001
    31  H   -0.000001   0.000272   0.010065  -0.000000  -0.000000  -0.000000
    32  C    0.001146  -0.000048   0.000860  -0.000287  -0.000050   0.000056
    33  H    0.007862   0.000000   0.000001  -0.000251  -0.000007   0.000019
    34  C   -0.098290  -0.000006  -0.000017   0.007641   0.000035   0.000023
    35  O   -0.093451   0.000000  -0.000000   0.000171   0.000376   0.011119
    36  C    0.265686  -0.000000  -0.000000  -0.028612   0.003317  -0.005962
    37  O    8.344947  -0.000000   0.000000   0.183719  -0.033808  -0.031714
    38  O   -0.000000   8.160073  -0.097188   0.000000  -0.000000  -0.000000
    39  O    0.000000  -0.097188   8.057195   0.000000   0.000000   0.000000
    40  C    0.183719   0.000000   0.000000   4.855679   0.401514   0.380090
    41  H   -0.033808  -0.000000   0.000000   0.401514   0.513023  -0.025043
    42  H   -0.031714  -0.000000   0.000000   0.380090  -0.025043   0.552152
    43  C   -0.038989  -0.000000  -0.000000   0.340889  -0.037227  -0.039763
    44  H    0.002836  -0.000000   0.000000  -0.039867  -0.002339   0.002068
    45  H   -0.006298  -0.000000  -0.000000  -0.037421   0.003567  -0.002318
    46  H    0.000000   0.284609   0.006470  -0.000000  -0.000000   0.000000
              43         44         45         46
     1  C   -0.028613  -0.006009   0.003334  -0.000000
     2  C    0.000003   0.000001  -0.000001  -0.000000
     3  H   -0.000000  -0.000000  -0.000000   0.000000
     4  C   -0.000287   0.000057  -0.000050   0.000000
     5  H   -0.000251   0.000019  -0.000006  -0.000000
     6  C    0.007640   0.000017   0.000037   0.000000
     7  C   -0.000163  -0.000017   0.000002  -0.000000
     8  H   -0.000014  -0.000005   0.000000   0.000000
     9  C    0.000001   0.000000  -0.000000   0.000000
    10  H   -0.000000  -0.000000   0.000000   0.000000
    11  C    0.000000  -0.000000   0.000000  -0.000000
    12  O    0.000000   0.000000   0.000000   0.000000
    13  C    0.000000  -0.000000   0.000000   0.000000
    14  O    0.000000   0.000000  -0.000000   0.000000
    15  O    0.184295  -0.031707  -0.033912  -0.000000
    16  O    0.000144   0.011255   0.000381   0.000000
    17  C   -0.000000   0.000000  -0.000000   0.000000
    18  H    0.000000  -0.000000  -0.000000   0.000000
    19  H    0.000000   0.000000  -0.000000   0.000000
    20  C   -0.000000  -0.000000   0.000000   0.000000
    21  H    0.000000  -0.000000  -0.000000   0.000000
    22  H   -0.000000   0.000000  -0.000000   0.000000
    23  H   -0.000000   0.000000   0.000000   0.000000
    24  C    0.000000  -0.000000   0.000000  -0.015023
    25  C    0.000025  -0.000000  -0.000001   0.000005
    26  H    0.000003  -0.000000   0.000001  -0.000000
    27  C   -0.000000   0.000000  -0.000000  -0.000558
    28  H    0.000000  -0.000000  -0.000000  -0.000194
    29  C   -0.000000   0.000000   0.000000   0.011430
    30  C    0.000000  -0.000000   0.000000  -0.000225
    31  H    0.000000  -0.000000  -0.000000  -0.000018
    32  C    0.000017  -0.000000  -0.000024   0.000001
    33  H    0.000019  -0.000000  -0.000001  -0.000000
    34  C   -0.000685   0.000002   0.000241   0.000001
    35  O   -0.006799   0.000068   0.007001   0.000000
    36  C   -0.004651   0.000236   0.004127   0.000000
    37  O   -0.038989   0.002836  -0.006298   0.000000
    38  O   -0.000000  -0.000000  -0.000000   0.284609
    39  O   -0.000000   0.000000  -0.000000   0.006470
    40  C    0.340889  -0.039867  -0.037421  -0.000000
    41  H   -0.037227  -0.002339   0.003567  -0.000000
    42  H   -0.039763   0.002068  -0.002318   0.000000
    43  C    4.854189   0.380182   0.401610   0.000000
    44  H    0.380182   0.552077  -0.025054  -0.000000
    45  H    0.401610  -0.025054   0.513705  -0.000000
    46  H    0.000000  -0.000000  -0.000000   0.359959
 Mulliken charges:
               1
     1  C    0.647169
     2  C   -0.125383
     3  H    0.163133
     4  C   -0.122386
     5  H    0.158094
     6  C   -0.032207
     7  C   -0.125350
     8  H    0.160871
     9  C   -0.123011
    10  H    0.154621
    11  C   -0.031883
    12  O   -0.494302
    13  C    0.650086
    14  O   -0.518069
    15  O   -0.510314
    16  O   -0.499657
    17  C    0.022353
    18  H    0.141874
    19  H    0.141883
    20  C   -0.388121
    21  H    0.140945
    22  H    0.134109
    23  H    0.140940
    24  C    0.602761
    25  C   -0.123094
    26  H    0.162816
    27  C   -0.125660
    28  H    0.159935
    29  C   -0.016274
    30  C   -0.127919
    31  H    0.164894
    32  C   -0.120036
    33  H    0.159967
    34  C   -0.033503
    35  O   -0.498510
    36  C    0.648573
    37  O   -0.510070
    38  O   -0.535084
    39  O   -0.479216
    40  C   -0.011894
    41  H    0.171536
    42  H    0.156151
    43  C   -0.011573
    44  H    0.156182
    45  H    0.171079
    46  H    0.353545
 Sum of Mulliken charges =  -0.00000
 Mulliken charges with hydrogens summed into heavy atoms:
               1
     1  C    0.647169
     2  C    0.037750
     4  C    0.035707
     6  C   -0.032207
     7  C    0.035521
     9  C    0.031611
    11  C   -0.031883
    12  O   -0.494302
    13  C    0.650086
    14  O   -0.518069
    15  O   -0.510314
    16  O   -0.499657
    17  C    0.306110
    20  C    0.027873
    24  C    0.602761
    25  C    0.039722
    27  C    0.034275
    29  C   -0.016274
    30  C    0.036975
    32  C    0.039932
    34  C   -0.033503
    35  O   -0.498510
    36  C    0.648573
    37  O   -0.510070
    38  O   -0.181539
    39  O   -0.479216
    40  C    0.315792
    43  C    0.315687
 Electronic spatial extent (au):  <R**2>=          19708.8546
 Charge=              0.0000 electrons
 Dipole moment (field-independent basis, Debye):
    X=             -0.7637    Y=              0.0378    Z=             -0.2563  Tot=              0.8064
 Quadrupole moment (field-independent basis, Debye-Ang):
   XX=           -125.3666   YY=           -163.9796   ZZ=           -160.0786
   XY=              1.9983   XZ=             10.9033   YZ=              0.5549
 Traceless Quadrupole moment (field-independent basis, Debye-Ang):
   XX=             24.4417   YY=            -14.1714   ZZ=            -10.2703
   XY=              1.9983   XZ=             10.9033   YZ=              0.5549
 Octapole moment (field-independent basis, Debye-Ang**2):
  XXX=            -92.5539  YYY=             -3.7724  ZZZ=             -0.9786  XYY=             28.0785
  XXY=            145.0819  XXZ=             -8.7210  XZZ=              5.1085  YZZ=             -7.1783
  YYZ=             14.6247  XYZ=             57.7356
 Hexadecapole moment (field-independent basis, Debye-Ang**3):
 XXXX=         -16405.6642 YYYY=          -5038.2580 ZZZZ=           -654.5762 XXXY=            297.5696
 XXXZ=            464.3071 YYYX=            122.6279 YYYZ=             67.6563 ZZZX=             23.3262
 ZZZY=              3.5077 XXYY=          -3705.2532 XXZZ=          -3461.8103 YYZZ=           -992.3140
 XXYZ=             83.5410 YYXZ=            158.6777 ZZXY=              4.0221
 N-N= 2.362599710171D+03 E-N=-7.932879850469D+03  KE= 1.363043023281D+03
 No NMR shielding tensors so no spin-rotation constants.
 Leave Link  601 at Tue Jul 27 20:48:42 2021, MaxMem=   524288000 cpu:               3.0 elap:               1.0
 (Enter /opt/gaussian/g16_legacy/l9999.exe)
 1\1\GINC-TRUENO91\FOpt\RM062X\6-31G(d,p)\C20H18O8\JRAMOS\27-Jul-2021\0
 \\#p opt=loose m062x/6-31g(d,p)\\Conformer number 1983. Energy MM = 71
 .187 kcal/mol\\0,1\C,0.9829345942,-2.5482702201,-0.4434830332\C,2.5721
 653713,0.8769839103,-0.7534660709\H,2.4060315115,1.8484106726,-1.20613
 17346\C,1.6644195096,-0.1613057991,-0.9116050014\H,0.7611525571,-0.025
 8010721,-1.4946424487\C,1.9200005984,-1.3954432644,-0.3095131527\C,3.0
 763846747,-1.5905463329,0.4474795358\H,3.2429353448,-2.5612693818,0.90
 15136681\C,3.9842548279,-0.5523029927,0.6040811045\H,4.8875765952,-0.6
 869417159,1.1872433558\C,3.7293346462,0.6816079107,0.0017764856\O,4.48
 5876148,2.9185590797,-0.3688331419\C,4.6695594659,1.8357577024,0.13454
 61494\O,5.7456226174,1.5384637437,0.8766707681\O,-0.0817849587,-2.2590
 957164,-1.2109869782\O,1.1558708247,-3.627479157,0.0740752009\C,6.6892
 893544,2.6079110098,1.0425100584\H,7.030587641,2.930565897,0.054641720
 3\H,6.1794173885,3.456136311,1.5083898049\C,7.8202927758,2.0790316519,
 1.8958467101\H,7.4483276818,1.756270983,2.8706420346\H,8.5668906826,2.
 8611643348,2.0507049844\H,8.3038255294,1.2290035623,1.4096374838\C,-6.
 378597092,2.876432253,0.7163705619\C,-5.4899272009,-0.3771495585,-1.00
 39353436\H,-5.8236946205,-1.0280058347,-1.8046026852\C,-6.1626688887,0
 .7975933666,-0.6969146069\H,-7.043618667,1.094922475,-1.2536979132\C,-
 5.6959634547,1.6046806429,0.3427408875\C,-4.5631617517,1.2413472735,1.
 0724411696\H,-4.2293418541,1.8930147296,1.8725014581\C,-3.8906182082,0
 .0665020621,0.7658408042\H,-3.008961938,-0.2305812663,1.3212707783\C,-
 4.3577319801,-0.7412347396,-0.2735722214\O,-4.0408072037,-2.7374078017
 ,-1.5489016931\C,-3.6771475324,-2.0150384791,-0.6500066439\O,-2.611890
 9085,-2.276753303,0.125222468\O,-7.4558602321,3.1366529858,-0.04704245
 91\O,-6.0198860927,3.6089160542,1.6057965547\C,-1.9079164279,-3.486681
 4847,-0.1730934941\H,-1.306983808,-3.6999759671,0.7104635209\H,-2.6218
 646033,-4.2951244366,-0.3503185245\C,-1.023027684,-3.3210814298,-1.393
 1809471\H,-0.4919361016,-4.2571241488,-1.5841926344\H,-1.6165523729,-3
 .0395085399,-2.2625161225\H,-7.8228067588,3.9741940303,0.2734295824\\V
 ersion=EM64L-G16RevA.03\State=1-A\HF=-1374.3111928\RMSD=5.955e-09\RMSF
 =7.123e-06\Dipole=0.2946136,0.0007852,0.1177508\Quadrupole=17.4665379,
 -10.3791028,-7.0874351,-2.3463637,8.9446381,-0.9069301\PG=C01 [X(C20H1
 8O8)]\\@


 BETTER TO HUNT IN FIELDS, FOR HEALTH UNBOUGHT
 THAN FEE THE DOCTOR FOR A NAUSEOUS DRAUGHT.
 THE WISE, FOR CURE, ON EXERCISE DEPEND;
 GOD NEVER MADE HIS WORK FOR MAN TO MEND.
     -- JOHN DRYDEN (1631-1700)
 Job cpu time:       0 days  5 hours  4 minutes 18.3 seconds.
 Elapsed time:       0 days  1 hours 16 minutes 14.3 seconds.
 File lengths (MBytes):  RWF=    165 Int=      0 D2E=      0 Chk=     21 Scr=      1
 Normal termination of Gaussian 16 at Tue Jul 27 20:48:42 2021.
