 Entering Gaussian System, Link 0=/opt/gaussian/g16_legacy/g16
 Input=05-PET_1387_gaussian.com
 Output=05-PET_1387_gaussian.log
 Initial command:
 /opt/gaussian/g16_legacy/l1.exe "/scratch-local/jramos/2648136/Gau-24672.inp" -scrdir="/scratch-local/jramos/2648136/"
 Entering Link 1 = /opt/gaussian/g16_legacy/l1.exe PID=     24673.
  
 Copyright (c) 1988,1990,1992,1993,1995,1998,2003,2009,2016,
            Gaussian, Inc.  All Rights Reserved.
  
 This is part of the Gaussian(R) 16 program.  It is based on
 the Gaussian(R) 09 system (copyright 2009, Gaussian, Inc.),
 the Gaussian(R) 03 system (copyright 2003, Gaussian, Inc.),
 the Gaussian(R) 98 system (copyright 1998, Gaussian, Inc.),
 the Gaussian(R) 94 system (copyright 1995, Gaussian, Inc.),
 the Gaussian 92(TM) system (copyright 1992, Gaussian, Inc.),
 the Gaussian 90(TM) system (copyright 1990, Gaussian, Inc.),
 the Gaussian 88(TM) system (copyright 1988, Gaussian, Inc.),
 the Gaussian 86(TM) system (copyright 1986, Carnegie Mellon
 University), and the Gaussian 82(TM) system (copyright 1983,
 Carnegie Mellon University). Gaussian is a federally registered
 trademark of Gaussian, Inc.
  
 This software contains proprietary and confidential information,
 including trade secrets, belonging to Gaussian, Inc.
  
 This software is provided under written license and may be
 used, copied, transmitted, or stored only in accord with that
 written license.
  
 The following legend is applicable only to US Government
 contracts under FAR:
  
                    RESTRICTED RIGHTS LEGEND
  
 Use, reproduction and disclosure by the US Government is
 subject to restrictions as set forth in subparagraphs (a)
 and (c) of the Commercial Computer Software - Restricted
 Rights clause in FAR 52.227-19.
  
 Gaussian, Inc.
 340 Quinnipiac St., Bldg. 40, Wallingford CT 06492
  
  
 ---------------------------------------------------------------
 Warning -- This program may not be used in any manner that
 competes with the business of Gaussian, Inc. or will provide
 assistance to any competitor of Gaussian, Inc.  The licensee
 of this program is prohibited from giving any competitor of
 Gaussian, Inc. access to this program.  By using this program,
 the user acknowledges that Gaussian, Inc. is engaged in the
 business of creating and licensing software in the field of
 computational chemistry and represents and warrants to the
 licensee that it is not a competitor of Gaussian, Inc. and that
 it will not use this program in any manner prohibited above.
 ---------------------------------------------------------------
  

 Cite this work as:
 Gaussian 16, Revision A.03,
 M. J. Frisch, G. W. Trucks, H. B. Schlegel, G. E. Scuseria, 
 M. A. Robb, J. R. Cheeseman, G. Scalmani, V. Barone, 
 G. A. Petersson, H. Nakatsuji, X. Li, M. Caricato, A. V. Marenich, 
 J. Bloino, B. G. Janesko, R. Gomperts, B. Mennucci, H. P. Hratchian, 
 J. V. Ortiz, A. F. Izmaylov, J. L. Sonnenberg, D. Williams-Young, 
 F. Ding, F. Lipparini, F. Egidi, J. Goings, B. Peng, A. Petrone, 
 T. Henderson, D. Ranasinghe, V. G. Zakrzewski, J. Gao, N. Rega, 
 G. Zheng, W. Liang, M. Hada, M. Ehara, K. Toyota, R. Fukuda, 
 J. Hasegawa, M. Ishida, T. Nakajima, Y. Honda, O. Kitao, H. Nakai, 
 T. Vreven, K. Throssell, J. A. Montgomery, Jr., J. E. Peralta, 
 F. Ogliaro, M. J. Bearpark, J. J. Heyd, E. N. Brothers, K. N. Kudin, 
 V. N. Staroverov, T. A. Keith, R. Kobayashi, J. Normand, 
 K. Raghavachari, A. P. Rendell, J. C. Burant, S. S. Iyengar, 
 J. Tomasi, M. Cossi, J. M. Millam, M. Klene, C. Adamo, R. Cammi, 
 J. W. Ochterski, R. L. Martin, K. Morokuma, O. Farkas, 
 J. B. Foresman, and D. J. Fox, Gaussian, Inc., Wallingford CT, 2016.
 
 ******************************************
 Gaussian 16:  EM64L-G16RevA.03 25-Dec-2016
                27-Jul-2021 
 ******************************************
 %chk=05-PET_1387_gaussian.chk
 %nproc=4
 Will use up to    4 processors via shared memory.
 %mem=4000Mb
 -----------------------------
 #p opt=loose m062x/6-31g(d,p)
 -----------------------------
 1/7=-1,18=20,19=15,26=3,38=1/1,3;
 2/9=110,12=2,17=6,18=5,40=1/2;
 3/5=1,6=6,7=101,11=2,25=1,30=1,71=1,74=-55/1,2,3;
 4//1;
 5/5=2,38=5/2;
 6/7=2,8=2,9=2,10=2,28=1/1;
 7//1,2,3,16;
 1/7=-1,18=20,19=15,26=3/3(2);
 2/9=110/2;
 99//99;
 2/9=110/2;
 3/5=1,6=6,7=101,11=2,25=1,30=1,71=1,74=-55/1,2,3;
 4/5=5,16=3,69=1/1;
 5/5=2,38=5/2;
 7//1,2,3,16;
 1/7=-1,18=20,19=15,26=3/3(-5);
 2/9=110/2;
 6/7=2,8=2,9=2,10=2,19=2,28=1/1;
 99/9=1/99;
 Leave Link    1 at Tue Jul 27 19:32:25 2021, MaxMem=   524288000 cpu:               0.1 elap:               0.1
 (Enter /opt/gaussian/g16_legacy/l101.exe)
 --------------------------------------------------
 Conformer number 1387. Energy MM = 72.118 kcal/mol
 --------------------------------------------------
 Symbolic Z-matrix:
 Charge =  0 Multiplicity = 1
 C                     1.1082   -0.6351    0.0149 
 C                     4.1995    1.0089    1.5169 
 H                     4.4545    1.6835    2.3333 
 C                     2.8618    0.6485    1.3184 
 H                     2.106     1.0529    1.9882 
 C                     2.5136   -0.2181    0.274 
 C                     3.5178   -0.7183   -0.5668 
 H                     3.2635   -1.3934   -1.3829 
 C                     4.8554   -0.3578   -0.3682 
 H                     5.6121   -0.7623   -1.0368 
 C                     5.2039    0.5089    0.6761 
 O                     6.9321    1.6803    1.8389 
 C                     6.6095    0.9265    0.9346 
 O                     7.4503    0.3565    0.0365 
 O                     0.2661   -0.0628    0.9091 
 O                     0.7839   -1.3853   -0.8915 
 C                     8.8276    0.7084    0.2164 
 H                     9.1643    0.389     1.2091 
 H                     8.9485    1.7928    0.116 
 C                     9.639     0.0015   -0.8516 
 H                     10.702    0.2396   -0.7557 
 H                     9.5113   -1.0836   -0.7776 
 H                     9.2995    0.2944   -1.8506 
 C                    -9.5388   -0.8981   -0.4199 
 C                    -6.4363    0.693     1.0106 
 H                    -6.1875    1.3658    1.8302 
 C                    -7.7704    0.3265    0.8066 
 H                    -8.5412    0.7178    1.4687 
 C                    -8.1112   -0.5369   -0.2418 
 C                    -7.1077   -1.0309   -1.0847 
 H                    -7.353    -1.7026   -1.9046 
 C                    -5.7722   -0.6641   -0.8805 
 H                    -5.0124   -1.0616   -1.5498 
 C                    -5.4292    0.2003    0.169 
 O                    -3.7046    1.3703    1.3402 
 C                    -4.0257    0.6217    0.4316 
 O                    -3.1803    0.0544   -0.4631 
 O                    -9.7403   -1.7298   -1.4567 
 O                    -10.4629  -0.5104    0.2702 
 C                    -1.7968    0.4125   -0.319 
 H                    -1.6843    1.4871   -0.1273 
 H                    -1.3179    0.2346   -1.2876 
 C                    -1.1188   -0.4173    0.7687 
 H                    -1.2345   -1.4919    0.5791 
 H                    -1.5951   -0.2363    1.738 
 H                    -10.7094  -1.8791   -1.4536 
 
 ITRead=  0  0  0  0  0  0  0  0  0  0  0  0  0  0  0  0  0  0  0  0
 ITRead=  0  0  0  0  0  0  0  0  0  0  0  0  0  0  0  0  0  0  0  0
 ITRead=  0  0  0  0  0  0
 MicOpt= -1 -1 -1 -1 -1 -1 -1 -1 -1 -1 -1 -1 -1 -1 -1 -1 -1 -1 -1 -1
 MicOpt= -1 -1 -1 -1 -1 -1 -1 -1 -1 -1 -1 -1 -1 -1 -1 -1 -1 -1 -1 -1
 MicOpt= -1 -1 -1 -1 -1 -1
 NAtoms=     46 NQM=       46 NQMF=       0 NMMI=      0 NMMIF=      0
                NMic=       0 NMicF=      0.
                    Isotopes and Nuclear Properties:
 (Nuclear quadrupole moments (NQMom) in fm**2, nuclear magnetic moments (NMagM)
  in nuclear magnetons)

  Atom         1           2           3           4           5           6           7           8           9          10
 IAtWgt=          12          12           1          12           1          12          12           1          12           1
 AtmWgt=  12.0000000  12.0000000   1.0078250  12.0000000   1.0078250  12.0000000  12.0000000   1.0078250  12.0000000   1.0078250
 NucSpn=           0           0           1           0           1           0           0           1           0           1
 AtZEff=  -0.0000000  -0.0000000  -0.0000000  -0.0000000  -0.0000000  -0.0000000  -0.0000000  -0.0000000  -0.0000000  -0.0000000
 NQMom=    0.0000000   0.0000000   0.0000000   0.0000000   0.0000000   0.0000000   0.0000000   0.0000000   0.0000000   0.0000000
 NMagM=    0.0000000   0.0000000   2.7928460   0.0000000   2.7928460   0.0000000   0.0000000   2.7928460   0.0000000   2.7928460
 AtZNuc=   6.0000000   6.0000000   1.0000000   6.0000000   1.0000000   6.0000000   6.0000000   1.0000000   6.0000000   1.0000000

  Atom        11          12          13          14          15          16          17          18          19          20
 IAtWgt=          12          16          12          16          16          16          12           1           1          12
 AtmWgt=  12.0000000  15.9949146  12.0000000  15.9949146  15.9949146  15.9949146  12.0000000   1.0078250   1.0078250  12.0000000
 NucSpn=           0           0           0           0           0           0           0           1           1           0
 AtZEff=  -0.0000000  -0.0000000  -0.0000000  -0.0000000  -0.0000000  -0.0000000  -0.0000000  -0.0000000  -0.0000000  -0.0000000
 NQMom=    0.0000000   0.0000000   0.0000000   0.0000000   0.0000000   0.0000000   0.0000000   0.0000000   0.0000000   0.0000000
 NMagM=    0.0000000   0.0000000   0.0000000   0.0000000   0.0000000   0.0000000   0.0000000   2.7928460   2.7928460   0.0000000
 AtZNuc=   6.0000000   8.0000000   6.0000000   8.0000000   8.0000000   8.0000000   6.0000000   1.0000000   1.0000000   6.0000000

  Atom        21          22          23          24          25          26          27          28          29          30
 IAtWgt=           1           1           1          12          12           1          12           1          12          12
 AtmWgt=   1.0078250   1.0078250   1.0078250  12.0000000  12.0000000   1.0078250  12.0000000   1.0078250  12.0000000  12.0000000
 NucSpn=           1           1           1           0           0           1           0           1           0           0
 AtZEff=  -0.0000000  -0.0000000  -0.0000000  -0.0000000  -0.0000000  -0.0000000  -0.0000000  -0.0000000  -0.0000000  -0.0000000
 NQMom=    0.0000000   0.0000000   0.0000000   0.0000000   0.0000000   0.0000000   0.0000000   0.0000000   0.0000000   0.0000000
 NMagM=    2.7928460   2.7928460   2.7928460   0.0000000   0.0000000   2.7928460   0.0000000   2.7928460   0.0000000   0.0000000
 AtZNuc=   1.0000000   1.0000000   1.0000000   6.0000000   6.0000000   1.0000000   6.0000000   1.0000000   6.0000000   6.0000000

  Atom        31          32          33          34          35          36          37          38          39          40
 IAtWgt=           1          12           1          12          16          12          16          16          16          12
 AtmWgt=   1.0078250  12.0000000   1.0078250  12.0000000  15.9949146  12.0000000  15.9949146  15.9949146  15.9949146  12.0000000
 NucSpn=           1           0           1           0           0           0           0           0           0           0
 AtZEff=  -0.0000000  -0.0000000  -0.0000000  -0.0000000  -0.0000000  -0.0000000  -0.0000000  -0.0000000  -0.0000000  -0.0000000
 NQMom=    0.0000000   0.0000000   0.0000000   0.0000000   0.0000000   0.0000000   0.0000000   0.0000000   0.0000000   0.0000000
 NMagM=    2.7928460   0.0000000   2.7928460   0.0000000   0.0000000   0.0000000   0.0000000   0.0000000   0.0000000   0.0000000
 AtZNuc=   1.0000000   6.0000000   1.0000000   6.0000000   8.0000000   6.0000000   8.0000000   8.0000000   8.0000000   6.0000000

  Atom        41          42          43          44          45          46
 IAtWgt=           1           1          12           1           1           1
 AtmWgt=   1.0078250   1.0078250  12.0000000   1.0078250   1.0078250   1.0078250
 NucSpn=           1           1           0           1           1           1
 AtZEff=  -0.0000000  -0.0000000  -0.0000000  -0.0000000  -0.0000000  -0.0000000
 NQMom=    0.0000000   0.0000000   0.0000000   0.0000000   0.0000000   0.0000000
 NMagM=    2.7928460   2.7928460   0.0000000   2.7928460   2.7928460   2.7928460
 AtZNuc=   1.0000000   1.0000000   6.0000000   1.0000000   1.0000000   1.0000000
 Leave Link  101 at Tue Jul 27 19:32:26 2021, MaxMem=   524288000 cpu:               0.3 elap:               0.1
 (Enter /opt/gaussian/g16_legacy/l103.exe)

 GradGradGradGradGradGradGradGradGradGradGradGradGradGradGradGradGradGrad
 Berny optimization.
 Initialization pass.
                           ----------------------------
                           !    Initial Parameters    !
                           ! (Angstroms and Degrees)  !
 --------------------------                            --------------------------
 ! Name  Definition              Value          Derivative Info.                !
 --------------------------------------------------------------------------------
 ! R1    R(1,6)                  1.4887         estimate D2E/DX2                !
 ! R2    R(1,15)                 1.3551         estimate D2E/DX2                !
 ! R3    R(1,16)                 1.2205         estimate D2E/DX2                !
 ! R4    R(2,3)                  1.0893         estimate D2E/DX2                !
 ! R5    R(2,4)                  1.3995         estimate D2E/DX2                !
 ! R6    R(2,11)                 1.4021         estimate D2E/DX2                !
 ! R7    R(4,5)                  1.0878         estimate D2E/DX2                !
 ! R8    R(4,6)                  1.4011         estimate D2E/DX2                !
 ! R9    R(6,7)                  1.402          estimate D2E/DX2                !
 ! R10   R(7,8)                  1.0892         estimate D2E/DX2                !
 ! R11   R(7,9)                  1.3995         estimate D2E/DX2                !
 ! R12   R(9,10)                 1.0878         estimate D2E/DX2                !
 ! R13   R(9,11)                 1.4011         estimate D2E/DX2                !
 ! R14   R(11,13)                1.4889         estimate D2E/DX2                !
 ! R15   R(12,13)                1.2207         estimate D2E/DX2                !
 ! R16   R(13,14)                1.3559         estimate D2E/DX2                !
 ! R17   R(14,17)                1.4329         estimate D2E/DX2                !
 ! R18   R(15,43)                1.4364         estimate D2E/DX2                !
 ! R19   R(17,18)                1.0958         estimate D2E/DX2                !
 ! R20   R(17,19)                1.0957         estimate D2E/DX2                !
 ! R21   R(17,20)                1.5161         estimate D2E/DX2                !
 ! R22   R(20,21)                1.0936         estimate D2E/DX2                !
 ! R23   R(20,22)                1.0951         estimate D2E/DX2                !
 ! R24   R(20,23)                1.095          estimate D2E/DX2                !
 ! R25   R(24,29)                1.4833         estimate D2E/DX2                !
 ! R26   R(24,38)                1.3444         estimate D2E/DX2                !
 ! R27   R(24,39)                1.2168         estimate D2E/DX2                !
 ! R28   R(25,26)                1.0892         estimate D2E/DX2                !
 ! R29   R(25,27)                1.3985         estimate D2E/DX2                !
 ! R30   R(25,34)                1.4019         estimate D2E/DX2                !
 ! R31   R(27,28)                1.0889         estimate D2E/DX2                !
 ! R32   R(27,29)                1.4003         estimate D2E/DX2                !
 ! R33   R(29,30)                1.4005         estimate D2E/DX2                !
 ! R34   R(30,31)                1.0879         estimate D2E/DX2                !
 ! R35   R(30,32)                1.3999         estimate D2E/DX2                !
 ! R36   R(32,33)                1.0878         estimate D2E/DX2                !
 ! R37   R(32,34)                1.4022         estimate D2E/DX2                !
 ! R38   R(34,36)                1.4887         estimate D2E/DX2                !
 ! R39   R(35,36)                1.2203         estimate D2E/DX2                !
 ! R40   R(36,37)                1.3554         estimate D2E/DX2                !
 ! R41   R(37,40)                1.4363         estimate D2E/DX2                !
 ! R42   R(38,46)                0.9805         estimate D2E/DX2                !
 ! R43   R(40,41)                1.0973         estimate D2E/DX2                !
 ! R44   R(40,42)                1.0951         estimate D2E/DX2                !
 ! R45   R(40,43)                1.5269         estimate D2E/DX2                !
 ! R46   R(43,44)                1.0973         estimate D2E/DX2                !
 ! R47   R(43,45)                1.0951         estimate D2E/DX2                !
 ! A1    A(6,1,15)             110.7027         estimate D2E/DX2                !
 ! A2    A(6,1,16)             123.5245         estimate D2E/DX2                !
 ! A3    A(15,1,16)            125.7713         estimate D2E/DX2                !
 ! A4    A(3,2,4)              119.3088         estimate D2E/DX2                !
 ! A5    A(3,2,11)             120.1718         estimate D2E/DX2                !
 ! A6    A(4,2,11)             120.5194         estimate D2E/DX2                !
 ! A7    A(2,4,5)              118.7514         estimate D2E/DX2                !
 ! A8    A(2,4,6)              120.1684         estimate D2E/DX2                !
 ! A9    A(5,4,6)              121.0802         estimate D2E/DX2                !
 ! A10   A(1,6,4)              122.5216         estimate D2E/DX2                !
 ! A11   A(1,6,7)              118.1565         estimate D2E/DX2                !
 ! A12   A(4,6,7)              119.3219         estimate D2E/DX2                !
 ! A13   A(6,7,8)              120.2144         estimate D2E/DX2                !
 ! A14   A(6,7,9)              120.503          estimate D2E/DX2                !
 ! A15   A(8,7,9)              119.2826         estimate D2E/DX2                !
 ! A16   A(7,9,10)             118.8073         estimate D2E/DX2                !
 ! A17   A(7,9,11)             120.1877         estimate D2E/DX2                !
 ! A18   A(10,9,11)            121.005          estimate D2E/DX2                !
 ! A19   A(2,11,9)             119.2995         estimate D2E/DX2                !
 ! A20   A(2,11,13)            118.1737         estimate D2E/DX2                !
 ! A21   A(9,11,13)            122.5268         estimate D2E/DX2                !
 ! A22   A(11,13,12)           123.4565         estimate D2E/DX2                !
 ! A23   A(11,13,14)           110.6404         estimate D2E/DX2                !
 ! A24   A(12,13,14)           125.9032         estimate D2E/DX2                !
 ! A25   A(13,14,17)           114.183          estimate D2E/DX2                !
 ! A26   A(1,15,43)            115.494          estimate D2E/DX2                !
 ! A27   A(14,17,18)           109.7241         estimate D2E/DX2                !
 ! A28   A(14,17,19)           109.7309         estimate D2E/DX2                !
 ! A29   A(14,17,20)           108.1477         estimate D2E/DX2                !
 ! A30   A(18,17,19)           109.7283         estimate D2E/DX2                !
 ! A31   A(18,17,20)           109.7425         estimate D2E/DX2                !
 ! A32   A(19,17,20)           109.7449         estimate D2E/DX2                !
 ! A33   A(17,20,21)           110.9117         estimate D2E/DX2                !
 ! A34   A(17,20,22)           110.6088         estimate D2E/DX2                !
 ! A35   A(17,20,23)           110.6104         estimate D2E/DX2                !
 ! A36   A(21,20,22)           108.8548         estimate D2E/DX2                !
 ! A37   A(21,20,23)           108.8533         estimate D2E/DX2                !
 ! A38   A(22,20,23)           106.8903         estimate D2E/DX2                !
 ! A39   A(29,24,38)           112.7994         estimate D2E/DX2                !
 ! A40   A(29,24,39)           125.8213         estimate D2E/DX2                !
 ! A41   A(38,24,39)           121.3793         estimate D2E/DX2                !
 ! A42   A(26,25,27)           119.312          estimate D2E/DX2                !
 ! A43   A(26,25,34)           120.3144         estimate D2E/DX2                !
 ! A44   A(27,25,34)           120.3736         estimate D2E/DX2                !
 ! A45   A(25,27,28)           119.5001         estimate D2E/DX2                !
 ! A46   A(25,27,29)           120.1977         estimate D2E/DX2                !
 ! A47   A(28,27,29)           120.3023         estimate D2E/DX2                !
 ! A48   A(24,29,27)           118.3127         estimate D2E/DX2                !
 ! A49   A(24,29,30)           122.1029         estimate D2E/DX2                !
 ! A50   A(27,29,30)           119.5844         estimate D2E/DX2                !
 ! A51   A(29,30,31)           120.6494         estimate D2E/DX2                !
 ! A52   A(29,30,32)           120.2203         estimate D2E/DX2                !
 ! A53   A(31,30,32)           119.1302         estimate D2E/DX2                !
 ! A54   A(30,32,33)           118.7407         estimate D2E/DX2                !
 ! A55   A(30,32,34)           120.2675         estimate D2E/DX2                !
 ! A56   A(33,32,34)           120.9918         estimate D2E/DX2                !
 ! A57   A(25,34,32)           119.3565         estimate D2E/DX2                !
 ! A58   A(25,34,36)           118.1564         estimate D2E/DX2                !
 ! A59   A(32,34,36)           122.4871         estimate D2E/DX2                !
 ! A60   A(34,36,35)           123.5771         estimate D2E/DX2                !
 ! A61   A(34,36,37)           110.6779         estimate D2E/DX2                !
 ! A62   A(35,36,37)           125.7435         estimate D2E/DX2                !
 ! A63   A(36,37,40)           115.4814         estimate D2E/DX2                !
 ! A64   A(24,38,46)           103.8806         estimate D2E/DX2                !
 ! A65   A(37,40,41)           111.126          estimate D2E/DX2                !
 ! A66   A(37,40,42)           106.9774         estimate D2E/DX2                !
 ! A67   A(37,40,43)           111.3266         estimate D2E/DX2                !
 ! A68   A(41,40,42)           105.5912         estimate D2E/DX2                !
 ! A69   A(41,40,43)           111.2371         estimate D2E/DX2                !
 ! A70   A(42,40,43)           110.3417         estimate D2E/DX2                !
 ! A71   A(15,43,40)           111.3228         estimate D2E/DX2                !
 ! A72   A(15,43,44)           111.1143         estimate D2E/DX2                !
 ! A73   A(15,43,45)           106.9801         estimate D2E/DX2                !
 ! A74   A(40,43,44)           111.2419         estimate D2E/DX2                !
 ! A75   A(40,43,45)           110.3401         estimate D2E/DX2                !
 ! A76   A(44,43,45)           105.6016         estimate D2E/DX2                !
 ! D1    D(15,1,6,4)             0.1755         estimate D2E/DX2                !
 ! D2    D(15,1,6,7)          -179.7978         estimate D2E/DX2                !
 ! D3    D(16,1,6,4)           179.7671         estimate D2E/DX2                !
 ! D4    D(16,1,6,7)            -0.2062         estimate D2E/DX2                !
 ! D5    D(6,1,15,43)         -178.8389         estimate D2E/DX2                !
 ! D6    D(16,1,15,43)           1.5807         estimate D2E/DX2                !
 ! D7    D(3,2,4,5)             -0.0241         estimate D2E/DX2                !
 ! D8    D(3,2,4,6)           -179.992          estimate D2E/DX2                !
 ! D9    D(11,2,4,5)           179.9655         estimate D2E/DX2                !
 ! D10   D(11,2,4,6)            -0.0024         estimate D2E/DX2                !
 ! D11   D(3,2,11,9)           179.987          estimate D2E/DX2                !
 ! D12   D(3,2,11,13)           -0.0118         estimate D2E/DX2                !
 ! D13   D(4,2,11,9)            -0.0025         estimate D2E/DX2                !
 ! D14   D(4,2,11,13)          179.9986         estimate D2E/DX2                !
 ! D15   D(2,4,6,1)           -179.9645         estimate D2E/DX2                !
 ! D16   D(2,4,6,7)              0.0085         estimate D2E/DX2                !
 ! D17   D(5,4,6,1)              0.0684         estimate D2E/DX2                !
 ! D18   D(5,4,6,7)           -179.9586         estimate D2E/DX2                !
 ! D19   D(1,6,7,8)             -0.0577         estimate D2E/DX2                !
 ! D20   D(1,6,7,9)            179.9642         estimate D2E/DX2                !
 ! D21   D(4,6,7,8)            179.9682         estimate D2E/DX2                !
 ! D22   D(4,6,7,9)             -0.01           estimate D2E/DX2                !
 ! D23   D(6,7,9,10)           179.9856         estimate D2E/DX2                !
 ! D24   D(6,7,9,11)             0.0052         estimate D2E/DX2                !
 ! D25   D(8,7,9,10)             0.0073         estimate D2E/DX2                !
 ! D26   D(8,7,9,11)          -179.9731         estimate D2E/DX2                !
 ! D27   D(7,9,11,2)             0.0011         estimate D2E/DX2                !
 ! D28   D(7,9,11,13)          179.9999         estimate D2E/DX2                !
 ! D29   D(10,9,11,2)         -179.9789         estimate D2E/DX2                !
 ! D30   D(10,9,11,13)           0.0199         estimate D2E/DX2                !
 ! D31   D(2,11,13,12)          -0.005          estimate D2E/DX2                !
 ! D32   D(2,11,13,14)         179.9926         estimate D2E/DX2                !
 ! D33   D(9,11,13,12)         179.9962         estimate D2E/DX2                !
 ! D34   D(9,11,13,14)          -0.0062         estimate D2E/DX2                !
 ! D35   D(11,13,14,17)       -179.9953         estimate D2E/DX2                !
 ! D36   D(12,13,14,17)          0.0022         estimate D2E/DX2                !
 ! D37   D(13,14,17,18)         60.3179         estimate D2E/DX2                !
 ! D38   D(13,14,17,19)        -60.3163         estimate D2E/DX2                !
 ! D39   D(13,14,17,20)        179.9974         estimate D2E/DX2                !
 ! D40   D(1,15,43,40)         -81.7178         estimate D2E/DX2                !
 ! D41   D(1,15,43,44)          42.8688         estimate D2E/DX2                !
 ! D42   D(1,15,43,45)         157.6627         estimate D2E/DX2                !
 ! D43   D(14,17,20,21)       -179.9977         estimate D2E/DX2                !
 ! D44   D(14,17,20,22)        -59.1137         estimate D2E/DX2                !
 ! D45   D(14,17,20,23)         59.1192         estimate D2E/DX2                !
 ! D46   D(18,17,20,21)        -60.3298         estimate D2E/DX2                !
 ! D47   D(18,17,20,22)         60.5542         estimate D2E/DX2                !
 ! D48   D(18,17,20,23)        178.7871         estimate D2E/DX2                !
 ! D49   D(19,17,20,21)         60.3248         estimate D2E/DX2                !
 ! D50   D(19,17,20,22)       -178.7912         estimate D2E/DX2                !
 ! D51   D(19,17,20,23)        -60.5583         estimate D2E/DX2                !
 ! D52   D(38,24,29,27)        179.9666         estimate D2E/DX2                !
 ! D53   D(38,24,29,30)         -0.0305         estimate D2E/DX2                !
 ! D54   D(39,24,29,27)         -0.0344         estimate D2E/DX2                !
 ! D55   D(39,24,29,30)        179.9685         estimate D2E/DX2                !
 ! D56   D(29,24,38,46)       -179.9905         estimate D2E/DX2                !
 ! D57   D(39,24,38,46)          0.0105         estimate D2E/DX2                !
 ! D58   D(26,25,27,28)         -0.008          estimate D2E/DX2                !
 ! D59   D(26,25,27,29)        179.9723         estimate D2E/DX2                !
 ! D60   D(34,25,27,28)       -179.9849         estimate D2E/DX2                !
 ! D61   D(34,25,27,29)         -0.0046         estimate D2E/DX2                !
 ! D62   D(26,25,34,32)       -179.9649         estimate D2E/DX2                !
 ! D63   D(26,25,34,36)          0.0662         estimate D2E/DX2                !
 ! D64   D(27,25,34,32)          0.0117         estimate D2E/DX2                !
 ! D65   D(27,25,34,36)       -179.9572         estimate D2E/DX2                !
 ! D66   D(25,27,29,24)        179.9975         estimate D2E/DX2                !
 ! D67   D(25,27,29,30)         -0.0053         estimate D2E/DX2                !
 ! D68   D(28,27,29,24)         -0.0224         estimate D2E/DX2                !
 ! D69   D(28,27,29,30)        179.9748         estimate D2E/DX2                !
 ! D70   D(24,29,30,31)          0.0065         estimate D2E/DX2                !
 ! D71   D(24,29,30,32)       -179.9949         estimate D2E/DX2                !
 ! D72   D(27,29,30,31)       -179.9906         estimate D2E/DX2                !
 ! D73   D(27,29,30,32)          0.0081         estimate D2E/DX2                !
 ! D74   D(29,30,32,33)       -179.9739         estimate D2E/DX2                !
 ! D75   D(29,30,32,34)         -0.0009         estimate D2E/DX2                !
 ! D76   D(31,30,32,33)          0.0248         estimate D2E/DX2                !
 ! D77   D(31,30,32,34)        179.9978         estimate D2E/DX2                !
 ! D78   D(30,32,34,25)         -0.009          estimate D2E/DX2                !
 ! D79   D(30,32,34,36)        179.9585         estimate D2E/DX2                !
 ! D80   D(33,32,34,25)        179.9634         estimate D2E/DX2                !
 ! D81   D(33,32,34,36)         -0.0691         estimate D2E/DX2                !
 ! D82   D(25,34,36,35)          0.1232         estimate D2E/DX2                !
 ! D83   D(25,34,36,37)        179.7013         estimate D2E/DX2                !
 ! D84   D(32,34,36,35)       -179.8447         estimate D2E/DX2                !
 ! D85   D(32,34,36,37)         -0.2666         estimate D2E/DX2                !
 ! D86   D(34,36,37,40)        178.886          estimate D2E/DX2                !
 ! D87   D(35,36,37,40)         -1.5471         estimate D2E/DX2                !
 ! D88   D(36,37,40,41)        -42.9525         estimate D2E/DX2                !
 ! D89   D(36,37,40,42)       -157.7386         estimate D2E/DX2                !
 ! D90   D(36,37,40,43)         81.6394         estimate D2E/DX2                !
 ! D91   D(37,40,43,15)        179.771          estimate D2E/DX2                !
 ! D92   D(37,40,43,44)         55.2562         estimate D2E/DX2                !
 ! D93   D(37,40,43,45)        -61.6056         estimate D2E/DX2                !
 ! D94   D(41,40,43,15)        -55.6995         estimate D2E/DX2                !
 ! D95   D(41,40,43,44)        179.7857         estimate D2E/DX2                !
 ! D96   D(41,40,43,45)         62.9239         estimate D2E/DX2                !
 ! D97   D(42,40,43,15)         61.1475         estimate D2E/DX2                !
 ! D98   D(42,40,43,44)        -63.3674         estimate D2E/DX2                !
 ! D99   D(42,40,43,45)        179.7709         estimate D2E/DX2                !
 --------------------------------------------------------------------------------
 Trust Radius=3.00D-01 FncErr=1.00D-07 GrdErr=1.00D-06 EigMax=2.50D+02 EigMin=1.00D-04
 Number of steps in this run=    232 maximum allowed number of steps=    276.
 GradGradGradGradGradGradGradGradGradGradGradGradGradGradGradGradGradGrad

 Leave Link  103 at Tue Jul 27 19:32:26 2021, MaxMem=   524288000 cpu:               0.1 elap:               0.1
 (Enter /opt/gaussian/g16_legacy/l202.exe)
                          Input orientation:                          
 ---------------------------------------------------------------------
 Center     Atomic      Atomic             Coordinates (Angstroms)
 Number     Number       Type             X           Y           Z
 ---------------------------------------------------------------------
      1          6           0        1.108200   -0.635100    0.014900
      2          6           0        4.199500    1.008900    1.516900
      3          1           0        4.454500    1.683500    2.333300
      4          6           0        2.861800    0.648500    1.318400
      5          1           0        2.106000    1.052900    1.988200
      6          6           0        2.513600   -0.218100    0.274000
      7          6           0        3.517800   -0.718300   -0.566800
      8          1           0        3.263500   -1.393400   -1.382900
      9          6           0        4.855400   -0.357800   -0.368200
     10          1           0        5.612100   -0.762300   -1.036800
     11          6           0        5.203900    0.508900    0.676100
     12          8           0        6.932100    1.680300    1.838900
     13          6           0        6.609500    0.926500    0.934600
     14          8           0        7.450300    0.356500    0.036500
     15          8           0        0.266100   -0.062800    0.909100
     16          8           0        0.783900   -1.385300   -0.891500
     17          6           0        8.827600    0.708400    0.216400
     18          1           0        9.164300    0.389000    1.209100
     19          1           0        8.948500    1.792800    0.116000
     20          6           0        9.639000    0.001500   -0.851600
     21          1           0       10.702000    0.239600   -0.755700
     22          1           0        9.511300   -1.083600   -0.777600
     23          1           0        9.299500    0.294400   -1.850600
     24          6           0       -9.538800   -0.898100   -0.419900
     25          6           0       -6.436300    0.693000    1.010600
     26          1           0       -6.187500    1.365800    1.830200
     27          6           0       -7.770400    0.326500    0.806600
     28          1           0       -8.541200    0.717800    1.468700
     29          6           0       -8.111200   -0.536900   -0.241800
     30          6           0       -7.107700   -1.030900   -1.084700
     31          1           0       -7.353000   -1.702600   -1.904600
     32          6           0       -5.772200   -0.664100   -0.880500
     33          1           0       -5.012400   -1.061600   -1.549800
     34          6           0       -5.429200    0.200300    0.169000
     35          8           0       -3.704600    1.370300    1.340200
     36          6           0       -4.025700    0.621700    0.431600
     37          8           0       -3.180300    0.054400   -0.463100
     38          8           0       -9.740300   -1.729800   -1.456700
     39          8           0      -10.462900   -0.510400    0.270200
     40          6           0       -1.796800    0.412500   -0.319000
     41          1           0       -1.684300    1.487100   -0.127300
     42          1           0       -1.317900    0.234600   -1.287600
     43          6           0       -1.118800   -0.417300    0.768700
     44          1           0       -1.234500   -1.491900    0.579100
     45          1           0       -1.595100   -0.236300    1.738000
     46          1           0      -10.709400   -1.879100   -1.453600
 ---------------------------------------------------------------------
                    Distance matrix (angstroms):
                    1          2          3          4          5
     1  C    0.000000
     2  C    3.809839   0.000000
     3  H    4.684934   1.089320   0.000000
     4  C    2.534138   1.399547   2.153588   0.000000
     5  H    2.781881   2.146346   2.456054   1.087844   0.000000
     6  C    1.488681   2.427465   3.409383   1.401075   2.172570
     7  C    2.480216   2.791011   3.880287   2.419185   3.414433
     8  H    2.678466   3.880204   4.969501   3.409947   4.323020
     9  C    3.776926   2.419024   3.409652   2.798518   3.886116
    10  H    4.626810   3.413791   4.321984   3.886061   4.973762
    11  C    4.303566   1.402057   2.165086   2.432585   3.408009
    12  O    6.527317   2.832237   2.526449   4.231179   4.869000
    13  C    5.792128   2.480718   2.678327   3.777544   4.626831
    14  O    6.419188   3.631103   4.001379   4.773140   5.731985
    15  O    1.355084   4.121844   4.756112   2.722340   2.407172
    16  O    1.220464   4.816524   5.769764   3.652077   3.998180
    17  C    7.838031   4.816732   4.955410   6.067022   6.959731
    18  H    8.208267   5.012809   5.012162   6.308787   7.132136
    19  H    8.208241   5.012985   5.012425   6.308970   7.132488
    20  C    8.598292   6.017708   6.312824   7.145485   8.118867
    21  H    9.664364   6.931020   7.117445   8.120211   9.059893
    22  H    8.452295   6.152927   6.550249   7.183957   8.188574
    23  H    8.452305   6.153094   6.550469   7.184144   8.188904
    24  C   10.659120  14.004597  14.493351  12.616994  12.050175
    25  C    7.724943  10.652529  11.015451   9.303300   8.605587
    26  H    7.779856  10.397851  10.658621   9.092100   8.300904
    27  C    8.965545  12.010358  12.394371  10.649380   9.973320
    28  H    9.851639  12.744116  13.060181  11.404201  10.665132
    29  C    9.223496  12.531395  13.017609  11.146575  10.577880
    30  C    8.298602  11.780572  12.358607  10.391641   9.933640
    31  H    8.741621  12.349864  12.993942  10.966200  10.593364
    32  C    6.938479  10.391403  10.973838   9.005778   8.558245
    33  H    6.331819   9.927272  10.594160   8.553013   8.225580
    34  C    6.592362   9.756154  10.226026   8.382284   7.798439
    35  O    5.379693   7.914331   8.225281   6.605988   5.855230
    36  C    5.301897   8.305523   8.755437   6.944407   6.340874
    37  O    4.369797   7.700189   8.292406   6.327217   5.911924
    38  O   11.002451  14.514159  15.083337  13.121372  12.646959
    39  O   11.574588  14.793529  15.218357  13.416013  12.781732
    40  C    3.106120   6.299352   6.908610   4.943615   4.578770
    41  H    3.510272   6.127901   6.616494   4.843586   4.362367
    42  H    2.887706   6.237505   6.966407   4.942918   4.808698
    43  C    2.361182   5.556812   6.158166   4.157316   3.748067
    44  H    2.557474   6.054901   6.747229   4.680550   4.429504
    45  H    3.230471   5.931003   6.374769   4.563211   3.927184
    46  H   11.973291  15.473840  16.030489  14.080135  13.589595
                    6          7          8          9         10
     6  C    0.000000
     7  C    1.401985   0.000000
     8  H    2.165409   1.089242   0.000000
     9  C    2.432276   1.399491   2.153190   0.000000
    10  H    3.408086   2.146842   2.456419   1.087769   0.000000
    11  C    2.815658   2.427705   3.409308   1.401137   2.171774
    12  O    5.057270   4.816443   5.769424   3.652099   3.997292
    13  C    4.303824   3.810273   4.684918   2.534478   2.780876
    14  O    4.975699   4.121131   4.754592   2.721675   2.404717
    15  O    2.340668   3.630635   4.001021   4.772860   5.731975
    16  O    2.390106   2.832760   2.527836   4.231632   4.870396
    17  C    6.381874   5.553634   6.159102   4.154144   3.751388
    18  H    6.743500   6.021868   6.686917   4.648893   4.357486
    19  H    6.743636   6.021988   6.687137   4.648978   4.357643
    20  C    7.217099   6.169952   6.547902   4.821369   4.102879
    21  H    8.265571   7.250240   7.641423   5.889803   5.195181
    22  H    7.129008   6.008321   6.284693   4.729884   3.920992
    23  H    7.129167   6.008474   6.284959   4.730000   3.921199
    24  C   12.091495  13.058664  12.848018  14.404430  15.164062
    25  C    9.026261  10.176643  10.206274  11.423999  12.307465
    26  H    8.979958  10.211852  10.356573  11.390759  12.327979
    27  C   10.312173  11.419339  11.379759  12.698789  13.552672
    28  H   11.158486  12.313615  12.326383  13.564660  14.449364
    29  C   10.642089  11.634955  11.463835  12.968453  13.748156
    30  C    9.750699  10.642706  10.381817  12.003424  12.722726
    31  H   10.212729  10.996947  10.633807  12.377966  13.028087
    32  C    8.377725   9.295453   9.078995  10.644348  11.385796
    33  H    7.789635   8.593512   8.284230   9.963182  10.641088
    34  C    7.954505   9.024081   8.972809  10.313731  11.148581
    35  O    6.505829   7.756414   7.975445   8.898234   9.848808
    36  C    6.594888   7.726370   7.777241   8.970677   9.846768
    37  O    5.747875   6.743320   6.668187   8.046825   8.848866
    38  O   12.467503  13.326375  13.008360  14.700397  15.388585
    39  O   12.979792  14.007275  13.853753  15.332357  16.130013
    40  C    4.396459   5.439217   5.477207   6.696831   7.535728
    41  H    4.548749   5.667345   5.861274   6.799218   7.689242
    42  H    4.162202   4.981121   4.862992   6.269439   7.005827
    43  C    3.671340   4.834482   4.978625   6.081706   6.977383
    44  H    3.970379   4.949333   4.908274   6.266613   7.072438
    45  H    4.361771   5.629047   5.889388   6.786736   7.740796
    46  H   13.438424  14.301996  13.981518  15.676589  16.364973
                   11         12         13         14         15
    11  C    0.000000
    12  O    2.389761   0.000000
    13  C    1.488934   1.220673   0.000000
    14  O    2.340647   2.295566   1.355887   0.000000
    15  O    4.976243   6.952588   6.420131   7.249136   0.000000
    16  O    5.057842   7.392790   6.528145   6.952405   2.293313
    17  C    3.658186   2.677689   2.341655   1.432883   8.624028
    18  H    3.997904   2.654585   2.625121   2.076979   8.914712
    19  H    3.998017   2.654602   2.625167   2.076988   8.913828
    20  C    4.718202   4.169468   3.636483   2.388546   9.537057
    21  H    5.687853   4.797886   4.480793   3.348850  10.572181
    22  H    4.816949   4.597552   3.923337   2.642795   9.453080
    23  H    4.817070   4.597577   3.923390   2.642829   9.452293
    24  C   14.850187  16.823819  16.307404  17.041474   9.929755
    25  C   11.646460  13.430375  13.048111  13.924790   6.745643
    26  H   11.481734  13.123372  12.835821  13.792231   6.673700
    27  C   12.976238  14.800741  14.392981  15.240199   8.046576
    28  H   13.769518  15.507626  15.161548  16.059571   8.859516
    29  C   13.387611  15.347513  14.839962  15.589609   8.469268
    30  C   12.531835  14.595000  14.002520  14.666879   7.699700
    31  H   13.008708  15.149980  14.488776  15.071345   8.285924
    32  C   11.147812  13.201916  12.614717  13.293495   6.326555
    33  H   10.573263  12.715046  12.049620  12.643032   5.908160
    34  C   10.649657  12.561079  12.084859  12.881129   5.749210
    35  O    8.974654  10.652896  10.331608  11.276490   4.243357
    36  C    9.233527  11.098401  10.651450  11.485861   4.372196
    37  O    8.473438  10.497780   9.927452  10.646620   3.711380
    38  O   15.260725  17.333744  16.735896  17.380996  10.416522
    39  O   15.705170  17.602443  17.145639  17.935687  10.757322
    40  C    7.071727   9.080614   8.514786   9.254100   2.447386
    41  H    7.003544   8.840001   8.380276   9.205759   2.698217
    42  H    6.816541   8.940221   8.261995   8.868451   2.724517
    43  C    6.390849   8.388221   7.846014   8.635066   1.436430
    44  H    6.742819   8.851175   8.216044   8.895884   2.098339
    45  H    6.921658   8.740519   8.325444   9.223111   2.044809
    46  H   16.231799  18.295694  17.706473  18.357369  11.372902
                   16         17         18         19         20
    16  O    0.000000
    17  C    8.385233   0.000000
    18  H    8.819964   1.095827   0.000000
    19  H    8.819074   1.095728   1.792231   0.000000
    20  C    8.963125   1.516147   2.149879   2.149836   0.000000
    21  H   10.051241   2.162898   2.499456   2.499411   1.093553
    22  H    8.733356   2.160265   2.497186   3.064138   1.095091
    23  H    8.732509   2.160226   3.064146   2.497182   1.095012
    24  C   10.344946  18.447503  18.817976  18.689794  19.203741
    25  C    7.750394  15.284555  15.604824  15.449982  16.197569
    26  H    7.973495  15.115878  15.395378  15.238744  16.109980
    27  C    8.887623  16.612880  16.939598  16.797279  17.491211
    28  H    9.846373  17.413890  17.710455  17.574841  18.341662
    29  C    8.959057  16.990693  17.361028  17.221756  17.768830
    30  C    7.901916  16.082656  16.494109  16.346759  16.780112
    31  H    8.205863  16.496163  16.937860  16.794033  17.109671
    32  C    6.595657  14.705139  15.118680  14.957553  15.425594
    33  H    5.842537  14.064066  14.515323  14.346749  14.706502
    34  C    6.499338  14.265930  14.631735  14.465722  15.104032
    35  O    5.720179  12.599884  12.906925  12.719202  13.591514
    36  C    5.376885  12.855394  13.214944  13.030769  13.738824
    37  O    4.239239  12.044879  12.461836  12.266425  12.825295
    38  O   10.544995  18.801888  19.208844  19.082802  19.465888
    39  O   11.340437  19.329039  19.670217  19.548170  20.139684
    40  C    3.196851  10.641996  11.067129  10.842321  11.455571
    41  H    3.863508  10.546305  10.985623  10.639976  11.443284
    42  H    2.683008  10.267311  10.776542  10.478409  10.968049
    43  C    2.704359  10.025124  10.324060  10.327686  10.887196
    44  H    2.499593  10.306247  10.586299  10.709678  11.068430
    45  H    3.727481  10.575462  10.790525  10.858896  11.531157
    46  H   11.517627  19.778231  20.179153  20.059400  20.443983
                   21         22         23         24         25
    21  H    0.000000
    22  H    1.780198   0.000000
    23  H    1.780117   1.759282   0.000000
    24  C   20.275530  19.054361  18.930148   0.000000
    25  C   17.235043  16.145585  15.998773   3.768745   0.000000
    26  H   17.123388  16.101320  15.954415   4.628110   1.089176
    27  C   18.538552  17.411353  17.275509   2.476123   1.398485
    28  H   19.377239  18.280691  18.151793   2.678273   2.154315
    29  C   18.836229  17.639118  17.504621   1.483316   2.426201
    30  C   17.857991  16.621921  16.478448   2.523855   2.795155
    31  H   18.195470  16.913246  16.771902   2.762114   3.882992
    32  C   16.499440  15.289602  15.133273   3.801866   2.420539
    33  H   15.788163  14.544230  14.379141   4.668158   3.414932
    34  C   16.157730  15.025412  14.866817   4.294426   1.401890
    35  O   14.602103  13.607598  13.432996   6.502421   2.833647
    36  C   14.780420  13.697466  13.523184   5.781792   2.480185
    37  O   13.886618  12.746398  12.558987   6.429591   3.630584
    38  O   20.548907  19.274409  19.151149   1.344352   4.782671
    39  O   21.203018  20.009875  19.892158   1.216762   4.267303
    40  C   12.507622  11.415855  11.202126   7.852797   4.834406
    41  H   12.464813  11.505340  11.181957   8.213888   4.950446
    42  H   12.031664  10.921050  10.632485   8.343807   5.629376
    43  C   11.936776  10.762622  10.766068   8.517062   5.437563
    44  H   12.135066  10.838799  10.957165   8.385225   5.658507
    45  H   12.556420  11.419207  11.482683   8.258140   4.982964
    46  H   21.527285  20.247630  20.130519   1.844235   5.563035
                   26         27         28         29         30
    26  H    0.000000
    27  C    2.152551   0.000000
    28  H    2.467892   1.088864   0.000000
    29  C    3.407943   1.400267   2.164482   0.000000
    30  C    3.884274   2.420480   3.410678   1.400546   0.000000
    31  H    4.972142   3.412049   4.318484   2.167632   1.087929
    32  C    3.411871   2.796497   3.885325   2.427970   1.399929
    33  H    4.324064   3.884071   4.972930   3.404223   2.146519
    34  C    2.166332   2.429748   3.411975   2.811644   2.430016
    35  O    2.530793   4.231427   4.882107   5.055518   4.819439
    36  C    2.680139   3.774990   4.634064   4.299666   3.811689
    37  O    4.002780   4.770241   5.736828   4.971155   4.121739
    38  O    5.745332   3.637499   3.998319   2.356472   2.749078
    39  O    4.922679   2.870136   2.576394   2.406936   3.655686
    40  C    4.980571   6.079331   6.983982   6.385841   5.556560
    41  H    4.911754   6.265762   7.082098   6.739045   6.055593
    42  H    5.891799   6.784458   7.746401   6.916490   5.929961
    43  C    5.477038   6.693165   7.541251   7.066051   6.299089
    44  H    5.853538   6.787954   7.685182   6.991059   6.121702
    45  H    4.864706   6.270453   7.016490   6.816856   6.244020
    46  H    6.462221   4.314035   4.470438   3.165534   3.718571
                   31         32         33         34         35
    31  H    0.000000
    32  C    2.150858   0.000000
    33  H    2.452585   1.087780   0.000000
    34  C    3.409084   1.402243   2.172645   0.000000
    35  O    5.769078   3.653117   3.997071   2.390576   0.000000
    36  C    4.683068   2.534788   2.780831   1.488741   1.220271
    37  O    4.751463   2.721840   2.404779   2.340596   2.293115
    38  O    2.429106   4.148920   4.775793   4.995375   7.339138
    39  O    3.977760   4.832225   5.772709   5.084631   7.096235
    40  C    6.152978   4.156700   3.745387   3.671172   2.703706
    41  H    6.742933   4.680374   4.426695   3.970885   2.499762
    42  H    6.368349   4.562256   3.924056   4.361840   3.727128
    43  C    6.903896   4.943167   4.577192   4.395522   3.195072
    44  H    6.606754   4.838017   4.357740   4.541721   3.856534
    45  H    6.969360   4.948507   4.813386   4.165658   2.681305
    46  H    3.391161   5.116699   5.756159   5.902309   8.211647
                   36         37         38         39         40
    36  C    0.000000
    37  O    1.355367   0.000000
    38  O    6.461570   6.870532   0.000000
    39  O    6.537985   7.341185   2.234115   0.000000
    40  C    2.361178   1.436340   8.305601   8.734998   0.000000
    41  H    2.558015   2.098430   8.775813   9.011761   1.097347
    42  H    3.230739   2.044702   8.650103   9.306599   1.095071
    43  C    3.105354   2.447369   9.000296   9.357851   1.526874
    44  H    3.504263   2.695063   8.749269   9.285587   2.179336
    45  H    2.889751   2.728041   8.875862   8.992633   2.166304
    46  H    7.381045   7.836253   0.980538   2.214856   9.272173
                   41         42         43         44         45
    41  H    0.000000
    42  H    1.746225   0.000000
    43  C    2.179299   2.166330   0.000000
    44  H    3.094473   2.544077   1.097315   0.000000
    45  H    2.541143   3.074547   1.095064   1.746314   0.000000
    46  H    9.723312   9.627853   9.952642   9.698223   9.795691
                   46
    46  H    0.000000
 Stoichiometry    C20H18O8
 Framework group  C1[X(C20H18O8)]
 Deg. of freedom   132
 Full point group                 C1      NOp   1
 Largest Abelian subgroup         C1      NOp   1
 Largest concise Abelian subgroup C1      NOp   1
                         Standard orientation:                         
 ---------------------------------------------------------------------
 Center     Atomic      Atomic             Coordinates (Angstroms)
 Number     Number       Type             X           Y           Z
 ---------------------------------------------------------------------
      1          6           0       -1.656173   -0.636388   -0.435732
      2          6           0       -4.892908    1.362096   -0.224820
      3          1           0       -5.217197    2.401852   -0.243869
      4          6           0       -3.529601    1.067425   -0.340133
      5          1           0       -2.823992    1.888475   -0.446884
      6          6           0       -3.092597   -0.263570   -0.317996
      7          6           0       -4.034108   -1.293118   -0.179610
      8          1           0       -3.710497   -2.333014   -0.161153
      9          6           0       -5.397324   -0.998300   -0.064284
     10          1           0       -6.103868   -1.818560    0.041595
     11          6           0       -5.834630    0.332663   -0.086286
     12          8           0       -7.670918    1.858668    0.015260
     13          6           0       -7.271269    0.705397    0.032290
     14          8           0       -8.043515   -0.401937    0.158291
     15          8           0       -0.882631    0.469540   -0.557427
     16          8           0       -1.254972   -1.788830   -0.414559
     17          6           0       -9.445147   -0.129543    0.278215
     18          1           0       -9.796881    0.399193   -0.614846
     19          1           0       -9.627981    0.484107    1.167387
     20          6           0      -10.173725   -1.452581    0.410289
     21          1           0      -11.251948   -1.296651    0.505053
     22          1           0       -9.983128   -2.086355   -0.462196
     23          1           0       -9.817367   -2.002996    1.287275
     24          6           0        8.995880   -0.431295   -0.106283
     25          6           0        5.753721    1.477884    0.110228
     26          1           0        5.435612    2.519331    0.087883
     27          6           0        7.114002    1.174855   -0.006267
     28          1           0        7.835643    1.982596   -0.117684
     29          6           0        7.543572   -0.157620    0.020722
     30          6           0        6.602458   -1.184730    0.165210
     31          1           0        6.917020   -2.225930    0.188506
     32          6           0        5.240756   -0.881448    0.281772
     33          1           0        4.530719   -1.697940    0.393370
     34          6           0        4.808891    0.452363    0.254783
     35          8           0        2.975981    1.984108    0.349917
     36          6           0        3.373971    0.830808    0.373657
     37          8           0        2.596852   -0.272501    0.499413
     38          8           0        9.284160   -1.743752   -0.065870
     39          8           0        9.869666    0.405635   -0.234955
     40          6           0        1.189930   -0.023815    0.647058
     41          1           0        1.005699    0.806741    1.340171
     42          1           0        0.757401   -0.908441    1.126156
     43          6           0        0.525337    0.226085   -0.704685
     44          1           0        0.712686   -0.602658   -1.399081
     45          1           0        0.955059    1.113068   -1.181933
     46          1           0       10.259811   -1.773268   -0.159082
 ---------------------------------------------------------------------
 Rotational constants (GHZ):           0.9713921           0.0347338           0.0337579
 Leave Link  202 at Tue Jul 27 19:32:26 2021, MaxMem=   524288000 cpu:               0.2 elap:               0.1
 (Enter /opt/gaussian/g16_legacy/l301.exe)
 Standard basis: 6-31G(d,p) (6D, 7F)
 Ernie: Thresh=  0.10000D-02 Tol=  0.10000D-05 Strict=F.
 There are   510 symmetry adapted cartesian basis functions of A   symmetry.
 There are   510 symmetry adapted basis functions of A   symmetry.
   510 basis functions,   910 primitive gaussians,   510 cartesian basis functions
   101 alpha electrons      101 beta electrons
       nuclear repulsion energy      2253.7017087747 Hartrees.
 IExCor= 4336 DFT=T Ex+Corr=M062X ExCW=0 ScaHFX=  0.540000
 ScaDFX=  1.000000  1.000000  1.000000  1.000000 ScalE2=  1.000000  1.000000
 IRadAn=      5 IRanWt=     -1 IRanGd=            0 ICorTp=0 IEmpDi=  4
 NAtoms=   46 NActive=   46 NUniq=   46 SFac= 1.00D+00 NAtFMM=   60 NAOKFM=F Big=F
 Integral buffers will be    131072 words long.
 Raffenetti 2 integral format.
 Two-electron integral symmetry is turned on.
 Leave Link  301 at Tue Jul 27 19:32:26 2021, MaxMem=   524288000 cpu:               0.2 elap:               0.1
 (Enter /opt/gaussian/g16_legacy/l302.exe)
 NPDir=0 NMtPBC=     1 NCelOv=     1 NCel=       1 NClECP=     1 NCelD=      1
         NCelK=      1 NCelE2=     1 NClLst=     1 CellRange=     0.0.
 One-electron integrals computed using PRISM.
 One-electron integral symmetry used in STVInt
 NBasis=   510 RedAO= T EigKep=  4.17D-04  NBF=   510
 NBsUse=   510 1.00D-06 EigRej= -1.00D+00 NBFU=   510
 Precomputing XC quadrature grid using
 IXCGrd= 4 IRadAn=           5 IRanWt=          -1 IRanGd=           0 AccXCQ= 0.00D+00.
 Generated NRdTot=       0 NPtTot=           0 NUsed=           0 NTot=          32
 NSgBfM=   431   431   431   431   431 MxSgAt=    46 MxSgA2=    46.
 Leave Link  302 at Tue Jul 27 19:32:28 2021, MaxMem=   524288000 cpu:               4.0 elap:               1.2
 (Enter /opt/gaussian/g16_legacy/l303.exe)
 DipDrv:  MaxL=1.
 Leave Link  303 at Tue Jul 27 19:32:28 2021, MaxMem=   524288000 cpu:               0.1 elap:               0.1
 (Enter /opt/gaussian/g16_legacy/l401.exe)
 ExpMin= 1.61D-01 ExpMax= 5.48D+03 ExpMxC= 8.25D+02 IAcc=3 IRadAn=         5 AccDes= 0.00D+00
 Harris functional with IExCor= 1009 and IRadAn=       5 diagonalized for initial guess.
 HarFok:  IExCor= 1009 AccDes= 0.00D+00 IRadAn=         5 IDoV= 1 UseB2=F ITyADJ=14
 ICtDFT=  3500011 ScaDFX=  1.000000  1.000000  1.000000  1.000000
 FoFCou: FMM=F IPFlag=           0 FMFlag=      100000 FMFlg1=           0
         NFxFlg=           0 DoJE=T BraDBF=F KetDBF=T FulRan=T
         wScrn=  0.000000 ICntrl=       500 IOpCl=  0 I1Cent=   200000004 NGrid=           0
         NMat0=    1 NMatS0=      1 NMatT0=    0 NMatD0=    1 NMtDS0=    0 NMtDT0=    0
 Petite list used in FoFCou.
 Harris En= -1373.60325607217    
 JPrj=0 DoOrth=F DoCkMO=F.
 Leave Link  401 at Tue Jul 27 19:32:34 2021, MaxMem=   524288000 cpu:              23.4 elap:               6.0
 (Enter /opt/gaussian/g16_legacy/l502.exe)
 Integral symmetry usage will be decided dynamically.
 Closed shell SCF:
 Using DIIS extrapolation, IDIIS=  1040.
 NGot=   524288000 LenX=   523759406 LenY=   523498796
 Requested convergence on RMS density matrix=1.00D-08 within 128 cycles.
 Requested convergence on MAX density matrix=1.00D-06.
 Requested convergence on             energy=1.00D-06.
 No special actions if energy rises.
 Fock matrices will be formed incrementally for  20 cycles.
 Integral accuracy reduced to 1.0D-05 until final iterations.

 Cycle   1  Pass 0  IDiag  1:
 FoFJK:  IHMeth= 1 ICntrl=       0 DoSepK=F KAlg= 0 I1Cent=           0 FoldK=F
 IRaf= 480000000 NMat=       1 IRICut=       1 DoRegI=T DoRafI=F ISym2E= 0 IDoP0=0 IntGTp=1.
 FoFCou: FMM=F IPFlag=           0 FMFlag=      100000 FMFlg1=           0
         NFxFlg=           0 DoJE=F BraDBF=F KetDBF=F FulRan=T
         wScrn=  0.000000 ICntrl=         0 IOpCl=  0 I1Cent=           0 NGrid=           0
         NMat0=    1 NMatS0=      1 NMatT0=    0 NMatD0=    1 NMtDS0=    0 NMtDT0=    0
 Symmetry not used in FoFCou.
 E= -1373.71902526550    
 DIIS: error= 4.11D-02 at cycle   1 NSaved=   1.
 NSaved= 1 IEnMin= 1 EnMin= -1373.71902526550     IErMin= 1 ErrMin= 4.11D-02
 ErrMax= 4.11D-02  0.00D+00 EMaxC= 1.00D-01 BMatC= 7.49D-01 BMatP= 7.49D-01
 IDIUse=3 WtCom= 5.89D-01 WtEn= 4.11D-01
 Coeff-Com:  0.100D+01
 Coeff-En:   0.100D+01
 Coeff:      0.100D+01
 Gap=     0.298 Goal=   None    Shift=    0.000
 GapD=    0.298 DampG=1.000 DampE=0.500 DampFc=0.5000 IDamp=-1.
 Damping current iteration by 5.00D-01
 RMSDP=2.95D-03 MaxDP=1.56D-01              OVMax= 1.85D-01

 Cycle   2  Pass 0  IDiag  1:
 RMSU=  1.46D-03    CP:  9.85D-01
 E= -1373.98380666806     Delta-E=       -0.264781402554 Rises=F Damp=T
 DIIS: error= 1.15D-02 at cycle   2 NSaved=   2.
 NSaved= 2 IEnMin= 2 EnMin= -1373.98380666806     IErMin= 2 ErrMin= 1.15D-02
 ErrMax= 1.15D-02  0.00D+00 EMaxC= 1.00D-01 BMatC= 8.32D-02 BMatP= 7.49D-01
 IDIUse=3 WtCom= 8.85D-01 WtEn= 1.15D-01
 Coeff-Com:  0.141D-01 0.986D+00
 Coeff-En:   0.154D-01 0.985D+00
 Coeff:      0.142D-01 0.986D+00
 Gap=     0.267 Goal=   None    Shift=    0.000
 RMSDP=8.66D-04 MaxDP=3.19D-02 DE=-2.65D-01 OVMax= 1.07D-01

 Cycle   3  Pass 0  IDiag  1:
 RMSU=  8.58D-04    CP:  9.77D-01  9.63D-01
 E= -1374.26158547985     Delta-E=       -0.277778811790 Rises=F Damp=F
 DIIS: error= 8.66D-03 at cycle   3 NSaved=   3.
 NSaved= 3 IEnMin= 3 EnMin= -1374.26158547985     IErMin= 3 ErrMin= 8.66D-03
 ErrMax= 8.66D-03  0.00D+00 EMaxC= 1.00D-01 BMatC= 5.08D-02 BMatP= 8.32D-02
 IDIUse=3 WtCom= 9.13D-01 WtEn= 8.66D-02
 Coeff-Com: -0.873D-01 0.463D+00 0.624D+00
 Coeff-En:   0.000D+00 0.000D+00 0.100D+01
 Coeff:     -0.798D-01 0.423D+00 0.657D+00
 Gap=     0.279 Goal=   None    Shift=    0.000
 RMSDP=5.22D-04 MaxDP=3.34D-02 DE=-2.78D-01 OVMax= 4.65D-02

 Cycle   4  Pass 0  IDiag  1:
 RMSU=  3.07D-04    CP:  9.79D-01  1.09D+00  5.60D-01
 E= -1374.29449830107     Delta-E=       -0.032912821223 Rises=F Damp=F
 DIIS: error= 3.23D-03 at cycle   4 NSaved=   4.
 NSaved= 4 IEnMin= 4 EnMin= -1374.29449830107     IErMin= 4 ErrMin= 3.23D-03
 ErrMax= 3.23D-03  0.00D+00 EMaxC= 1.00D-01 BMatC= 9.61D-03 BMatP= 5.08D-02
 IDIUse=3 WtCom= 9.68D-01 WtEn= 3.23D-02
 Coeff-Com: -0.305D-01 0.899D-01 0.344D+00 0.597D+00
 Coeff-En:   0.000D+00 0.000D+00 0.148D+00 0.852D+00
 Coeff:     -0.295D-01 0.870D-01 0.337D+00 0.605D+00
 Gap=     0.272 Goal=   None    Shift=    0.000
 RMSDP=1.90D-04 MaxDP=8.79D-03 DE=-3.29D-02 OVMax= 1.32D-02

 Cycle   5  Pass 0  IDiag  1:
 RMSU=  8.06D-05    CP:  9.79D-01  1.06D+00  6.98D-01  6.29D-01
 E= -1374.30182004675     Delta-E=       -0.007321745677 Rises=F Damp=F
 DIIS: error= 7.51D-04 at cycle   5 NSaved=   5.
 NSaved= 5 IEnMin= 5 EnMin= -1374.30182004675     IErMin= 5 ErrMin= 7.51D-04
 ErrMax= 7.51D-04  0.00D+00 EMaxC= 1.00D-01 BMatC= 2.86D-04 BMatP= 9.61D-03
 IDIUse=3 WtCom= 9.92D-01 WtEn= 7.51D-03
 Coeff-Com: -0.710D-02 0.137D-01 0.113D+00 0.258D+00 0.622D+00
 Coeff-En:   0.000D+00 0.000D+00 0.000D+00 0.000D+00 0.100D+01
 Coeff:     -0.705D-02 0.136D-01 0.113D+00 0.256D+00 0.625D+00
 Gap=     0.273 Goal=   None    Shift=    0.000
 RMSDP=3.33D-05 MaxDP=2.02D-03 DE=-7.32D-03 OVMax= 3.32D-03

 Cycle   6  Pass 0  IDiag  1:
 RMSU=  2.52D-05    CP:  9.79D-01  1.06D+00  7.02D-01  6.61D-01  7.73D-01
 E= -1374.30205174728     Delta-E=       -0.000231700535 Rises=F Damp=F
 DIIS: error= 1.39D-04 at cycle   6 NSaved=   6.
 NSaved= 6 IEnMin= 6 EnMin= -1374.30205174728     IErMin= 6 ErrMin= 1.39D-04
 ErrMax= 1.39D-04  0.00D+00 EMaxC= 1.00D-01 BMatC= 2.52D-05 BMatP= 2.86D-04
 IDIUse=3 WtCom= 9.99D-01 WtEn= 1.39D-03
 Coeff-Com: -0.691D-03-0.641D-03 0.239D-01 0.601D-01 0.273D+00 0.645D+00
 Coeff-En:   0.000D+00 0.000D+00 0.000D+00 0.000D+00 0.000D+00 0.100D+01
 Coeff:     -0.690D-03-0.640D-03 0.239D-01 0.600D-01 0.272D+00 0.645D+00
 Gap=     0.273 Goal=   None    Shift=    0.000
 RMSDP=1.12D-05 MaxDP=6.61D-04 DE=-2.32D-04 OVMax= 1.02D-03

 Cycle   7  Pass 0  IDiag  1:
 RMSU=  8.67D-06    CP:  9.79D-01  1.06D+00  7.05D-01  6.67D-01  8.18D-01
                    CP:  8.02D-01
 E= -1374.30207365935     Delta-E=       -0.000021912073 Rises=F Damp=F
 DIIS: error= 5.13D-05 at cycle   7 NSaved=   7.
 NSaved= 7 IEnMin= 7 EnMin= -1374.30207365935     IErMin= 7 ErrMin= 5.13D-05
 ErrMax= 5.13D-05  0.00D+00 EMaxC= 1.00D-01 BMatC= 2.94D-06 BMatP= 2.52D-05
 IDIUse=1 WtCom= 1.00D+00 WtEn= 0.00D+00
 Coeff-Com:  0.105D-02-0.290D-02-0.745D-02-0.179D-01 0.241D-01 0.241D+00
 Coeff-Com:  0.762D+00
 Coeff:      0.105D-02-0.290D-02-0.745D-02-0.179D-01 0.241D-01 0.241D+00
 Coeff:      0.762D+00
 Gap=     0.273 Goal=   None    Shift=    0.000
 RMSDP=5.65D-06 MaxDP=3.75D-04 DE=-2.19D-05 OVMax= 4.74D-04

 Initial convergence to 1.0D-05 achieved.  Increase integral accuracy.
 Cycle   8  Pass 1  IDiag  1:
 E= -1374.30196739033     Delta-E=        0.000106269026 Rises=F Damp=F
 DIIS: error= 4.82D-05 at cycle   1 NSaved=   1.
 NSaved= 1 IEnMin= 1 EnMin= -1374.30196739033     IErMin= 1 ErrMin= 4.82D-05
 ErrMax= 4.82D-05  0.00D+00 EMaxC= 1.00D-01 BMatC= 1.48D-06 BMatP= 1.48D-06
 IDIUse=1 WtCom= 1.00D+00 WtEn= 0.00D+00
 Coeff-Com:  0.100D+01
 Coeff:      0.100D+01
 Gap=     0.273 Goal=   None    Shift=    0.000
 RMSDP=5.65D-06 MaxDP=3.75D-04 DE= 1.06D-04 OVMax= 3.97D-04

 Cycle   9  Pass 1  IDiag  1:
 RMSU=  1.64D-05    CP:  1.00D+00
 E= -1374.30196716287     Delta-E=        0.000000227457 Rises=F Damp=F
 DIIS: error= 5.37D-05 at cycle   2 NSaved=   2.
 NSaved= 2 IEnMin= 1 EnMin= -1374.30196739033     IErMin= 1 ErrMin= 4.82D-05
 ErrMax= 5.37D-05  0.00D+00 EMaxC= 1.00D-01 BMatC= 2.04D-06 BMatP= 1.48D-06
 IDIUse=1 WtCom= 1.00D+00 WtEn= 0.00D+00
 Coeff-Com:  0.547D+00 0.453D+00
 Coeff:      0.547D+00 0.453D+00
 Gap=     0.273 Goal=   None    Shift=    0.000
 RMSDP=2.94D-06 MaxDP=2.07D-04 DE= 2.27D-07 OVMax= 2.96D-04

 Cycle  10  Pass 1  IDiag  1:
 RMSU=  2.90D-06    CP:  1.00D+00  9.71D-01
 E= -1374.30196871470     Delta-E=       -0.000001551828 Rises=F Damp=F
 DIIS: error= 1.28D-05 at cycle   3 NSaved=   3.
 NSaved= 3 IEnMin= 3 EnMin= -1374.30196871470     IErMin= 3 ErrMin= 1.28D-05
 ErrMax= 1.28D-05  0.00D+00 EMaxC= 1.00D-01 BMatC= 1.19D-07 BMatP= 1.48D-06
 IDIUse=1 WtCom= 1.00D+00 WtEn= 0.00D+00
 Coeff-Com: -0.845D-02 0.185D+00 0.823D+00
 Coeff:     -0.845D-02 0.185D+00 0.823D+00
 Gap=     0.273 Goal=   None    Shift=    0.000
 RMSDP=7.63D-07 MaxDP=5.10D-05 DE=-1.55D-06 OVMax= 6.85D-05

 Cycle  11  Pass 1  IDiag  1:
 RMSU=  4.81D-07    CP:  1.00D+00  9.95D-01  8.47D-01
 E= -1374.30196881131     Delta-E=       -0.000000096611 Rises=F Damp=F
 DIIS: error= 4.38D-06 at cycle   4 NSaved=   4.
 NSaved= 4 IEnMin= 4 EnMin= -1374.30196881131     IErMin= 4 ErrMin= 4.38D-06
 ErrMax= 4.38D-06  0.00D+00 EMaxC= 1.00D-01 BMatC= 6.26D-09 BMatP= 1.19D-07
 IDIUse=1 WtCom= 1.00D+00 WtEn= 0.00D+00
 Coeff-Com: -0.209D-01 0.680D-01 0.348D+00 0.605D+00
 Coeff:     -0.209D-01 0.680D-01 0.348D+00 0.605D+00
 Gap=     0.273 Goal=   None    Shift=    0.000
 RMSDP=1.90D-07 MaxDP=1.48D-05 DE=-9.66D-08 OVMax= 2.27D-05

 Cycle  12  Pass 1  IDiag  1:
 RMSU=  1.86D-07    CP:  1.00D+00  9.96D-01  8.48D-01  9.53D-01
 E= -1374.30196881770     Delta-E=       -0.000000006393 Rises=F Damp=F
 DIIS: error= 8.09D-07 at cycle   5 NSaved=   5.
 NSaved= 5 IEnMin= 5 EnMin= -1374.30196881770     IErMin= 5 ErrMin= 8.09D-07
 ErrMax= 8.09D-07  0.00D+00 EMaxC= 1.00D-01 BMatC= 6.95D-10 BMatP= 6.26D-09
 IDIUse=1 WtCom= 1.00D+00 WtEn= 0.00D+00
 Coeff-Com: -0.427D-02-0.113D-01-0.504D-01 0.172D+00 0.894D+00
 Coeff:     -0.427D-02-0.113D-01-0.504D-01 0.172D+00 0.894D+00
 Gap=     0.273 Goal=   None    Shift=    0.000
 RMSDP=1.04D-07 MaxDP=6.69D-06 DE=-6.39D-09 OVMax= 1.06D-05

 Cycle  13  Pass 1  IDiag  1:
 RMSU=  6.59D-08    CP:  1.00D+00  9.97D-01  8.47D-01  1.11D+00  1.12D+00
 E= -1374.30196881870     Delta-E=       -0.000000000993 Rises=F Damp=F
 DIIS: error= 4.08D-07 at cycle   6 NSaved=   6.
 NSaved= 6 IEnMin= 6 EnMin= -1374.30196881870     IErMin= 6 ErrMin= 4.08D-07
 ErrMax= 4.08D-07  0.00D+00 EMaxC= 1.00D-01 BMatC= 1.56D-10 BMatP= 6.95D-10
 IDIUse=1 WtCom= 1.00D+00 WtEn= 0.00D+00
 Coeff-Com:  0.212D-02-0.183D-01-0.932D-01-0.324D-01 0.404D+00 0.738D+00
 Coeff:      0.212D-02-0.183D-01-0.932D-01-0.324D-01 0.404D+00 0.738D+00
 Gap=     0.273 Goal=   None    Shift=    0.000
 RMSDP=4.68D-08 MaxDP=2.26D-06 DE=-9.93D-10 OVMax= 5.38D-06

 Cycle  14  Pass 1  IDiag  1:
 RMSU=  2.11D-08    CP:  1.00D+00  9.97D-01  8.46D-01  1.17D+00  1.27D+00
                    CP:  8.39D-01
 E= -1374.30196881904     Delta-E=       -0.000000000341 Rises=F Damp=F
 DIIS: error= 1.60D-07 at cycle   7 NSaved=   7.
 NSaved= 7 IEnMin= 7 EnMin= -1374.30196881904     IErMin= 7 ErrMin= 1.60D-07
 ErrMax= 1.60D-07  0.00D+00 EMaxC= 1.00D-01 BMatC= 1.67D-11 BMatP= 1.56D-10
 IDIUse=1 WtCom= 1.00D+00 WtEn= 0.00D+00
 Coeff-Com:  0.127D-02-0.809D-02-0.421D-01-0.224D-01 0.154D+00 0.369D+00
 Coeff-Com:  0.548D+00
 Coeff:      0.127D-02-0.809D-02-0.421D-01-0.224D-01 0.154D+00 0.369D+00
 Coeff:      0.548D+00
 Gap=     0.273 Goal=   None    Shift=    0.000
 RMSDP=8.64D-09 MaxDP=6.95D-07 DE=-3.41D-10 OVMax= 9.43D-07

 SCF Done:  E(RM062X) =  -1374.30196882     A.U. after   14 cycles
            NFock= 14  Conv=0.86D-08     -V/T= 2.0087
 KE= 1.362402591023D+03 PE=-7.714232996577D+03 EE= 2.723826727960D+03
 Leave Link  502 at Tue Jul 27 19:36:06 2021, MaxMem=   524288000 cpu:             843.8 elap:             211.5
 (Enter /opt/gaussian/g16_legacy/l601.exe)
 Copying SCF densities to generalized density rwf, IOpCl= 0 IROHF=0.

 **********************************************************************

            Population analysis using the SCF density.

 **********************************************************************

 Orbital symmetries:
       Occupied  (A) (A) (A) (A) (A) (A) (A) (A) (A) (A) (A) (A)
                 (A) (A) (A) (A) (A) (A) (A) (A) (A) (A) (A) (A)
                 (A) (A) (A) (A) (A) (A) (A) (A) (A) (A) (A) (A)
                 (A) (A) (A) (A) (A) (A) (A) (A) (A) (A) (A) (A)
                 (A) (A) (A) (A) (A) (A) (A) (A) (A) (A) (A) (A)
                 (A) (A) (A) (A) (A) (A) (A) (A) (A) (A) (A) (A)
                 (A) (A) (A) (A) (A) (A) (A) (A) (A) (A) (A) (A)
                 (A) (A) (A) (A) (A) (A) (A) (A) (A) (A) (A) (A)
                 (A) (A) (A) (A) (A)
       Virtual   (A) (A) (A) (A) (A) (A) (A) (A) (A) (A) (A) (A)
                 (A) (A) (A) (A) (A) (A) (A) (A) (A) (A) (A) (A)
                 (A) (A) (A) (A) (A) (A) (A) (A) (A) (A) (A) (A)
                 (A) (A) (A) (A) (A) (A) (A) (A) (A) (A) (A) (A)
                 (A) (A) (A) (A) (A) (A) (A) (A) (A) (A) (A) (A)
                 (A) (A) (A) (A) (A) (A) (A) (A) (A) (A) (A) (A)
                 (A) (A) (A) (A) (A) (A) (A) (A) (A) (A) (A) (A)
                 (A) (A) (A) (A) (A) (A) (A) (A) (A) (A) (A) (A)
                 (A) (A) (A) (A) (A) (A) (A) (A) (A) (A) (A) (A)
                 (A) (A) (A) (A) (A) (A) (A) (A) (A) (A) (A) (A)
                 (A) (A) (A) (A) (A) (A) (A) (A) (A) (A) (A) (A)
                 (A) (A) (A) (A) (A) (A) (A) (A) (A) (A) (A) (A)
                 (A) (A) (A) (A) (A) (A) (A) (A) (A) (A) (A) (A)
                 (A) (A) (A) (A) (A) (A) (A) (A) (A) (A) (A) (A)
                 (A) (A) (A) (A) (A) (A) (A) (A) (A) (A) (A) (A)
                 (A) (A) (A) (A) (A) (A) (A) (A) (A) (A) (A) (A)
                 (A) (A) (A) (A) (A) (A) (A) (A) (A) (A) (A) (A)
                 (A) (A) (A) (A) (A) (A) (A) (A) (A) (A) (A) (A)
                 (A) (A) (A) (A) (A) (A) (A) (A) (A) (A) (A) (A)
                 (A) (A) (A) (A) (A) (A) (A) (A) (A) (A) (A) (A)
                 (A) (A) (A) (A) (A) (A) (A) (A) (A) (A) (A) (A)
                 (A) (A) (A) (A) (A) (A) (A) (A) (A) (A) (A) (A)
                 (A) (A) (A) (A) (A) (A) (A) (A) (A) (A) (A) (A)
                 (A) (A) (A) (A) (A) (A) (A) (A) (A) (A) (A) (A)
                 (A) (A) (A) (A) (A) (A) (A) (A) (A) (A) (A) (A)
                 (A) (A) (A) (A) (A) (A) (A) (A) (A) (A) (A) (A)
                 (A) (A) (A) (A) (A) (A) (A) (A) (A) (A) (A) (A)
                 (A) (A) (A) (A) (A) (A) (A) (A) (A) (A) (A) (A)
                 (A) (A) (A) (A) (A) (A) (A) (A) (A) (A) (A) (A)
                 (A) (A) (A) (A) (A) (A) (A) (A) (A) (A) (A) (A)
                 (A) (A) (A) (A) (A) (A) (A) (A) (A) (A) (A) (A)
                 (A) (A) (A) (A) (A) (A) (A) (A) (A) (A) (A) (A)
                 (A) (A) (A) (A) (A) (A) (A) (A) (A) (A) (A) (A)
                 (A) (A) (A) (A) (A) (A) (A) (A) (A) (A) (A) (A)
                 (A)
 The electronic state is 1-A.
 Alpha  occ. eigenvalues --  -19.70610 -19.70481 -19.69636 -19.69441 -19.64804
 Alpha  occ. eigenvalues --  -19.64621 -19.64029 -19.63986 -10.70078 -10.69891
 Alpha  occ. eigenvalues --  -10.69627 -10.69169 -10.61963 -10.61912 -10.61039
 Alpha  occ. eigenvalues --  -10.58593 -10.58547 -10.58209 -10.58066 -10.57781
 Alpha  occ. eigenvalues --  -10.57706 -10.57520 -10.57445 -10.57312 -10.57270
 Alpha  occ. eigenvalues --  -10.57186 -10.57081 -10.54932  -1.24470  -1.24237
 Alpha  occ. eigenvalues --   -1.23983  -1.23347  -1.15129  -1.14840  -1.14201
 Alpha  occ. eigenvalues --   -1.13904  -0.98424  -0.98011  -0.90960  -0.89809
 Alpha  occ. eigenvalues --   -0.87912  -0.86381  -0.85990  -0.85525  -0.80397
 Alpha  occ. eigenvalues --   -0.77112  -0.75401  -0.72088  -0.71000  -0.69979
 Alpha  occ. eigenvalues --   -0.69184  -0.67066  -0.66025  -0.65272  -0.63440
 Alpha  occ. eigenvalues --   -0.62700  -0.60621  -0.59567  -0.58526  -0.58183
 Alpha  occ. eigenvalues --   -0.58009  -0.57597  -0.56424  -0.55834  -0.54151
 Alpha  occ. eigenvalues --   -0.53944  -0.53334  -0.52995  -0.52877  -0.52251
 Alpha  occ. eigenvalues --   -0.51696  -0.50589  -0.50409  -0.50060  -0.49775
 Alpha  occ. eigenvalues --   -0.48608  -0.48335  -0.47272  -0.46535  -0.45970
 Alpha  occ. eigenvalues --   -0.44765  -0.44576  -0.44371  -0.44137  -0.42607
 Alpha  occ. eigenvalues --   -0.42536  -0.42051  -0.41496  -0.41097  -0.40321
 Alpha  occ. eigenvalues --   -0.39699  -0.37521  -0.37238  -0.36737  -0.36232
 Alpha  occ. eigenvalues --   -0.35986  -0.35688  -0.32765  -0.32317  -0.32278
 Alpha  occ. eigenvalues --   -0.31870
 Alpha virt. eigenvalues --   -0.04587  -0.04202   0.01402   0.01769   0.04809
 Alpha virt. eigenvalues --    0.05002   0.11626   0.12156   0.12620   0.12707
 Alpha virt. eigenvalues --    0.13509   0.14519   0.15320   0.16375   0.17173
 Alpha virt. eigenvalues --    0.17634   0.18628   0.18755   0.19263   0.19373
 Alpha virt. eigenvalues --    0.19726   0.20866   0.21318   0.21573   0.21967
 Alpha virt. eigenvalues --    0.22226   0.22591   0.23042   0.23709   0.24126
 Alpha virt. eigenvalues --    0.24788   0.26279   0.27296   0.28351   0.28641
 Alpha virt. eigenvalues --    0.29250   0.29583   0.30758   0.31358   0.32016
 Alpha virt. eigenvalues --    0.32227   0.32792   0.33352   0.33509   0.33836
 Alpha virt. eigenvalues --    0.37185   0.38179   0.38457   0.38515   0.44288
 Alpha virt. eigenvalues --    0.44956   0.48014   0.48674   0.51062   0.51271
 Alpha virt. eigenvalues --    0.52931   0.54161   0.54539   0.54877   0.55989
 Alpha virt. eigenvalues --    0.55998   0.56348   0.57111   0.57718   0.57993
 Alpha virt. eigenvalues --    0.58123   0.58309   0.58871   0.59156   0.59629
 Alpha virt. eigenvalues --    0.60542   0.61289   0.62003   0.62486   0.62684
 Alpha virt. eigenvalues --    0.62898   0.63091   0.63381   0.63426   0.64599
 Alpha virt. eigenvalues --    0.64956   0.65307   0.65680   0.65895   0.67344
 Alpha virt. eigenvalues --    0.69013   0.69167   0.69434   0.70344   0.70828
 Alpha virt. eigenvalues --    0.71643   0.72019   0.74426   0.75055   0.75380
 Alpha virt. eigenvalues --    0.75825   0.77051   0.77420   0.78661   0.78962
 Alpha virt. eigenvalues --    0.79620   0.79987   0.82244   0.82669   0.82930
 Alpha virt. eigenvalues --    0.83175   0.83775   0.84457   0.85294   0.85892
 Alpha virt. eigenvalues --    0.86245   0.86885   0.87286   0.87335   0.87638
 Alpha virt. eigenvalues --    0.88362   0.89113   0.89728   0.90778   0.91463
 Alpha virt. eigenvalues --    0.92471   0.93819   0.94162   0.94314   0.94701
 Alpha virt. eigenvalues --    0.94884   0.95396   0.97596   0.98543   0.99480
 Alpha virt. eigenvalues --    0.99720   0.99779   1.00067   1.00658   1.01529
 Alpha virt. eigenvalues --    1.02227   1.02655   1.03587   1.04830   1.05953
 Alpha virt. eigenvalues --    1.06927   1.07286   1.07839   1.09732   1.10322
 Alpha virt. eigenvalues --    1.10703   1.12104   1.12453   1.13033   1.15630
 Alpha virt. eigenvalues --    1.16727   1.16866   1.18534   1.18778   1.21209
 Alpha virt. eigenvalues --    1.21988   1.22495   1.26056   1.27366   1.28056
 Alpha virt. eigenvalues --    1.28227   1.28755   1.29556   1.31315   1.32072
 Alpha virt. eigenvalues --    1.32239   1.32500   1.33243   1.34090   1.34493
 Alpha virt. eigenvalues --    1.34872   1.35404   1.35756   1.35954   1.38067
 Alpha virt. eigenvalues --    1.39218   1.40721   1.41750   1.42448   1.42766
 Alpha virt. eigenvalues --    1.43544   1.44241   1.44448   1.44785   1.45698
 Alpha virt. eigenvalues --    1.46175   1.46908   1.47587   1.47870   1.48763
 Alpha virt. eigenvalues --    1.50300   1.50978   1.51825   1.53895   1.56939
 Alpha virt. eigenvalues --    1.57723   1.60652   1.61162   1.61757   1.64733
 Alpha virt. eigenvalues --    1.66470   1.68947   1.69744   1.70182   1.71697
 Alpha virt. eigenvalues --    1.71798   1.72395   1.74282   1.77287   1.77359
 Alpha virt. eigenvalues --    1.78008   1.78601   1.79160   1.79409   1.79634
 Alpha virt. eigenvalues --    1.79986   1.81804   1.83057   1.86060   1.86479
 Alpha virt. eigenvalues --    1.87775   1.88664   1.89542   1.89941   1.90280
 Alpha virt. eigenvalues --    1.90346   1.90677   1.91072   1.92513   1.92917
 Alpha virt. eigenvalues --    1.92967   1.93245   1.93657   1.94676   1.95370
 Alpha virt. eigenvalues --    1.95798   1.96125   1.97706   1.98491   1.98864
 Alpha virt. eigenvalues --    1.99394   1.99711   1.99972   2.00334   2.00746
 Alpha virt. eigenvalues --    2.01872   2.02356   2.04416   2.05058   2.06107
 Alpha virt. eigenvalues --    2.07133   2.07804   2.08411   2.08805   2.09978
 Alpha virt. eigenvalues --    2.10618   2.11463   2.11535   2.12393   2.12552
 Alpha virt. eigenvalues --    2.12964   2.13059   2.13127   2.14470   2.15215
 Alpha virt. eigenvalues --    2.15635   2.17635   2.21664   2.22644   2.26430
 Alpha virt. eigenvalues --    2.26827   2.27766   2.29019   2.29643   2.30683
 Alpha virt. eigenvalues --    2.31177   2.32055   2.33115   2.33801   2.34540
 Alpha virt. eigenvalues --    2.35303   2.35600   2.37229   2.39681   2.39897
 Alpha virt. eigenvalues --    2.40138   2.40873   2.41734   2.42030   2.42233
 Alpha virt. eigenvalues --    2.42955   2.43279   2.43800   2.44862   2.45828
 Alpha virt. eigenvalues --    2.46075   2.46615   2.49966   2.51282   2.52766
 Alpha virt. eigenvalues --    2.52925   2.53064   2.55780   2.56490   2.57484
 Alpha virt. eigenvalues --    2.58453   2.59545   2.59742   2.59770   2.60578
 Alpha virt. eigenvalues --    2.61696   2.62129   2.62223   2.62955   2.63139
 Alpha virt. eigenvalues --    2.64590   2.66110   2.67506   2.68963   2.69198
 Alpha virt. eigenvalues --    2.70444   2.70684   2.71046   2.71895   2.72368
 Alpha virt. eigenvalues --    2.74118   2.75093   2.76117   2.76871   2.77294
 Alpha virt. eigenvalues --    2.78487   2.78814   2.79091   2.79674   2.80712
 Alpha virt. eigenvalues --    2.83327   2.83889   2.84391   2.87309   2.87626
 Alpha virt. eigenvalues --    2.88539   2.89604   2.92102   2.93002   2.93825
 Alpha virt. eigenvalues --    2.94981   2.98600   2.99665   2.99989   3.00959
 Alpha virt. eigenvalues --    3.01861   3.04495   3.04748   3.12847   3.14415
 Alpha virt. eigenvalues --    3.15270   3.16371   3.17107   3.18960   3.19929
 Alpha virt. eigenvalues --    3.21786   3.21914   3.23134   3.23671   3.24952
 Alpha virt. eigenvalues --    3.28326   3.33714   3.35388   3.35486   3.36116
 Alpha virt. eigenvalues --    3.38086   3.39804   3.40980   3.44498   3.45104
 Alpha virt. eigenvalues --    3.49217   3.49601   3.50364   3.52964   3.80660
 Alpha virt. eigenvalues --    3.80802   3.95811   3.99221   4.02877   4.04793
 Alpha virt. eigenvalues --    4.11363   4.12466   4.16297   4.16573   4.16738
 Alpha virt. eigenvalues --    4.18072   4.26724   4.29965   4.35032   4.38391
 Alpha virt. eigenvalues --    4.40627   4.42448   4.42674   4.43097   4.45950
 Alpha virt. eigenvalues --    4.51388   4.52225   4.58079   4.59588   4.60279
 Alpha virt. eigenvalues --    4.64614   4.68832   4.85009   4.85348
          Condensed to atoms (all electrons):
               1          2          3          4          5          6
     1  C    4.309509   0.003977  -0.000127  -0.040944  -0.007920   0.350165
     2  C    0.003977   4.916746   0.375927   0.491565  -0.033407  -0.030831
     3  H   -0.000127   0.375927   0.523436  -0.031929  -0.003957   0.002900
     4  C   -0.040944   0.491565  -0.031929   4.932389   0.377013   0.517362
     5  H   -0.007920  -0.033407  -0.003957   0.377013   0.529586  -0.033462
     6  C    0.350165  -0.030831   0.002900   0.517362  -0.033462   4.977070
[...]
    44  H    0.000000  -0.000000   0.000000   0.000000  -0.000000  -0.000000
    45  H   -0.000000   0.000000  -0.000000   0.000000  -0.000000   0.000000
    46  H    0.000000   0.000000   0.000000   0.000000   0.000000  -0.015075
              25         26         27         28         29         30
     1  C    0.000000   0.000000  -0.000000   0.000000   0.000000  -0.000000
     2  C   -0.000000  -0.000000   0.000000   0.000000  -0.000000   0.000000
     3  H    0.000000   0.000000   0.000000   0.000000   0.000000  -0.000000
     4  C    0.000000  -0.000000   0.000000   0.000000  -0.000000   0.000000
     5  H   -0.000000  -0.000000  -0.000000   0.000000  -0.000000   0.000000
     6  C   -0.000000   0.000000  -0.000000  -0.000000   0.000000  -0.000000
     7  C    0.000000   0.000000   0.000000   0.000000  -0.000000  -0.000000
     8  H    0.000000   0.000000  -0.000000   0.000000  -0.000000  -0.000000
     9  C    0.000000  -0.000000   0.000000   0.000000   0.000000   0.000000
    10  H    0.000000   0.000000   0.000000   0.000000   0.000000   0.000000
    11  C   -0.000000  -0.000000   0.000000   0.000000   0.000000  -0.000000
    12  O    0.000000   0.000000   0.000000   0.000000   0.000000   0.000000
    13  C    0.000000   0.000000   0.000000   0.000000   0.000000   0.000000
    14  O    0.000000   0.000000   0.000000   0.000000   0.000000   0.000000
    15  O   -0.000000  -0.000000   0.000000  -0.000000   0.000000  -0.000000
    16  O   -0.000000   0.000000  -0.000000  -0.000000   0.000000   0.000000
    17  C    0.000000   0.000000   0.000000   0.000000   0.000000   0.000000
    18  H    0.000000   0.000000   0.000000   0.000000   0.000000   0.000000
    19  H    0.000000   0.000000   0.000000   0.000000   0.000000   0.000000
    20  C    0.000000   0.000000   0.000000   0.000000   0.000000   0.000000
    21  H    0.000000   0.000000   0.000000   0.000000   0.000000   0.000000
    22  H    0.000000   0.000000   0.000000   0.000000   0.000000   0.000000
    23  H    0.000000   0.000000   0.000000   0.000000   0.000000   0.000000
    24  C    0.006653  -0.000130  -0.042438  -0.008059   0.307556  -0.036803
    25  C    4.920691   0.376861   0.483330  -0.031109  -0.036120  -0.042651
    26  H    0.376861   0.520906  -0.031310  -0.003272   0.002941   0.000501
    27  C    0.483330  -0.031310   4.923230   0.376962   0.534229  -0.058544
    28  H   -0.031109  -0.003272   0.376962   0.519720  -0.037541   0.004247
    29  C   -0.036120   0.002941   0.534229  -0.037541   5.005794   0.523643
    30  C   -0.042651   0.000501  -0.058544   0.004247   0.523643   4.919383
    31  H    0.000511   0.000015   0.004288  -0.000137  -0.032627   0.376068
    32  C   -0.058464   0.004334  -0.042510   0.000528  -0.033883   0.496548
    33  H    0.004341  -0.000136   0.000470   0.000015   0.002905  -0.032328
    34  C    0.530277  -0.038219  -0.034074   0.002880  -0.027994  -0.032262
    35  O    0.002486   0.010414   0.000789   0.000001  -0.000013  -0.000066
    36  C   -0.039540  -0.007779   0.005949  -0.000138   0.000501   0.004330
    37  O    0.004126   0.000276  -0.000051   0.000000  -0.000003   0.000356
    38  O   -0.000047   0.000000   0.004080   0.000268  -0.104164   0.000696
    39  O    0.000866   0.000001   0.002864   0.009893  -0.100397   0.003722
    40  C   -0.000159  -0.000012   0.000001  -0.000000   0.000000   0.000004
    41  H   -0.000021  -0.000006   0.000000  -0.000000  -0.000000   0.000001
    42  H    0.000002   0.000000  -0.000000   0.000000   0.000000  -0.000001
    43  C    0.000014   0.000001   0.000000   0.000000  -0.000000   0.000000
    44  H   -0.000003  -0.000000   0.000000   0.000000   0.000000   0.000000
    45  H   -0.000003   0.000000  -0.000000  -0.000000   0.000000   0.000000
    46  H    0.000001  -0.000000  -0.000225  -0.000018   0.011438  -0.000560
              31         32         33         34         35         36
     1  C    0.000000  -0.000000   0.000000   0.000000  -0.000002   0.000026
     2  C   -0.000000   0.000000   0.000000  -0.000000   0.000000  -0.000000
     3  H    0.000000  -0.000000  -0.000000  -0.000000  -0.000000   0.000000
     4  C   -0.000000   0.000000   0.000000  -0.000000  -0.000000  -0.000000
     5  H   -0.000000   0.000000   0.000000  -0.000000   0.000000   0.000000
     6  C   -0.000000  -0.000000  -0.000000   0.000000   0.000000   0.000000
     7  C    0.000000   0.000000  -0.000000  -0.000000  -0.000000   0.000000
     8  H    0.000000  -0.000000  -0.000000   0.000000   0.000000   0.000000
     9  C    0.000000   0.000000  -0.000000  -0.000000  -0.000000  -0.000000
    10  H    0.000000   0.000000   0.000000  -0.000000  -0.000000   0.000000
    11  C    0.000000  -0.000000  -0.000000   0.000000   0.000000   0.000000
    12  O    0.000000   0.000000   0.000000   0.000000   0.000000   0.000000
    13  C    0.000000   0.000000  -0.000000   0.000000   0.000000   0.000000
    14  O    0.000000   0.000000   0.000000   0.000000   0.000000   0.000000
    15  O   -0.000000  -0.000000  -0.000000   0.000000   0.000010   0.000008
    16  O   -0.000000  -0.000000   0.000000   0.000000  -0.000000  -0.000002
    17  C    0.000000   0.000000   0.000000   0.000000   0.000000   0.000000
    18  H    0.000000   0.000000   0.000000   0.000000   0.000000   0.000000
    19  H    0.000000   0.000000   0.000000   0.000000   0.000000   0.000000
    20  C    0.000000   0.000000   0.000000   0.000000   0.000000   0.000000
    21  H    0.000000   0.000000   0.000000   0.000000   0.000000   0.000000
    22  H    0.000000   0.000000   0.000000   0.000000   0.000000   0.000000
    23  H    0.000000   0.000000   0.000000   0.000000   0.000000   0.000000
    24  C   -0.008657   0.004268  -0.000113   0.000247  -0.000000   0.000003
    25  C    0.000511  -0.058464   0.004341   0.530277   0.002486  -0.039540
    26  H    0.000015   0.004334  -0.000136  -0.038219   0.010414  -0.007779
    27  C    0.004288  -0.042510   0.000470  -0.034074   0.000789   0.005949
    28  H   -0.000137   0.000528   0.000015   0.002880   0.000001  -0.000138
    29  C   -0.032627  -0.033883   0.002905  -0.027994  -0.000013   0.000501
    30  C    0.376068   0.496548  -0.032328  -0.032262  -0.000066   0.004330
    31  H    0.527612  -0.031963  -0.003728   0.002840   0.000000  -0.000128
    32  C   -0.031963   4.916032   0.376081   0.525809   0.003728  -0.040662
    33  H   -0.003728   0.376081   0.527286  -0.033446   0.000117  -0.008784
    34  C    0.002840   0.525809  -0.033446   4.972144  -0.090700   0.349561
    35  O    0.000000   0.003728   0.000117  -0.090700   8.091765   0.554055
    36  C   -0.000128  -0.040662  -0.008784   0.349561   0.554055   4.304513
    37  O   -0.000001   0.001338   0.008099  -0.099043  -0.093613   0.262669
    38  O    0.006250   0.000296  -0.000001  -0.000005  -0.000000  -0.000000
    39  O    0.000105  -0.000063   0.000000  -0.000019  -0.000000  -0.000000
    40  C   -0.000000  -0.000195  -0.000220   0.006915  -0.001054  -0.027008
    41  H   -0.000000   0.000063   0.000020   0.000017   0.011863  -0.006593
    42  H   -0.000000  -0.000052  -0.000015   0.000063   0.000334   0.003545
    43  C    0.000000   0.000018   0.000011  -0.000526  -0.005288  -0.003750
    44  H   -0.000000   0.000013   0.000010  -0.000060   0.000240   0.000480
    45  H   -0.000000  -0.000022  -0.000002   0.000290   0.005889   0.004859
    46  H   -0.000194   0.000005  -0.000000   0.000001   0.000000   0.000000
              37         38         39         40         41         42
     1  C    0.000003  -0.000000   0.000000  -0.003789   0.000450   0.004967
     2  C   -0.000000   0.000000   0.000000   0.000000   0.000000   0.000000
     3  H   -0.000000   0.000000   0.000000   0.000000  -0.000000  -0.000000
     4  C   -0.000000   0.000000   0.000000   0.000018   0.000011  -0.000022
     5  H   -0.000000   0.000000   0.000000   0.000011   0.000008  -0.000002
     6  C    0.000000   0.000000   0.000000  -0.000517  -0.000056   0.000291
     7  C   -0.000000   0.000000   0.000000   0.000014  -0.000003  -0.000003
     8  H   -0.000000   0.000000   0.000000   0.000001  -0.000000   0.000000
     9  C    0.000000   0.000000   0.000000   0.000000   0.000000  -0.000000
    10  H   -0.000000   0.000000   0.000000   0.000000   0.000000  -0.000000
    11  C    0.000000   0.000000   0.000000  -0.000000  -0.000000   0.000000
    12  O    0.000000   0.000000   0.000000  -0.000000   0.000000  -0.000000
    13  C   -0.000000   0.000000   0.000000  -0.000000  -0.000000   0.000000
    14  O    0.000000   0.000000   0.000000  -0.000000  -0.000000  -0.000000
    15  O    0.001288   0.000000   0.000000  -0.031326   0.003186  -0.002444
    16  O    0.000007   0.000000   0.000000  -0.005310   0.000246   0.005969
    17  C    0.000000   0.000000   0.000000   0.000000  -0.000000  -0.000000
    18  H    0.000000   0.000000   0.000000  -0.000000  -0.000000  -0.000000
    19  H    0.000000   0.000000   0.000000   0.000000   0.000000   0.000000
    20  C    0.000000   0.000000   0.000000   0.000000  -0.000000   0.000000
    21  H    0.000000   0.000000   0.000000   0.000000   0.000000  -0.000000
    22  H    0.000000   0.000000   0.000000   0.000000   0.000000   0.000000
    23  H    0.000000   0.000000   0.000000  -0.000000  -0.000000  -0.000000
    24  C   -0.000000   0.280510   0.595473   0.000000  -0.000000   0.000000
    25  C    0.004126  -0.000047   0.000866  -0.000159  -0.000021   0.000002
    26  H    0.000276   0.000000   0.000001  -0.000012  -0.000006   0.000000
    27  C   -0.000051   0.004080   0.002864   0.000001   0.000000  -0.000000
    28  H    0.000000   0.000268   0.009893  -0.000000  -0.000000   0.000000
    29  C   -0.000003  -0.104164  -0.100397   0.000000  -0.000000   0.000000
    30  C    0.000356   0.000696   0.003722   0.000004   0.000001  -0.000001
    31  H   -0.000001   0.006250   0.000105  -0.000000  -0.000000  -0.000000
    32  C    0.001338   0.000296  -0.000063  -0.000195   0.000063  -0.000052
    33  H    0.008099  -0.000001   0.000000  -0.000220   0.000020  -0.000015
    34  C   -0.099043  -0.000005  -0.000019   0.006915   0.000017   0.000063
    35  O   -0.093613  -0.000000  -0.000000  -0.001054   0.011863   0.000334
    36  C    0.262669  -0.000000  -0.000000  -0.027008  -0.006593   0.003545
    37  O    8.347212   0.000000  -0.000000   0.176903  -0.030551  -0.029043
    38  O    0.000000   8.160122  -0.097108  -0.000000   0.000000  -0.000000
    39  O   -0.000000  -0.097108   8.056628   0.000000  -0.000000  -0.000000
    40  C    0.176903  -0.000000   0.000000   4.851996   0.383263   0.400867
    41  H   -0.030551   0.000000  -0.000000   0.383263   0.554116  -0.029521
    42  H   -0.029043  -0.000000  -0.000000   0.400867  -0.029521   0.519503
    43  C   -0.031383  -0.000000  -0.000000   0.338803  -0.044386  -0.039403
    44  H    0.003240   0.000000  -0.000000  -0.044883   0.005235  -0.005862
    45  H   -0.002299  -0.000000  -0.000000  -0.039318  -0.005921   0.003799
    46  H   -0.000000   0.284692   0.006450  -0.000000   0.000000  -0.000000
              43         44         45         46
     1  C   -0.026943  -0.006736   0.003572  -0.000000
     2  C    0.000003   0.000001  -0.000001   0.000000
     3  H   -0.000000  -0.000000  -0.000000   0.000000
     4  C   -0.000200   0.000062  -0.000051   0.000000
     5  H   -0.000218   0.000019  -0.000012   0.000000
     6  C    0.006908   0.000014   0.000064   0.000000
     7  C   -0.000160  -0.000021   0.000002   0.000000
     8  H   -0.000013  -0.000006   0.000000   0.000000
     9  C    0.000001   0.000000  -0.000000   0.000000
    10  H   -0.000000  -0.000000   0.000000   0.000000
    11  C    0.000000  -0.000000   0.000000   0.000000
    12  O    0.000000   0.000000   0.000000   0.000000
    13  C    0.000000  -0.000000   0.000000   0.000000
    14  O    0.000000   0.000000  -0.000000   0.000000
    15  O    0.177738  -0.030550  -0.029038  -0.000000
    16  O   -0.001338   0.012107   0.000337   0.000000
    17  C   -0.000000   0.000000  -0.000000   0.000000
    18  H    0.000000   0.000000  -0.000000   0.000000
    19  H    0.000000   0.000000  -0.000000   0.000000
    20  C   -0.000000  -0.000000   0.000000   0.000000
    21  H   -0.000000   0.000000  -0.000000   0.000000
    22  H   -0.000000   0.000000   0.000000   0.000000
    23  H    0.000000  -0.000000  -0.000000   0.000000
    24  C   -0.000000  -0.000000   0.000000  -0.015075
    25  C    0.000014  -0.000003  -0.000003   0.000001
    26  H    0.000001  -0.000000   0.000000  -0.000000
    27  C    0.000000   0.000000  -0.000000  -0.000225
    28  H    0.000000   0.000000  -0.000000  -0.000018
    29  C   -0.000000   0.000000   0.000000   0.011438
    30  C    0.000000   0.000000   0.000000  -0.000560
    31  H    0.000000  -0.000000  -0.000000  -0.000194
    32  C    0.000018   0.000013  -0.000022   0.000005
    33  H    0.000011   0.000010  -0.000002  -0.000000
    34  C   -0.000526  -0.000060   0.000290   0.000001
    35  O   -0.005288   0.000240   0.005889   0.000000
    36  C   -0.003750   0.000480   0.004859   0.000000
    37  O   -0.031383   0.003240  -0.002299  -0.000000
    38  O   -0.000000   0.000000  -0.000000   0.284692
    39  O   -0.000000  -0.000000  -0.000000   0.006450
    40  C    0.338803  -0.044883  -0.039318  -0.000000
    41  H   -0.044386   0.005235  -0.005921   0.000000
    42  H   -0.039403  -0.005862   0.003799  -0.000000
    43  C    4.850405   0.383287   0.400804   0.000000
    44  H    0.383287   0.555234  -0.029569  -0.000000
    45  H    0.400804  -0.029569   0.519165  -0.000000
    46  H    0.000000  -0.000000  -0.000000   0.359804
 Mulliken charges:
               1
     1  C    0.642480
     2  C   -0.125082
     3  H    0.163519
     4  C   -0.122903
     5  H    0.158976
     6  C   -0.033233
     7  C   -0.124943
     8  H    0.161267
     9  C   -0.122947
    10  H    0.154991
    11  C   -0.031796
    12  O   -0.493999
    13  C    0.650290
    14  O   -0.518032
    15  O   -0.518805
    16  O   -0.493649
    17  C    0.022187
    18  H    0.141989
    19  H    0.141964
    20  C   -0.388157
    21  H    0.134270
    22  H    0.141032
    23  H    0.140929
    24  C    0.603189
    25  C   -0.122042
    26  H    0.164614
    27  C   -0.127039
    28  H    0.165759
    29  C   -0.016267
    30  C   -0.126283
    31  H    0.159747
    32  C   -0.121245
    33  H    0.159417
    34  C   -0.034697
    35  O   -0.490955
    36  C    0.643885
    37  O   -0.519530
    38  O   -0.535589
    39  O   -0.478416
    40  C   -0.005003
    41  H    0.158579
    42  H    0.167030
    43  C   -0.004386
    44  H    0.157748
    45  H    0.167456
    46  H    0.353682
 Sum of Mulliken charges =  -0.00000
 Mulliken charges with hydrogens summed into heavy atoms:
               1
     1  C    0.642480
     2  C    0.038436
     4  C    0.036073
     6  C   -0.033233
     7  C    0.036324
     9  C    0.032044
    11  C   -0.031796
    12  O   -0.493999
    13  C    0.650290
    14  O   -0.518032
    15  O   -0.518805
    16  O   -0.493649
    17  C    0.306140
    20  C    0.028074
    24  C    0.603189
    25  C    0.042572
    27  C    0.038720
    29  C   -0.016267
    30  C    0.033464
    32  C    0.038172
    34  C   -0.034697
    35  O   -0.490955
    36  C    0.643885
    37  O   -0.519530
    38  O   -0.181907
    39  O   -0.478416
    40  C    0.320606
    43  C    0.320818
 Electronic spatial extent (au):  <R**2>=          28546.4330
 Charge=              0.0000 electrons
 Dipole moment (field-independent basis, Debye):
    X=             -1.3359    Y=             -2.9899    Z=              0.2463  Tot=              3.2840
 Quadrupole moment (field-independent basis, Debye-Ang):
   XX=           -134.5277   YY=           -161.9077   ZZ=           -158.4274
   XY=             -3.3133   XZ=             -2.0053   YZ=             -1.5473
 Traceless Quadrupole moment (field-independent basis, Debye-Ang):
   XX=             17.0932   YY=            -10.2867   ZZ=             -6.8065
   XY=             -3.3133   XZ=             -2.0053   YZ=             -1.5473
 Octapole moment (field-independent basis, Debye-Ang**2):
  XXX=           -263.7077  YYY=            -11.1305  ZZZ=              0.0365  XYY=             49.1244
  XXY=           -309.8832  XXZ=             22.7728  XZZ=             -1.5934  YZZ=              0.0164
  YYZ=             -1.2111  XYZ=              4.8144
 Hexadecapole moment (field-independent basis, Debye-Ang**3):
 XXXX=         -31150.5555 YYYY=          -1270.6099 ZZZZ=           -278.7714 XXXY=           -919.3374
 XXXZ=           -162.4353 YYYX=            -10.4839 YYYZ=            -10.8871 ZZZX=            -27.3747
 ZZZY=              5.4788 XXYY=          -6047.4488 XXZZ=          -5970.8409 YYZZ=           -264.1328
 XXYZ=             36.0726 YYXZ=            -11.8213 ZZXY=            -24.7769
 N-N= 2.265970011717D+03 E-N=-7.739429939269D+03  KE= 1.363039655092D+03
 No NMR shielding tensors so no spin-rotation constants.
 Leave Link  601 at Tue Jul 27 20:02:11 2021, MaxMem=   524288000 cpu:               0.8 elap:               0.2
 (Enter /opt/gaussian/g16_legacy/l9999.exe)
 1\1\GINC-TRUENO92\FOpt\RM062X\6-31G(d,p)\C20H18O8\JRAMOS\27-Jul-2021\0
 \\#p opt=loose m062x/6-31g(d,p)\\Conformer number 1387. Energy MM = 72
 .118 kcal/mol\\0,1\C,1.0878745764,-0.5807949794,0.0446726575\C,4.19113
 89096,1.0148089077,1.5204574674\H,4.5026018133,1.6763477286,2.32142098
 95\C,2.857530468,0.6757198071,1.3377713604\H,2.0901047947,1.0662691924
 ,1.9955878759\C,2.5030516348,-0.1799559979,0.292270771\C,3.4764315415,
 -0.693834943,-0.5662431377\H,3.1661208571,-1.3555715209,-1.3675116333\
 C,4.8097991415,-0.3551381108,-0.3821502409\H,5.5783355542,-0.745751247
 4,-1.0386496944\C,5.1645562513,0.50042593,0.662930044\O,6.9314983935,1
 .6372843071,1.8024157276\C,6.583233198,0.9002170285,0.910859864\O,7.43
 26894367,0.3487796114,0.0325610843\O,0.2370047631,-0.0321849923,0.9323
 836888\O,0.7352365981,-1.3151407052,-0.8477132384\C,8.8142440797,0.692
 8494118,0.2181601329\H,9.118652971,0.3902246732,1.2242655835\H,8.91623
 04323,1.7801534217,0.1560223756\C,9.6019066039,-0.0198938648,-0.858302
 7858\H,10.6644743828,0.2120636563,-0.7572276486\H,9.4734600113,-1.1013
 836416,-0.776692604\H,9.2706639367,0.295480875,-1.8500598901\C,-9.5016
 067794,-0.8936323801,-0.4051231465\C,-6.396595024,0.6694300892,1.00509
 48472\H,-6.0983790036,1.3304164916,1.811467523\C,-7.7226442266,0.31353
 83866,0.8106893884\H,-8.5110530791,0.6824929139,1.4575738936\C,-8.0624
 281626,-0.5405635954,-0.2401320345\C,-7.080804087,-1.0394806409,-1.098
 006148\H,-7.3629883742,-1.701274359,-1.9085003743\C,-5.7521475362,-0.6
 824867104,-0.9039297079\H,-4.9761764075,-1.0596268307,-1.5594571367\C,
 -5.4134559178,0.171203398,0.1474910848\O,-3.6629225126,1.3192789987,1.
 3006637468\C,-4.0027529891,0.5855048235,0.4033462443\O,-3.1432810514,0
 .0490207675,-0.4827128157\O,-9.7231170338,-1.718983877,-1.4447812869\O
 ,-10.3889959368,-0.4933431005,0.3078652865\C,-1.7718894785,0.42322728,
 -0.3284052642\H,-1.6993419799,1.4888968709,-0.0998269124\H,-1.29514772
 67,0.1988622341,-1.2823697217\C,-1.1372898979,-0.3972862355,0.78682476
 88\H,-1.2184764176,-1.4629733543,0.5610723003\H,-1.608007097,-0.167496
 8977,1.7425122284\H,-10.6774396302,-1.88569882,-1.4635855125\\Version=
 EM64L-G16RevA.03\State=1-A\HF=-1374.3095585\RMSD=5.726e-09\RMSF=2.525e
 -05\Dipole=0.5998758,-0.6390899,-0.9492379\Quadrupole=12.2051094,-6.82
 71476,-5.3779618,3.9626207,1.6736286,-1.2898605\PG=C01 [X(C20H18O8)]\\
 @


 I DO NOT DEFINE TIME, SPACE, PLACE, AND MOTION, AS BEING WELL KNOWN TO ALL.
                                            -- NEWTON (1642-1726), PRINCIPIA
 Job cpu time:       0 days  1 hours 58 minutes 35.4 seconds.
 Elapsed time:       0 days  0 hours 29 minutes 43.9 seconds.
 File lengths (MBytes):  RWF=    165 Int=      0 D2E=      0 Chk=     21 Scr=      1
 Normal termination of Gaussian 16 at Tue Jul 27 20:02:12 2021.
