 Entering Gaussian System, Link 0=/opt/gaussian/g16_legacy/g16
 Input=05-PET_1088_gaussian.com
 Output=05-PET_1088_gaussian.log
 Initial command:
 /opt/gaussian/g16_legacy/l1.exe "/scratch-local/jramos/2648135/Gau-1792.inp" -scrdir="/scratch-local/jramos/2648135/"
 Entering Link 1 = /opt/gaussian/g16_legacy/l1.exe PID=      1793.
  
 Copyright (c) 1988,1990,1992,1993,1995,1998,2003,2009,2016,
            Gaussian, Inc.  All Rights Reserved.
  
 This is part of the Gaussian(R) 16 program.  It is based on
 the Gaussian(R) 09 system (copyright 2009, Gaussian, Inc.),
 the Gaussian(R) 03 system (copyright 2003, Gaussian, Inc.),
 the Gaussian(R) 98 system (copyright 1998, Gaussian, Inc.),
 the Gaussian(R) 94 system (copyright 1995, Gaussian, Inc.),
 the Gaussian 92(TM) system (copyright 1992, Gaussian, Inc.),
 the Gaussian 90(TM) system (copyright 1990, Gaussian, Inc.),
 the Gaussian 88(TM) system (copyright 1988, Gaussian, Inc.),
 the Gaussian 86(TM) system (copyright 1986, Carnegie Mellon
 University), and the Gaussian 82(TM) system (copyright 1983,
 Carnegie Mellon University). Gaussian is a federally registered
 trademark of Gaussian, Inc.
  
 This software contains proprietary and confidential information,
 including trade secrets, belonging to Gaussian, Inc.
  
 This software is provided under written license and may be
 used, copied, transmitted, or stored only in accord with that
 written license.
  
 The following legend is applicable only to US Government
 contracts under FAR:
  
                    RESTRICTED RIGHTS LEGEND
  
 Use, reproduction and disclosure by the US Government is
 subject to restrictions as set forth in subparagraphs (a)
 and (c) of the Commercial Computer Software - Restricted
 Rights clause in FAR 52.227-19.
  
 Gaussian, Inc.
 340 Quinnipiac St., Bldg. 40, Wallingford CT 06492
  
  
 ---------------------------------------------------------------
 Warning -- This program may not be used in any manner that
 competes with the business of Gaussian, Inc. or will provide
 assistance to any competitor of Gaussian, Inc.  The licensee
 of this program is prohibited from giving any competitor of
 Gaussian, Inc. access to this program.  By using this program,
 the user acknowledges that Gaussian, Inc. is engaged in the
 business of creating and licensing software in the field of
 computational chemistry and represents and warrants to the
 licensee that it is not a competitor of Gaussian, Inc. and that
 it will not use this program in any manner prohibited above.
 ---------------------------------------------------------------
  

 Cite this work as:
 Gaussian 16, Revision A.03,
 M. J. Frisch, G. W. Trucks, H. B. Schlegel, G. E. Scuseria, 
 M. A. Robb, J. R. Cheeseman, G. Scalmani, V. Barone, 
 G. A. Petersson, H. Nakatsuji, X. Li, M. Caricato, A. V. Marenich, 
 J. Bloino, B. G. Janesko, R. Gomperts, B. Mennucci, H. P. Hratchian, 
 J. V. Ortiz, A. F. Izmaylov, J. L. Sonnenberg, D. Williams-Young, 
 F. Ding, F. Lipparini, F. Egidi, J. Goings, B. Peng, A. Petrone, 
 T. Henderson, D. Ranasinghe, V. G. Zakrzewski, J. Gao, N. Rega, 
 G. Zheng, W. Liang, M. Hada, M. Ehara, K. Toyota, R. Fukuda, 
 J. Hasegawa, M. Ishida, T. Nakajima, Y. Honda, O. Kitao, H. Nakai, 
 T. Vreven, K. Throssell, J. A. Montgomery, Jr., J. E. Peralta, 
 F. Ogliaro, M. J. Bearpark, J. J. Heyd, E. N. Brothers, K. N. Kudin, 
 V. N. Staroverov, T. A. Keith, R. Kobayashi, J. Normand, 
 K. Raghavachari, A. P. Rendell, J. C. Burant, S. S. Iyengar, 
 J. Tomasi, M. Cossi, J. M. Millam, M. Klene, C. Adamo, R. Cammi, 
 J. W. Ochterski, R. L. Martin, K. Morokuma, O. Farkas, 
 J. B. Foresman, and D. J. Fox, Gaussian, Inc., Wallingford CT, 2016.
 
 ******************************************
 Gaussian 16:  EM64L-G16RevA.03 25-Dec-2016
                27-Jul-2021 
 ******************************************
 %chk=05-PET_1088_gaussian.chk
 %nproc=4
 Will use up to    4 processors via shared memory.
 %mem=4000Mb
 -----------------------------
 #p opt=loose m062x/6-31g(d,p)
 -----------------------------
 1/7=-1,18=20,19=15,26=3,38=1/1,3;
 2/9=110,12=2,17=6,18=5,40=1/2;
 3/5=1,6=6,7=101,11=2,25=1,30=1,71=1,74=-55/1,2,3;
 4//1;
 5/5=2,38=5/2;
 6/7=2,8=2,9=2,10=2,28=1/1;
 7//1,2,3,16;
 1/7=-1,18=20,19=15,26=3/3(2);
 2/9=110/2;
 99//99;
 2/9=110/2;
 3/5=1,6=6,7=101,11=2,25=1,30=1,71=1,74=-55/1,2,3;
 4/5=5,16=3,69=1/1;
 5/5=2,38=5/2;
 7//1,2,3,16;
 1/7=-1,18=20,19=15,26=3/3(-5);
 2/9=110/2;
 6/7=2,8=2,9=2,10=2,19=2,28=1/1;
 99/9=1/99;
 Leave Link    1 at Tue Jul 27 19:32:25 2021, MaxMem=   524288000 cpu:               0.2 elap:               0.1
 (Enter /opt/gaussian/g16_legacy/l101.exe)
 --------------------------------------------------
 Conformer number 1088. Energy MM = 72.083 kcal/mol
 --------------------------------------------------
 Symbolic Z-matrix:
 Charge =  0 Multiplicity = 1
 C                     1.0506    0.1912    0.8477 
 C                     4.3631   -1.1078   -0.5142 
 H                     4.728    -1.9081   -1.1569 
 C                     2.9894   -0.9976   -0.2702 
 H                     2.3167   -1.7179   -0.7307 
 C                     2.5004    0.0248    0.5536 
 C                     3.4005    0.9327    1.1288 
 H                     3.0363    1.7328    1.7721 
 C                     4.7742    0.8224    0.8848 
 H                     5.4479    1.5416    1.3453 
 C                     5.2635   -0.1999    0.0608 
 O                     7.1582   -1.2495   -0.9487 
 C                     6.7135   -0.3657   -0.2338 
 O                     7.4415    0.5889    0.3964 
 O                     0.3212   -0.7596    0.2149 
 O                     0.6044    1.0768    1.5589 
 C                     8.8527    0.4999    0.1642 
 H                     9.0585    0.6036   -0.9071 
 H                     9.2259   -0.4668    0.5206 
 C                     9.5285    1.6226    0.9267 
 H                     10.6119   1.5969    0.7804 
 H                     9.1497    2.5955    0.5963 
 H                     9.3141    1.5447    1.9977 
 C                    -9.5702   -0.0207    0.2381 
 C                    -6.2668   -1.3163   -1.1203 
 H                    -5.9038   -2.1174   -1.7627 
 C                    -7.6397   -1.2048   -0.8749 
 H                    -8.3195   -1.9212   -1.3308 
 C                    -8.1245   -0.181    -0.0522 
 C                    -7.227     0.7284    0.5219 
 H                    -7.5934    1.5287    1.1633 
 C                    -5.8538    0.617     0.2765 
 H                    -5.1799    1.3374    0.735 
 C                    -5.366    -0.4073   -0.5468 
 O                    -3.4707   -1.4606   -1.5525 
 C                    -3.9165   -0.5744   -0.8418 
 O                    -3.1864    0.3766   -0.21 
 O                    -10.3297  -0.9504   -0.3668 
 O                    -10.0634   0.8416    0.9408 
 C                    -1.7703    0.3265   -0.4452 
 H                    -1.5517    0.1405   -1.5044 
 H                    -1.3756    1.326    -0.2344 
 C                    -1.0951   -0.7103    0.4493 
 H                    -1.4892   -1.7099    0.2379 
 H                    -1.3143   -0.5247    1.5084 
 H                    -11.2432  -0.7252   -0.091 
 
 ITRead=  0  0  0  0  0  0  0  0  0  0  0  0  0  0  0  0  0  0  0  0
 ITRead=  0  0  0  0  0  0  0  0  0  0  0  0  0  0  0  0  0  0  0  0
 ITRead=  0  0  0  0  0  0
 MicOpt= -1 -1 -1 -1 -1 -1 -1 -1 -1 -1 -1 -1 -1 -1 -1 -1 -1 -1 -1 -1
 MicOpt= -1 -1 -1 -1 -1 -1 -1 -1 -1 -1 -1 -1 -1 -1 -1 -1 -1 -1 -1 -1
 MicOpt= -1 -1 -1 -1 -1 -1
 NAtoms=     46 NQM=       46 NQMF=       0 NMMI=      0 NMMIF=      0
                NMic=       0 NMicF=      0.
                    Isotopes and Nuclear Properties:
 (Nuclear quadrupole moments (NQMom) in fm**2, nuclear magnetic moments (NMagM)
  in nuclear magnetons)

  Atom         1           2           3           4           5           6           7           8           9          10
 IAtWgt=          12          12           1          12           1          12          12           1          12           1
 AtmWgt=  12.0000000  12.0000000   1.0078250  12.0000000   1.0078250  12.0000000  12.0000000   1.0078250  12.0000000   1.0078250
 NucSpn=           0           0           1           0           1           0           0           1           0           1
 AtZEff=  -0.0000000  -0.0000000  -0.0000000  -0.0000000  -0.0000000  -0.0000000  -0.0000000  -0.0000000  -0.0000000  -0.0000000
 NQMom=    0.0000000   0.0000000   0.0000000   0.0000000   0.0000000   0.0000000   0.0000000   0.0000000   0.0000000   0.0000000
 NMagM=    0.0000000   0.0000000   2.7928460   0.0000000   2.7928460   0.0000000   0.0000000   2.7928460   0.0000000   2.7928460
 AtZNuc=   6.0000000   6.0000000   1.0000000   6.0000000   1.0000000   6.0000000   6.0000000   1.0000000   6.0000000   1.0000000

  Atom        11          12          13          14          15          16          17          18          19          20
 IAtWgt=          12          16          12          16          16          16          12           1           1          12
 AtmWgt=  12.0000000  15.9949146  12.0000000  15.9949146  15.9949146  15.9949146  12.0000000   1.0078250   1.0078250  12.0000000
 NucSpn=           0           0           0           0           0           0           0           1           1           0
 AtZEff=  -0.0000000  -0.0000000  -0.0000000  -0.0000000  -0.0000000  -0.0000000  -0.0000000  -0.0000000  -0.0000000  -0.0000000
 NQMom=    0.0000000   0.0000000   0.0000000   0.0000000   0.0000000   0.0000000   0.0000000   0.0000000   0.0000000   0.0000000
 NMagM=    0.0000000   0.0000000   0.0000000   0.0000000   0.0000000   0.0000000   0.0000000   2.7928460   2.7928460   0.0000000
 AtZNuc=   6.0000000   8.0000000   6.0000000   8.0000000   8.0000000   8.0000000   6.0000000   1.0000000   1.0000000   6.0000000

  Atom        21          22          23          24          25          26          27          28          29          30
 IAtWgt=           1           1           1          12          12           1          12           1          12          12
 AtmWgt=   1.0078250   1.0078250   1.0078250  12.0000000  12.0000000   1.0078250  12.0000000   1.0078250  12.0000000  12.0000000
 NucSpn=           1           1           1           0           0           1           0           1           0           0
 AtZEff=  -0.0000000  -0.0000000  -0.0000000  -0.0000000  -0.0000000  -0.0000000  -0.0000000  -0.0000000  -0.0000000  -0.0000000
 NQMom=    0.0000000   0.0000000   0.0000000   0.0000000   0.0000000   0.0000000   0.0000000   0.0000000   0.0000000   0.0000000
 NMagM=    2.7928460   2.7928460   2.7928460   0.0000000   0.0000000   2.7928460   0.0000000   2.7928460   0.0000000   0.0000000
 AtZNuc=   1.0000000   1.0000000   1.0000000   6.0000000   6.0000000   1.0000000   6.0000000   1.0000000   6.0000000   6.0000000

  Atom        31          32          33          34          35          36          37          38          39          40
 IAtWgt=           1          12           1          12          16          12          16          16          16          12
 AtmWgt=   1.0078250  12.0000000   1.0078250  12.0000000  15.9949146  12.0000000  15.9949146  15.9949146  15.9949146  12.0000000
 NucSpn=           1           0           1           0           0           0           0           0           0           0
 AtZEff=  -0.0000000  -0.0000000  -0.0000000  -0.0000000  -0.0000000  -0.0000000  -0.0000000  -0.0000000  -0.0000000  -0.0000000
 NQMom=    0.0000000   0.0000000   0.0000000   0.0000000   0.0000000   0.0000000   0.0000000   0.0000000   0.0000000   0.0000000
 NMagM=    2.7928460   0.0000000   2.7928460   0.0000000   0.0000000   0.0000000   0.0000000   0.0000000   0.0000000   0.0000000
 AtZNuc=   1.0000000   6.0000000   1.0000000   6.0000000   8.0000000   6.0000000   8.0000000   8.0000000   8.0000000   6.0000000

  Atom        41          42          43          44          45          46
 IAtWgt=           1           1          12           1           1           1
 AtmWgt=   1.0078250   1.0078250  12.0000000   1.0078250   1.0078250   1.0078250
 NucSpn=           1           1           0           1           1           1
 AtZEff=  -0.0000000  -0.0000000  -0.0000000  -0.0000000  -0.0000000  -0.0000000
 NQMom=    0.0000000   0.0000000   0.0000000   0.0000000   0.0000000   0.0000000
 NMagM=    2.7928460   2.7928460   0.0000000   2.7928460   2.7928460   2.7928460
 AtZNuc=   1.0000000   1.0000000   6.0000000   1.0000000   1.0000000   1.0000000
 Leave Link  101 at Tue Jul 27 19:32:26 2021, MaxMem=   524288000 cpu:               0.5 elap:               0.1
 (Enter /opt/gaussian/g16_legacy/l103.exe)

 GradGradGradGradGradGradGradGradGradGradGradGradGradGradGradGradGradGrad
 Berny optimization.
 Initialization pass.
                           ----------------------------
                           !    Initial Parameters    !
                           ! (Angstroms and Degrees)  !
 --------------------------                            --------------------------
 ! Name  Definition              Value          Derivative Info.                !
 --------------------------------------------------------------------------------
 ! R1    R(1,6)                  1.4887         estimate D2E/DX2                !
 ! R2    R(1,15)                 1.3552         estimate D2E/DX2                !
 ! R3    R(1,16)                 1.2203         estimate D2E/DX2                !
 ! R4    R(2,3)                  1.0894         estimate D2E/DX2                !
 ! R5    R(2,4)                  1.3995         estimate D2E/DX2                !
 ! R6    R(2,11)                 1.402          estimate D2E/DX2                !
 ! R7    R(4,5)                  1.0879         estimate D2E/DX2                !
 ! R8    R(4,6)                  1.4011         estimate D2E/DX2                !
 ! R9    R(6,7)                  1.4019         estimate D2E/DX2                !
 ! R10   R(7,8)                  1.0893         estimate D2E/DX2                !
 ! R11   R(7,9)                  1.3996         estimate D2E/DX2                !
 ! R12   R(9,10)                 1.0877         estimate D2E/DX2                !
 ! R13   R(9,11)                 1.4012         estimate D2E/DX2                !
 ! R14   R(11,13)                1.4889         estimate D2E/DX2                !
 ! R15   R(12,13)                1.2206         estimate D2E/DX2                !
 ! R16   R(13,14)                1.3559         estimate D2E/DX2                !
 ! R17   R(14,17)                1.4329         estimate D2E/DX2                !
 ! R18   R(15,43)                1.4364         estimate D2E/DX2                !
 ! R19   R(17,18)                1.0958         estimate D2E/DX2                !
 ! R20   R(17,19)                1.0958         estimate D2E/DX2                !
 ! R21   R(17,20)                1.5161         estimate D2E/DX2                !
 ! R22   R(20,21)                1.0935         estimate D2E/DX2                !
 ! R23   R(20,22)                1.0951         estimate D2E/DX2                !
 ! R24   R(20,23)                1.095          estimate D2E/DX2                !
 ! R25   R(24,29)                1.4832         estimate D2E/DX2                !
 ! R26   R(24,38)                1.3443         estimate D2E/DX2                !
 ! R27   R(24,39)                1.2168         estimate D2E/DX2                !
 ! R28   R(25,26)                1.0891         estimate D2E/DX2                !
 ! R29   R(25,27)                1.3991         estimate D2E/DX2                !
 ! R30   R(25,34)                1.4024         estimate D2E/DX2                !
 ! R31   R(27,28)                1.0878         estimate D2E/DX2                !
 ! R32   R(27,29)                1.4            estimate D2E/DX2                !
 ! R33   R(29,30)                1.4008         estimate D2E/DX2                !
 ! R34   R(30,31)                1.0891         estimate D2E/DX2                !
 ! R35   R(30,32)                1.3994         estimate D2E/DX2                !
 ! R36   R(32,33)                1.0878         estimate D2E/DX2                !
 ! R37   R(32,34)                1.4018         estimate D2E/DX2                !
 ! R38   R(34,36)                1.4886         estimate D2E/DX2                !
 ! R39   R(35,36)                1.2203         estimate D2E/DX2                !
 ! R40   R(36,37)                1.3552         estimate D2E/DX2                !
 ! R41   R(37,40)                1.4364         estimate D2E/DX2                !
 ! R42   R(38,46)                0.9804         estimate D2E/DX2                !
 ! R43   R(40,41)                1.0974         estimate D2E/DX2                !
 ! R44   R(40,42)                1.0951         estimate D2E/DX2                !
 ! R45   R(40,43)                1.5268         estimate D2E/DX2                !
 ! R46   R(43,44)                1.0951         estimate D2E/DX2                !
 ! R47   R(43,45)                1.0974         estimate D2E/DX2                !
 ! A1    A(6,1,15)             110.7021         estimate D2E/DX2                !
 ! A2    A(6,1,16)             123.5286         estimate D2E/DX2                !
 ! A3    A(15,1,16)            125.7679         estimate D2E/DX2                !
 ! A4    A(3,2,4)              119.3069         estimate D2E/DX2                !
 ! A5    A(3,2,11)             120.1711         estimate D2E/DX2                !
 ! A6    A(4,2,11)             120.522          estimate D2E/DX2                !
 ! A7    A(2,4,5)              118.7519         estimate D2E/DX2                !
 ! A8    A(2,4,6)              120.1677         estimate D2E/DX2                !
 ! A9    A(5,4,6)              121.0804         estimate D2E/DX2                !
 ! A10   A(1,6,4)              122.5223         estimate D2E/DX2                !
 ! A11   A(1,6,7)              118.1544         estimate D2E/DX2                !
 ! A12   A(4,6,7)              119.3233         estimate D2E/DX2                !
 ! A13   A(6,7,8)              120.2193         estimate D2E/DX2                !
 ! A14   A(6,7,9)              120.5058         estimate D2E/DX2                !
 ! A15   A(8,7,9)              119.2749         estimate D2E/DX2                !
 ! A16   A(7,9,10)             118.816          estimate D2E/DX2                !
 ! A17   A(7,9,11)             120.1826         estimate D2E/DX2                !
 ! A18   A(10,9,11)            121.0014         estimate D2E/DX2                !
 ! A19   A(2,11,9)             119.2987         estimate D2E/DX2                !
 ! A20   A(2,11,13)            118.1763         estimate D2E/DX2                !
 ! A21   A(9,11,13)            122.525          estimate D2E/DX2                !
 ! A22   A(11,13,12)           123.4576         estimate D2E/DX2                !
 ! A23   A(11,13,14)           110.6422         estimate D2E/DX2                !
 ! A24   A(12,13,14)           125.9001         estimate D2E/DX2                !
 ! A25   A(13,14,17)           114.1879         estimate D2E/DX2                !
 ! A26   A(1,15,43)            115.4942         estimate D2E/DX2                !
 ! A27   A(14,17,18)           109.7246         estimate D2E/DX2                !
 ! A28   A(14,17,19)           109.724          estimate D2E/DX2                !
 ! A29   A(14,17,20)           108.1493         estimate D2E/DX2                !
 ! A30   A(18,17,19)           109.7238         estimate D2E/DX2                !
 ! A31   A(18,17,20)           109.7486         estimate D2E/DX2                !
 ! A32   A(19,17,20)           109.7481         estimate D2E/DX2                !
 ! A33   A(17,20,21)           110.9116         estimate D2E/DX2                !
 ! A34   A(17,20,22)           110.6077         estimate D2E/DX2                !
 ! A35   A(17,20,23)           110.6063         estimate D2E/DX2                !
 ! A36   A(21,20,22)           108.8578         estimate D2E/DX2                !
 ! A37   A(21,20,23)           108.8541         estimate D2E/DX2                !
 ! A38   A(22,20,23)           106.8921         estimate D2E/DX2                !
 ! A39   A(29,24,38)           112.8221         estimate D2E/DX2                !
 ! A40   A(29,24,39)           125.7805         estimate D2E/DX2                !
 ! A41   A(38,24,39)           121.3973         estimate D2E/DX2                !
 ! A42   A(26,25,27)           119.2828         estimate D2E/DX2                !
 ! A43   A(26,25,34)           120.2579         estimate D2E/DX2                !
 ! A44   A(27,25,34)           120.4592         estimate D2E/DX2                !
 ! A45   A(25,27,28)           119.1601         estimate D2E/DX2                !
 ! A46   A(25,27,29)           120.0757         estimate D2E/DX2                !
 ! A47   A(28,27,29)           120.7641         estimate D2E/DX2                !
 ! A48   A(24,29,27)           122.111          estimate D2E/DX2                !
 ! A49   A(24,29,30)           118.3026         estimate D2E/DX2                !
 ! A50   A(27,29,30)           119.5864         estimate D2E/DX2                !
 ! A51   A(29,30,31)           120.1911         estimate D2E/DX2                !
 ! A52   A(29,30,32)           120.3433         estimate D2E/DX2                !
 ! A53   A(31,30,32)           119.4656         estimate D2E/DX2                !
 ! A54   A(30,32,33)           118.7685         estimate D2E/DX2                !
 ! A55   A(30,32,34)           120.1747         estimate D2E/DX2                !
 ! A56   A(33,32,34)           121.0568         estimate D2E/DX2                !
 ! A57   A(25,34,32)           119.3607         estimate D2E/DX2                !
 ! A58   A(25,34,36)           118.1421         estimate D2E/DX2                !
 ! A59   A(32,34,36)           122.4972         estimate D2E/DX2                !
 ! A60   A(34,36,35)           123.5484         estimate D2E/DX2                !
 ! A61   A(34,36,37)           110.6965         estimate D2E/DX2                !
 ! A62   A(35,36,37)           125.7536         estimate D2E/DX2                !
 ! A63   A(36,37,40)           115.4875         estimate D2E/DX2                !
 ! A64   A(24,38,46)           103.9442         estimate D2E/DX2                !
 ! A65   A(37,40,41)           111.1213         estimate D2E/DX2                !
 ! A66   A(37,40,42)           106.9768         estimate D2E/DX2                !
 ! A67   A(37,40,43)           111.3309         estimate D2E/DX2                !
 ! A68   A(41,40,42)           105.5866         estimate D2E/DX2                !
 ! A69   A(41,40,43)           111.2412         estimate D2E/DX2                !
 ! A70   A(42,40,43)           110.3426         estimate D2E/DX2                !
 ! A71   A(15,43,40)           111.3309         estimate D2E/DX2                !
 ! A72   A(15,43,44)           106.9784         estimate D2E/DX2                !
 ! A73   A(15,43,45)           111.116          estimate D2E/DX2                !
 ! A74   A(40,43,44)           110.3417         estimate D2E/DX2                !
 ! A75   A(40,43,45)           111.2392         estimate D2E/DX2                !
 ! A76   A(44,43,45)           105.5937         estimate D2E/DX2                !
 ! D1    D(15,1,6,4)            -0.1795         estimate D2E/DX2                !
 ! D2    D(15,1,6,7)           179.8017         estimate D2E/DX2                !
 ! D3    D(16,1,6,4)          -179.775          estimate D2E/DX2                !
 ! D4    D(16,1,6,7)             0.2063         estimate D2E/DX2                !
 ! D5    D(6,1,15,43)          178.856          estimate D2E/DX2                !
 ! D6    D(16,1,15,43)          -1.5597         estimate D2E/DX2                !
 ! D7    D(3,2,4,5)              0.0156         estimate D2E/DX2                !
 ! D8    D(3,2,4,6)            179.9979         estimate D2E/DX2                !
 ! D9    D(11,2,4,5)          -179.9722         estimate D2E/DX2                !
 ! D10   D(11,2,4,6)             0.0101         estimate D2E/DX2                !
 ! D11   D(3,2,11,9)          -179.9888         estimate D2E/DX2                !
 ! D12   D(3,2,11,13)            0.0104         estimate D2E/DX2                !
 ! D13   D(4,2,11,9)            -0.0011         estimate D2E/DX2                !
 ! D14   D(4,2,11,13)          179.9981         estimate D2E/DX2                !
 ! D15   D(2,4,6,1)            179.9649         estimate D2E/DX2                !
 ! D16   D(2,4,6,7)             -0.0162         estimate D2E/DX2                !
 ! D17   D(5,4,6,1)             -0.0532         estimate D2E/DX2                !
 ! D18   D(5,4,6,7)            179.9658         estimate D2E/DX2                !
 ! D19   D(1,6,7,8)              0.0561         estimate D2E/DX2                !
 ! D20   D(1,6,7,9)           -179.9685         estimate D2E/DX2                !
 ! D21   D(4,6,7,8)           -179.962          estimate D2E/DX2                !
 ! D22   D(4,6,7,9)              0.0134         estimate D2E/DX2                !
 ! D23   D(6,7,9,10)          -179.9888         estimate D2E/DX2                !
 ! D24   D(6,7,9,11)            -0.0044         estimate D2E/DX2                !
 ! D25   D(8,7,9,10)            -0.0132         estimate D2E/DX2                !
 ! D26   D(8,7,9,11)           179.9712         estimate D2E/DX2                !
 ! D27   D(7,9,11,2)            -0.0018         estimate D2E/DX2                !
 ! D28   D(7,9,11,13)          179.9991         estimate D2E/DX2                !
 ! D29   D(10,9,11,2)          179.9822         estimate D2E/DX2                !
 ! D30   D(10,9,11,13)          -0.017          estimate D2E/DX2                !
 ! D31   D(2,11,13,12)           0.0002         estimate D2E/DX2                !
 ! D32   D(2,11,13,14)         179.9978         estimate D2E/DX2                !
 ! D33   D(9,11,13,12)         179.9994         estimate D2E/DX2                !
 ! D34   D(9,11,13,14)          -0.003          estimate D2E/DX2                !
 ! D35   D(11,13,14,17)        179.9908         estimate D2E/DX2                !
 ! D36   D(12,13,14,17)         -0.0117         estimate D2E/DX2                !
 ! D37   D(13,14,17,18)         60.3173         estimate D2E/DX2                !
 ! D38   D(13,14,17,19)        -60.3075         estimate D2E/DX2                !
 ! D39   D(13,14,17,20)       -179.9946         estimate D2E/DX2                !
 ! D40   D(1,15,43,40)          81.6976         estimate D2E/DX2                !
 ! D41   D(1,15,43,44)        -157.6773         estimate D2E/DX2                !
 ! D42   D(1,15,43,45)         -42.8928         estimate D2E/DX2                !
 ! D43   D(14,17,20,21)        179.9998         estimate D2E/DX2                !
 ! D44   D(14,17,20,22)        -59.1133         estimate D2E/DX2                !
 ! D45   D(14,17,20,23)         59.1185         estimate D2E/DX2                !
 ! D46   D(18,17,20,21)        -60.3272         estimate D2E/DX2                !
 ! D47   D(18,17,20,22)         60.5597         estimate D2E/DX2                !
 ! D48   D(18,17,20,23)        178.7916         estimate D2E/DX2                !
 ! D49   D(19,17,20,21)         60.3278         estimate D2E/DX2                !
 ! D50   D(19,17,20,22)       -178.7853         estimate D2E/DX2                !
 ! D51   D(19,17,20,23)        -60.5534         estimate D2E/DX2                !
 ! D52   D(38,24,29,27)          0.0274         estimate D2E/DX2                !
 ! D53   D(38,24,29,30)       -179.9761         estimate D2E/DX2                !
 ! D54   D(39,24,29,27)       -179.9894         estimate D2E/DX2                !
 ! D55   D(39,24,29,30)          0.007          estimate D2E/DX2                !
 ! D56   D(29,24,38,46)       -179.9906         estimate D2E/DX2                !
 ! D57   D(39,24,38,46)          0.0254         estimate D2E/DX2                !
 ! D58   D(26,25,27,28)          0.0047         estimate D2E/DX2                !
 ! D59   D(26,25,27,29)       -179.9719         estimate D2E/DX2                !
 ! D60   D(34,25,27,28)        179.9828         estimate D2E/DX2                !
 ! D61   D(34,25,27,29)          0.0063         estimate D2E/DX2                !
 ! D62   D(26,25,34,32)        179.9669         estimate D2E/DX2                !
 ! D63   D(26,25,34,36)         -0.0576         estimate D2E/DX2                !
 ! D64   D(27,25,34,32)         -0.011          estimate D2E/DX2                !
 ! D65   D(27,25,34,36)        179.9645         estimate D2E/DX2                !
 ! D66   D(25,27,29,24)        179.9935         estimate D2E/DX2                !
 ! D67   D(25,27,29,30)         -0.0029         estimate D2E/DX2                !
 ! D68   D(28,27,29,24)          0.0173         estimate D2E/DX2                !
 ! D69   D(28,27,29,30)       -179.9791         estimate D2E/DX2                !
 ! D70   D(24,29,30,31)         -0.0071         estimate D2E/DX2                !
 ! D71   D(24,29,30,32)       -179.9921         estimate D2E/DX2                !
 ! D72   D(27,29,30,31)        179.9894         estimate D2E/DX2                !
 ! D73   D(27,29,30,32)          0.0044         estimate D2E/DX2                !
 ! D74   D(29,30,32,33)        179.9683         estimate D2E/DX2                !
 ! D75   D(29,30,32,34)         -0.0093         estimate D2E/DX2                !
 ! D76   D(31,30,32,33)         -0.0168         estimate D2E/DX2                !
 ! D77   D(31,30,32,34)       -179.9943         estimate D2E/DX2                !
 ! D78   D(30,32,34,25)          0.0125         estimate D2E/DX2                !
 ! D79   D(30,32,34,36)       -179.9619         estimate D2E/DX2                !
 ! D80   D(33,32,34,25)       -179.9646         estimate D2E/DX2                !
 ! D81   D(33,32,34,36)          0.061          estimate D2E/DX2                !
 ! D82   D(25,34,36,35)         -0.1718         estimate D2E/DX2                !
 ! D83   D(25,34,36,37)       -179.752          estimate D2E/DX2                !
 ! D84   D(32,34,36,35)        179.8029         estimate D2E/DX2                !
 ! D85   D(32,34,36,37)          0.2227         estimate D2E/DX2                !
 ! D86   D(34,36,37,40)       -178.8651         estimate D2E/DX2                !
 ! D87   D(35,36,37,40)          1.5659         estimate D2E/DX2                !
 ! D88   D(36,37,40,41)         42.9174         estimate D2E/DX2                !
 ! D89   D(36,37,40,42)        157.6952         estimate D2E/DX2                !
 ! D90   D(36,37,40,43)        -81.6796         estimate D2E/DX2                !
 ! D91   D(37,40,43,15)       -179.9508         estimate D2E/DX2                !
 ! D92   D(37,40,43,44)         61.4216         estimate D2E/DX2                !
 ! D93   D(37,40,43,45)        -55.4298         estimate D2E/DX2                !
 ! D94   D(41,40,43,15)         55.5196         estimate D2E/DX2                !
 ! D95   D(41,40,43,44)        -63.1079         estimate D2E/DX2                !
 ! D96   D(41,40,43,45)       -179.9594         estimate D2E/DX2                !
 ! D97   D(42,40,43,15)        -61.3248         estimate D2E/DX2                !
 ! D98   D(42,40,43,44)       -179.9523         estimate D2E/DX2                !
 ! D99   D(42,40,43,45)         63.1962         estimate D2E/DX2                !
 --------------------------------------------------------------------------------
 Trust Radius=3.00D-01 FncErr=1.00D-07 GrdErr=1.00D-06 EigMax=2.50D+02 EigMin=1.00D-04
 Number of steps in this run=    232 maximum allowed number of steps=    276.
 GradGradGradGradGradGradGradGradGradGradGradGradGradGradGradGradGradGrad

 Leave Link  103 at Tue Jul 27 19:32:26 2021, MaxMem=   524288000 cpu:               0.1 elap:               0.2
 (Enter /opt/gaussian/g16_legacy/l202.exe)
                          Input orientation:                          
 ---------------------------------------------------------------------
 Center     Atomic      Atomic             Coordinates (Angstroms)
 Number     Number       Type             X           Y           Z
 ---------------------------------------------------------------------
      1          6           0        1.050600    0.191200    0.847700
      2          6           0        4.363100   -1.107800   -0.514200
      3          1           0        4.728000   -1.908100   -1.156900
      4          6           0        2.989400   -0.997600   -0.270200
      5          1           0        2.316700   -1.717900   -0.730700
      6          6           0        2.500400    0.024800    0.553600
      7          6           0        3.400500    0.932700    1.128800
      8          1           0        3.036300    1.732800    1.772100
      9          6           0        4.774200    0.822400    0.884800
     10          1           0        5.447900    1.541600    1.345300
     11          6           0        5.263500   -0.199900    0.060800
     12          8           0        7.158200   -1.249500   -0.948700
     13          6           0        6.713500   -0.365700   -0.233800
     14          8           0        7.441500    0.588900    0.396400
     15          8           0        0.321200   -0.759600    0.214900
     16          8           0        0.604400    1.076800    1.558900
     17          6           0        8.852700    0.499900    0.164200
     18          1           0        9.058500    0.603600   -0.907100
     19          1           0        9.225900   -0.466800    0.520600
     20          6           0        9.528500    1.622600    0.926700
     21          1           0       10.611900    1.596900    0.780400
     22          1           0        9.149700    2.595500    0.596300
     23          1           0        9.314100    1.544700    1.997700
     24          6           0       -9.570200   -0.020700    0.238100
     25          6           0       -6.266800   -1.316300   -1.120300
     26          1           0       -5.903800   -2.117400   -1.762700
     27          6           0       -7.639700   -1.204800   -0.874900
     28          1           0       -8.319500   -1.921200   -1.330800
     29          6           0       -8.124500   -0.181000   -0.052200
     30          6           0       -7.227000    0.728400    0.521900
     31          1           0       -7.593400    1.528700    1.163300
     32          6           0       -5.853800    0.617000    0.276500
     33          1           0       -5.179900    1.337400    0.735000
     34          6           0       -5.366000   -0.407300   -0.546800
     35          8           0       -3.470700   -1.460600   -1.552500
     36          6           0       -3.916500   -0.574400   -0.841800
     37          8           0       -3.186400    0.376600   -0.210000
     38          8           0      -10.329700   -0.950400   -0.366800
     39          8           0      -10.063400    0.841600    0.940800
     40          6           0       -1.770300    0.326500   -0.445200
     41          1           0       -1.551700    0.140500   -1.504400
     42          1           0       -1.375600    1.326000   -0.234400
     43          6           0       -1.095100   -0.710300    0.449300
     44          1           0       -1.489200   -1.709900    0.237900
     45          1           0       -1.314300   -0.524700    1.508400
     46          1           0      -11.243200   -0.725200   -0.091000
 ---------------------------------------------------------------------
                    Distance matrix (angstroms):
                    1          2          3          4          5
     1  C    0.000000
     2  C    3.809833   0.000000
     3  H    4.684950   1.089355   0.000000
     4  C    2.534145   1.399547   2.153596   0.000000
     5  H    2.781909   2.146357   2.456052   1.087850   0.000000
     6  C    1.488658   2.427474   3.409416   1.401096   2.172596
     7  C    2.480095   2.791001   3.880313   2.419145   3.414388
     8  H    2.678442   3.880280   4.969612   3.410025   4.323096
     9  C    3.776902   2.419065   3.409737   2.798560   3.886164
    10  H    4.626817   3.413774   4.322001   3.886078   4.973784
    11  C    4.303568   1.402008   2.165064   2.432574   3.407994
    12  O    6.527285   2.832217   2.526455   4.231159   4.868988
    13  C    5.792082   2.480669   2.678306   3.777505   4.626792
    14  O    6.419146   3.631051   4.001354   4.773105   5.731950
    15  O    1.355168   4.121867   4.756130   2.722362   2.407181
    16  O    1.220323   4.816435   5.769686   3.651981   3.998073
    17  C    7.838063   4.816787   4.955494   6.067083   6.959797
    18  H    8.208280   5.012987   5.012411   6.308998   7.132485
    19  H    8.208257   5.012835   5.012231   6.308807   7.132184
    20  C    8.598252   6.017693   6.312847   7.145477   8.118865
    21  H    9.664315   6.931010   7.117474   8.120203   9.059893
    22  H    8.452176   6.152981   6.550386   7.184044   8.188787
    23  H    8.452212   6.152869   6.550240   7.183905   8.188549
    24  C   10.640390  13.995878  14.489542  12.607785  12.046471
    25  C    7.725925  10.649207  11.010776   9.300617   8.601717
    26  H    7.778657  10.391693  10.651102   9.086832   8.294652
    27  C    8.968694  12.008610  12.390890  10.648303   9.970655
    28  H    9.849207  12.734865  13.048665  11.396014  10.655055
    29  C    9.226636  12.530465  13.014991  11.145992  10.575494
    30  C    8.301409  11.780304  12.356841  10.391406   9.931546
    31  H    8.752557  12.358116  13.000455  10.974187  10.598949
    32  C    6.941060  10.391592  10.972933   9.005998   8.557060
    33  H    6.336056   9.930174  10.596180   8.555707   8.226916
    34  C    6.593602   9.754340  10.223182   8.380792   7.795856
    35  O    5.378806   7.910181   8.220428   6.602390   5.851116
    36  C    5.302135   8.303229   8.752452   6.942426   6.338195
    37  O    4.370958   7.700060   8.291815   6.327129   5.911190
    38  O   11.501717  14.694382  15.108798  13.319534  12.674893
    39  O   11.133404  14.630143  15.190349  13.237249  12.751934
    40  C    3.106022   6.299252   6.908535   4.943542   4.578717
    41  H    3.508121   6.125652   6.614541   4.841499   4.360823
    42  H    2.888799   6.239739   6.968812   4.945061   4.810896
    43  C    2.361240   5.556823   6.158173   4.157326   3.748071
    44  H    3.230576   5.931070   6.374820   4.563266   3.927229
    45  H    2.557692   6.055063   6.747371   4.680693   4.429611
    46  H   12.363594  15.616724  16.050378  14.236334  13.611229
                    6          7          8          9         10
     6  C    0.000000
     7  C    1.401898   0.000000
     8  H    2.165455   1.089328   0.000000
     9  C    2.432288   1.399555   2.153236   0.000000
    10  H    3.408112   2.146970   2.456528   1.087741   0.000000
    11  C    2.815682   2.427792   3.409442   1.401245   2.171812
    12  O    5.057257   4.816463   5.769482   3.652116   3.997224
    13  C    4.303801   3.810314   4.684991   2.534508   2.780844
    14  O    4.975680   4.121200   4.754666   2.721681   2.404681
    15  O    2.340708   3.630590   4.001087   4.772913   5.732048
    16  O    2.390010   2.832654   2.527831   4.231591   4.870437
    17  C    6.381933   5.553760   6.159212   4.154207   3.751373
    18  H    6.743688   6.022139   6.687309   4.649087   4.357704
    19  H    6.743524   6.021943   6.686975   4.648904   4.357417
    20  C    7.217088   6.170024   6.547939   4.821353   4.102814
    21  H    8.265553   7.250299   7.641443   5.889779   5.195100
    22  H    7.129061   6.008474   6.284936   4.729917   3.921101
    23  H    7.128957   6.008344   6.284668   4.729794   3.920859
    24  C   12.074808  13.036157  12.819975  14.383701  15.139683
    25  C    9.025757  10.177089  10.208362  11.423578  12.307761
    26  H    8.976906  10.209500  10.355879  11.387334  12.325138
    27  C   10.313785  11.422335  11.384774  12.700827  13.555710
    28  H   11.153839  12.310677  12.326147  13.560280  14.446238
    29  C   10.644146  11.638759  11.469706  12.971555  13.752469
    30  C    9.752865  10.646775  10.387836  12.007054  12.727622
    31  H   10.223417  11.010097  10.649076  12.390882  13.042576
    32  C    8.379746   9.298825   9.083816  10.647375  11.389716
    33  H    7.793769   8.598961   8.290830   9.968539  10.647267
    34  C    7.954737   9.025229   8.975298  10.314325  11.149829
    35  O    6.503546   7.754395   7.974448   8.895555   9.846414
    36  C    6.594148   7.726131   7.777986   8.969976   9.846464
    37  O    5.748612   6.744545   6.670082   8.047886   8.850272
    38  O   12.899985  13.939199  13.799435  15.259001  16.064682
    39  O   12.596276  13.465521  13.156270  14.837718  15.532355
    40  C    4.396306   5.438945   5.476998   6.696663   7.535567
    41  H    4.546236   5.664416   5.858380   6.796343   7.686239
    42  H    4.163825   4.982382   4.863784   6.271065   7.007288
    43  C    3.671358   4.834417   4.978655   6.081736   6.977444
    44  H    4.361853   5.629050   5.889491   6.786840   7.740927
    45  H    3.970583   4.949490   4.908520   6.266848   7.072733
    46  H   13.779135  14.787647  14.608800  16.121549  16.905448
                   11         12         13         14         15
    11  C    0.000000
    12  O    2.389694   0.000000
    13  C    1.488885   1.220632   0.000000
    14  O    2.340623   2.295489   1.355875   0.000000
    15  O    4.976278   6.952592   6.420124   7.249142   0.000000
    16  O    5.057814   7.392701   6.528069   6.952366   2.293230
    17  C    3.658247   2.677737   2.341761   1.432942   8.624118
    18  H    3.998058   2.654590   2.625243   2.077021   8.913900
    19  H    3.997908   2.654589   2.625166   2.077020   8.914756
    20  C    4.718211   4.169461   3.636526   2.388582   9.537081
    21  H    5.687855   4.797898   4.480840   3.348874  10.572199
    22  H    4.817009   4.597513   3.923371   2.642792   9.452226
    23  H    4.816905   4.597470   3.923307   2.642791   9.453064
    24  C   14.835842  16.815404  16.294189  17.023355   9.918987
    25  C   11.644276  13.426263  13.045218  13.922918   6.744955
    26  H   11.476522  13.116085  12.829741  13.787052   6.671218
    27  C   12.976052  14.798152  14.391993  15.240609   8.047471
    28  H   13.762170  15.496980  15.153022  16.052817   8.854389
    29  C   13.388490  15.346215  14.840261  15.591483   8.469709
    30  C   12.533433  14.594819  14.003774  14.669700   7.699592
    31  H   13.019349  15.158781  14.499242  15.083752   8.293170
    32  C   11.149359  13.202162  12.615987  13.295870   6.326883
    33  H   10.577450  12.718318  12.053717  12.648108   5.910162
    34  C   10.648871  12.558918  12.083626  12.880765   5.748786
    35  O    8.970973  10.648129  10.327425  11.272745   4.241887
    36  C    9.231865  11.095773  10.649419  11.484362   4.371386
    37  O    8.473871  10.497649   9.927719  10.647303   3.711435
    38  O   15.617105  17.500135  17.053745  17.854060  10.668479
    39  O   15.387429  17.450685  16.861246  17.515186  10.532364
    40  C    7.071596   9.080496   8.514616   9.253886   2.447390
    41  H    7.000905   8.837605   8.377601   9.202812   2.697022
    42  H    6.818589   8.942548   8.264102   8.870314   2.725936
    43  C    6.390871   8.388212   7.845993   8.635060   1.436412
    44  H    6.921735   8.740567   8.325483   9.223178   2.044785
    45  H    6.743033   8.851324   8.216210   8.896105   2.098376
    46  H   16.515754  18.428838  17.960866  18.737194  11.568496
                   16         17         18         19         20
    16  O    0.000000
    17  C    8.385252   0.000000
    18  H    8.819120   1.095806   0.000000
    19  H    8.819922   1.095814   1.792235   0.000000
    20  C    8.963099   1.516103   2.149903   2.149901   0.000000
    21  H   10.051200   2.162844   2.499470   2.499470   1.093535
    22  H    8.732422   2.160199   2.497237   3.064183   1.095074
    23  H    8.733290   2.160143   3.064125   2.497146   1.095024
    24  C   10.318503  18.430402  18.674306  18.803515  19.181630
    25  C    7.753608  15.282271  15.446562  15.602498  16.196260
    26  H    7.974497  15.110179  15.231753  15.389794  16.105165
    27  C    8.893496  16.612796  16.795869  16.939319  17.492485
    28  H    9.847556  17.406355  17.565563  17.702656  18.335919
    29  C    8.965010  16.992227  17.222135  17.362205  17.771877
    30  C    7.907438  16.085301  16.348551  16.496255  16.784226
    31  H    8.219771  16.508508  16.805598  16.949452  17.123792
    32  C    6.600327  14.707395  14.959204  15.120567  15.428841
    33  H    5.848491  14.069154  14.351550  14.519924  14.712414
    34  C    6.502477  14.265341  14.464368  14.631009  15.104232
    35  O    5.720634  12.595904  12.714492  12.903063  13.587927
    36  C    5.378509  12.853740  13.028529  13.213266  13.737628
    37  O    4.241397  12.045545  12.266827  12.462355  12.826273
    38  O   11.285938  19.244475  19.457881  19.581697  20.065931
    39  O   10.688280  18.935118  19.212455  19.338189  19.607466
    40  C    3.196649  10.641878  10.842188  11.067001  11.455342
    41  H    3.861247  10.543478  10.637085  10.982991  11.440179
    42  H    2.682988  10.269345  10.480688  10.778495  10.969755
    43  C    2.704300  10.025198  10.327717  10.324118  10.887204
    44  H    3.727452  10.575611  10.858972  10.790671  11.531249
    45  H    2.499752  10.306530  10.709934  10.586544  11.068676
    46  H   12.096900  20.134825  20.361502  20.479865  20.928722
                   21         22         23         24         25
    21  H    0.000000
    22  H    1.780203   0.000000
    23  H    1.780120   1.759298   0.000000
    24  C   20.254083  18.905223  19.030593   0.000000
    25  C   17.233395  15.997418  16.145330   3.799511   0.000000
    26  H   17.118170  15.949425  16.097704   4.673525   1.089132
    27  C   18.539429  17.276882  17.413871   2.523429   1.399110
    28  H   19.370909  18.146274  18.276631   2.763620   2.150300
    29  C   18.838971  17.507926  17.643268   1.483246   2.425035
    30  C   17.861900  16.482958  16.626855   2.476344   2.792777
    31  H   18.209454  16.786630  16.928084   2.676635   3.881845
    32  C   16.502527  15.136768  15.293409   3.770910   2.420593
    33  H   15.793997  14.385392  14.550375   4.622346   3.415496
    34  C   16.157709  14.867045  15.026314   4.294278   1.402364
    35  O   14.598300  13.429214  13.604663   6.517934   2.832983
    36  C   14.779056  13.521907  13.696792   5.782481   2.480300
    37  O   13.887516  12.559976  12.747584   6.411828   3.630898
    38  O   21.127125  19.822916  19.942298   1.344279   4.148349
    39  O   20.689713  19.296063  19.419034   1.216797   4.828958
    40  C   12.507393  11.201763  11.415590   7.837467   4.834570
    41  H   12.461724  11.178548  11.502265   8.207231   4.949946
    42  H   12.033427  10.634079  10.922444   8.317952   5.629423
    43  C   11.936777  10.765958  10.762621   8.505732   5.438507
    44  H   12.556506  11.482644  11.419309   8.255662   4.982478
    45  H   12.135296  10.957320  10.839037   8.368247   5.662504
    46  H   21.995383  20.672924  20.787441   1.844873   5.115996
                   26         27         28         29         30
    26  H    0.000000
    27  C    2.152760   0.000000
    28  H    2.461836   1.087751   0.000000
    29  C    3.406899   1.400012   2.168211   0.000000
    30  C    3.881859   2.420461   3.412687   1.400752   0.000000
    31  H    4.970943   3.410048   4.318514   2.163927   1.089093
    32  C    3.411419   2.798949   3.886586   2.429182   1.399396
    33  H    4.324139   3.886538   4.974243   3.405274   2.146372
    34  C    2.166122   2.431742   3.410236   2.811612   2.428015
    35  O    2.528942   4.231446   4.875671   5.054318   4.817120
    36  C    2.679229   3.776337   4.630270   4.299476   3.810036
    37  O    4.001897   4.772295   5.734526   4.971987   4.121394
    38  O    4.785292   2.749361   2.431595   2.356662   3.637981
    39  O    5.776406   3.654975   3.979248   2.406469   2.869400
    40  C    4.979385   6.081067   6.980578   6.386538   5.556292
    41  H    4.909746   6.266566   7.076995   6.738987   6.054795
    42  H    5.890441   6.786320   7.743652   6.917507   5.930261
    43  C    5.476903   6.695508   7.538368   7.067116   6.298835
    44  H    4.863862   6.270734   7.011310   6.815343   6.240858
    45  H    5.856646   6.793625   7.686618   6.995172   6.124007
    46  H    5.765587   3.718834   3.393456   3.166062   4.314912
                   31         32         33         34         35
    31  H    0.000000
    32  C    2.154952   0.000000
    33  H    2.458662   1.087814   0.000000
    34  C    3.410843   1.401771   2.172929   0.000000
    35  O    5.771320   3.652510   3.997853   2.390196   0.000000
    36  C    4.686475   2.534395   2.781628   1.488623   1.220321
    37  O    4.757619   2.722039   2.406284   2.340639   2.293128
    38  O    3.996809   4.785839   5.741814   4.996566   6.979403
    39  O    2.573424   4.267607   4.912916   5.083136   7.414874
    40  C    6.159631   4.156948   3.747021   3.671218   2.703923
    41  H    6.748767   4.680462   4.428467   3.970638   2.499679
    42  H    6.376181   4.562672   3.925884   4.361790   3.727193
    43  C    6.910197   4.943360   4.578241   4.395977   3.195877
    44  H    6.971811   4.946280   4.811903   4.164385   2.682168
    45  H    6.615334   4.840260   4.359866   4.544656   3.859414
    46  H    4.469270   5.566165   6.457569   5.903414   7.942830
                   36         37         38         39         40
    36  C    0.000000
    37  O    1.355219   0.000000
    38  O    6.441749   7.267204   0.000000
    39  O    6.554929   6.988111   2.234278   0.000000
    40  C    2.361162   1.436373   8.654476   8.423885   0.000000
    41  H    2.557812   2.098442   8.918379   8.883669   1.097400
    42  H    3.230577   2.044738   9.239883   8.780297   1.095091
    43  C    3.105754   2.447359   9.273700   9.114843   1.526755
    44  H    2.889100   2.726643   8.893646   8.973356   2.166234
    45  H    3.506758   2.696294   9.218190   8.873314   2.179227
    46  H    7.366612   8.132659   0.980440   2.216168   9.537681
                   41         42         43         44         45
    41  H    0.000000
    42  H    1.746231   0.000000
    43  C    2.179286   2.166251   0.000000
    44  H    2.542341   3.074518   1.095082   0.000000
    45  H    3.094481   2.542872   1.097355   1.746270   0.000000
    46  H    9.832208  10.079559  10.162484   9.809094  10.058893
                   46
    46  H    0.000000
 Stoichiometry    C20H18O8
 Framework group  C1[X(C20H18O8)]
 Deg. of freedom   132
 Full point group                 C1      NOp   1
 Largest Abelian subgroup         C1      NOp   1
 Largest concise Abelian subgroup C1      NOp   1
                         Standard orientation:                         
 ---------------------------------------------------------------------
 Center     Atomic      Atomic             Coordinates (Angstroms)
 Number     Number       Type             X           Y           Z
 ---------------------------------------------------------------------
      1          6           0        1.663240   -0.649768   -0.437068
      2          6           0        4.889181    1.365952   -0.224931
      3          1           0        5.207893    2.407475   -0.243558
      4          6           0        3.527491    1.064045   -0.340625
      5          1           0        2.817504    1.881356   -0.447096
      6          6           0        3.097597   -0.269293   -0.318912
      7          6           0        4.044499   -1.293794   -0.180735
      8          1           0        3.726496   -2.335516   -0.162699
      9          6           0        5.406185   -0.991810   -0.065105
     10          1           0        6.117133   -1.808232    0.040661
     11          6           0        5.836377    0.341592   -0.086602
     12          8           0        7.664449    1.877279    0.015666
     13          6           0        7.270941    0.721936    0.032322
     14          8           0        8.049076   -0.381259    0.158281
     15          8           0        0.883767    0.452109   -0.558595
     16          8           0        1.268193   -1.804194   -0.416415
     17          6           0        9.449296   -0.101495    0.278440
     18          1           0        9.628674    0.513014    1.167818
     19          1           0        9.798318    0.429366   -0.614408
     20          6           0       10.184833   -1.420643    0.410360
     21          1           0       11.262181   -1.259021    0.505326
     22          1           0        9.831157   -1.973136    1.287203
     23          1           0        9.997756   -2.055149   -0.462268
     24          6           0       -8.971342   -0.571429   -0.094364
     25          6           0       -5.754275    1.439038    0.117267
     26          1           0       -5.437481    2.480899    0.097900
     27          6           0       -7.115081    1.135273    0.001329
     28          1           0       -7.831898    1.946333   -0.106175
     29          6           0       -7.540762   -0.198248    0.024779
     30          6           0       -6.596436   -1.223313    0.164763
     31          1           0       -6.916682   -2.264073    0.184390
     32          6           0       -5.235327   -0.919612    0.280766
     33          1           0       -4.524192   -1.735668    0.388837
     34          6           0       -4.806683    0.414810    0.257453
     35          8           0       -2.978035    1.950934    0.354432
     36          6           0       -3.372675    0.796385    0.375853
     37          8           0       -2.592524   -0.304975    0.498276
     38          8           0       -9.779372    0.495071   -0.223800
     39          8           0       -9.414391   -1.704632   -0.082047
     40          6           0       -1.186134   -0.052936    0.645630
     41          1           0       -1.003741    0.776791    1.340305
     42          1           0       -0.751081   -0.937334    1.122907
     43          6           0       -0.522873    0.201186   -0.705846
     44          1           0       -0.957347    1.086072   -1.182726
     45          1           0       -0.705882   -0.628195   -1.400700
     46          1           0      -10.676422    0.105096   -0.290764
 ---------------------------------------------------------------------
 Rotational constants (GHZ):           0.9810766           0.0346882           0.0337270
 Leave Link  202 at Tue Jul 27 19:32:26 2021, MaxMem=   524288000 cpu:               0.1 elap:               0.1
 (Enter /opt/gaussian/g16_legacy/l301.exe)
 Standard basis: 6-31G(d,p) (6D, 7F)
 Ernie: Thresh=  0.10000D-02 Tol=  0.10000D-05 Strict=F.
 There are   510 symmetry adapted cartesian basis functions of A   symmetry.
 There are   510 symmetry adapted basis functions of A   symmetry.
   510 basis functions,   910 primitive gaussians,   510 cartesian basis functions
   101 alpha electrons      101 beta electrons
       nuclear repulsion energy      2253.4800450231 Hartrees.
 IExCor= 4336 DFT=T Ex+Corr=M062X ExCW=0 ScaHFX=  0.540000
 ScaDFX=  1.000000  1.000000  1.000000  1.000000 ScalE2=  1.000000  1.000000
 IRadAn=      5 IRanWt=     -1 IRanGd=            0 ICorTp=0 IEmpDi=  4
 NAtoms=   46 NActive=   46 NUniq=   46 SFac= 1.00D+00 NAtFMM=   60 NAOKFM=F Big=F
 Integral buffers will be    131072 words long.
 Raffenetti 2 integral format.
 Two-electron integral symmetry is turned on.
 Leave Link  301 at Tue Jul 27 19:32:27 2021, MaxMem=   524288000 cpu:               0.2 elap:               0.1
 (Enter /opt/gaussian/g16_legacy/l302.exe)
 NPDir=0 NMtPBC=     1 NCelOv=     1 NCel=       1 NClECP=     1 NCelD=      1
         NCelK=      1 NCelE2=     1 NClLst=     1 CellRange=     0.0.
 One-electron integrals computed using PRISM.
 One-electron integral symmetry used in STVInt
 NBasis=   510 RedAO= T EigKep=  4.17D-04  NBF=   510
 NBsUse=   510 1.00D-06 EigRej= -1.00D+00 NBFU=   510
 Precomputing XC quadrature grid using
 IXCGrd= 4 IRadAn=           5 IRanWt=          -1 IRanGd=           0 AccXCQ= 0.00D+00.
 Generated NRdTot=       0 NPtTot=           0 NUsed=           0 NTot=          32
 NSgBfM=   431   431   431   431   431 MxSgAt=    46 MxSgA2=    46.
 Leave Link  302 at Tue Jul 27 19:32:28 2021, MaxMem=   524288000 cpu:               4.2 elap:               1.2
 (Enter /opt/gaussian/g16_legacy/l303.exe)
 DipDrv:  MaxL=1.
 Leave Link  303 at Tue Jul 27 19:32:28 2021, MaxMem=   524288000 cpu:               0.2 elap:               0.1
 (Enter /opt/gaussian/g16_legacy/l401.exe)
 ExpMin= 1.61D-01 ExpMax= 5.48D+03 ExpMxC= 8.25D+02 IAcc=3 IRadAn=         5 AccDes= 0.00D+00
 Harris functional with IExCor= 1009 and IRadAn=       5 diagonalized for initial guess.
 HarFok:  IExCor= 1009 AccDes= 0.00D+00 IRadAn=         5 IDoV= 1 UseB2=F ITyADJ=14
 ICtDFT=  3500011 ScaDFX=  1.000000  1.000000  1.000000  1.000000
 FoFCou: FMM=F IPFlag=           0 FMFlag=      100000 FMFlg1=           0
         NFxFlg=           0 DoJE=T BraDBF=F KetDBF=T FulRan=T
         wScrn=  0.000000 ICntrl=       500 IOpCl=  0 I1Cent=   200000004 NGrid=           0
         NMat0=    1 NMatS0=      1 NMatT0=    0 NMatD0=    1 NMtDS0=    0 NMtDT0=    0
 Petite list used in FoFCou.
 Harris En= -1373.60328303429    
 JPrj=0 DoOrth=F DoCkMO=F.
 Leave Link  401 at Tue Jul 27 19:32:34 2021, MaxMem=   524288000 cpu:              23.4 elap:               6.2
 (Enter /opt/gaussian/g16_legacy/l502.exe)
 Integral symmetry usage will be decided dynamically.
 Closed shell SCF:
 Using DIIS extrapolation, IDIIS=  1040.
 NGot=   524288000 LenX=   523759406 LenY=   523498796
 Requested convergence on RMS density matrix=1.00D-08 within 128 cycles.
 Requested convergence on MAX density matrix=1.00D-06.
 Requested convergence on             energy=1.00D-06.
 No special actions if energy rises.
 Fock matrices will be formed incrementally for  20 cycles.
 Integral accuracy reduced to 1.0D-05 until final iterations.

 Cycle   1  Pass 0  IDiag  1:
 FoFJK:  IHMeth= 1 ICntrl=       0 DoSepK=F KAlg= 0 I1Cent=           0 FoldK=F
 IRaf= 480000000 NMat=       1 IRICut=       1 DoRegI=T DoRafI=F ISym2E= 0 IDoP0=0 IntGTp=1.
 FoFCou: FMM=F IPFlag=           0 FMFlag=      100000 FMFlg1=           0
         NFxFlg=           0 DoJE=F BraDBF=F KetDBF=F FulRan=T
         wScrn=  0.000000 ICntrl=         0 IOpCl=  0 I1Cent=           0 NGrid=           0
         NMat0=    1 NMatS0=      1 NMatT0=    0 NMatD0=    1 NMtDS0=    0 NMtDT0=    0
 Symmetry not used in FoFCou.
 E= -1373.71942955699    
 DIIS: error= 4.07D-02 at cycle   1 NSaved=   1.
 NSaved= 1 IEnMin= 1 EnMin= -1373.71942955699     IErMin= 1 ErrMin= 4.07D-02
 ErrMax= 4.07D-02  0.00D+00 EMaxC= 1.00D-01 BMatC= 7.49D-01 BMatP= 7.49D-01
 IDIUse=3 WtCom= 5.93D-01 WtEn= 4.07D-01
 Coeff-Com:  0.100D+01
 Coeff-En:   0.100D+01
 Coeff:      0.100D+01
 Gap=     0.298 Goal=   None    Shift=    0.000
 GapD=    0.298 DampG=1.000 DampE=0.500 DampFc=0.5000 IDamp=-1.
 Damping current iteration by 5.00D-01
 RMSDP=2.95D-03 MaxDP=1.55D-01              OVMax= 1.84D-01

 Cycle   2  Pass 0  IDiag  1:
 RMSU=  1.46D-03    CP:  9.85D-01
 E= -1373.98455110415     Delta-E=       -0.265121547166 Rises=F Damp=T
 DIIS: error= 1.09D-02 at cycle   2 NSaved=   2.
 NSaved= 2 IEnMin= 2 EnMin= -1373.98455110415     IErMin= 2 ErrMin= 1.09D-02
 ErrMax= 1.09D-02  0.00D+00 EMaxC= 1.00D-01 BMatC= 8.29D-02 BMatP= 7.49D-01
 IDIUse=3 WtCom= 8.91D-01 WtEn= 1.09D-01
 Coeff-Com:  0.130D-01 0.987D+00
 Coeff-En:   0.129D-01 0.987D+00
 Coeff:      0.130D-01 0.987D+00
 Gap=     0.267 Goal=   None    Shift=    0.000
 RMSDP=8.63D-04 MaxDP=3.18D-02 DE=-2.65D-01 OVMax= 1.07D-01

 Cycle   3  Pass 0  IDiag  1:
 RMSU=  8.55D-04    CP:  9.77D-01  9.64D-01
 E= -1374.26236501296     Delta-E=       -0.277813908810 Rises=F Damp=F
 DIIS: error= 8.58D-03 at cycle   3 NSaved=   3.
 NSaved= 3 IEnMin= 3 EnMin= -1374.26236501296     IErMin= 3 ErrMin= 8.58D-03
 ErrMax= 8.58D-03  0.00D+00 EMaxC= 1.00D-01 BMatC= 5.00D-02 BMatP= 8.29D-02
 IDIUse=3 WtCom= 9.14D-01 WtEn= 8.58D-02
 Coeff-Com: -0.877D-01 0.461D+00 0.626D+00
 Coeff-En:   0.000D+00 0.000D+00 0.100D+01
 Coeff:     -0.801D-01 0.422D+00 0.658D+00
 Gap=     0.279 Goal=   None    Shift=    0.000
 RMSDP=5.17D-04 MaxDP=3.26D-02 DE=-2.78D-01 OVMax= 4.61D-02

 Cycle   4  Pass 0  IDiag  1:
 RMSU=  3.04D-04    CP:  9.79D-01  1.09D+00  5.63D-01
 E= -1374.29480115717     Delta-E=       -0.032436144206 Rises=F Damp=F
 DIIS: error= 3.26D-03 at cycle   4 NSaved=   4.
 NSaved= 4 IEnMin= 4 EnMin= -1374.29480115717     IErMin= 4 ErrMin= 3.26D-03
 ErrMax= 3.26D-03  0.00D+00 EMaxC= 1.00D-01 BMatC= 9.34D-03 BMatP= 5.00D-02
 IDIUse=3 WtCom= 9.67D-01 WtEn= 3.26D-02
 Coeff-Com: -0.304D-01 0.890D-01 0.343D+00 0.599D+00
 Coeff-En:   0.000D+00 0.000D+00 0.145D+00 0.855D+00
 Coeff:     -0.294D-01 0.861D-01 0.336D+00 0.607D+00
 Gap=     0.272 Goal=   None    Shift=    0.000
 RMSDP=1.87D-04 MaxDP=8.56D-03 DE=-3.24D-02 OVMax= 1.35D-02

 Cycle   5  Pass 0  IDiag  1:
 RMSU=  7.94D-05    CP:  9.79D-01  1.06D+00  7.00D-01  6.31D-01
 E= -1374.30189813722     Delta-E=       -0.007096980047 Rises=F Damp=F
 DIIS: error= 7.05D-04 at cycle   5 NSaved=   5.
 NSaved= 5 IEnMin= 5 EnMin= -1374.30189813722     IErMin= 5 ErrMin= 7.05D-04
 ErrMax= 7.05D-04  0.00D+00 EMaxC= 1.00D-01 BMatC= 2.70D-04 BMatP= 9.34D-03
 IDIUse=3 WtCom= 9.93D-01 WtEn= 7.05D-03
 Coeff-Com: -0.696D-02 0.133D-01 0.112D+00 0.256D+00 0.626D+00
 Coeff-En:   0.000D+00 0.000D+00 0.000D+00 0.000D+00 0.100D+01
 Coeff:     -0.691D-02 0.132D-01 0.111D+00 0.254D+00 0.629D+00
 Gap=     0.273 Goal=   None    Shift=    0.000
 RMSDP=3.15D-05 MaxDP=2.03D-03 DE=-7.10D-03 OVMax= 3.60D-03

 Cycle   6  Pass 0  IDiag  1:
 RMSU=  2.40D-05    CP:  9.79D-01  1.06D+00  7.04D-01  6.62D-01  7.85D-01
 E= -1374.30211439944     Delta-E=       -0.000216262225 Rises=F Damp=F
 DIIS: error= 1.73D-04 at cycle   6 NSaved=   6.
 NSaved= 6 IEnMin= 6 EnMin= -1374.30211439944     IErMin= 6 ErrMin= 1.73D-04
 ErrMax= 1.73D-04  0.00D+00 EMaxC= 1.00D-01 BMatC= 2.32D-05 BMatP= 2.70D-04
 IDIUse=3 WtCom= 9.98D-01 WtEn= 1.73D-03
 Coeff-Com: -0.619D-03-0.766D-03 0.227D-01 0.577D-01 0.269D+00 0.652D+00
 Coeff-En:   0.000D+00 0.000D+00 0.000D+00 0.000D+00 0.000D+00 0.100D+01
 Coeff:     -0.618D-03-0.764D-03 0.227D-01 0.576D-01 0.269D+00 0.652D+00
 Gap=     0.273 Goal=   None    Shift=    0.000
 RMSDP=1.04D-05 MaxDP=6.13D-04 DE=-2.16D-04 OVMax= 8.16D-04

 Cycle   7  Pass 0  IDiag  1:
 RMSU=  8.30D-06    CP:  9.79D-01  1.06D+00  7.07D-01  6.68D-01  8.26D-01
                    CP:  8.25D-01
 E= -1374.30213393080     Delta-E=       -0.000019531358 Rises=F Damp=F
 DIIS: error= 6.61D-05 at cycle   7 NSaved=   7.
 NSaved= 7 IEnMin= 7 EnMin= -1374.30213393080     IErMin= 7 ErrMin= 6.61D-05
 ErrMax= 6.61D-05  0.00D+00 EMaxC= 1.00D-01 BMatC= 2.68D-06 BMatP= 2.32D-05
 IDIUse=1 WtCom= 1.00D+00 WtEn= 0.00D+00
 Coeff-Com:  0.107D-02-0.290D-02-0.796D-02-0.193D-01 0.193D-01 0.233D+00
 Coeff-Com:  0.776D+00
 Coeff:      0.107D-02-0.290D-02-0.796D-02-0.193D-01 0.193D-01 0.233D+00
 Coeff:      0.776D+00
 Gap=     0.273 Goal=   None    Shift=    0.000
 RMSDP=5.50D-06 MaxDP=3.03D-04 DE=-1.95D-05 OVMax= 6.09D-04

 Initial convergence to 1.0D-05 achieved.  Increase integral accuracy.
 Cycle   8  Pass 1  IDiag  1:
 E= -1374.30202547462     Delta-E=        0.000108456176 Rises=F Damp=F
 DIIS: error= 5.01D-05 at cycle   1 NSaved=   1.
 NSaved= 1 IEnMin= 1 EnMin= -1374.30202547462     IErMin= 1 ErrMin= 5.01D-05
 ErrMax= 5.01D-05  0.00D+00 EMaxC= 1.00D-01 BMatC= 1.40D-06 BMatP= 1.40D-06
 IDIUse=1 WtCom= 1.00D+00 WtEn= 0.00D+00
 Coeff-Com:  0.100D+01
 Coeff:      0.100D+01
 Gap=     0.273 Goal=   None    Shift=    0.000
 RMSDP=5.50D-06 MaxDP=3.03D-04 DE= 1.08D-04 OVMax= 3.99D-04

 Cycle   9  Pass 1  IDiag  1:
 RMSU=  1.67D-05    CP:  1.00D+00
 E= -1374.30202541217     Delta-E=        0.000000062459 Rises=F Damp=F
 DIIS: error= 7.55D-05 at cycle   2 NSaved=   2.
 NSaved= 2 IEnMin= 1 EnMin= -1374.30202547462     IErMin= 1 ErrMin= 5.01D-05
 ErrMax= 7.55D-05  0.00D+00 EMaxC= 1.00D-01 BMatC= 1.75D-06 BMatP= 1.40D-06
 IDIUse=1 WtCom= 1.00D+00 WtEn= 0.00D+00
 Coeff-Com:  0.534D+00 0.466D+00
 Coeff:      0.534D+00 0.466D+00
 Gap=     0.273 Goal=   None    Shift=    0.000
 RMSDP=2.74D-06 MaxDP=2.55D-04 DE= 6.25D-08 OVMax= 3.53D-04

 Cycle  10  Pass 1  IDiag  1:
 RMSU=  2.72D-06    CP:  1.00D+00  9.81D-01
 E= -1374.30202669846     Delta-E=       -0.000001286291 Rises=F Damp=F
 DIIS: error= 1.59D-05 at cycle   3 NSaved=   3.
 NSaved= 3 IEnMin= 3 EnMin= -1374.30202669846     IErMin= 3 ErrMin= 1.59D-05
 ErrMax= 1.59D-05  0.00D+00 EMaxC= 1.00D-01 BMatC= 1.25D-07 BMatP= 1.40D-06
 IDIUse=1 WtCom= 1.00D+00 WtEn= 0.00D+00
 Coeff-Com: -0.115D-01 0.202D+00 0.810D+00
 Coeff:     -0.115D-01 0.202D+00 0.810D+00
 Gap=     0.273 Goal=   None    Shift=    0.000
 RMSDP=7.49D-07 MaxDP=5.16D-05 DE=-1.29D-06 OVMax= 6.68D-05

 Cycle  11  Pass 1  IDiag  1:
 RMSU=  4.49D-07    CP:  1.00D+00  1.00D+00  8.30D-01
 E= -1374.30202679938     Delta-E=       -0.000000100927 Rises=F Damp=F
 DIIS: error= 3.68D-06 at cycle   4 NSaved=   4.
 NSaved= 4 IEnMin= 4 EnMin= -1374.30202679938     IErMin= 4 ErrMin= 3.68D-06
 ErrMax= 3.68D-06  0.00D+00 EMaxC= 1.00D-01 BMatC= 4.31D-09 BMatP= 1.25D-07
 IDIUse=1 WtCom= 1.00D+00 WtEn= 0.00D+00
 Coeff-Com: -0.189D-01 0.693D-01 0.311D+00 0.639D+00
 Coeff:     -0.189D-01 0.693D-01 0.311D+00 0.639D+00
 Gap=     0.273 Goal=   None    Shift=    0.000
 RMSDP=1.71D-07 MaxDP=1.20D-05 DE=-1.01D-07 OVMax= 1.75D-05

 Cycle  12  Pass 1  IDiag  1:
 RMSU=  1.68D-07    CP:  1.00D+00  1.00D+00  8.34D-01  9.89D-01
 E= -1374.30202680368     Delta-E=       -0.000000004299 Rises=F Damp=F
 DIIS: error= 9.95D-07 at cycle   5 NSaved=   5.
 NSaved= 5 IEnMin= 5 EnMin= -1374.30202680368     IErMin= 5 ErrMin= 9.95D-07
 ErrMax= 9.95D-07  0.00D+00 EMaxC= 1.00D-01 BMatC= 8.60D-10 BMatP= 4.31D-09
 IDIUse=1 WtCom= 1.00D+00 WtEn= 0.00D+00
 Coeff-Com: -0.541D-02-0.536D-02-0.189D-01 0.261D+00 0.768D+00
 Coeff:     -0.541D-02-0.536D-02-0.189D-01 0.261D+00 0.768D+00
 Gap=     0.273 Goal=   None    Shift=    0.000
 RMSDP=9.68D-08 MaxDP=8.50D-06 DE=-4.30D-09 OVMax= 1.05D-05

 Cycle  13  Pass 1  IDiag  1:
 RMSU=  7.05D-08    CP:  1.00D+00  1.01D+00  8.32D-01  1.13D+00  1.03D+00
 E= -1374.30202680463     Delta-E=       -0.000000000950 Rises=F Damp=F
 DIIS: error= 7.48D-07 at cycle   6 NSaved=   6.
 NSaved= 6 IEnMin= 6 EnMin= -1374.30202680463     IErMin= 6 ErrMin= 7.48D-07
 ErrMax= 7.48D-07  0.00D+00 EMaxC= 1.00D-01 BMatC= 2.54D-10 BMatP= 8.60D-10
 IDIUse=1 WtCom= 1.00D+00 WtEn= 0.00D+00
 Coeff-Com:  0.184D-02-0.209D-01-0.937D-01-0.163D-01 0.428D+00 0.701D+00
 Coeff:      0.184D-02-0.209D-01-0.937D-01-0.163D-01 0.428D+00 0.701D+00
 Gap=     0.273 Goal=   None    Shift=    0.000
 RMSDP=5.05D-08 MaxDP=3.16D-06 DE=-9.50D-10 OVMax= 5.79D-06

 Cycle  14  Pass 1  IDiag  1:
 RMSU=  2.30D-08    CP:  1.00D+00  1.00D+00  8.32D-01  1.21D+00  1.20D+00
                    CP:  8.06D-01
 E= -1374.30202680491     Delta-E=       -0.000000000276 Rises=F Damp=F
 DIIS: error= 1.77D-07 at cycle   7 NSaved=   7.
 NSaved= 7 IEnMin= 7 EnMin= -1374.30202680491     IErMin= 7 ErrMin= 1.77D-07
 ErrMax= 1.77D-07  0.00D+00 EMaxC= 1.00D-01 BMatC= 2.31D-11 BMatP= 2.54D-10
 IDIUse=1 WtCom= 1.00D+00 WtEn= 0.00D+00
 Coeff-Com:  0.133D-02-0.102D-01-0.465D-01-0.259D-01 0.166D+00 0.361D+00
 Coeff-Com:  0.554D+00
 Coeff:      0.133D-02-0.102D-01-0.465D-01-0.259D-01 0.166D+00 0.361D+00
 Coeff:      0.554D+00
 Gap=     0.273 Goal=   None    Shift=    0.000
 RMSDP=9.81D-09 MaxDP=7.49D-07 DE=-2.76D-10 OVMax= 9.88D-07

 SCF Done:  E(RM062X) =  -1374.30202680     A.U. after   14 cycles
            NFock= 14  Conv=0.98D-08     -V/T= 2.0087
 KE= 1.362403090565D+03 PE=-7.713811936248D+03 EE= 2.723626773856D+03
 Leave Link  502 at Tue Jul 27 19:36:06 2021, MaxMem=   524288000 cpu:             843.7 elap:             211.1
 (Enter /opt/gaussian/g16_legacy/l601.exe)
 Copying SCF densities to generalized density rwf, IOpCl= 0 IROHF=0.

 **********************************************************************

            Population analysis using the SCF density.

 **********************************************************************

 Orbital symmetries:
       Occupied  (A) (A) (A) (A) (A) (A) (A) (A) (A) (A) (A) (A)
                 (A) (A) (A) (A) (A) (A) (A) (A) (A) (A) (A) (A)
                 (A) (A) (A) (A) (A) (A) (A) (A) (A) (A) (A) (A)
                 (A) (A) (A) (A) (A) (A) (A) (A) (A) (A) (A) (A)
                 (A) (A) (A) (A) (A) (A) (A) (A) (A) (A) (A) (A)
                 (A) (A) (A) (A) (A) (A) (A) (A) (A) (A) (A) (A)
                 (A) (A) (A) (A) (A) (A) (A) (A) (A) (A) (A) (A)
                 (A) (A) (A) (A) (A) (A) (A) (A) (A) (A) (A) (A)
                 (A) (A) (A) (A) (A)
       Virtual   (A) (A) (A) (A) (A) (A) (A) (A) (A) (A) (A) (A)
                 (A) (A) (A) (A) (A) (A) (A) (A) (A) (A) (A) (A)
                 (A) (A) (A) (A) (A) (A) (A) (A) (A) (A) (A) (A)
                 (A) (A) (A) (A) (A) (A) (A) (A) (A) (A) (A) (A)
                 (A) (A) (A) (A) (A) (A) (A) (A) (A) (A) (A) (A)
                 (A) (A) (A) (A) (A) (A) (A) (A) (A) (A) (A) (A)
                 (A) (A) (A) (A) (A) (A) (A) (A) (A) (A) (A) (A)
                 (A) (A) (A) (A) (A) (A) (A) (A) (A) (A) (A) (A)
                 (A) (A) (A) (A) (A) (A) (A) (A) (A) (A) (A) (A)
                 (A) (A) (A) (A) (A) (A) (A) (A) (A) (A) (A) (A)
                 (A) (A) (A) (A) (A) (A) (A) (A) (A) (A) (A) (A)
                 (A) (A) (A) (A) (A) (A) (A) (A) (A) (A) (A) (A)
                 (A) (A) (A) (A) (A) (A) (A) (A) (A) (A) (A) (A)
                 (A) (A) (A) (A) (A) (A) (A) (A) (A) (A) (A) (A)
                 (A) (A) (A) (A) (A) (A) (A) (A) (A) (A) (A) (A)
                 (A) (A) (A) (A) (A) (A) (A) (A) (A) (A) (A) (A)
                 (A) (A) (A) (A) (A) (A) (A) (A) (A) (A) (A) (A)
                 (A) (A) (A) (A) (A) (A) (A) (A) (A) (A) (A) (A)
                 (A) (A) (A) (A) (A) (A) (A) (A) (A) (A) (A) (A)
                 (A) (A) (A) (A) (A) (A) (A) (A) (A) (A) (A) (A)
                 (A) (A) (A) (A) (A) (A) (A) (A) (A) (A) (A) (A)
                 (A) (A) (A) (A) (A) (A) (A) (A) (A) (A) (A) (A)
                 (A) (A) (A) (A) (A) (A) (A) (A) (A) (A) (A) (A)
                 (A) (A) (A) (A) (A) (A) (A) (A) (A) (A) (A) (A)
                 (A) (A) (A) (A) (A) (A) (A) (A) (A) (A) (A) (A)
                 (A) (A) (A) (A) (A) (A) (A) (A) (A) (A) (A) (A)
                 (A) (A) (A) (A) (A) (A) (A) (A) (A) (A) (A) (A)
                 (A) (A) (A) (A) (A) (A) (A) (A) (A) (A) (A) (A)
                 (A) (A) (A) (A) (A) (A) (A) (A) (A) (A) (A) (A)
                 (A) (A) (A) (A) (A) (A) (A) (A) (A) (A) (A) (A)
                 (A) (A) (A) (A) (A) (A) (A) (A) (A) (A) (A) (A)
                 (A) (A) (A) (A) (A) (A) (A) (A) (A) (A) (A) (A)
                 (A) (A) (A) (A) (A) (A) (A) (A) (A) (A) (A) (A)
                 (A) (A) (A) (A) (A) (A) (A) (A) (A) (A) (A) (A)
                 (A)
 The electronic state is 1-A.
 Alpha  occ. eigenvalues --  -19.70600 -19.70459 -19.69632 -19.69426 -19.64799
 Alpha  occ. eigenvalues --  -19.64599 -19.64025 -19.63973 -10.70075 -10.69867
 Alpha  occ. eigenvalues --  -10.69626 -10.69155 -10.61945 -10.61895 -10.61028
 Alpha  occ. eigenvalues --  -10.58589 -10.58543 -10.58191 -10.58051 -10.57702
 Alpha  occ. eigenvalues --  -10.57667 -10.57547 -10.57529 -10.57298 -10.57254
 Alpha  occ. eigenvalues --  -10.57169 -10.57067 -10.54918  -1.24458  -1.24231
 Alpha  occ. eigenvalues --   -1.23967  -1.23334  -1.15122  -1.14826  -1.14189
 Alpha  occ. eigenvalues --   -1.13904  -0.98420  -0.97994  -0.90951  -0.89804
 Alpha  occ. eigenvalues --   -0.87892  -0.86325  -0.86019  -0.85520  -0.80415
 Alpha  occ. eigenvalues --   -0.77069  -0.75293  -0.72026  -0.71342  -0.70084
 Alpha  occ. eigenvalues --   -0.68976  -0.67009  -0.65855  -0.65254  -0.63369
 Alpha  occ. eigenvalues --   -0.62597  -0.60619  -0.60019  -0.58758  -0.57995
 Alpha  occ. eigenvalues --   -0.57893  -0.57469  -0.56308  -0.55785  -0.54144
 Alpha  occ. eigenvalues --   -0.53917  -0.53534  -0.53181  -0.52933  -0.51888
 Alpha  occ. eigenvalues --   -0.51572  -0.50439  -0.50397  -0.50110  -0.49995
 Alpha  occ. eigenvalues --   -0.48545  -0.48325  -0.47169  -0.46436  -0.45926
 Alpha  occ. eigenvalues --   -0.44799  -0.44697  -0.44395  -0.44142  -0.42595
 Alpha  occ. eigenvalues --   -0.42522  -0.42043  -0.41481  -0.41079  -0.40309
 Alpha  occ. eigenvalues --   -0.39692  -0.37508  -0.37221  -0.36657  -0.36152
 Alpha  occ. eigenvalues --   -0.36093  -0.35676  -0.32798  -0.32295  -0.32248
 Alpha  occ. eigenvalues --   -0.31854
 Alpha virt. eigenvalues --   -0.04586  -0.04185   0.01406   0.01785   0.04813
 Alpha virt. eigenvalues --    0.05016   0.11556   0.12272   0.12638   0.12712
 Alpha virt. eigenvalues --    0.13534   0.14523   0.15295   0.16402   0.17203
 Alpha virt. eigenvalues --    0.17649   0.18617   0.18768   0.19265   0.19385
 Alpha virt. eigenvalues --    0.19740   0.20823   0.21338   0.21643   0.21979
 Alpha virt. eigenvalues --    0.22240   0.22606   0.23105   0.23719   0.24008
 Alpha virt. eigenvalues --    0.24761   0.26295   0.27316   0.28349   0.28747
 Alpha virt. eigenvalues --    0.29268   0.29579   0.30941   0.31533   0.32171
 Alpha virt. eigenvalues --    0.32255   0.32881   0.32926   0.33412   0.33885
 Alpha virt. eigenvalues --    0.37167   0.38163   0.38317   0.38486   0.44632
 Alpha virt. eigenvalues --    0.45000   0.47906   0.48653   0.51125   0.51314
 Alpha virt. eigenvalues --    0.52967   0.54171   0.54597   0.54897   0.55995
 Alpha virt. eigenvalues --    0.56068   0.56626   0.57097   0.57504   0.57754
 Alpha virt. eigenvalues --    0.58007   0.58253   0.58586   0.59002   0.59663
 Alpha virt. eigenvalues --    0.60550   0.61256   0.62244   0.62494   0.62911
 Alpha virt. eigenvalues --    0.63098   0.63208   0.63431   0.63828   0.64666
 Alpha virt. eigenvalues --    0.65006   0.65242   0.65329   0.66018   0.67166
 Alpha virt. eigenvalues --    0.69045   0.69208   0.69451   0.70317   0.70839
 Alpha virt. eigenvalues --    0.71538   0.72027   0.74399   0.75088   0.75390
 Alpha virt. eigenvalues --    0.75784   0.77038   0.77430   0.78657   0.79109
 Alpha virt. eigenvalues --    0.79617   0.79957   0.82252   0.82602   0.83011
 Alpha virt. eigenvalues --    0.83190   0.83817   0.84784   0.85339   0.85861
 Alpha virt. eigenvalues --    0.86270   0.86868   0.86971   0.87322   0.87576
 Alpha virt. eigenvalues --    0.88375   0.89110   0.89734   0.90820   0.91611
 Alpha virt. eigenvalues --    0.92485   0.93850   0.94277   0.94329   0.94689
 Alpha virt. eigenvalues --    0.94795   0.95449   0.97510   0.98255   0.99542
 Alpha virt. eigenvalues --    0.99770   0.99984   1.00096   1.00638   1.01838
 Alpha virt. eigenvalues --    1.02221   1.02823   1.02989   1.04566   1.06008
 Alpha virt. eigenvalues --    1.07305   1.07486   1.07886   1.10215   1.10264
 Alpha virt. eigenvalues --    1.10588   1.10984   1.13027   1.13108   1.15988
 Alpha virt. eigenvalues --    1.16817   1.17158   1.18115   1.18573   1.20406
 Alpha virt. eigenvalues --    1.22052   1.22982   1.26099   1.27422   1.28040
 Alpha virt. eigenvalues --    1.28275   1.28752   1.29400   1.31257   1.31953
 Alpha virt. eigenvalues --    1.32071   1.32779   1.33456   1.33984   1.34675
 Alpha virt. eigenvalues --    1.35122   1.35522   1.35744   1.35933   1.38198
 Alpha virt. eigenvalues --    1.39575   1.41367   1.41587   1.42560   1.42800
 Alpha virt. eigenvalues --    1.43568   1.44278   1.44438   1.44582   1.44829
 Alpha virt. eigenvalues --    1.46184   1.47034   1.47690   1.48127   1.48638
 Alpha virt. eigenvalues --    1.49774   1.50880   1.51590   1.54452   1.57037
 Alpha virt. eigenvalues --    1.58020   1.60052   1.61185   1.61959   1.64779
 Alpha virt. eigenvalues --    1.66515   1.68852   1.69560   1.70248   1.71711
 Alpha virt. eigenvalues --    1.72233   1.72509   1.74086   1.77291   1.77384
 Alpha virt. eigenvalues --    1.78034   1.78568   1.79161   1.79505   1.79634
 Alpha virt. eigenvalues --    1.79974   1.81805   1.82799   1.86212   1.86607
 Alpha virt. eigenvalues --    1.87984   1.88759   1.89471   1.89781   1.90020
 Alpha virt. eigenvalues --    1.90312   1.90424   1.91005   1.92535   1.92937
 Alpha virt. eigenvalues --    1.93054   1.93343   1.93770   1.94635   1.95417
 Alpha virt. eigenvalues --    1.95926   1.96138   1.97720   1.98503   1.98928
 Alpha virt. eigenvalues --    1.99398   1.99675   1.99946   2.00243   2.00583
 Alpha virt. eigenvalues --    2.02215   2.03150   2.04593   2.05091   2.05698
 Alpha virt. eigenvalues --    2.06334   2.07817   2.08433   2.08828   2.10180
 Alpha virt. eigenvalues --    2.10842   2.11477   2.11687   2.12390   2.12500
 Alpha virt. eigenvalues --    2.12996   2.13062   2.13142   2.14335   2.15190
 Alpha virt. eigenvalues --    2.15647   2.17648   2.21671   2.22659   2.26399
 Alpha virt. eigenvalues --    2.26833   2.27791   2.29176   2.29655   2.30750
 Alpha virt. eigenvalues --    2.31192   2.32109   2.33227   2.33873   2.34294
 Alpha virt. eigenvalues --    2.35337   2.35774   2.37199   2.39643   2.39737
 Alpha virt. eigenvalues --    2.40005   2.40340   2.41490   2.41680   2.41904
 Alpha virt. eigenvalues --    2.43345   2.43810   2.44548   2.44897   2.45846
 Alpha virt. eigenvalues --    2.46566   2.46947   2.49972   2.51257   2.52035
 Alpha virt. eigenvalues --    2.52792   2.53178   2.55770   2.56290   2.57199
 Alpha virt. eigenvalues --    2.58155   2.59542   2.59749   2.60040   2.60600
 Alpha virt. eigenvalues --    2.61369   2.61804   2.62965   2.63375   2.63690
 Alpha virt. eigenvalues --    2.65098   2.66313   2.67596   2.68107   2.69084
 Alpha virt. eigenvalues --    2.69800   2.70266   2.71209   2.72008   2.72392
 Alpha virt. eigenvalues --    2.74726   2.75691   2.76537   2.77020   2.77309
 Alpha virt. eigenvalues --    2.77593   2.78502   2.79037   2.79647   2.80797
 Alpha virt. eigenvalues --    2.82990   2.84025   2.84567   2.87320   2.87857
 Alpha virt. eigenvalues --    2.88488   2.89616   2.92259   2.93085   2.93892
 Alpha virt. eigenvalues --    2.94974   2.98315   2.99514   2.99893   3.01500
 Alpha virt. eigenvalues --    3.01910   3.04425   3.04762   3.11853   3.14455
 Alpha virt. eigenvalues --    3.16137   3.16967   3.17100   3.18493   3.19675
 Alpha virt. eigenvalues --    3.21749   3.22289   3.23159   3.23634   3.24873
 Alpha virt. eigenvalues --    3.28333   3.33397   3.35497   3.35840   3.36219
 Alpha virt. eigenvalues --    3.38025   3.39621   3.40929   3.44512   3.45200
 Alpha virt. eigenvalues --    3.49248   3.49636   3.50375   3.52981   3.80672
 Alpha virt. eigenvalues --    3.80768   3.95797   3.99251   4.02890   4.04804
 Alpha virt. eigenvalues --    4.11376   4.12488   4.16304   4.16595   4.16749
 Alpha virt. eigenvalues --    4.18069   4.26828   4.29906   4.35009   4.37917
 Alpha virt. eigenvalues --    4.40909   4.41769   4.42633   4.43806   4.49440
 Alpha virt. eigenvalues --    4.50743   4.52032   4.52987   4.59823   4.62895
 Alpha virt. eigenvalues --    4.64710   4.68971   4.84894   4.85226
          Condensed to atoms (all electrons):
               1          2          3          4          5          6
     1  C    4.309532   0.003977  -0.000127  -0.040938  -0.007923   0.350118
     2  C    0.003977   4.916816   0.375913   0.491573  -0.033436  -0.030831
     3  H   -0.000127   0.375913   0.523628  -0.031949  -0.003960   0.002902
     4  C   -0.040938   0.491573  -0.031949   4.932405   0.376998   0.517367
     5  H   -0.007923  -0.033436  -0.003960   0.376998   0.529795  -0.033462
     6  C    0.350118  -0.030831   0.002902   0.517367  -0.033462   4.977073
[...]
    44  H   -0.000000   0.000000  -0.000000  -0.000000   0.000000   0.000000
    45  H    0.000000  -0.000000   0.000000  -0.000000   0.000000  -0.000000
    46  H    0.000000   0.000000   0.000000   0.000000   0.000000  -0.015011
              25         26         27         28         29         30
     1  C    0.000000   0.000000  -0.000000   0.000000   0.000000  -0.000000
     2  C   -0.000000  -0.000000   0.000000   0.000000  -0.000000   0.000000
     3  H    0.000000   0.000000   0.000000   0.000000   0.000000  -0.000000
     4  C    0.000000  -0.000000   0.000000   0.000000  -0.000000   0.000000
     5  H   -0.000000  -0.000000  -0.000000   0.000000  -0.000000   0.000000
     6  C   -0.000000  -0.000000  -0.000000  -0.000000   0.000000  -0.000000
     7  C    0.000000   0.000000   0.000000   0.000000  -0.000000  -0.000000
     8  H    0.000000   0.000000  -0.000000   0.000000  -0.000000  -0.000000
     9  C    0.000000  -0.000000   0.000000   0.000000   0.000000   0.000000
    10  H    0.000000   0.000000   0.000000   0.000000   0.000000   0.000000
    11  C   -0.000000  -0.000000   0.000000   0.000000   0.000000  -0.000000
    12  O    0.000000   0.000000   0.000000   0.000000   0.000000   0.000000
    13  C    0.000000   0.000000   0.000000   0.000000   0.000000   0.000000
    14  O    0.000000   0.000000   0.000000   0.000000   0.000000   0.000000
    15  O   -0.000000  -0.000000   0.000000  -0.000000   0.000000  -0.000000
    16  O   -0.000000   0.000000  -0.000000  -0.000000   0.000000   0.000000
    17  C    0.000000   0.000000   0.000000   0.000000   0.000000   0.000000
    18  H    0.000000   0.000000   0.000000   0.000000   0.000000   0.000000
    19  H    0.000000   0.000000   0.000000   0.000000   0.000000   0.000000
    20  C    0.000000   0.000000   0.000000   0.000000   0.000000   0.000000
    21  H    0.000000   0.000000   0.000000   0.000000   0.000000   0.000000
    22  H    0.000000   0.000000   0.000000   0.000000   0.000000   0.000000
    23  H    0.000000   0.000000   0.000000   0.000000   0.000000   0.000000
    24  C    0.004232  -0.000112  -0.036399  -0.008528   0.307327  -0.042648
    25  C    4.908890   0.376177   0.492495  -0.032312  -0.032174  -0.043493
    26  H    0.376177   0.522129  -0.031006  -0.003511   0.002864   0.000471
    27  C    0.492495  -0.031006   4.925878   0.376645   0.520115  -0.058499
    28  H   -0.032312  -0.003511   0.376645   0.526958  -0.033157   0.004246
    29  C   -0.032174   0.002864   0.520115  -0.033157   5.006593   0.537869
    30  C   -0.043493   0.000471  -0.058499   0.004246   0.537869   4.916068
    31  H    0.000521   0.000016   0.004280  -0.000137  -0.037167   0.376340
    32  C   -0.058424   0.004386  -0.041799   0.000521  -0.037990   0.487909
    33  H    0.004281  -0.000136   0.000504   0.000015   0.003000  -0.032562
    34  C    0.535417  -0.037741  -0.037053   0.002945  -0.028191  -0.029482
    35  O    0.002554   0.010648   0.000787   0.000001  -0.000011  -0.000065
    36  C   -0.039709  -0.007952   0.005978  -0.000141   0.000495   0.004326
    37  O    0.004159   0.000281  -0.000052   0.000000  -0.000006   0.000347
    38  O    0.000287  -0.000001   0.000618   0.006148  -0.103984   0.004103
    39  O   -0.000062   0.000000   0.003708   0.000105  -0.100791   0.002934
    40  C   -0.000159  -0.000013   0.000001  -0.000000   0.000000   0.000003
    41  H   -0.000021  -0.000006   0.000000  -0.000000  -0.000000   0.000001
    42  H    0.000002   0.000000  -0.000000   0.000000   0.000000  -0.000001
    43  C    0.000014   0.000001   0.000000   0.000000  -0.000000   0.000000
    44  H   -0.000003   0.000000  -0.000000  -0.000000   0.000000   0.000000
    45  H   -0.000003  -0.000000   0.000000   0.000000   0.000000   0.000000
    46  H    0.000005  -0.000000  -0.000558  -0.000194   0.011423  -0.000225
              31         32         33         34         35         36
     1  C    0.000000  -0.000000   0.000000   0.000000  -0.000002   0.000026
     2  C   -0.000000   0.000000   0.000000  -0.000000   0.000000  -0.000000
     3  H    0.000000  -0.000000  -0.000000  -0.000000  -0.000000   0.000000
     4  C   -0.000000   0.000000   0.000000  -0.000000  -0.000000  -0.000000
     5  H   -0.000000   0.000000   0.000000  -0.000000   0.000000   0.000000
     6  C   -0.000000  -0.000000  -0.000000   0.000000   0.000000   0.000000
     7  C    0.000000   0.000000  -0.000000  -0.000000  -0.000000   0.000000
     8  H    0.000000  -0.000000  -0.000000   0.000000   0.000000   0.000000
     9  C    0.000000   0.000000  -0.000000  -0.000000  -0.000000  -0.000000
    10  H    0.000000   0.000000   0.000000  -0.000000  -0.000000   0.000000
    11  C    0.000000  -0.000000  -0.000000   0.000000   0.000000   0.000000
    12  O    0.000000   0.000000   0.000000   0.000000   0.000000   0.000000
    13  C    0.000000   0.000000  -0.000000   0.000000   0.000000   0.000000
    14  O    0.000000   0.000000   0.000000   0.000000   0.000000   0.000000
    15  O   -0.000000  -0.000000  -0.000000   0.000000   0.000009   0.000007
    16  O   -0.000000  -0.000000   0.000000   0.000000  -0.000000  -0.000002
    17  C    0.000000   0.000000   0.000000   0.000000   0.000000   0.000000
    18  H    0.000000   0.000000   0.000000   0.000000   0.000000   0.000000
    19  H    0.000000   0.000000   0.000000   0.000000   0.000000   0.000000
    20  C    0.000000   0.000000   0.000000   0.000000   0.000000   0.000000
    21  H    0.000000   0.000000   0.000000   0.000000   0.000000   0.000000
    22  H    0.000000   0.000000   0.000000   0.000000   0.000000   0.000000
    23  H    0.000000   0.000000   0.000000   0.000000   0.000000   0.000000
    24  C   -0.008168   0.006696  -0.000133   0.000237  -0.000000   0.000002
    25  C    0.000521  -0.058424   0.004281   0.535417   0.002554  -0.039709
    26  H    0.000016   0.004386  -0.000136  -0.037741   0.010648  -0.007952
    27  C    0.004280  -0.041799   0.000504  -0.037053   0.000787   0.005978
    28  H   -0.000137   0.000521   0.000015   0.002945   0.000001  -0.000141
    29  C   -0.037167  -0.037990   0.003000  -0.028191  -0.000011   0.000495
    30  C    0.376340   0.487909  -0.032562  -0.029482  -0.000065   0.004326
    31  H    0.520369  -0.030700  -0.003481   0.002796   0.000000  -0.000126
    32  C   -0.030700   4.927193   0.376730   0.520810   0.003710  -0.040290
    33  H   -0.003481   0.376730   0.526092  -0.034098   0.000117  -0.008580
    34  C    0.002796   0.520810  -0.034098   4.972922  -0.091143   0.349257
    35  O    0.000000   0.003710   0.000117  -0.091143   8.092564   0.554406
    36  C   -0.000126  -0.040290  -0.008580   0.349257   0.554406   4.304405
    37  O   -0.000001   0.001227   0.007933  -0.098734  -0.093629   0.262557
    38  O    0.000272  -0.000048   0.000000  -0.000006   0.000000  -0.000000
    39  O    0.010076   0.000862   0.000001  -0.000017  -0.000000  -0.000000
    40  C   -0.000000  -0.000198  -0.000220   0.006898  -0.001112  -0.026938
    41  H   -0.000000   0.000062   0.000020   0.000019   0.011880  -0.006622
    42  H   -0.000000  -0.000051  -0.000013   0.000062   0.000333   0.003550
    43  C    0.000000   0.000018   0.000010  -0.000523  -0.005276  -0.003760
    44  H   -0.000000  -0.000022  -0.000002   0.000290   0.005879   0.004888
    45  H   -0.000000   0.000012   0.000009  -0.000058   0.000240   0.000473
    46  H   -0.000018   0.000001  -0.000000   0.000001   0.000000   0.000000
              37         38         39         40         41         42
     1  C    0.000004   0.000000  -0.000000  -0.003787   0.000455   0.004940
     2  C   -0.000000   0.000000   0.000000   0.000000   0.000000   0.000000
     3  H   -0.000000   0.000000   0.000000   0.000000  -0.000000  -0.000000
     4  C   -0.000000   0.000000   0.000000   0.000018   0.000011  -0.000022
     5  H   -0.000000   0.000000   0.000000   0.000011   0.000009  -0.000002
     6  C    0.000000   0.000000   0.000000  -0.000519  -0.000057   0.000290
     7  C   -0.000000   0.000000   0.000000   0.000014  -0.000003  -0.000003
     8  H   -0.000000   0.000000   0.000000   0.000001  -0.000000   0.000000
     9  C    0.000000   0.000000   0.000000   0.000000   0.000000  -0.000000
    10  H   -0.000000   0.000000   0.000000   0.000000   0.000000  -0.000000
    11  C    0.000000   0.000000   0.000000  -0.000000  -0.000000   0.000000
    12  O    0.000000   0.000000   0.000000  -0.000000   0.000000  -0.000000
    13  C   -0.000000   0.000000   0.000000  -0.000000  -0.000000   0.000000
    14  O    0.000000   0.000000   0.000000  -0.000000  -0.000000  -0.000000
    15  O    0.001288   0.000000   0.000000  -0.031368   0.003200  -0.002417
    16  O    0.000008   0.000000   0.000000  -0.005308   0.000245   0.005965
    17  C    0.000000   0.000000   0.000000   0.000000  -0.000000  -0.000000
    18  H    0.000000   0.000000   0.000000   0.000000   0.000000   0.000000
    19  H    0.000000   0.000000   0.000000  -0.000000  -0.000000  -0.000000
    20  C    0.000000   0.000000   0.000000   0.000000  -0.000000   0.000000
    21  H    0.000000   0.000000   0.000000   0.000000   0.000000  -0.000000
    22  H    0.000000   0.000000   0.000000  -0.000000  -0.000000  -0.000000
    23  H    0.000000   0.000000   0.000000   0.000000   0.000000   0.000000
    24  C   -0.000000   0.280330   0.595922   0.000000  -0.000000   0.000000
    25  C    0.004159   0.000287  -0.000062  -0.000159  -0.000021   0.000002
    26  H    0.000281  -0.000001   0.000000  -0.000013  -0.000006   0.000000
    27  C   -0.000052   0.000618   0.003708   0.000001   0.000000  -0.000000
    28  H    0.000000   0.006148   0.000105  -0.000000  -0.000000   0.000000
    29  C   -0.000006  -0.103984  -0.100791   0.000000  -0.000000   0.000000
    30  C    0.000347   0.004103   0.002934   0.000003   0.000001  -0.000001
    31  H   -0.000001   0.000272   0.010076  -0.000000  -0.000000  -0.000000
    32  C    0.001227  -0.000048   0.000862  -0.000198   0.000062  -0.000051
    33  H    0.007933   0.000000   0.000001  -0.000220   0.000020  -0.000013
    34  C   -0.098734  -0.000006  -0.000017   0.006898   0.000019   0.000062
    35  O   -0.093629   0.000000  -0.000000  -0.001112   0.011880   0.000333
    36  C    0.262557  -0.000000  -0.000000  -0.026938  -0.006622   0.003550
    37  O    8.346520  -0.000000   0.000000   0.176852  -0.030543  -0.029016
    38  O   -0.000000   8.159686  -0.097124   0.000000  -0.000000  -0.000000
    39  O    0.000000  -0.097124   8.056929   0.000000   0.000000   0.000000
    40  C    0.176852   0.000000   0.000000   4.852053   0.383258   0.400849
    41  H   -0.030543  -0.000000   0.000000   0.383258   0.554393  -0.029517
    42  H   -0.029016  -0.000000   0.000000   0.400849  -0.029517   0.518990
    43  C   -0.031312  -0.000000  -0.000000   0.338806  -0.044475  -0.039328
    44  H   -0.002325  -0.000000  -0.000000  -0.039393  -0.005911   0.003800
    45  H    0.003221  -0.000000   0.000000  -0.044766   0.005232  -0.005875
    46  H    0.000000   0.284650   0.006439  -0.000000   0.000000  -0.000000
              43         44         45         46
     1  C   -0.026940   0.003573  -0.006714  -0.000000
     2  C    0.000003  -0.000001   0.000001   0.000000
     3  H   -0.000000  -0.000000  -0.000000   0.000000
     4  C   -0.000200  -0.000051   0.000062   0.000000
     5  H   -0.000219  -0.000012   0.000019   0.000000
     6  C    0.006910   0.000064   0.000014   0.000000
     7  C   -0.000160   0.000002  -0.000021   0.000000
     8  H   -0.000013   0.000000  -0.000006   0.000000
     9  C    0.000001  -0.000000   0.000000   0.000000
    10  H   -0.000000   0.000000  -0.000000   0.000000
    11  C    0.000000   0.000000  -0.000000   0.000000
    12  O    0.000000   0.000000   0.000000   0.000000
    13  C    0.000000   0.000000  -0.000000   0.000000
    14  O    0.000000  -0.000000   0.000000   0.000000
    15  O    0.177750  -0.029071  -0.030539   0.000000
    16  O   -0.001286   0.000337   0.012081   0.000000
    17  C   -0.000000  -0.000000   0.000000   0.000000
    18  H    0.000000  -0.000000   0.000000   0.000000
    19  H    0.000000  -0.000000   0.000000   0.000000
    20  C   -0.000000   0.000000  -0.000000   0.000000
    21  H   -0.000000  -0.000000   0.000000   0.000000
    22  H    0.000000  -0.000000  -0.000000   0.000000
    23  H   -0.000000   0.000000   0.000000   0.000000
    24  C   -0.000000   0.000000  -0.000000  -0.015011
    25  C    0.000014  -0.000003  -0.000003   0.000005
    26  H    0.000001   0.000000  -0.000000  -0.000000
    27  C    0.000000  -0.000000   0.000000  -0.000558
    28  H    0.000000  -0.000000   0.000000  -0.000194
    29  C   -0.000000   0.000000   0.000000   0.011423
    30  C    0.000000   0.000000   0.000000  -0.000225
    31  H    0.000000  -0.000000  -0.000000  -0.000018
    32  C    0.000018  -0.000022   0.000012   0.000001
    33  H    0.000010  -0.000002   0.000009  -0.000000
    34  C   -0.000523   0.000290  -0.000058   0.000001
    35  O   -0.005276   0.005879   0.000240   0.000000
    36  C   -0.003760   0.004888   0.000473   0.000000
    37  O   -0.031312  -0.002325   0.003221   0.000000
    38  O   -0.000000  -0.000000  -0.000000   0.284650
    39  O   -0.000000  -0.000000   0.000000   0.006439
    40  C    0.338806  -0.039393  -0.044766  -0.000000
    41  H   -0.044475  -0.005911   0.005232   0.000000
    42  H   -0.039328   0.003800  -0.005875  -0.000000
    43  C    4.850268   0.400802   0.383319   0.000000
    44  H    0.400802   0.519690  -0.029574  -0.000000
    45  H    0.383319  -0.029574   0.554757  -0.000000
    46  H    0.000000  -0.000000  -0.000000   0.359765
 Mulliken charges:
               1
     1  C    0.642449
     2  C   -0.125085
     3  H    0.163367
     4  C   -0.122912
     5  H    0.158797
     6  C   -0.033241
     7  C   -0.124924
     8  H    0.161487
     9  C   -0.122965
    10  H    0.155061
    11  C   -0.031796
    12  O   -0.494102
    13  C    0.650274
    14  O   -0.517978
    15  O   -0.518926
    16  O   -0.493265
    17  C    0.022199
    18  H    0.141911
    19  H    0.141953
    20  C   -0.388159
    21  H    0.134234
    22  H    0.140974
    23  H    0.141075
    24  C    0.602945
    25  C   -0.122674
    26  H    0.163504
    27  C   -0.125643
    28  H    0.160397
    29  C   -0.016218
    30  C   -0.127641
    31  H    0.165130
    32  C   -0.120615
    33  H    0.160514
    34  C   -0.034608
    35  O   -0.491890
    36  C    0.643750
    37  O   -0.518780
    38  O   -0.534930
    39  O   -0.478982
    40  C   -0.004986
    41  H    0.158369
    42  H    0.167466
    43  C   -0.004412
    44  H    0.167039
    45  H    0.158113
    46  H    0.353723
 Sum of Mulliken charges =  -0.00000
 Mulliken charges with hydrogens summed into heavy atoms:
               1
     1  C    0.642449
     2  C    0.038282
     4  C    0.035885
     6  C   -0.033241
     7  C    0.036563
     9  C    0.032096
    11  C   -0.031796
    12  O   -0.494102
    13  C    0.650274
    14  O   -0.517978
    15  O   -0.518926
    16  O   -0.493265
    17  C    0.306063
    20  C    0.028124
    24  C    0.602945
    25  C    0.040830
    27  C    0.034755
    29  C   -0.016218
    30  C    0.037490
    32  C    0.039900
    34  C   -0.034608
    35  O   -0.491890
    36  C    0.643750
    37  O   -0.518780
    38  O   -0.181207
    39  O   -0.478982
    40  C    0.320849
    43  C    0.320740
 Electronic spatial extent (au):  <R**2>=          28572.2266
 Charge=             -0.0000 electrons
 Dipole moment (field-independent basis, Debye):
    X=              0.7898    Y=             -0.3621    Z=              0.0719  Tot=              0.8718
 Quadrupole moment (field-independent basis, Debye-Ang):
   XX=           -122.0956   YY=           -167.0907   ZZ=           -158.3298
   XY=            -25.6597   XZ=              4.0866   YZ=             -2.1936
 Traceless Quadrupole moment (field-independent basis, Debye-Ang):
   XX=             27.0765   YY=            -17.9186   ZZ=             -9.1578
   XY=            -25.6597   XZ=              4.0866   YZ=             -2.1936
 Octapole moment (field-independent basis, Debye-Ang**2):
  XXX=             61.2385  YYY=             -1.4849  ZZZ=              0.0119  XYY=              4.5322
  XXY=              7.1765  XXZ=             -1.7998  XZZ=              0.4464  YZZ=              0.1928
  YYZ=             -0.0496  XYZ=              1.8814
 Hexadecapole moment (field-independent basis, Debye-Ang**3):
 XXXX=         -28187.8878 YYYY=          -1272.1582 ZZZZ=           -279.0843 XXXY=          -2479.6676
 XXXZ=            450.5749 YYYX=            -96.8266 YYYZ=            -12.9468 ZZZX=             27.8842
 ZZZY=              5.3078 XXYY=          -6639.6998 XXZZ=          -5967.6191 YYZZ=           -261.5069
 XXYZ=            -36.0912 YYXZ=              0.0017 ZZXY=             22.1014
 N-N= 2.265765268226D+03 E-N=-7.739040468917D+03  KE= 1.363039343732D+03
 No NMR shielding tensors so no spin-rotation constants.
 Leave Link  601 at Tue Jul 27 20:01:39 2021, MaxMem=   524288000 cpu:               0.9 elap:               0.3
 (Enter /opt/gaussian/g16_legacy/l9999.exe)
 1\1\GINC-TRUENO95\FOpt\RM062X\6-31G(d,p)\C20H18O8\JRAMOS\27-Jul-2021\0
 \\#p opt=loose m062x/6-31g(d,p)\\Conformer number 1088. Energy MM = 72
 .083 kcal/mol\\0,1\C,1.0370980687,0.1597634661,0.7957516182\C,4.354288
 4867,-1.1113416242,-0.5213295188\H,4.7725050258,-1.8918845748,-1.14745
 26078\C,2.9877612826,-1.0167832048,-0.2965393994\H,2.3010122912,-1.725
 4916626,-0.7440890688\C,2.494295285,0.0055763088,0.5171977612\C,3.3621
 625285,0.9286900264,1.1030814435\H,2.9450538338,1.7097057507,1.7293858
 29\C,4.7285362777,0.8326824505,0.8787116427\H,5.4164301141,1.540210756
 4,1.3264006057\C,5.222231822,-0.1891970504,0.0650451867\O,7.1499670164
 ,-1.2118292053,-0.9102779456\C,6.6827574801,-0.3432172592,-0.212642781
 \O,7.4229334397,0.5912754457,0.4004652592\O,0.2960873562,-0.7848517212
 ,0.186042009\O,0.5655544306,1.0293256564,1.4895468467\C,8.8377416336,0
 .4972214627,0.1747507085\H,9.0264211249,0.5632306856,-0.9006784166\H,9
 .1815554983,-0.4855866771,0.5099852859\C,9.4897505006,1.6256014764,0.9
 421087501\H,10.5724058938,1.5949970663,0.8007086288\H,9.1212412882,2.5
 922651955,0.5920751577\H,9.2765597388,1.5383671267,2.0096829984\C,-9.5
 321261533,-0.02032896,0.2385589567\C,-6.2287121577,-1.3068802679,-1.09
 13206251\H,-5.8181099115,-2.09186219,-1.7168753977\C,-7.5934065334,-1.
 2051586694,-0.8586760014\H,-8.2860982244,-1.9126357056,-1.2993170706\C
 ,-8.0769274624,-0.1776798008,-0.0459881552\C,-7.2028712614,0.744448351
 2,0.531401986\H,-7.6140860225,1.529191309,1.1569301758\C,-5.8383801803
 ,0.6435215835,0.298268498\H,-5.1458003942,1.3511204671,0.738388079\C,-
 5.3544836366,-0.3843359019,-0.5143988771\O,-3.4355820904,-1.4187602732
 ,-1.4947636673\C,-3.898642842,-0.5450071292,-0.8008459084\O,-3.1519138
 725,0.3982629267,-0.1978920023\O,-10.2879046071,-0.956471933,-0.364080
 5461\O,-10.0027043049,0.8488539694,0.9308453213\C,-1.7456060955,0.3376
 578189,-0.4493832676\H,-1.5643817928,0.1119639679,-1.5026657747\H,-1.3
 566074216,1.3226634585,-0.1923086299\C,-1.1108026822,-0.7295401808,0.4
 325661278\H,-1.4962145009,-1.7153081285,0.1728319956\H,-1.2968595158,-
 0.5056852088,1.4854226786\H,-11.2061287541,-0.7667593978,-0.119627889\
 \Version=EM64L-G16RevA.03\State=1-A\HF=-1374.3095954\RMSD=6.867e-09\RM
 SF=4.045e-05\Dipole=0.3041628,0.1390801,0.076128\Quadrupole=18.3893473
 ,-7.9510652,-10.4382821,17.7759922,10.5781972,-2.705117\PG=C01 [X(C20H
 18O8)]\\@


 IF YOU GIVE EVERYONE A PIECE OF YOUR MIND,
 PRETTY SOON IT WILL BE ALL GONE.
 Job cpu time:       0 days  1 hours 56 minutes 33.9 seconds.
 Elapsed time:       0 days  0 hours 29 minutes 11.2 seconds.
 File lengths (MBytes):  RWF=    165 Int=      0 D2E=      0 Chk=     21 Scr=      1
 Normal termination of Gaussian 16 at Tue Jul 27 20:01:39 2021.
