 Entering Gaussian System, Link 0=/opt/gaussian/g16_legacy/g16
 Input=05-PET_361_gaussian.com
 Output=05-PET_361_gaussian.log
 Initial command:
 /opt/gaussian/g16_legacy/l1.exe "/scratch-local/jramos/2648144/Gau-2896.inp" -scrdir="/scratch-local/jramos/2648144/"
 Entering Link 1 = /opt/gaussian/g16_legacy/l1.exe PID=      2900.
  
 Copyright (c) 1988,1990,1992,1993,1995,1998,2003,2009,2016,
            Gaussian, Inc.  All Rights Reserved.
  
 This is part of the Gaussian(R) 16 program.  It is based on
 the Gaussian(R) 09 system (copyright 2009, Gaussian, Inc.),
 the Gaussian(R) 03 system (copyright 2003, Gaussian, Inc.),
 the Gaussian(R) 98 system (copyright 1998, Gaussian, Inc.),
 the Gaussian(R) 94 system (copyright 1995, Gaussian, Inc.),
 the Gaussian 92(TM) system (copyright 1992, Gaussian, Inc.),
 the Gaussian 90(TM) system (copyright 1990, Gaussian, Inc.),
 the Gaussian 88(TM) system (copyright 1988, Gaussian, Inc.),
 the Gaussian 86(TM) system (copyright 1986, Carnegie Mellon
 University), and the Gaussian 82(TM) system (copyright 1983,
 Carnegie Mellon University). Gaussian is a federally registered
 trademark of Gaussian, Inc.
  
 This software contains proprietary and confidential information,
 including trade secrets, belonging to Gaussian, Inc.
  
 This software is provided under written license and may be
 used, copied, transmitted, or stored only in accord with that
 written license.
  
 The following legend is applicable only to US Government
 contracts under FAR:
  
                    RESTRICTED RIGHTS LEGEND
  
 Use, reproduction and disclosure by the US Government is
 subject to restrictions as set forth in subparagraphs (a)
 and (c) of the Commercial Computer Software - Restricted
 Rights clause in FAR 52.227-19.
  
 Gaussian, Inc.
 340 Quinnipiac St., Bldg. 40, Wallingford CT 06492
  
  
 ---------------------------------------------------------------
 Warning -- This program may not be used in any manner that
 competes with the business of Gaussian, Inc. or will provide
 assistance to any competitor of Gaussian, Inc.  The licensee
 of this program is prohibited from giving any competitor of
 Gaussian, Inc. access to this program.  By using this program,
 the user acknowledges that Gaussian, Inc. is engaged in the
 business of creating and licensing software in the field of
 computational chemistry and represents and warrants to the
 licensee that it is not a competitor of Gaussian, Inc. and that
 it will not use this program in any manner prohibited above.
 ---------------------------------------------------------------
  

 Cite this work as:
 Gaussian 16, Revision A.03,
 M. J. Frisch, G. W. Trucks, H. B. Schlegel, G. E. Scuseria, 
 M. A. Robb, J. R. Cheeseman, G. Scalmani, V. Barone, 
 G. A. Petersson, H. Nakatsuji, X. Li, M. Caricato, A. V. Marenich, 
 J. Bloino, B. G. Janesko, R. Gomperts, B. Mennucci, H. P. Hratchian, 
 J. V. Ortiz, A. F. Izmaylov, J. L. Sonnenberg, D. Williams-Young, 
 F. Ding, F. Lipparini, F. Egidi, J. Goings, B. Peng, A. Petrone, 
 T. Henderson, D. Ranasinghe, V. G. Zakrzewski, J. Gao, N. Rega, 
 G. Zheng, W. Liang, M. Hada, M. Ehara, K. Toyota, R. Fukuda, 
 J. Hasegawa, M. Ishida, T. Nakajima, Y. Honda, O. Kitao, H. Nakai, 
 T. Vreven, K. Throssell, J. A. Montgomery, Jr., J. E. Peralta, 
 F. Ogliaro, M. J. Bearpark, J. J. Heyd, E. N. Brothers, K. N. Kudin, 
 V. N. Staroverov, T. A. Keith, R. Kobayashi, J. Normand, 
 K. Raghavachari, A. P. Rendell, J. C. Burant, S. S. Iyengar, 
 J. Tomasi, M. Cossi, J. M. Millam, M. Klene, C. Adamo, R. Cammi, 
 J. W. Ochterski, R. L. Martin, K. Morokuma, O. Farkas, 
 J. B. Foresman, and D. J. Fox, Gaussian, Inc., Wallingford CT, 2016.
 
 ******************************************
 Gaussian 16:  EM64L-G16RevA.03 25-Dec-2016
                27-Jul-2021 
 ******************************************
 %chk=05-PET_361_gaussian.chk
 %nproc=4
 Will use up to    4 processors via shared memory.
 %mem=4000Mb
 -----------------------------
 #p opt=loose m062x/6-31g(d,p)
 -----------------------------
 1/7=-1,18=20,19=15,26=3,38=1/1,3;
 2/9=110,12=2,17=6,18=5,40=1/2;
 3/5=1,6=6,7=101,11=2,25=1,30=1,71=1,74=-55/1,2,3;
 4//1;
 5/5=2,38=5/2;
 6/7=2,8=2,9=2,10=2,28=1/1;
 7//1,2,3,16;
 1/7=-1,18=20,19=15,26=3/3(2);
 2/9=110/2;
 99//99;
 2/9=110/2;
 3/5=1,6=6,7=101,11=2,25=1,30=1,71=1,74=-55/1,2,3;
 4/5=5,16=3,69=1/1;
 5/5=2,38=5/2;
 7//1,2,3,16;
 1/7=-1,18=20,19=15,26=3/3(-5);
 2/9=110/2;
 6/7=2,8=2,9=2,10=2,19=2,28=1/1;
 99/9=1/99;
 Leave Link    1 at Tue Jul 27 19:32:25 2021, MaxMem=   524288000 cpu:               0.2 elap:               0.1
 (Enter /opt/gaussian/g16_legacy/l101.exe)
 -------------------------------------------------
 Conformer number 361. Energy MM = 72.118 kcal/mol
 -------------------------------------------------
 Symbolic Z-matrix:
 Charge =  0 Multiplicity = 1
 C                     1.0263    0.2935    0.7952 
 C                     4.3784   -1.1854   -0.2493 
 H                     4.7641   -2.0836   -0.7302 
 C                     2.999    -1.0514   -0.0543 
 H                     2.3429   -1.8518   -0.3893 
 C                     2.4833    0.0962    0.5625 
 C                     3.3626    1.1049    0.9806 
 H                     2.9776    2.0029    1.462 
 C                     4.742     0.9707    0.7855 
 H                     5.3991    1.77      1.1208 
 C                     5.2579   -0.1768    0.1686 
 O                     7.183    -1.3658   -0.6001 
 C                     6.7152   -0.3736   -0.0647 
 O                     7.4208    0.6886    0.396 
 O                     0.3193   -0.7654    0.3312 
 O                     0.557     1.2869    1.3266 
 C                     8.8372    0.578     0.2094 
 H                     9.2126   -0.3035    0.7412 
 H                     9.0637    0.4896   -0.8591 
 C                     9.4864    1.8287    0.7688 
 H                     9.1049    2.7209    0.2613 
 H                     9.2511    1.9424    1.8322 
 H                     10.5728   1.7915    0.6493 
 C                    -9.5914   -0.2356    0.0189 
 C                    -6.2391   -1.634    -0.9864 
 H                    -5.8595   -2.5355   -1.4654 
 C                    -7.616    -1.493    -0.7862 
 H                    -8.2889   -2.285    -1.111 
 C                    -8.1243   -0.3415   -0.1728 
 C                    -7.2452    0.6682    0.2388 
 H                    -7.6212    1.5702    0.717 
 C                    -5.8668    0.5271    0.0384 
 H                    -5.206     1.3263    0.367 
 C                    -5.3562   -0.6255   -0.5755 
 O                    -3.4342   -1.8229   -1.3417 
 C                    -3.9003   -0.8272   -0.812 
 O                    -3.1896    0.2316   -0.353 
 O                    -9.9574    0.9119    0.616 
 O                    -10.4145  -1.0688   -0.3108 
 C                    -1.7691    0.1554   -0.552 
 H                    -1.3864    1.1809   -0.5203 
 H                    -1.5299   -0.2178   -1.5558 
 C                    -1.1018   -0.6938    0.5273 
 H                    -1.4816   -1.7203    0.4931 
 H                    -1.3442   -0.3229    1.5313 
 H                    -10.9337   0.8449    0.676 
 
 ITRead=  0  0  0  0  0  0  0  0  0  0  0  0  0  0  0  0  0  0  0  0
 ITRead=  0  0  0  0  0  0  0  0  0  0  0  0  0  0  0  0  0  0  0  0
 ITRead=  0  0  0  0  0  0
 MicOpt= -1 -1 -1 -1 -1 -1 -1 -1 -1 -1 -1 -1 -1 -1 -1 -1 -1 -1 -1 -1
 MicOpt= -1 -1 -1 -1 -1 -1 -1 -1 -1 -1 -1 -1 -1 -1 -1 -1 -1 -1 -1 -1
 MicOpt= -1 -1 -1 -1 -1 -1
 NAtoms=     46 NQM=       46 NQMF=       0 NMMI=      0 NMMIF=      0
                NMic=       0 NMicF=      0.
                    Isotopes and Nuclear Properties:
 (Nuclear quadrupole moments (NQMom) in fm**2, nuclear magnetic moments (NMagM)
  in nuclear magnetons)

  Atom         1           2           3           4           5           6           7           8           9          10
 IAtWgt=          12          12           1          12           1          12          12           1          12           1
 AtmWgt=  12.0000000  12.0000000   1.0078250  12.0000000   1.0078250  12.0000000  12.0000000   1.0078250  12.0000000   1.0078250
 NucSpn=           0           0           1           0           1           0           0           1           0           1
 AtZEff=  -0.0000000  -0.0000000  -0.0000000  -0.0000000  -0.0000000  -0.0000000  -0.0000000  -0.0000000  -0.0000000  -0.0000000
 NQMom=    0.0000000   0.0000000   0.0000000   0.0000000   0.0000000   0.0000000   0.0000000   0.0000000   0.0000000   0.0000000
 NMagM=    0.0000000   0.0000000   2.7928460   0.0000000   2.7928460   0.0000000   0.0000000   2.7928460   0.0000000   2.7928460
 AtZNuc=   6.0000000   6.0000000   1.0000000   6.0000000   1.0000000   6.0000000   6.0000000   1.0000000   6.0000000   1.0000000

  Atom        11          12          13          14          15          16          17          18          19          20
 IAtWgt=          12          16          12          16          16          16          12           1           1          12
 AtmWgt=  12.0000000  15.9949146  12.0000000  15.9949146  15.9949146  15.9949146  12.0000000   1.0078250   1.0078250  12.0000000
 NucSpn=           0           0           0           0           0           0           0           1           1           0
 AtZEff=  -0.0000000  -0.0000000  -0.0000000  -0.0000000  -0.0000000  -0.0000000  -0.0000000  -0.0000000  -0.0000000  -0.0000000
 NQMom=    0.0000000   0.0000000   0.0000000   0.0000000   0.0000000   0.0000000   0.0000000   0.0000000   0.0000000   0.0000000
 NMagM=    0.0000000   0.0000000   0.0000000   0.0000000   0.0000000   0.0000000   0.0000000   2.7928460   2.7928460   0.0000000
 AtZNuc=   6.0000000   8.0000000   6.0000000   8.0000000   8.0000000   8.0000000   6.0000000   1.0000000   1.0000000   6.0000000

  Atom        21          22          23          24          25          26          27          28          29          30
 IAtWgt=           1           1           1          12          12           1          12           1          12          12
 AtmWgt=   1.0078250   1.0078250   1.0078250  12.0000000  12.0000000   1.0078250  12.0000000   1.0078250  12.0000000  12.0000000
 NucSpn=           1           1           1           0           0           1           0           1           0           0
 AtZEff=  -0.0000000  -0.0000000  -0.0000000  -0.0000000  -0.0000000  -0.0000000  -0.0000000  -0.0000000  -0.0000000  -0.0000000
 NQMom=    0.0000000   0.0000000   0.0000000   0.0000000   0.0000000   0.0000000   0.0000000   0.0000000   0.0000000   0.0000000
 NMagM=    2.7928460   2.7928460   2.7928460   0.0000000   0.0000000   2.7928460   0.0000000   2.7928460   0.0000000   0.0000000
 AtZNuc=   1.0000000   1.0000000   1.0000000   6.0000000   6.0000000   1.0000000   6.0000000   1.0000000   6.0000000   6.0000000

  Atom        31          32          33          34          35          36          37          38          39          40
 IAtWgt=           1          12           1          12          16          12          16          16          16          12
 AtmWgt=   1.0078250  12.0000000   1.0078250  12.0000000  15.9949146  12.0000000  15.9949146  15.9949146  15.9949146  12.0000000
 NucSpn=           1           0           1           0           0           0           0           0           0           0
 AtZEff=  -0.0000000  -0.0000000  -0.0000000  -0.0000000  -0.0000000  -0.0000000  -0.0000000  -0.0000000  -0.0000000  -0.0000000
 NQMom=    0.0000000   0.0000000   0.0000000   0.0000000   0.0000000   0.0000000   0.0000000   0.0000000   0.0000000   0.0000000
 NMagM=    2.7928460   0.0000000   2.7928460   0.0000000   0.0000000   0.0000000   0.0000000   0.0000000   0.0000000   0.0000000
 AtZNuc=   1.0000000   6.0000000   1.0000000   6.0000000   8.0000000   6.0000000   8.0000000   8.0000000   8.0000000   6.0000000

  Atom        41          42          43          44          45          46
 IAtWgt=           1           1          12           1           1           1
 AtmWgt=   1.0078250   1.0078250  12.0000000   1.0078250   1.0078250   1.0078250
 NucSpn=           1           1           0           1           1           1
 AtZEff=  -0.0000000  -0.0000000  -0.0000000  -0.0000000  -0.0000000  -0.0000000
 NQMom=    0.0000000   0.0000000   0.0000000   0.0000000   0.0000000   0.0000000
 NMagM=    2.7928460   2.7928460   0.0000000   2.7928460   2.7928460   2.7928460
 AtZNuc=   1.0000000   1.0000000   6.0000000   1.0000000   1.0000000   1.0000000
 Leave Link  101 at Tue Jul 27 19:32:26 2021, MaxMem=   524288000 cpu:               1.2 elap:               0.4
 (Enter /opt/gaussian/g16_legacy/l103.exe)

 GradGradGradGradGradGradGradGradGradGradGradGradGradGradGradGradGradGrad
 Berny optimization.
 Initialization pass.
                           ----------------------------
                           !    Initial Parameters    !
                           ! (Angstroms and Degrees)  !
 --------------------------                            --------------------------
 ! Name  Definition              Value          Derivative Info.                !
 --------------------------------------------------------------------------------
 ! R1    R(1,6)                  1.4886         estimate D2E/DX2                !
 ! R2    R(1,15)                 1.3551         estimate D2E/DX2                !
 ! R3    R(1,16)                 1.2204         estimate D2E/DX2                !
 ! R4    R(2,3)                  1.0894         estimate D2E/DX2                !
 ! R5    R(2,4)                  1.3995         estimate D2E/DX2                !
 ! R6    R(2,11)                 1.4019         estimate D2E/DX2                !
 ! R7    R(4,5)                  1.0878         estimate D2E/DX2                !
 ! R8    R(4,6)                  1.4012         estimate D2E/DX2                !
 ! R9    R(6,7)                  1.4019         estimate D2E/DX2                !
 ! R10   R(7,8)                  1.0892         estimate D2E/DX2                !
 ! R11   R(7,9)                  1.3996         estimate D2E/DX2                !
 ! R12   R(9,10)                 1.0877         estimate D2E/DX2                !
 ! R13   R(9,11)                 1.4012         estimate D2E/DX2                !
 ! R14   R(11,13)                1.4889         estimate D2E/DX2                !
 ! R15   R(12,13)                1.2206         estimate D2E/DX2                !
 ! R16   R(13,14)                1.3559         estimate D2E/DX2                !
 ! R17   R(14,17)                1.4329         estimate D2E/DX2                !
 ! R18   R(15,43)                1.4364         estimate D2E/DX2                !
 ! R19   R(17,18)                1.0958         estimate D2E/DX2                !
 ! R20   R(17,19)                1.0958         estimate D2E/DX2                !
 ! R21   R(17,20)                1.5161         estimate D2E/DX2                !
 ! R22   R(20,21)                1.095          estimate D2E/DX2                !
 ! R23   R(20,22)                1.095          estimate D2E/DX2                !
 ! R24   R(20,23)                1.0936         estimate D2E/DX2                !
 ! R25   R(24,29)                1.4834         estimate D2E/DX2                !
 ! R26   R(24,38)                1.3443         estimate D2E/DX2                !
 ! R27   R(24,39)                1.2167         estimate D2E/DX2                !
 ! R28   R(25,26)                1.0891         estimate D2E/DX2                !
 ! R29   R(25,27)                1.3985         estimate D2E/DX2                !
 ! R30   R(25,34)                1.4019         estimate D2E/DX2                !
 ! R31   R(27,28)                1.0888         estimate D2E/DX2                !
 ! R32   R(27,29)                1.4002         estimate D2E/DX2                !
 ! R33   R(29,30)                1.4006         estimate D2E/DX2                !
 ! R34   R(30,31)                1.088          estimate D2E/DX2                !
 ! R35   R(30,32)                1.4            estimate D2E/DX2                !
 ! R36   R(32,33)                1.0878         estimate D2E/DX2                !
 ! R37   R(32,34)                1.4022         estimate D2E/DX2                !
 ! R38   R(34,36)                1.4887         estimate D2E/DX2                !
 ! R39   R(35,36)                1.2203         estimate D2E/DX2                !
 ! R40   R(36,37)                1.3553         estimate D2E/DX2                !
 ! R41   R(37,40)                1.4364         estimate D2E/DX2                !
 ! R42   R(38,46)                0.9804         estimate D2E/DX2                !
 ! R43   R(40,41)                1.095          estimate D2E/DX2                !
 ! R44   R(40,42)                1.0973         estimate D2E/DX2                !
 ! R45   R(40,43)                1.5269         estimate D2E/DX2                !
 ! R46   R(43,44)                1.095          estimate D2E/DX2                !
 ! R47   R(43,45)                1.0974         estimate D2E/DX2                !
 ! A1    A(6,1,15)             110.7046         estimate D2E/DX2                !
 ! A2    A(6,1,16)             123.5263         estimate D2E/DX2                !
 ! A3    A(15,1,16)            125.7676         estimate D2E/DX2                !
 ! A4    A(3,2,4)              119.3011         estimate D2E/DX2                !
 ! A5    A(3,2,11)             120.1749         estimate D2E/DX2                !
 ! A6    A(4,2,11)             120.5241         estimate D2E/DX2                !
 ! A7    A(2,4,5)              118.7573         estimate D2E/DX2                !
 ! A8    A(2,4,6)              120.165          estimate D2E/DX2                !
 ! A9    A(5,4,6)              121.0777         estimate D2E/DX2                !
 ! A10   A(1,6,4)              122.5199         estimate D2E/DX2                !
 ! A11   A(1,6,7)              118.1579         estimate D2E/DX2                !
 ! A12   A(4,6,7)              119.3222         estimate D2E/DX2                !
 ! A13   A(6,7,8)              120.219          estimate D2E/DX2                !
 ! A14   A(6,7,9)              120.5037         estimate D2E/DX2                !
 ! A15   A(8,7,9)              119.2772         estimate D2E/DX2                !
 ! A16   A(7,9,10)             118.8145         estimate D2E/DX2                !
 ! A17   A(7,9,11)             120.1827         estimate D2E/DX2                !
 ! A18   A(10,9,11)            121.0027         estimate D2E/DX2                !
 ! A19   A(2,11,9)             119.3023         estimate D2E/DX2                !
 ! A20   A(2,11,13)            118.1787         estimate D2E/DX2                !
 ! A21   A(9,11,13)            122.5191         estimate D2E/DX2                !
 ! A22   A(11,13,12)           123.4544         estimate D2E/DX2                !
 ! A23   A(11,13,14)           110.6442         estimate D2E/DX2                !
 ! A24   A(12,13,14)           125.9014         estimate D2E/DX2                !
 ! A25   A(13,14,17)           114.1854         estimate D2E/DX2                !
 ! A26   A(1,15,43)            115.4979         estimate D2E/DX2                !
 ! A27   A(14,17,18)           109.7261         estimate D2E/DX2                !
 ! A28   A(14,17,19)           109.7258         estimate D2E/DX2                !
 ! A29   A(14,17,20)           108.1521         estimate D2E/DX2                !
 ! A30   A(18,17,19)           109.725          estimate D2E/DX2                !
 ! A31   A(18,17,20)           109.7459         estimate D2E/DX2                !
 ! A32   A(19,17,20)           109.7436         estimate D2E/DX2                !
 ! A33   A(17,20,21)           110.6064         estimate D2E/DX2                !
 ! A34   A(17,20,22)           110.6066         estimate D2E/DX2                !
 ! A35   A(17,20,23)           110.9163         estimate D2E/DX2                !
 ! A36   A(21,20,22)           106.894          estimate D2E/DX2                !
 ! A37   A(21,20,23)           108.8548         estimate D2E/DX2                !
 ! A38   A(22,20,23)           108.8514         estimate D2E/DX2                !
 ! A39   A(29,24,38)           112.8058         estimate D2E/DX2                !
 ! A40   A(29,24,39)           125.8148         estimate D2E/DX2                !
 ! A41   A(38,24,39)           121.3794         estimate D2E/DX2                !
 ! A42   A(26,25,27)           119.3113         estimate D2E/DX2                !
 ! A43   A(26,25,34)           120.3202         estimate D2E/DX2                !
 ! A44   A(27,25,34)           120.3684         estimate D2E/DX2                !
 ! A45   A(25,27,28)           119.4995         estimate D2E/DX2                !
 ! A46   A(25,27,29)           120.201          estimate D2E/DX2                !
 ! A47   A(28,27,29)           120.2995         estimate D2E/DX2                !
 ! A48   A(24,29,27)           118.318          estimate D2E/DX2                !
 ! A49   A(24,29,30)           122.0953         estimate D2E/DX2                !
 ! A50   A(27,29,30)           119.5867         estimate D2E/DX2                !
 ! A51   A(29,30,31)           120.659          estimate D2E/DX2                !
 ! A52   A(29,30,32)           120.2146         estimate D2E/DX2                !
 ! A53   A(31,30,32)           119.1264         estimate D2E/DX2                !
 ! A54   A(30,32,33)           118.737          estimate D2E/DX2                !
 ! A55   A(30,32,34)           120.2679         estimate D2E/DX2                !
 ! A56   A(33,32,34)           120.9952         estimate D2E/DX2                !
 ! A57   A(25,34,32)           119.3614         estimate D2E/DX2                !
 ! A58   A(25,34,36)           118.1555         estimate D2E/DX2                !
 ! A59   A(32,34,36)           122.483          estimate D2E/DX2                !
 ! A60   A(34,36,35)           123.5746         estimate D2E/DX2                !
 ! A61   A(34,36,37)           110.682          estimate D2E/DX2                !
 ! A62   A(35,36,37)           125.7419         estimate D2E/DX2                !
 ! A63   A(36,37,40)           115.4815         estimate D2E/DX2                !
 ! A64   A(24,38,46)           103.8839         estimate D2E/DX2                !
 ! A65   A(37,40,41)           106.9733         estimate D2E/DX2                !
 ! A66   A(37,40,42)           111.1217         estimate D2E/DX2                !
 ! A67   A(37,40,43)           111.3323         estimate D2E/DX2                !
 ! A68   A(41,40,42)           105.593          estimate D2E/DX2                !
 ! A69   A(41,40,43)           110.3437         estimate D2E/DX2                !
 ! A70   A(42,40,43)           111.2358         estimate D2E/DX2                !
 ! A71   A(15,43,40)           111.3224         estimate D2E/DX2                !
 ! A72   A(15,43,44)           106.9873         estimate D2E/DX2                !
 ! A73   A(15,43,45)           111.1178         estimate D2E/DX2                !
 ! A74   A(40,43,44)           110.3468         estimate D2E/DX2                !
 ! A75   A(40,43,45)           111.2349         estimate D2E/DX2                !
 ! A76   A(44,43,45)           105.5918         estimate D2E/DX2                !
 ! D1    D(15,1,6,4)            -0.176          estimate D2E/DX2                !
 ! D2    D(15,1,6,7)           179.7951         estimate D2E/DX2                !
 ! D3    D(16,1,6,4)          -179.7666         estimate D2E/DX2                !
 ! D4    D(16,1,6,7)             0.2045         estimate D2E/DX2                !
 ! D5    D(6,1,15,43)          178.8372         estimate D2E/DX2                !
 ! D6    D(16,1,15,43)          -1.5834         estimate D2E/DX2                !
 ! D7    D(3,2,4,5)              0.0167         estimate D2E/DX2                !
 ! D8    D(3,2,4,6)            179.9901         estimate D2E/DX2                !
 ! D9    D(11,2,4,5)          -179.9712         estimate D2E/DX2                !
 ! D10   D(11,2,4,6)             0.0022         estimate D2E/DX2                !
 ! D11   D(3,2,11,9)          -179.9845         estimate D2E/DX2                !
 ! D12   D(3,2,11,13)            0.0088         estimate D2E/DX2                !
 ! D13   D(4,2,11,9)             0.0033         estimate D2E/DX2                !
 ! D14   D(4,2,11,13)          179.9966         estimate D2E/DX2                !
 ! D15   D(2,4,6,1)            179.9631         estimate D2E/DX2                !
 ! D16   D(2,4,6,7)             -0.0076         estimate D2E/DX2                !
 ! D17   D(5,4,6,1)             -0.0641         estimate D2E/DX2                !
 ! D18   D(5,4,6,7)            179.9651         estimate D2E/DX2                !
 ! D19   D(1,6,7,8)              0.0539         estimate D2E/DX2                !
 ! D20   D(1,6,7,9)           -179.9644         estimate D2E/DX2                !
 ! D21   D(4,6,7,8)           -179.974          estimate D2E/DX2                !
 ! D22   D(4,6,7,9)              0.0077         estimate D2E/DX2                !
 ! D23   D(6,7,9,10)          -179.984          estimate D2E/DX2                !
 ! D24   D(6,7,9,11)            -0.0022         estimate D2E/DX2                !
 ! D25   D(8,7,9,10)            -0.0021         estimate D2E/DX2                !
 ! D26   D(8,7,9,11)           179.9797         estimate D2E/DX2                !
 ! D27   D(7,9,11,2)            -0.0033         estimate D2E/DX2                !
 ! D28   D(7,9,11,13)         -179.9963         estimate D2E/DX2                !
 ! D29   D(10,9,11,2)          179.978          estimate D2E/DX2                !
 ! D30   D(10,9,11,13)          -0.0149         estimate D2E/DX2                !
 ! D31   D(2,11,13,12)           0.0053         estimate D2E/DX2                !
 ! D32   D(2,11,13,14)        -179.9986         estimate D2E/DX2                !
 ! D33   D(9,11,13,12)         179.9983         estimate D2E/DX2                !
 ! D34   D(9,11,13,14)          -0.0055         estimate D2E/DX2                !
 ! D35   D(11,13,14,17)        179.9934         estimate D2E/DX2                !
 ! D36   D(12,13,14,17)         -0.0106         estimate D2E/DX2                !
 ! D37   D(13,14,17,18)        -60.311          estimate D2E/DX2                !
 ! D38   D(13,14,17,19)         60.3172         estimate D2E/DX2                !
 ! D39   D(13,14,17,20)       -179.9984         estimate D2E/DX2                !
 ! D40   D(1,15,43,40)          81.7208         estimate D2E/DX2                !
 ! D41   D(1,15,43,44)        -157.6472         estimate D2E/DX2                !
 ! D42   D(1,15,43,45)         -42.859          estimate D2E/DX2                !
 ! D43   D(14,17,20,21)        -59.1157         estimate D2E/DX2                !
 ! D44   D(14,17,20,22)         59.1179         estimate D2E/DX2                !
 ! D45   D(14,17,20,23)        179.999          estimate D2E/DX2                !
 ! D46   D(18,17,20,21)       -178.7906         estimate D2E/DX2                !
 ! D47   D(18,17,20,22)        -60.5571         estimate D2E/DX2                !
 ! D48   D(18,17,20,23)         60.324          estimate D2E/DX2                !
 ! D49   D(19,17,20,21)         60.5575         estimate D2E/DX2                !
 ! D50   D(19,17,20,22)        178.791          estimate D2E/DX2                !
 ! D51   D(19,17,20,23)        -60.3279         estimate D2E/DX2                !
 ! D52   D(38,24,29,27)       -179.9676         estimate D2E/DX2                !
 ! D53   D(38,24,29,30)          0.0291         estimate D2E/DX2                !
 ! D54   D(39,24,29,27)          0.0369         estimate D2E/DX2                !
 ! D55   D(39,24,29,30)       -179.9664         estimate D2E/DX2                !
 ! D56   D(29,24,38,46)        179.9885         estimate D2E/DX2                !
 ! D57   D(39,24,38,46)         -0.0158         estimate D2E/DX2                !
 ! D58   D(26,25,27,28)          0.0174         estimate D2E/DX2                !
 ! D59   D(26,25,27,29)       -179.972          estimate D2E/DX2                !
 ! D60   D(34,25,27,28)        179.9912         estimate D2E/DX2                !
 ! D61   D(34,25,27,29)          0.0018         estimate D2E/DX2                !
 ! D62   D(26,25,34,32)        179.9609         estimate D2E/DX2                !
 ! D63   D(26,25,34,36)         -0.0657         estimate D2E/DX2                !
 ! D64   D(27,25,34,32)         -0.0126         estimate D2E/DX2                !
 ! D65   D(27,25,34,36)        179.9608         estimate D2E/DX2                !
 ! D66   D(25,27,29,24)       -179.9945         estimate D2E/DX2                !
 ! D67   D(25,27,29,30)          0.0088         estimate D2E/DX2                !
 ! D68   D(28,27,29,24)          0.0162         estimate D2E/DX2                !
 ! D69   D(28,27,29,30)       -179.9805         estimate D2E/DX2                !
 ! D70   D(24,29,30,31)         -0.0065         estimate D2E/DX2                !
 ! D71   D(24,29,30,32)        179.9949         estimate D2E/DX2                !
 ! D72   D(27,29,30,31)        179.9902         estimate D2E/DX2                !
 ! D73   D(27,29,30,32)         -0.0084         estimate D2E/DX2                !
 ! D74   D(29,30,32,33)        179.9718         estimate D2E/DX2                !
 ! D75   D(29,30,32,34)         -0.0025         estimate D2E/DX2                !
 ! D76   D(31,30,32,33)         -0.0268         estimate D2E/DX2                !
 ! D77   D(31,30,32,34)        179.9989         estimate D2E/DX2                !
 ! D78   D(30,32,34,25)          0.0129         estimate D2E/DX2                !
 ! D79   D(30,32,34,36)       -179.9593         estimate D2E/DX2                !
 ! D80   D(33,32,34,25)       -179.9608         estimate D2E/DX2                !
 ! D81   D(33,32,34,36)          0.067          estimate D2E/DX2                !
 ! D82   D(25,34,36,35)         -0.1234         estimate D2E/DX2                !
 ! D83   D(25,34,36,37)       -179.7103         estimate D2E/DX2                !
 ! D84   D(32,34,36,35)        179.8491         estimate D2E/DX2                !
 ! D85   D(32,34,36,37)          0.2622         estimate D2E/DX2                !
 ! D86   D(34,36,37,40)       -178.8912         estimate D2E/DX2                !
 ! D87   D(35,36,37,40)          1.5329         estimate D2E/DX2                !
 ! D88   D(36,37,40,41)        157.7467         estimate D2E/DX2                !
 ! D89   D(36,37,40,42)         42.963          estimate D2E/DX2                !
 ! D90   D(36,37,40,43)        -81.6282         estimate D2E/DX2                !
 ! D91   D(37,40,43,15)       -179.766          estimate D2E/DX2                !
 ! D92   D(37,40,43,44)         61.5975         estimate D2E/DX2                !
 ! D93   D(37,40,43,45)        -55.252          estimate D2E/DX2                !
 ! D94   D(41,40,43,15)        -61.1427         estimate D2E/DX2                !
 ! D95   D(41,40,43,44)       -179.7792         estimate D2E/DX2                !
 ! D96   D(41,40,43,45)         63.3713         estimate D2E/DX2                !
 ! D97   D(42,40,43,15)         55.707          estimate D2E/DX2                !
 ! D98   D(42,40,43,44)        -62.9296         estimate D2E/DX2                !
 ! D99   D(42,40,43,45)       -179.7791         estimate D2E/DX2                !
 --------------------------------------------------------------------------------
 Trust Radius=3.00D-01 FncErr=1.00D-07 GrdErr=1.00D-06 EigMax=2.50D+02 EigMin=1.00D-04
 Number of steps in this run=    232 maximum allowed number of steps=    276.
 GradGradGradGradGradGradGradGradGradGradGradGradGradGradGradGradGradGrad

 Leave Link  103 at Tue Jul 27 19:32:26 2021, MaxMem=   524288000 cpu:               0.2 elap:               0.1
 (Enter /opt/gaussian/g16_legacy/l202.exe)
                          Input orientation:                          
 ---------------------------------------------------------------------
 Center     Atomic      Atomic             Coordinates (Angstroms)
 Number     Number       Type             X           Y           Z
 ---------------------------------------------------------------------
      1          6           0        1.026300    0.293500    0.795200
      2          6           0        4.378400   -1.185400   -0.249300
      3          1           0        4.764100   -2.083600   -0.730200
      4          6           0        2.999000   -1.051400   -0.054300
      5          1           0        2.342900   -1.851800   -0.389300
      6          6           0        2.483300    0.096200    0.562500
      7          6           0        3.362600    1.104900    0.980600
      8          1           0        2.977600    2.002900    1.462000
      9          6           0        4.742000    0.970700    0.785500
     10          1           0        5.399100    1.770000    1.120800
     11          6           0        5.257900   -0.176800    0.168600
     12          8           0        7.183000   -1.365800   -0.600100
     13          6           0        6.715200   -0.373600   -0.064700
     14          8           0        7.420800    0.688600    0.396000
     15          8           0        0.319300   -0.765400    0.331200
     16          8           0        0.557000    1.286900    1.326600
     17          6           0        8.837200    0.578000    0.209400
     18          1           0        9.212600   -0.303500    0.741200
     19          1           0        9.063700    0.489600   -0.859100
     20          6           0        9.486400    1.828700    0.768800
     21          1           0        9.104900    2.720900    0.261300
     22          1           0        9.251100    1.942400    1.832200
     23          1           0       10.572800    1.791500    0.649300
     24          6           0       -9.591400   -0.235600    0.018900
     25          6           0       -6.239100   -1.634000   -0.986400
     26          1           0       -5.859500   -2.535500   -1.465400
     27          6           0       -7.616000   -1.493000   -0.786200
     28          1           0       -8.288900   -2.285000   -1.111000
     29          6           0       -8.124300   -0.341500   -0.172800
     30          6           0       -7.245200    0.668200    0.238800
     31          1           0       -7.621200    1.570200    0.717000
     32          6           0       -5.866800    0.527100    0.038400
     33          1           0       -5.206000    1.326300    0.367000
     34          6           0       -5.356200   -0.625500   -0.575500
     35          8           0       -3.434200   -1.822900   -1.341700
     36          6           0       -3.900300   -0.827200   -0.812000
     37          8           0       -3.189600    0.231600   -0.353000
     38          8           0       -9.957400    0.911900    0.616000
     39          8           0      -10.414500   -1.068800   -0.310800
     40          6           0       -1.769100    0.155400   -0.552000
     41          1           0       -1.386400    1.180900   -0.520300
     42          1           0       -1.529900   -0.217800   -1.555800
     43          6           0       -1.101800   -0.693800    0.527300
     44          1           0       -1.481600   -1.720300    0.493100
     45          1           0       -1.344200   -0.322900    1.531300
     46          1           0      -10.933700    0.844900    0.676000
 ---------------------------------------------------------------------
                    Distance matrix (angstroms):
                    1          2          3          4          5
     1  C    0.000000
     2  C    3.809816   0.000000
     3  H    4.684933   1.089400   0.000000
     4  C    2.534157   1.399545   2.153568   0.000000
     5  H    2.781868   2.146380   2.456044   1.087811   0.000000
     6  C    1.488599   2.427534   3.409494   1.401205   2.172634
     7  C    2.480129   2.791053   3.880409   2.419267   3.414453
     8  H    2.678478   3.880212   4.969588   3.410040   4.323062
     9  C    3.776919   2.419046   3.409778   2.798607   3.886173
    10  H    4.626818   3.413706   4.321997   3.886083   4.973751
    11  C    4.303516   1.401940   2.165079   2.432538   3.407947
    12  O    6.527258   2.832205   2.526507   4.231147   4.869004
    13  C    5.792066   2.480671   2.678392   3.777521   4.626818
    14  O    6.419119   3.631045   4.001434   4.773121   5.731963
    15  O    1.355144   4.121853   4.756098   2.722352   2.407144
    16  O    1.220439   4.816516   5.769782   3.652108   3.998148
    17  C    7.838001   4.816729   4.955513   6.067047   6.959763
    18  H    8.208217   5.012816   5.012278   6.308803   7.132183
    19  H    8.208225   5.012935   5.012438   6.308960   7.132462
    20  C    8.598304   6.017723   6.312940   7.145546   8.118920
    21  H    8.452284   6.153023   6.550484   7.184140   8.188865
    22  H    8.452312   6.152965   6.550400   7.184043   8.188666
    23  H    9.664417   6.931090   7.117613   8.120319   9.059999
    24  C   10.659181  14.004619  14.493331  12.617015  12.050155
    25  C    7.724985  10.652505  11.015361   9.303264   8.605503
    26  H    7.779961  10.397897  10.658593   9.092127   8.300892
    27  C    8.965587  12.010350  12.394306  10.649362   9.973262
    28  H    9.851660  12.744102  13.060106  11.404169  10.665068
    29  C    9.223542  12.531382  13.017544  11.146560  10.577814
    30  C    8.298656  11.780584  12.358586  10.391658   9.933608
    31  H    8.741586  12.349796  12.993856  10.966145  10.593265
    32  C    6.938454  10.391321  10.973720   9.005702   8.558111
    33  H    6.331792   9.927194  10.594062   8.552951   8.225461
    34  C    6.592396   9.756143  10.225970   8.382267   7.798373
    35  O    5.379735   7.914320   8.225206   6.605957   5.855150
    36  C    5.301929   8.305529   8.755402   6.944402   6.340822
    37  O    4.369898   7.700212   8.292393   6.327249   5.911889
    38  O   11.002554  14.514220  15.083363  13.121439  12.646978
    39  O   11.574584  14.793487  15.218266  13.415964  12.781647
    40  C    3.106168   6.299296   6.908515   4.943566   4.578632
    41  H    2.887757   6.237446   6.966324   4.942879   4.808545
    42  H    3.510383   6.127903   6.616439   4.843586   4.362254
    43  C    2.361216   5.556741   6.158054   4.157246   3.747943
    44  H    3.230513   5.931010   6.374733   4.563206   3.927177
    45  H    2.557550   6.054964   6.747279   4.680622   4.429554
    46  H   11.973297  15.473807  16.030422  14.080107  13.589524
                    6          7          8          9         10
     6  C    0.000000
     7  C    1.401946   0.000000
     8  H    2.165395   1.089208   0.000000
     9  C    2.432325   1.399578   2.153183   0.000000
    10  H    3.408107   2.146939   2.456486   1.087698   0.000000
    11  C    2.815687   2.427810   3.409361   1.401240   2.171786
    12  O    5.057298   4.816475   5.769383   3.652068   3.997129
    13  C    4.303844   3.810320   4.684893   2.534463   2.780746
    14  O    4.975698   4.121171   4.754552   2.721628   2.404586
    15  O    2.340673   3.630622   4.001094   4.772914   5.732023
    16  O    2.390031   2.832707   2.527903   4.231666   4.870490
    17  C    6.381916   5.553703   6.159079   4.154127   3.751273
    18  H    6.743528   6.021910   6.686872   4.648851   4.357325
    19  H    6.743691   6.022095   6.687166   4.649006   4.357605
    20  C    7.217169   6.170063   6.547927   4.821387   4.102849
    21  H    7.129191   6.008565   6.284983   4.729998   3.921212
    22  H    7.129075   6.008416   6.284704   4.729880   3.920933
    23  H    8.265687   7.250391   7.641481   5.889863   5.195185
    24  C   12.091483  13.058634  12.848081  14.404485  15.164159
    25  C    9.026236  10.176606  10.206334  11.424038  12.307526
    26  H    8.980008  10.211883  10.356693  11.390864  12.328091
    27  C   10.312149  11.419296  11.379810  12.698828  13.552736
    28  H   11.158450  12.313556  12.326412  13.564684  14.449405
    29  C   10.642059  11.634916  11.463898  12.968496  13.748243
    30  C    9.750676  10.642669  10.381873  12.003472  12.722822
    31  H   10.212613  10.996811  10.633758  12.377916  13.028092
    32  C    8.377621   9.295344   9.078989  10.644321  11.385820
    33  H    7.789525   8.593394   8.284209   9.963147  10.641110
    34  C    7.954474   9.024035   8.972854  10.313768  11.148647
    35  O    6.505823   7.756390   7.975504   8.898282   9.848859
    36  C    6.594867   7.726328   7.777278   8.970719   9.846827
    37  O    5.747892   6.743328   6.668289   8.046908   8.848985
    38  O   12.467528  13.326387  13.008467  14.700495  15.388738
    39  O   12.979720  14.007183  13.853754  15.332349  16.130041
    40  C    4.396421   5.439187   5.477282   6.696868   7.535800
    41  H    4.162164   4.981112   4.863095   6.269496   7.005944
    42  H    4.548798   5.667399   5.861415   6.799334   7.689381
    43  C    3.671278   4.834426   4.978691   6.081712   6.977410
    44  H    4.361757   5.629004   5.889435   6.786765   7.740816
    45  H    3.970387   4.949328   4.908371   6.266694   7.072541
    46  H   13.438353  14.301908  13.981525  15.676587  16.365024
                   11         12         13         14         15
    11  C    0.000000
    12  O    2.389693   0.000000
    13  C    1.488920   1.220635   0.000000
    14  O    2.340676   2.295501   1.355870   0.000000
    15  O    4.976209   6.952566   6.420108   7.249111   0.000000
    16  O    5.057850   7.392758   6.528124   6.952390   2.293307
    17  C    3.658248   2.677690   2.341700   1.432913   8.624047
    18  H    3.997946   2.654589   2.625147   2.077011   8.914720
    19  H    3.998046   2.654548   2.625193   2.077016   8.913830
    20  C    4.718314   4.169457   3.636536   2.388621   9.537115
    21  H    4.817122   4.597480   3.923375   2.642836   9.452298
    22  H    4.817076   4.597533   3.923375   2.642855   9.453160
    23  H    5.688008   4.797946   4.480907   3.348978  10.572284
    24  C   14.850171  16.823823  16.307398  17.041458   9.929763
    25  C   11.646393  13.430336  13.048066  13.924739   6.745602
    26  H   11.481725  13.123405  12.835842  13.792244   6.673724
    27  C   12.976183  14.800717  14.392947  15.240155   8.046550
    28  H   13.769447  15.507599  15.161504  16.059515   8.859471
    29  C   13.387567  15.347482  14.839928  15.589573   8.469244
    30  C   12.531818  14.594994  14.002508  14.666857   7.699702
    31  H   13.008611  15.149891  14.488678  15.071232   8.285856
    32  C   11.147707  13.201819  12.614619  13.293392   6.326462
    33  H   10.573168  12.714952  12.049524  12.642926   5.908082
    34  C   10.649607  12.561058  12.084828  12.881087   5.749172
    35  O    8.974589  10.652880  10.331579  11.276447   4.243308
    36  C    9.233484  11.098402  10.651434  11.485827   4.372156
    37  O    8.473436  10.497789   9.927459  10.646616   3.711404
    38  O   15.260760  17.333786  16.735933  17.381027  10.416574
    39  O   15.705082  17.602384  17.145568  17.935606  10.757262
    40  C    7.071658   9.080554   8.514731   9.254041   2.447311
    41  H    6.816499   8.940171   8.261959   8.868412   2.724435
    42  H    7.003532   8.840017   8.380294   9.205765   2.698180
    43  C    6.390754   8.388118   7.845921   8.634986   1.436352
    44  H    6.921600   8.740483   8.325399   9.223066   2.044819
    45  H    6.742850   8.851195   8.216064   8.895913   2.098399
    46  H   16.231735  18.295640  17.706413  18.357301  11.372861
                   16         17         18         19         20
    16  O    0.000000
    17  C    8.385248   0.000000
    18  H    8.819948   1.095800   0.000000
    19  H    8.819122   1.095814   1.792244   0.000000
    20  C    8.963195   1.516126   2.149885   2.149866   0.000000
    21  H    8.732572   2.160180   3.064131   2.497137   1.095043
    22  H    8.733424   2.160181   2.497164   3.064122   1.095040
    23  H   10.051348   2.162961   2.499523   2.499519   1.093585
    24  C   10.344956  18.447535  18.817990  18.689825  19.203805
    25  C    7.750394  15.284558  15.604803  15.449970  16.197604
    26  H    7.973549  15.115946  15.395425  15.238790  16.110076
    27  C    8.887615  16.612888  16.939588  16.797274  17.491249
    28  H    9.846335  17.413889  17.710434  17.574828  18.341687
    29  C    8.959066  16.990704  17.361018  17.221762  17.768881
    30  C    7.901925  16.082680  16.494114  16.346789  16.780170
    31  H    8.205780  16.496092  16.937773  16.793977  17.109631
    32  C    6.595602  14.705082  15.118602  14.957498  15.425576
    33  H    5.842478  14.064006  14.515244  14.346697  14.706477
    34  C    6.499322  14.265941  14.631723  14.465732  15.104073
    35  O    5.720171  12.599900  12.906921  12.719201  13.591552
    36  C    5.376853  12.855417  13.214948  13.030790  13.738867
    37  O    4.239307  12.044924  12.461869  12.266461  12.825371
    38  O   10.545055  18.801963  19.208898  19.082885  19.466002
    39  O   11.340380  19.329007  19.670166  19.548133  20.139684
    40  C    3.196900  10.641989  11.067099  10.842304  11.455598
    41  H    2.683110  10.267324  10.776531  10.478419  10.968099
    42  H    3.863613  10.546373  10.985666  10.640027  11.443373
    43  C    2.704380  10.025081  10.323998  10.327629  10.887208
    44  H    3.727447  10.575458  10.790495  10.858888  11.531194
    45  H    2.499584  10.306306  10.586343  10.709741  11.068545
    46  H   11.517588  19.778206  20.179110  20.059381  20.443996
                   21         22         23         24         25
    21  H    0.000000
    22  H    1.759308   0.000000
    23  H    1.780185   1.780144   0.000000
    24  C   18.930169  19.054436  20.275638   0.000000
    25  C   15.998758  16.145632  17.235125   3.768828   0.000000
    26  H   15.954451  16.101428  17.123533   4.628149   1.089146
    27  C   17.275494  17.411406  18.538637   2.476176   1.398504
    28  H   18.151764  18.280726  19.377312   2.678287   2.154299
    29  C   17.504630  17.639182  18.836324   1.483356   2.426207
    30  C   16.478466  16.621986  17.858092   2.523859   2.795260
    31  H   16.771827  16.913211  18.195472   2.762236   3.883126
    32  C   15.133217  15.289594  16.499465   3.801939   2.420573
    33  H   14.379080  14.544213  15.788180   4.668237   3.415020
    34  C   14.866810  15.025456  16.157817   4.294444   1.401936
    35  O   13.432973  13.607643  14.602192   6.502451   2.833617
    36  C   13.523173  13.697511  14.780515   5.781782   2.480187
    37  O   12.559009  12.746488  13.886740   6.429590   3.630580
    38  O   19.151229  19.274531  20.549061   1.344337   4.782787
    39  O   19.892112  20.009888  21.203063   1.216724   4.267300
    40  C   11.202104  11.415892  12.507695   7.852846   4.834414
    41  H   10.632491  10.921105  12.031761   8.343814   5.629352
    42  H   11.181985  11.505432  12.464955   8.213877   4.950394
    43  C   10.766042  10.762660  11.936829   8.517143   5.437565
    44  H   11.482681  11.419256  12.556500   8.258211   4.982988
    45  H   10.957249  10.838935  12.135217   8.385182   5.658431
    46  H   20.130495  20.247653  21.527339   1.844188   5.563074
                   26         27         28         29         30
    26  H    0.000000
    27  C    2.152536   0.000000
    28  H    2.467860   1.088831   0.000000
    29  C    3.407898   1.400207   2.164372   0.000000
    30  C    3.884348   2.420517   3.410669   1.400616   0.000000
    31  H    4.972246   3.412159   4.318562   2.167822   1.087959
    32  C    3.411889   2.796510   3.885305   2.428040   1.400020
    33  H    4.324147   3.884124   4.972951   3.404323   2.146594
    34  C    2.166410   2.429742   3.411954   2.811619   2.430034
    35  O    2.530846   4.231414   4.882097   5.055483   4.819469
    36  C    2.680240   3.774968   4.634047   4.299611   3.811661
    37  O    4.002829   4.770212   5.736785   4.971135   4.121740
    38  O    5.745396   3.637563   3.998324   2.356581   2.749127
    39  O    4.922635   2.870114   2.576361   2.406870   3.655638
    40  C    4.980624   6.079335   6.983969   6.385865   5.556618
    41  H    5.891814   6.784420   7.746347   6.916484   5.929977
    42  H    4.911755   6.265703   7.082037   6.738999   6.055596
    43  C    5.477081   6.693191   7.541243   7.066099   6.299178
    44  H    4.864800   6.270497   7.016506   6.816889   6.244092
    45  H    5.853524   6.787887   7.685079   6.990998   6.121653
    46  H    6.462214   4.314040   4.470415   3.165554   3.718521
                   31         32         33         34         35
    31  H    0.000000
    32  C    2.150924   0.000000
    33  H    2.452586   1.087821   0.000000
    34  C    3.409088   1.402167   2.172646   0.000000
    35  O    5.769085   3.653042   3.997048   2.390588   0.000000
    36  C    4.682997   2.534646   2.780729   1.488711   1.220348
    37  O    4.751403   2.721748   2.404711   2.340573   2.293104
    38  O    2.429278   4.149060   4.775932   4.995429   7.339200
    39  O    3.977841   4.832226   5.772728   5.084583   7.096197
    40  C    6.152974   4.156667   3.745377   3.671191   2.703674
    41  H    6.368296   4.562191   3.924001   4.361816   3.727063
    42  H    6.742885   4.680283   4.426637   3.970866   2.499709
    43  C    6.903931   4.943161   4.577222   4.395538   3.195014
    44  H    6.969377   4.948488   4.813401   4.165695   2.681355
    45  H    6.606636   4.837888   4.357632   4.541621   3.856453
    46  H    3.391224   5.116738   5.756194   5.902274   8.211624
                   36         37         38         39         40
    36  C    0.000000
    37  O    1.355298   0.000000
    38  O    6.461588   6.870581   0.000000
    39  O    6.537918   7.341117   2.234071   0.000000
    40  C    2.361168   1.436394   8.305707   8.734975   0.000000
    41  H    3.230673   2.044674   8.650178   9.306537   1.095041
    42  H    2.558008   2.098402   8.775859   9.011678   1.097319
    43  C    3.105338   2.447489   9.000433   9.357853   1.526866
    44  H    2.889814   2.728198   8.875966   8.992631   2.166366
    45  H    3.504143   2.695099   8.749270   9.285475   2.179323
    46  H    7.380974   7.836202   0.980434   2.214857   9.272178
                   41         42         43         44         45
    41  H    0.000000
    42  H    1.746200   0.000000
    43  C    2.166325   2.179255   0.000000
    44  H    3.074574   2.541226   1.095043   0.000000
    45  H    2.544063   3.094466   1.097425   1.746272   0.000000
    46  H    9.627823   9.723257   9.952686   9.795708   9.698134
                   46
    46  H    0.000000
 Stoichiometry    C20H18O8
 Framework group  C1[X(C20H18O8)]
 Deg. of freedom   132
 Full point group                 C1      NOp   1
 Largest Abelian subgroup         C1      NOp   1
 Largest concise Abelian subgroup C1      NOp   1
                         Standard orientation:                         
 ---------------------------------------------------------------------
 Center     Atomic      Atomic             Coordinates (Angstroms)
 Number     Number       Type             X           Y           Z
 ---------------------------------------------------------------------
      1          6           0        1.656213   -0.636422   -0.435757
      2          6           0        4.892909    1.362069   -0.224726
      3          1           0        5.217134    2.401929   -0.243746
      4          6           0        3.529592    1.067470   -0.340071
      5          1           0        2.823950    1.888466   -0.446681
      6          6           0        3.092566   -0.263656   -0.318022
      7          6           0        4.034057   -1.293175   -0.179683
      8          1           0        3.710539   -2.333065   -0.161190
      9          6           0        5.397360   -0.998353   -0.064348
     10          1           0        6.103959   -1.818480    0.041468
     11          6           0        5.834587    0.332747   -0.086260
     12          8           0        7.670904    1.858615    0.015211
     13          6           0        7.271242    0.705389    0.032246
     14          8           0        8.043479   -0.401922    0.158328
     15          8           0        0.882617    0.469552   -0.557355
     16          8           0        1.254965   -1.788822   -0.414661
     17          6           0        9.445160   -0.129576    0.278150
     18          1           0        9.796873    0.399142   -0.614898
     19          1           0        9.627991    0.484197    1.167343
     20          6           0       10.173773   -1.452559    0.410362
     21          1           0        9.817373   -2.002850    1.287447
     22          1           0        9.983190   -2.086366   -0.462037
     23          1           0       11.252038   -1.296666    0.505078
     24          6           0       -8.995900   -0.431339   -0.106249
     25          6           0       -5.753700    1.477946    0.110169
     26          1           0       -5.435654    2.519380    0.087823
     27          6           0       -7.113994    1.174860   -0.006248
     28          1           0       -7.835630    1.982550   -0.117755
     29          6           0       -7.543571   -0.157550    0.020739
     30          6           0       -6.602469   -1.184767    0.165230
     31          1           0       -6.916927   -2.226029    0.188547
     32          6           0       -5.240689   -0.881407    0.281784
     33          1           0       -4.530647   -1.697944    0.393418
     34          6           0       -4.808888    0.452342    0.254711
     35          8           0       -2.975978    1.984107    0.349854
     36          6           0       -3.373984    0.830730    0.373587
     37          8           0       -2.596882   -0.272486    0.499522
     38          8           0       -9.284224   -1.743772   -0.065863
     39          8           0       -9.869622    0.405598   -0.234949
     40          6           0       -1.189905   -0.023742    0.647072
     41          1           0       -0.757404   -0.908338    1.126183
     42          1           0       -1.005739    0.806818    1.340153
     43          6           0       -0.525286    0.226193   -0.704643
     44          1           0       -0.955032    1.113057   -1.182044
     45          1           0       -0.712749   -0.602656   -1.399054
     46          1           0      -10.259775   -1.773302   -0.159019
 ---------------------------------------------------------------------
 Rotational constants (GHZ):           0.9713869           0.0347338           0.0337579
 Leave Link  202 at Tue Jul 27 19:32:27 2021, MaxMem=   524288000 cpu:               0.4 elap:               0.2
 (Enter /opt/gaussian/g16_legacy/l301.exe)
 Standard basis: 6-31G(d,p) (6D, 7F)
 Ernie: Thresh=  0.10000D-02 Tol=  0.10000D-05 Strict=F.
 There are   510 symmetry adapted cartesian basis functions of A   symmetry.
 There are   510 symmetry adapted basis functions of A   symmetry.
   510 basis functions,   910 primitive gaussians,   510 cartesian basis functions
   101 alpha electrons      101 beta electrons
       nuclear repulsion energy      2253.7001755364 Hartrees.
 IExCor= 4336 DFT=T Ex+Corr=M062X ExCW=0 ScaHFX=  0.540000
 ScaDFX=  1.000000  1.000000  1.000000  1.000000 ScalE2=  1.000000  1.000000
 IRadAn=      5 IRanWt=     -1 IRanGd=            0 ICorTp=0 IEmpDi=  4
 NAtoms=   46 NActive=   46 NUniq=   46 SFac= 1.00D+00 NAtFMM=   60 NAOKFM=F Big=F
 Integral buffers will be    131072 words long.
 Raffenetti 2 integral format.
 Two-electron integral symmetry is turned on.
 Leave Link  301 at Tue Jul 27 19:32:27 2021, MaxMem=   524288000 cpu:               0.7 elap:               0.3
 (Enter /opt/gaussian/g16_legacy/l302.exe)
 NPDir=0 NMtPBC=     1 NCelOv=     1 NCel=       1 NClECP=     1 NCelD=      1
         NCelK=      1 NCelE2=     1 NClLst=     1 CellRange=     0.0.
 One-electron integrals computed using PRISM.
 One-electron integral symmetry used in STVInt
 NBasis=   510 RedAO= T EigKep=  4.17D-04  NBF=   510
 NBsUse=   510 1.00D-06 EigRej= -1.00D+00 NBFU=   510
 Precomputing XC quadrature grid using
 IXCGrd= 4 IRadAn=           5 IRanWt=          -1 IRanGd=           0 AccXCQ= 0.00D+00.
 Generated NRdTot=       0 NPtTot=           0 NUsed=           0 NTot=          32
 NSgBfM=   431   431   431   431   431 MxSgAt=    46 MxSgA2=    46.
 Leave Link  302 at Tue Jul 27 19:32:29 2021, MaxMem=   524288000 cpu:               7.7 elap:               2.3
 (Enter /opt/gaussian/g16_legacy/l303.exe)
 DipDrv:  MaxL=1.
 Leave Link  303 at Tue Jul 27 19:32:30 2021, MaxMem=   524288000 cpu:               0.4 elap:               0.2
 (Enter /opt/gaussian/g16_legacy/l401.exe)
 ExpMin= 1.61D-01 ExpMax= 5.48D+03 ExpMxC= 8.25D+02 IAcc=3 IRadAn=         5 AccDes= 0.00D+00
 Harris functional with IExCor= 1009 and IRadAn=       5 diagonalized for initial guess.
 HarFok:  IExCor= 1009 AccDes= 0.00D+00 IRadAn=         5 IDoV= 1 UseB2=F ITyADJ=14
 ICtDFT=  3500011 ScaDFX=  1.000000  1.000000  1.000000  1.000000
 FoFCou: FMM=F IPFlag=           0 FMFlag=      100000 FMFlg1=           0
         NFxFlg=           0 DoJE=T BraDBF=F KetDBF=T FulRan=T
         wScrn=  0.000000 ICntrl=       500 IOpCl=  0 I1Cent=   200000004 NGrid=           0
         NMat0=    1 NMatS0=      1 NMatT0=    0 NMatD0=    1 NMtDS0=    0 NMtDT0=    0
 Petite list used in FoFCou.
 Harris En= -1373.60323873278    
 JPrj=0 DoOrth=F DoCkMO=F.
 Leave Link  401 at Tue Jul 27 19:32:41 2021, MaxMem=   524288000 cpu:              41.0 elap:              10.6
 (Enter /opt/gaussian/g16_legacy/l502.exe)
 Integral symmetry usage will be decided dynamically.
 Closed shell SCF:
 Using DIIS extrapolation, IDIIS=  1040.
 NGot=   524288000 LenX=   523759406 LenY=   523498796
 Requested convergence on RMS density matrix=1.00D-08 within 128 cycles.
 Requested convergence on MAX density matrix=1.00D-06.
 Requested convergence on             energy=1.00D-06.
 No special actions if energy rises.
 Fock matrices will be formed incrementally for  20 cycles.
 Integral accuracy reduced to 1.0D-05 until final iterations.

 Cycle   1  Pass 0  IDiag  1:
 FoFJK:  IHMeth= 1 ICntrl=       0 DoSepK=F KAlg= 0 I1Cent=           0 FoldK=F
 IRaf= 480000000 NMat=       1 IRICut=       1 DoRegI=T DoRafI=F ISym2E= 0 IDoP0=0 IntGTp=1.
 FoFCou: FMM=F IPFlag=           0 FMFlag=      100000 FMFlg1=           0
         NFxFlg=           0 DoJE=F BraDBF=F KetDBF=F FulRan=T
         wScrn=  0.000000 ICntrl=         0 IOpCl=  0 I1Cent=           0 NGrid=           0
         NMat0=    1 NMatS0=      1 NMatT0=    0 NMatD0=    1 NMtDS0=    0 NMtDT0=    0
 Symmetry not used in FoFCou.
 E= -1373.71905278358    
 DIIS: error= 4.11D-02 at cycle   1 NSaved=   1.
 NSaved= 1 IEnMin= 1 EnMin= -1373.71905278358     IErMin= 1 ErrMin= 4.11D-02
 ErrMax= 4.11D-02  0.00D+00 EMaxC= 1.00D-01 BMatC= 7.49D-01 BMatP= 7.49D-01
 IDIUse=3 WtCom= 5.89D-01 WtEn= 4.11D-01
 Coeff-Com:  0.100D+01
 Coeff-En:   0.100D+01
 Coeff:      0.100D+01
 Gap=     0.298 Goal=   None    Shift=    0.000
 GapD=    0.298 DampG=1.000 DampE=0.500 DampFc=0.5000 IDamp=-1.
 Damping current iteration by 5.00D-01
 RMSDP=2.95D-03 MaxDP=1.56D-01              OVMax= 1.85D-01

 Cycle   2  Pass 0  IDiag  1:
 RMSU=  1.46D-03    CP:  9.85D-01
 E= -1373.98382100163     Delta-E=       -0.264768218047 Rises=F Damp=T
 DIIS: error= 1.15D-02 at cycle   2 NSaved=   2.
 NSaved= 2 IEnMin= 2 EnMin= -1373.98382100163     IErMin= 2 ErrMin= 1.15D-02
 ErrMax= 1.15D-02  0.00D+00 EMaxC= 1.00D-01 BMatC= 8.32D-02 BMatP= 7.49D-01
 IDIUse=3 WtCom= 8.85D-01 WtEn= 1.15D-01
 Coeff-Com:  0.141D-01 0.986D+00
 Coeff-En:   0.154D-01 0.985D+00
 Coeff:      0.142D-01 0.986D+00
 Gap=     0.267 Goal=   None    Shift=    0.000
 RMSDP=8.66D-04 MaxDP=3.19D-02 DE=-2.65D-01 OVMax= 1.07D-01

 Cycle   3  Pass 0  IDiag  1:
 RMSU=  8.58D-04    CP:  9.77D-01  9.63D-01
 E= -1374.26158598048     Delta-E=       -0.277764978852 Rises=F Damp=F
 DIIS: error= 8.67D-03 at cycle   3 NSaved=   3.
 NSaved= 3 IEnMin= 3 EnMin= -1374.26158598048     IErMin= 3 ErrMin= 8.67D-03
 ErrMax= 8.67D-03  0.00D+00 EMaxC= 1.00D-01 BMatC= 5.08D-02 BMatP= 8.32D-02
 IDIUse=3 WtCom= 9.13D-01 WtEn= 8.67D-02
 Coeff-Com: -0.873D-01 0.463D+00 0.624D+00
 Coeff-En:   0.000D+00 0.000D+00 0.100D+01
 Coeff:     -0.798D-01 0.423D+00 0.657D+00
 Gap=     0.279 Goal=   None    Shift=    0.000
 RMSDP=5.22D-04 MaxDP=3.34D-02 DE=-2.78D-01 OVMax= 4.65D-02

 Cycle   4  Pass 0  IDiag  1:
 RMSU=  3.07D-04    CP:  9.79D-01  1.09D+00  5.60D-01
 E= -1374.29449603658     Delta-E=       -0.032910056098 Rises=F Damp=F
 DIIS: error= 3.23D-03 at cycle   4 NSaved=   4.
 NSaved= 4 IEnMin= 4 EnMin= -1374.29449603658     IErMin= 4 ErrMin= 3.23D-03
 ErrMax= 3.23D-03  0.00D+00 EMaxC= 1.00D-01 BMatC= 9.61D-03 BMatP= 5.08D-02
 IDIUse=3 WtCom= 9.68D-01 WtEn= 3.23D-02
 Coeff-Com: -0.305D-01 0.899D-01 0.344D+00 0.597D+00
 Coeff-En:   0.000D+00 0.000D+00 0.149D+00 0.851D+00
 Coeff:     -0.295D-01 0.870D-01 0.338D+00 0.605D+00
 Gap=     0.272 Goal=   None    Shift=    0.000
 RMSDP=1.90D-04 MaxDP=8.80D-03 DE=-3.29D-02 OVMax= 1.32D-02

 Cycle   5  Pass 0  IDiag  1:
 RMSU=  8.06D-05    CP:  9.79D-01  1.06D+00  6.98D-01  6.29D-01
 E= -1374.30182183483     Delta-E=       -0.007325798247 Rises=F Damp=F
 DIIS: error= 7.51D-04 at cycle   5 NSaved=   5.
 NSaved= 5 IEnMin= 5 EnMin= -1374.30182183483     IErMin= 5 ErrMin= 7.51D-04
 ErrMax= 7.51D-04  0.00D+00 EMaxC= 1.00D-01 BMatC= 2.86D-04 BMatP= 9.61D-03
 IDIUse=3 WtCom= 9.92D-01 WtEn= 7.51D-03
 Coeff-Com: -0.709D-02 0.137D-01 0.113D+00 0.258D+00 0.622D+00
 Coeff-En:   0.000D+00 0.000D+00 0.000D+00 0.000D+00 0.100D+01
 Coeff:     -0.704D-02 0.136D-01 0.113D+00 0.256D+00 0.625D+00
 Gap=     0.273 Goal=   None    Shift=    0.000
 RMSDP=3.33D-05 MaxDP=2.02D-03 DE=-7.33D-03 OVMax= 3.31D-03

 Cycle   6  Pass 0  IDiag  1:
 RMSU=  2.52D-05    CP:  9.79D-01  1.06D+00  7.02D-01  6.61D-01  7.73D-01
 E= -1374.30205350227     Delta-E=       -0.000231667439 Rises=F Damp=F
 DIIS: error= 1.38D-04 at cycle   6 NSaved=   6.
 NSaved= 6 IEnMin= 6 EnMin= -1374.30205350227     IErMin= 6 ErrMin= 1.38D-04
 ErrMax= 1.38D-04  0.00D+00 EMaxC= 1.00D-01 BMatC= 2.52D-05 BMatP= 2.86D-04
 IDIUse=3 WtCom= 9.99D-01 WtEn= 1.38D-03
 Coeff-Com: -0.691D-03-0.642D-03 0.239D-01 0.601D-01 0.273D+00 0.645D+00
 Coeff-En:   0.000D+00 0.000D+00 0.000D+00 0.000D+00 0.000D+00 0.100D+01
 Coeff:     -0.690D-03-0.641D-03 0.239D-01 0.600D-01 0.272D+00 0.645D+00
 Gap=     0.273 Goal=   None    Shift=    0.000
 RMSDP=1.12D-05 MaxDP=6.62D-04 DE=-2.32D-04 OVMax= 1.02D-03

 Cycle   7  Pass 0  IDiag  1:
 RMSU=  8.68D-06    CP:  9.79D-01  1.06D+00  7.05D-01  6.67D-01  8.18D-01
                    CP:  8.02D-01
 E= -1374.30207541837     Delta-E=       -0.000021916109 Rises=F Damp=F
 DIIS: error= 5.14D-05 at cycle   7 NSaved=   7.
 NSaved= 7 IEnMin= 7 EnMin= -1374.30207541837     IErMin= 7 ErrMin= 5.14D-05
 ErrMax= 5.14D-05  0.00D+00 EMaxC= 1.00D-01 BMatC= 2.94D-06 BMatP= 2.52D-05
 IDIUse=1 WtCom= 1.00D+00 WtEn= 0.00D+00
 Coeff-Com:  0.104D-02-0.290D-02-0.744D-02-0.179D-01 0.242D-01 0.241D+00
 Coeff-Com:  0.762D+00
 Coeff:      0.104D-02-0.290D-02-0.744D-02-0.179D-01 0.242D-01 0.241D+00
 Coeff:      0.762D+00
 Gap=     0.273 Goal=   None    Shift=    0.000
 RMSDP=5.65D-06 MaxDP=3.75D-04 DE=-2.19D-05 OVMax= 4.73D-04

 Initial convergence to 1.0D-05 achieved.  Increase integral accuracy.
 Cycle   8  Pass 1  IDiag  1:
 E= -1374.30196914471     Delta-E=        0.000106273660 Rises=F Damp=F
 DIIS: error= 4.82D-05 at cycle   1 NSaved=   1.
 NSaved= 1 IEnMin= 1 EnMin= -1374.30196914471     IErMin= 1 ErrMin= 4.82D-05
 ErrMax= 4.82D-05  0.00D+00 EMaxC= 1.00D-01 BMatC= 1.49D-06 BMatP= 1.49D-06
 IDIUse=1 WtCom= 1.00D+00 WtEn= 0.00D+00
 Coeff-Com:  0.100D+01
 Coeff:      0.100D+01
 Gap=     0.273 Goal=   None    Shift=    0.000
 RMSDP=5.65D-06 MaxDP=3.75D-04 DE= 1.06D-04 OVMax= 3.98D-04

 Cycle   9  Pass 1  IDiag  1:
 RMSU=  1.64D-05    CP:  1.00D+00
 E= -1374.30196891560     Delta-E=        0.000000229117 Rises=F Damp=F
 DIIS: error= 5.39D-05 at cycle   2 NSaved=   2.
 NSaved= 2 IEnMin= 1 EnMin= -1374.30196914471     IErMin= 1 ErrMin= 4.82D-05
 ErrMax= 5.39D-05  0.00D+00 EMaxC= 1.00D-01 BMatC= 2.04D-06 BMatP= 1.49D-06
 IDIUse=1 WtCom= 1.00D+00 WtEn= 0.00D+00
 Coeff-Com:  0.547D+00 0.453D+00
 Coeff:      0.547D+00 0.453D+00
 Gap=     0.273 Goal=   None    Shift=    0.000
 RMSDP=2.94D-06 MaxDP=2.08D-04 DE= 2.29D-07 OVMax= 2.97D-04

 Cycle  10  Pass 1  IDiag  1:
 RMSU=  2.90D-06    CP:  1.00D+00  9.71D-01
 E= -1374.30197047018     Delta-E=       -0.000001554582 Rises=F Damp=F
 DIIS: error= 1.28D-05 at cycle   3 NSaved=   3.
 NSaved= 3 IEnMin= 3 EnMin= -1374.30197047018     IErMin= 3 ErrMin= 1.28D-05
 ErrMax= 1.28D-05  0.00D+00 EMaxC= 1.00D-01 BMatC= 1.19D-07 BMatP= 1.49D-06
 IDIUse=1 WtCom= 1.00D+00 WtEn= 0.00D+00
 Coeff-Com: -0.845D-02 0.185D+00 0.823D+00
 Coeff:     -0.845D-02 0.185D+00 0.823D+00
 Gap=     0.273 Goal=   None    Shift=    0.000
 RMSDP=7.63D-07 MaxDP=5.10D-05 DE=-1.55D-06 OVMax= 6.85D-05

 Cycle  11  Pass 1  IDiag  1:
 RMSU=  4.81D-07    CP:  1.00D+00  9.95D-01  8.48D-01
 E= -1374.30197056664     Delta-E=       -0.000000096461 Rises=F Damp=F
 DIIS: error= 4.39D-06 at cycle   4 NSaved=   4.
 NSaved= 4 IEnMin= 4 EnMin= -1374.30197056664     IErMin= 4 ErrMin= 4.39D-06
 ErrMax= 4.39D-06  0.00D+00 EMaxC= 1.00D-01 BMatC= 6.27D-09 BMatP= 1.19D-07
 IDIUse=1 WtCom= 1.00D+00 WtEn= 0.00D+00
 Coeff-Com: -0.209D-01 0.679D-01 0.348D+00 0.605D+00
 Coeff:     -0.209D-01 0.679D-01 0.348D+00 0.605D+00
 Gap=     0.273 Goal=   None    Shift=    0.000
 RMSDP=1.90D-07 MaxDP=1.49D-05 DE=-9.65D-08 OVMax= 2.27D-05

 Cycle  12  Pass 1  IDiag  1:
 RMSU=  1.86D-07    CP:  1.00D+00  9.96D-01  8.48D-01  9.53D-01
 E= -1374.30197057304     Delta-E=       -0.000000006397 Rises=F Damp=F
 DIIS: error= 8.11D-07 at cycle   5 NSaved=   5.
 NSaved= 5 IEnMin= 5 EnMin= -1374.30197057304     IErMin= 5 ErrMin= 8.11D-07
 ErrMax= 8.11D-07  0.00D+00 EMaxC= 1.00D-01 BMatC= 6.95D-10 BMatP= 6.27D-09
 IDIUse=1 WtCom= 1.00D+00 WtEn= 0.00D+00
 Coeff-Com: -0.427D-02-0.113D-01-0.506D-01 0.172D+00 0.895D+00
 Coeff:     -0.427D-02-0.113D-01-0.506D-01 0.172D+00 0.895D+00
 Gap=     0.273 Goal=   None    Shift=    0.000
 RMSDP=1.04D-07 MaxDP=6.69D-06 DE=-6.40D-09 OVMax= 1.06D-05

 Cycle  13  Pass 1  IDiag  1:
 RMSU=  6.59D-08    CP:  1.00D+00  9.97D-01  8.47D-01  1.11D+00  1.12D+00
 E= -1374.30197057411     Delta-E=       -0.000000001068 Rises=F Damp=F
 DIIS: error= 4.12D-07 at cycle   6 NSaved=   6.
 NSaved= 6 IEnMin= 6 EnMin= -1374.30197057411     IErMin= 6 ErrMin= 4.12D-07
 ErrMax= 4.12D-07  0.00D+00 EMaxC= 1.00D-01 BMatC= 1.56D-10 BMatP= 6.95D-10
 IDIUse=1 WtCom= 1.00D+00 WtEn= 0.00D+00
 Coeff-Com:  0.212D-02-0.183D-01-0.932D-01-0.324D-01 0.404D+00 0.738D+00
 Coeff:      0.212D-02-0.183D-01-0.932D-01-0.324D-01 0.404D+00 0.738D+00
 Gap=     0.273 Goal=   None    Shift=    0.000
 RMSDP=4.67D-08 MaxDP=2.26D-06 DE=-1.07D-09 OVMax= 5.38D-06

 Cycle  14  Pass 1  IDiag  1:
 RMSU=  2.10D-08    CP:  1.00D+00  9.97D-01  8.46D-01  1.17D+00  1.27D+00
                    CP:  8.39D-01
 E= -1374.30197057440     Delta-E=       -0.000000000291 Rises=F Damp=F
 DIIS: error= 1.59D-07 at cycle   7 NSaved=   7.
 NSaved= 7 IEnMin= 7 EnMin= -1374.30197057440     IErMin= 7 ErrMin= 1.59D-07
 ErrMax= 1.59D-07  0.00D+00 EMaxC= 1.00D-01 BMatC= 1.67D-11 BMatP= 1.56D-10
 IDIUse=1 WtCom= 1.00D+00 WtEn= 0.00D+00
 Coeff-Com:  0.127D-02-0.808D-02-0.421D-01-0.224D-01 0.154D+00 0.369D+00
 Coeff-Com:  0.548D+00
 Coeff:      0.127D-02-0.808D-02-0.421D-01-0.224D-01 0.154D+00 0.369D+00
 Coeff:      0.548D+00
 Gap=     0.273 Goal=   None    Shift=    0.000
 RMSDP=8.65D-09 MaxDP=6.96D-07 DE=-2.91D-10 OVMax= 9.45D-07

 SCF Done:  E(RM062X) =  -1374.30197057     A.U. after   14 cycles
            NFock= 14  Conv=0.86D-08     -V/T= 2.0087
 KE= 1.362402380040D+03 PE=-7.714229879227D+03 EE= 2.723825353076D+03
 Leave Link  502 at Tue Jul 27 19:38:47 2021, MaxMem=   524288000 cpu:            1461.1 elap:             366.1
 (Enter /opt/gaussian/g16_legacy/l601.exe)
 Copying SCF densities to generalized density rwf, IOpCl= 0 IROHF=0.

 **********************************************************************

            Population analysis using the SCF density.

 **********************************************************************

 Orbital symmetries:
       Occupied  (A) (A) (A) (A) (A) (A) (A) (A) (A) (A) (A) (A)
                 (A) (A) (A) (A) (A) (A) (A) (A) (A) (A) (A) (A)
                 (A) (A) (A) (A) (A) (A) (A) (A) (A) (A) (A) (A)
                 (A) (A) (A) (A) (A) (A) (A) (A) (A) (A) (A) (A)
                 (A) (A) (A) (A) (A) (A) (A) (A) (A) (A) (A) (A)
                 (A) (A) (A) (A) (A) (A) (A) (A) (A) (A) (A) (A)
                 (A) (A) (A) (A) (A) (A) (A) (A) (A) (A) (A) (A)
                 (A) (A) (A) (A) (A) (A) (A) (A) (A) (A) (A) (A)
                 (A) (A) (A) (A) (A)
       Virtual   (A) (A) (A) (A) (A) (A) (A) (A) (A) (A) (A) (A)
                 (A) (A) (A) (A) (A) (A) (A) (A) (A) (A) (A) (A)
                 (A) (A) (A) (A) (A) (A) (A) (A) (A) (A) (A) (A)
                 (A) (A) (A) (A) (A) (A) (A) (A) (A) (A) (A) (A)
                 (A) (A) (A) (A) (A) (A) (A) (A) (A) (A) (A) (A)
                 (A) (A) (A) (A) (A) (A) (A) (A) (A) (A) (A) (A)
                 (A) (A) (A) (A) (A) (A) (A) (A) (A) (A) (A) (A)
                 (A) (A) (A) (A) (A) (A) (A) (A) (A) (A) (A) (A)
                 (A) (A) (A) (A) (A) (A) (A) (A) (A) (A) (A) (A)
                 (A) (A) (A) (A) (A) (A) (A) (A) (A) (A) (A) (A)
                 (A) (A) (A) (A) (A) (A) (A) (A) (A) (A) (A) (A)
                 (A) (A) (A) (A) (A) (A) (A) (A) (A) (A) (A) (A)
                 (A) (A) (A) (A) (A) (A) (A) (A) (A) (A) (A) (A)
                 (A) (A) (A) (A) (A) (A) (A) (A) (A) (A) (A) (A)
                 (A) (A) (A) (A) (A) (A) (A) (A) (A) (A) (A) (A)
                 (A) (A) (A) (A) (A) (A) (A) (A) (A) (A) (A) (A)
                 (A) (A) (A) (A) (A) (A) (A) (A) (A) (A) (A) (A)
                 (A) (A) (A) (A) (A) (A) (A) (A) (A) (A) (A) (A)
                 (A) (A) (A) (A) (A) (A) (A) (A) (A) (A) (A) (A)
                 (A) (A) (A) (A) (A) (A) (A) (A) (A) (A) (A) (A)
                 (A) (A) (A) (A) (A) (A) (A) (A) (A) (A) (A) (A)
                 (A) (A) (A) (A) (A) (A) (A) (A) (A) (A) (A) (A)
                 (A) (A) (A) (A) (A) (A) (A) (A) (A) (A) (A) (A)
                 (A) (A) (A) (A) (A) (A) (A) (A) (A) (A) (A) (A)
                 (A) (A) (A) (A) (A) (A) (A) (A) (A) (A) (A) (A)
                 (A) (A) (A) (A) (A) (A) (A) (A) (A) (A) (A) (A)
                 (A) (A) (A) (A) (A) (A) (A) (A) (A) (A) (A) (A)
                 (A) (A) (A) (A) (A) (A) (A) (A) (A) (A) (A) (A)
                 (A) (A) (A) (A) (A) (A) (A) (A) (A) (A) (A) (A)
                 (A) (A) (A) (A) (A) (A) (A) (A) (A) (A) (A) (A)
                 (A) (A) (A) (A) (A) (A) (A) (A) (A) (A) (A) (A)
                 (A) (A) (A) (A) (A) (A) (A) (A) (A) (A) (A) (A)
                 (A) (A) (A) (A) (A) (A) (A) (A) (A) (A) (A) (A)
                 (A) (A) (A) (A) (A) (A) (A) (A) (A) (A) (A) (A)
                 (A)
 The electronic state is 1-A.
 Alpha  occ. eigenvalues --  -19.70610 -19.70480 -19.69635 -19.69441 -19.64801
 Alpha  occ. eigenvalues --  -19.64622 -19.64028 -19.63985 -10.70077 -10.69891
 Alpha  occ. eigenvalues --  -10.69626 -10.69168 -10.61963 -10.61912 -10.61040
 Alpha  occ. eigenvalues --  -10.58592 -10.58547 -10.58210 -10.58066 -10.57782
 Alpha  occ. eigenvalues --  -10.57707 -10.57519 -10.57445 -10.57314 -10.57272
 Alpha  occ. eigenvalues --  -10.57187 -10.57081 -10.54933  -1.24470  -1.24240
 Alpha  occ. eigenvalues --   -1.23983  -1.23348  -1.15126  -1.14840  -1.14202
 Alpha  occ. eigenvalues --   -1.13906  -0.98423  -0.98010  -0.90960  -0.89810
 Alpha  occ. eigenvalues --   -0.87912  -0.86381  -0.85990  -0.85524  -0.80397
 Alpha  occ. eigenvalues --   -0.77112  -0.75401  -0.72090  -0.71001  -0.69979
 Alpha  occ. eigenvalues --   -0.69184  -0.67066  -0.66024  -0.65271  -0.63440
 Alpha  occ. eigenvalues --   -0.62700  -0.60622  -0.59568  -0.58525  -0.58184
 Alpha  occ. eigenvalues --   -0.58009  -0.57597  -0.56424  -0.55834  -0.54151
 Alpha  occ. eigenvalues --   -0.53943  -0.53334  -0.52996  -0.52877  -0.52250
 Alpha  occ. eigenvalues --   -0.51697  -0.50589  -0.50411  -0.50061  -0.49774
 Alpha  occ. eigenvalues --   -0.48607  -0.48335  -0.47271  -0.46535  -0.45970
 Alpha  occ. eigenvalues --   -0.44765  -0.44574  -0.44370  -0.44137  -0.42607
 Alpha  occ. eigenvalues --   -0.42536  -0.42051  -0.41496  -0.41096  -0.40320
 Alpha  occ. eigenvalues --   -0.39700  -0.37521  -0.37237  -0.36736  -0.36232
 Alpha  occ. eigenvalues --   -0.35985  -0.35688  -0.32764  -0.32317  -0.32277
 Alpha  occ. eigenvalues --   -0.31871
 Alpha virt. eigenvalues --   -0.04586  -0.04203   0.01401   0.01768   0.04810
 Alpha virt. eigenvalues --    0.05002   0.11628   0.12157   0.12620   0.12708
 Alpha virt. eigenvalues --    0.13509   0.14519   0.15320   0.16376   0.17173
 Alpha virt. eigenvalues --    0.17633   0.18628   0.18755   0.19263   0.19373
 Alpha virt. eigenvalues --    0.19725   0.20865   0.21317   0.21573   0.21966
 Alpha virt. eigenvalues --    0.22225   0.22591   0.23043   0.23708   0.24125
 Alpha virt. eigenvalues --    0.24788   0.26280   0.27297   0.28351   0.28642
 Alpha virt. eigenvalues --    0.29249   0.29583   0.30758   0.31359   0.32015
 Alpha virt. eigenvalues --    0.32228   0.32794   0.33350   0.33509   0.33836
 Alpha virt. eigenvalues --    0.37185   0.38180   0.38458   0.38516   0.44288
 Alpha virt. eigenvalues --    0.44956   0.48013   0.48672   0.51061   0.51270
 Alpha virt. eigenvalues --    0.52932   0.54161   0.54539   0.54878   0.55989
 Alpha virt. eigenvalues --    0.55997   0.56349   0.57111   0.57718   0.57993
 Alpha virt. eigenvalues --    0.58122   0.58309   0.58870   0.59155   0.59629
 Alpha virt. eigenvalues --    0.60541   0.61288   0.62002   0.62486   0.62684
 Alpha virt. eigenvalues --    0.62897   0.63092   0.63381   0.63426   0.64599
 Alpha virt. eigenvalues --    0.64956   0.65306   0.65680   0.65894   0.67344
 Alpha virt. eigenvalues --    0.69013   0.69167   0.69433   0.70344   0.70829
 Alpha virt. eigenvalues --    0.71642   0.72020   0.74426   0.75055   0.75380
 Alpha virt. eigenvalues --    0.75826   0.77051   0.77419   0.78661   0.78965
 Alpha virt. eigenvalues --    0.79621   0.79988   0.82244   0.82670   0.82932
 Alpha virt. eigenvalues --    0.83174   0.83774   0.84457   0.85293   0.85891
 Alpha virt. eigenvalues --    0.86243   0.86886   0.87287   0.87337   0.87639
 Alpha virt. eigenvalues --    0.88362   0.89113   0.89727   0.90777   0.91462
 Alpha virt. eigenvalues --    0.92469   0.93819   0.94164   0.94314   0.94700
 Alpha virt. eigenvalues --    0.94884   0.95394   0.97594   0.98542   0.99478
 Alpha virt. eigenvalues --    0.99720   0.99779   1.00065   1.00658   1.01529
 Alpha virt. eigenvalues --    1.02227   1.02654   1.03588   1.04830   1.05952
 Alpha virt. eigenvalues --    1.06927   1.07286   1.07840   1.09732   1.10322
 Alpha virt. eigenvalues --    1.10703   1.12104   1.12454   1.13031   1.15630
 Alpha virt. eigenvalues --    1.16726   1.16865   1.18535   1.18778   1.21209
 Alpha virt. eigenvalues --    1.21986   1.22495   1.26055   1.27368   1.28057
 Alpha virt. eigenvalues --    1.28227   1.28756   1.29556   1.31314   1.32071
 Alpha virt. eigenvalues --    1.32239   1.32499   1.33242   1.34091   1.34494
 Alpha virt. eigenvalues --    1.34872   1.35402   1.35755   1.35953   1.38068
 Alpha virt. eigenvalues --    1.39218   1.40720   1.41750   1.42449   1.42766
 Alpha virt. eigenvalues --    1.43543   1.44239   1.44446   1.44783   1.45696
 Alpha virt. eigenvalues --    1.46175   1.46907   1.47587   1.47868   1.48761
 Alpha virt. eigenvalues --    1.50300   1.50980   1.51826   1.53896   1.56940
 Alpha virt. eigenvalues --    1.57723   1.60651   1.61164   1.61758   1.64733
 Alpha virt. eigenvalues --    1.66471   1.68949   1.69744   1.70181   1.71699
 Alpha virt. eigenvalues --    1.71798   1.72396   1.74284   1.77287   1.77361
 Alpha virt. eigenvalues --    1.78010   1.78601   1.79160   1.79409   1.79634
 Alpha virt. eigenvalues --    1.79985   1.81801   1.83056   1.86060   1.86479
 Alpha virt. eigenvalues --    1.87775   1.88664   1.89540   1.89941   1.90281
 Alpha virt. eigenvalues --    1.90347   1.90679   1.91072   1.92512   1.92919
 Alpha virt. eigenvalues --    1.92969   1.93246   1.93657   1.94676   1.95369
 Alpha virt. eigenvalues --    1.95797   1.96124   1.97706   1.98491   1.98864
 Alpha virt. eigenvalues --    1.99394   1.99710   1.99970   2.00331   2.00747
 Alpha virt. eigenvalues --    2.01872   2.02355   2.04414   2.05056   2.06107
 Alpha virt. eigenvalues --    2.07135   2.07805   2.08410   2.08804   2.09978
 Alpha virt. eigenvalues --    2.10616   2.11461   2.11532   2.12392   2.12552
 Alpha virt. eigenvalues --    2.12963   2.13058   2.13124   2.14471   2.15213
 Alpha virt. eigenvalues --    2.15635   2.17635   2.21668   2.22646   2.26431
 Alpha virt. eigenvalues --    2.26825   2.27765   2.29021   2.29643   2.30678
 Alpha virt. eigenvalues --    2.31174   2.32056   2.33120   2.33799   2.34544
 Alpha virt. eigenvalues --    2.35301   2.35600   2.37232   2.39682   2.39898
 Alpha virt. eigenvalues --    2.40140   2.40875   2.41737   2.42032   2.42236
 Alpha virt. eigenvalues --    2.42961   2.43283   2.43798   2.44860   2.45824
 Alpha virt. eigenvalues --    2.46076   2.46614   2.49964   2.51280   2.52769
 Alpha virt. eigenvalues --    2.52927   2.53064   2.55782   2.56492   2.57483
 Alpha virt. eigenvalues --    2.58454   2.59542   2.59742   2.59770   2.60573
 Alpha virt. eigenvalues --    2.61696   2.62130   2.62224   2.62956   2.63137
 Alpha virt. eigenvalues --    2.64591   2.66109   2.67505   2.68965   2.69196
 Alpha virt. eigenvalues --    2.70442   2.70682   2.71046   2.71896   2.72367
 Alpha virt. eigenvalues --    2.74119   2.75093   2.76117   2.76871   2.77296
 Alpha virt. eigenvalues --    2.78486   2.78814   2.79090   2.79675   2.80709
 Alpha virt. eigenvalues --    2.83324   2.83886   2.84389   2.87309   2.87625
 Alpha virt. eigenvalues --    2.88539   2.89604   2.92099   2.93001   2.93824
 Alpha virt. eigenvalues --    2.94982   2.98600   2.99666   2.99990   3.00955
 Alpha virt. eigenvalues --    3.01862   3.04490   3.04745   3.12855   3.14417
 Alpha virt. eigenvalues --    3.15270   3.16370   3.17106   3.18960   3.19928
 Alpha virt. eigenvalues --    3.21787   3.21913   3.23135   3.23673   3.24952
 Alpha virt. eigenvalues --    3.28322   3.33711   3.35392   3.35484   3.36115
 Alpha virt. eigenvalues --    3.38084   3.39803   3.40984   3.44495   3.45113
 Alpha virt. eigenvalues --    3.49217   3.49602   3.50362   3.52966   3.80657
 Alpha virt. eigenvalues --    3.80799   3.95813   3.99222   4.02876   4.04792
 Alpha virt. eigenvalues --    4.11362   4.12465   4.16298   4.16575   4.16736
 Alpha virt. eigenvalues --    4.18073   4.26725   4.29965   4.35031   4.38393
 Alpha virt. eigenvalues --    4.40630   4.42448   4.42673   4.43096   4.45952
 Alpha virt. eigenvalues --    4.51389   4.52228   4.58075   4.59587   4.60277
 Alpha virt. eigenvalues --    4.64616   4.68832   4.85007   4.85346
          Condensed to atoms (all electrons):
               1          2          3          4          5          6
     1  C    4.309486   0.003978  -0.000127  -0.040931  -0.007919   0.350172
     2  C    0.003978   4.916753   0.375917   0.491567  -0.033403  -0.030834
     3  H   -0.000127   0.375917   0.523445  -0.031932  -0.003957   0.002901
     4  C   -0.040931   0.491567  -0.031932   4.932368   0.377020   0.517323
     5  H   -0.007919  -0.033403  -0.003957   0.377020   0.529562  -0.033461
     6  C    0.350172  -0.030834   0.002901   0.517323  -0.033461   4.977123
[...]
    45  H    0.000000  -0.000000  -0.000000   0.000000   0.000000  -0.000000
    46  H    0.000000   0.000000   0.000000   0.000000   0.000000  -0.015075
              25         26         27         28         29         30
     1  C    0.000000   0.000000  -0.000000   0.000000   0.000000  -0.000000
     2  C   -0.000000  -0.000000   0.000000   0.000000  -0.000000   0.000000
     3  H    0.000000   0.000000   0.000000   0.000000   0.000000  -0.000000
     4  C    0.000000  -0.000000   0.000000   0.000000  -0.000000   0.000000
     5  H   -0.000000  -0.000000  -0.000000   0.000000  -0.000000   0.000000
     6  C   -0.000000   0.000000  -0.000000  -0.000000   0.000000  -0.000000
     7  C    0.000000   0.000000   0.000000   0.000000  -0.000000  -0.000000
     8  H    0.000000   0.000000  -0.000000   0.000000  -0.000000  -0.000000
     9  C    0.000000  -0.000000   0.000000   0.000000   0.000000   0.000000
    10  H    0.000000   0.000000   0.000000   0.000000   0.000000   0.000000
    11  C   -0.000000  -0.000000   0.000000   0.000000   0.000000  -0.000000
    12  O    0.000000   0.000000   0.000000   0.000000   0.000000   0.000000
    13  C    0.000000   0.000000   0.000000   0.000000   0.000000   0.000000
    14  O    0.000000   0.000000   0.000000   0.000000   0.000000   0.000000
    15  O   -0.000000  -0.000000   0.000000  -0.000000   0.000000  -0.000000
    16  O   -0.000000   0.000000  -0.000000  -0.000000   0.000000   0.000000
    17  C    0.000000   0.000000   0.000000   0.000000   0.000000   0.000000
    18  H    0.000000   0.000000   0.000000   0.000000   0.000000   0.000000
    19  H    0.000000   0.000000   0.000000   0.000000   0.000000   0.000000
    20  C    0.000000   0.000000   0.000000   0.000000   0.000000   0.000000
    21  H    0.000000   0.000000   0.000000   0.000000   0.000000   0.000000
    22  H    0.000000   0.000000   0.000000   0.000000   0.000000   0.000000
    23  H    0.000000   0.000000   0.000000   0.000000   0.000000   0.000000
    24  C    0.006653  -0.000130  -0.042438  -0.008059   0.307556  -0.036803
    25  C    4.920690   0.376860   0.483330  -0.031109  -0.036120  -0.042651
    26  H    0.376860   0.520906  -0.031310  -0.003272   0.002941   0.000501
    27  C    0.483330  -0.031310   4.923230   0.376962   0.534229  -0.058544
    28  H   -0.031109  -0.003272   0.376962   0.519720  -0.037541   0.004247
    29  C   -0.036120   0.002941   0.534229  -0.037541   5.005794   0.523644
    30  C   -0.042651   0.000501  -0.058544   0.004247   0.523644   4.919383
    31  H    0.000511   0.000015   0.004288  -0.000137  -0.032627   0.376067
    32  C   -0.058464   0.004334  -0.042510   0.000528  -0.033883   0.496548
    33  H    0.004341  -0.000136   0.000470   0.000015   0.002905  -0.032328
    34  C    0.530277  -0.038220  -0.034074   0.002880  -0.027994  -0.032262
    35  O    0.002486   0.010414   0.000789   0.000001  -0.000013  -0.000066
    36  C   -0.039540  -0.007779   0.005949  -0.000138   0.000501   0.004330
    37  O    0.004126   0.000276  -0.000051   0.000000  -0.000003   0.000356
    38  O   -0.000047   0.000000   0.004080   0.000268  -0.104164   0.000696
    39  O    0.000866   0.000001   0.002864   0.009893  -0.100397   0.003722
    40  C   -0.000159  -0.000012   0.000001  -0.000000   0.000000   0.000004
    41  H    0.000002   0.000000  -0.000000   0.000000   0.000000  -0.000001
    42  H   -0.000021  -0.000006   0.000000  -0.000000  -0.000000   0.000001
    43  C    0.000014   0.000001   0.000000   0.000000  -0.000000   0.000000
    44  H   -0.000003   0.000000  -0.000000  -0.000000   0.000000   0.000000
    45  H   -0.000003  -0.000000   0.000000   0.000000   0.000000   0.000000
    46  H    0.000001  -0.000000  -0.000225  -0.000018   0.011438  -0.000560
              31         32         33         34         35         36
     1  C    0.000000  -0.000000   0.000000   0.000000  -0.000002   0.000026
     2  C   -0.000000   0.000000   0.000000  -0.000000   0.000000  -0.000000
     3  H    0.000000  -0.000000  -0.000000  -0.000000  -0.000000   0.000000
     4  C   -0.000000   0.000000   0.000000  -0.000000  -0.000000  -0.000000
     5  H   -0.000000   0.000000   0.000000  -0.000000   0.000000   0.000000
     6  C   -0.000000  -0.000000  -0.000000   0.000000   0.000000   0.000000
     7  C    0.000000   0.000000  -0.000000  -0.000000  -0.000000   0.000000
     8  H    0.000000  -0.000000  -0.000000   0.000000   0.000000   0.000000
     9  C    0.000000   0.000000  -0.000000  -0.000000  -0.000000  -0.000000
    10  H    0.000000   0.000000   0.000000  -0.000000  -0.000000   0.000000
    11  C    0.000000  -0.000000  -0.000000   0.000000   0.000000   0.000000
    12  O    0.000000   0.000000   0.000000   0.000000   0.000000   0.000000
    13  C    0.000000   0.000000  -0.000000   0.000000   0.000000   0.000000
    14  O    0.000000   0.000000   0.000000   0.000000   0.000000   0.000000
    15  O   -0.000000  -0.000000  -0.000000   0.000000   0.000010   0.000008
    16  O   -0.000000  -0.000000   0.000000   0.000000  -0.000000  -0.000002
    17  C    0.000000   0.000000   0.000000   0.000000   0.000000   0.000000
    18  H    0.000000   0.000000   0.000000   0.000000   0.000000   0.000000
    19  H    0.000000   0.000000   0.000000   0.000000   0.000000   0.000000
    20  C    0.000000   0.000000   0.000000   0.000000   0.000000   0.000000
    21  H    0.000000   0.000000   0.000000   0.000000   0.000000   0.000000
    22  H    0.000000   0.000000   0.000000   0.000000   0.000000   0.000000
    23  H    0.000000   0.000000   0.000000   0.000000   0.000000   0.000000
    24  C   -0.008657   0.004268  -0.000113   0.000247  -0.000000   0.000003
    25  C    0.000511  -0.058464   0.004341   0.530277   0.002486  -0.039540
    26  H    0.000015   0.004334  -0.000136  -0.038220   0.010414  -0.007779
    27  C    0.004288  -0.042510   0.000470  -0.034074   0.000789   0.005949
    28  H   -0.000137   0.000528   0.000015   0.002880   0.000001  -0.000138
    29  C   -0.032627  -0.033883   0.002905  -0.027994  -0.000013   0.000501
    30  C    0.376067   0.496548  -0.032328  -0.032262  -0.000066   0.004330
    31  H    0.527612  -0.031963  -0.003728   0.002840   0.000000  -0.000128
    32  C   -0.031963   4.916032   0.376081   0.525809   0.003728  -0.040662
    33  H   -0.003728   0.376081   0.527285  -0.033446   0.000117  -0.008784
    34  C    0.002840   0.525809  -0.033446   4.972144  -0.090700   0.349562
    35  O    0.000000   0.003728   0.000117  -0.090700   8.091766   0.554055
    36  C   -0.000128  -0.040662  -0.008784   0.349562   0.554055   4.304512
    37  O   -0.000001   0.001338   0.008099  -0.099043  -0.093613   0.262669
    38  O    0.006250   0.000296  -0.000001  -0.000005  -0.000000  -0.000000
    39  O    0.000105  -0.000063   0.000000  -0.000019  -0.000000  -0.000000
    40  C   -0.000000  -0.000195  -0.000220   0.006915  -0.001053  -0.027008
    41  H   -0.000000  -0.000052  -0.000015   0.000063   0.000334   0.003545
    42  H   -0.000000   0.000063   0.000020   0.000017   0.011862  -0.006593
    43  C    0.000000   0.000018   0.000011  -0.000526  -0.005288  -0.003750
    44  H   -0.000000  -0.000022  -0.000002   0.000290   0.005889   0.004858
    45  H   -0.000000   0.000013   0.000010  -0.000060   0.000240   0.000480
    46  H   -0.000194   0.000005  -0.000000   0.000001   0.000000   0.000000
              37         38         39         40         41         42
     1  C    0.000003  -0.000000   0.000000  -0.003789   0.004968   0.000450
     2  C   -0.000000   0.000000   0.000000   0.000000   0.000000   0.000000
     3  H   -0.000000   0.000000   0.000000   0.000000  -0.000000  -0.000000
     4  C   -0.000000   0.000000   0.000000   0.000018  -0.000022   0.000011
     5  H   -0.000000   0.000000   0.000000   0.000011  -0.000002   0.000008
     6  C    0.000000   0.000000   0.000000  -0.000517   0.000291  -0.000056
     7  C   -0.000000   0.000000   0.000000   0.000014  -0.000003  -0.000003
     8  H   -0.000000   0.000000   0.000000   0.000001   0.000000  -0.000000
     9  C    0.000000   0.000000   0.000000   0.000000  -0.000000   0.000000
    10  H   -0.000000   0.000000   0.000000   0.000000  -0.000000   0.000000
    11  C    0.000000   0.000000   0.000000  -0.000000   0.000000  -0.000000
    12  O    0.000000   0.000000   0.000000  -0.000000  -0.000000   0.000000
    13  C   -0.000000   0.000000   0.000000  -0.000000   0.000000  -0.000000
    14  O    0.000000   0.000000   0.000000  -0.000000  -0.000000  -0.000000
    15  O    0.001288   0.000000   0.000000  -0.031326  -0.002444   0.003186
    16  O    0.000007   0.000000   0.000000  -0.005309   0.005968   0.000246
    17  C    0.000000   0.000000   0.000000   0.000000  -0.000000  -0.000000
    18  H    0.000000   0.000000   0.000000  -0.000000  -0.000000  -0.000000
    19  H    0.000000   0.000000   0.000000   0.000000   0.000000   0.000000
    20  C    0.000000   0.000000   0.000000   0.000000   0.000000  -0.000000
    21  H    0.000000   0.000000   0.000000  -0.000000  -0.000000  -0.000000
    22  H    0.000000   0.000000   0.000000   0.000000   0.000000   0.000000
    23  H    0.000000   0.000000   0.000000   0.000000  -0.000000   0.000000
    24  C   -0.000000   0.280510   0.595474   0.000000   0.000000  -0.000000
    25  C    0.004126  -0.000047   0.000866  -0.000159   0.000002  -0.000021
    26  H    0.000276   0.000000   0.000001  -0.000012   0.000000  -0.000006
    27  C   -0.000051   0.004080   0.002864   0.000001  -0.000000   0.000000
    28  H    0.000000   0.000268   0.009893  -0.000000   0.000000  -0.000000
    29  C   -0.000003  -0.104164  -0.100397   0.000000   0.000000  -0.000000
    30  C    0.000356   0.000696   0.003722   0.000004  -0.000001   0.000001
    31  H   -0.000001   0.006250   0.000105  -0.000000  -0.000000  -0.000000
    32  C    0.001338   0.000296  -0.000063  -0.000195  -0.000052   0.000063
    33  H    0.008099  -0.000001   0.000000  -0.000220  -0.000015   0.000020
    34  C   -0.099043  -0.000005  -0.000019   0.006915   0.000063   0.000017
    35  O   -0.093613  -0.000000  -0.000000  -0.001053   0.000334   0.011862
    36  C    0.262669  -0.000000  -0.000000  -0.027008   0.003545  -0.006593
    37  O    8.347212   0.000000  -0.000000   0.176903  -0.029044  -0.030552
    38  O    0.000000   8.160122  -0.097108  -0.000000  -0.000000   0.000000
    39  O   -0.000000  -0.097108   8.056627   0.000000  -0.000000  -0.000000
    40  C    0.176903  -0.000000   0.000000   4.851993   0.400867   0.383263
    41  H   -0.029044  -0.000000  -0.000000   0.400867   0.519505  -0.029521
    42  H   -0.030552   0.000000  -0.000000   0.383263  -0.029521   0.554117
    43  C   -0.031383  -0.000000  -0.000000   0.338803  -0.039404  -0.044385
    44  H   -0.002299  -0.000000  -0.000000  -0.039318   0.003799  -0.005921
    45  H    0.003240   0.000000  -0.000000  -0.044884  -0.005862   0.005235
    46  H   -0.000000   0.284693   0.006450  -0.000000  -0.000000   0.000000
              43         44         45         46
     1  C   -0.026943   0.003573  -0.006736  -0.000000
     2  C    0.000003  -0.000001   0.000001   0.000000
     3  H   -0.000000  -0.000000  -0.000000   0.000000
     4  C   -0.000200  -0.000051   0.000062   0.000000
     5  H   -0.000218  -0.000012   0.000019   0.000000
     6  C    0.006908   0.000064   0.000014   0.000000
     7  C   -0.000160   0.000002  -0.000021   0.000000
     8  H   -0.000013   0.000000  -0.000006   0.000000
     9  C    0.000001  -0.000000   0.000000   0.000000
    10  H   -0.000000   0.000000  -0.000000   0.000000
    11  C    0.000000   0.000000  -0.000000   0.000000
    12  O    0.000000   0.000000   0.000000   0.000000
    13  C    0.000000   0.000000  -0.000000   0.000000
    14  O    0.000000  -0.000000   0.000000   0.000000
    15  O    0.177738  -0.029038  -0.030550  -0.000000
    16  O   -0.001339   0.000337   0.012108   0.000000
    17  C   -0.000000  -0.000000   0.000000   0.000000
    18  H    0.000000  -0.000000   0.000000   0.000000
    19  H    0.000000  -0.000000   0.000000   0.000000
    20  C   -0.000000   0.000000  -0.000000   0.000000
    21  H    0.000000  -0.000000  -0.000000   0.000000
    22  H   -0.000000   0.000000   0.000000   0.000000
    23  H   -0.000000  -0.000000   0.000000   0.000000
    24  C   -0.000000   0.000000  -0.000000  -0.015075
    25  C    0.000014  -0.000003  -0.000003   0.000001
    26  H    0.000001   0.000000  -0.000000  -0.000000
    27  C    0.000000  -0.000000   0.000000  -0.000225
    28  H    0.000000  -0.000000   0.000000  -0.000018
    29  C   -0.000000   0.000000   0.000000   0.011438
    30  C    0.000000   0.000000   0.000000  -0.000560
    31  H    0.000000  -0.000000  -0.000000  -0.000194
    32  C    0.000018  -0.000022   0.000013   0.000005
    33  H    0.000011  -0.000002   0.000010  -0.000000
    34  C   -0.000526   0.000290  -0.000060   0.000001
    35  O   -0.005288   0.005889   0.000240   0.000000
    36  C   -0.003750   0.004858   0.000480   0.000000
    37  O   -0.031383  -0.002299   0.003240  -0.000000
    38  O   -0.000000  -0.000000   0.000000   0.284693
    39  O   -0.000000  -0.000000  -0.000000   0.006450
    40  C    0.338803  -0.039318  -0.044884  -0.000000
    41  H   -0.039404   0.003799  -0.005862  -0.000000
    42  H   -0.044385  -0.005921   0.005235   0.000000
    43  C    4.850408   0.400803   0.383287   0.000000
    44  H    0.400803   0.519163  -0.029569  -0.000000
    45  H    0.383287  -0.029569   0.555233  -0.000000
    46  H    0.000000  -0.000000  -0.000000   0.359804
 Mulliken charges:
               1
     1  C    0.642480
     2  C   -0.125083
     3  H    0.163519
     4  C   -0.122903
     5  H    0.158976
     6  C   -0.033233
     7  C   -0.124943
     8  H    0.161267
     9  C   -0.122947
    10  H    0.154991
    11  C   -0.031797
    12  O   -0.493999
    13  C    0.650290
    14  O   -0.518032
    15  O   -0.518805
    16  O   -0.493648
    17  C    0.022186
    18  H    0.141991
    19  H    0.141962
    20  C   -0.388157
    21  H    0.140929
    22  H    0.141032
    23  H    0.134270
    24  C    0.603189
    25  C   -0.122042
    26  H    0.164614
    27  C   -0.127039
    28  H    0.165759
    29  C   -0.016267
    30  C   -0.126283
    31  H    0.159747
    32  C   -0.121245
    33  H    0.159417
    34  C   -0.034698
    35  O   -0.490956
    36  C    0.643885
    37  O   -0.519530
    38  O   -0.535589
    39  O   -0.478416
    40  C   -0.005002
    41  H    0.167029
    42  H    0.158578
    43  C   -0.004388
    44  H    0.167457
    45  H    0.157749
    46  H    0.353682
 Sum of Mulliken charges =  -0.00000
 Mulliken charges with hydrogens summed into heavy atoms:
               1
     1  C    0.642480
     2  C    0.038436
     4  C    0.036073
     6  C   -0.033233
     7  C    0.036324
     9  C    0.032044
    11  C   -0.031797
    12  O   -0.493999
    13  C    0.650290
    14  O   -0.518032
    15  O   -0.518805
    16  O   -0.493648
    17  C    0.306139
    20  C    0.028074
    24  C    0.603189
    25  C    0.042572
    27  C    0.038720
    29  C   -0.016267
    30  C    0.033464
    32  C    0.038172
    34  C   -0.034698
    35  O   -0.490956
    36  C    0.643885
    37  O   -0.519530
    38  O   -0.181907
    39  O   -0.478416
    40  C    0.320605
    43  C    0.320819
 Electronic spatial extent (au):  <R**2>=          28546.4895
 Charge=              0.0000 electrons
 Dipole moment (field-independent basis, Debye):
    X=              1.3359    Y=             -2.9899    Z=              0.2464  Tot=              3.2840
 Quadrupole moment (field-independent basis, Debye-Ang):
   XX=           -134.5285   YY=           -161.9072   ZZ=           -158.4276
   XY=              3.3131   XZ=              2.0046   YZ=             -1.5471
 Traceless Quadrupole moment (field-independent basis, Debye-Ang):
   XX=             17.0926   YY=            -10.2861   ZZ=             -6.8065
   XY=              3.3131   XZ=              2.0046   YZ=             -1.5471
 Octapole moment (field-independent basis, Debye-Ang**2):
  XXX=            263.7148  YYY=            -11.1320  ZZZ=              0.0367  XYY=            -49.1258
  XXY=           -309.8887  XXZ=             22.7715  XZZ=              1.5929  YZZ=              0.0165
  YYZ=             -1.2106  XYZ=             -4.8093
 Hexadecapole moment (field-independent basis, Debye-Ang**3):
 XXXX=         -31150.7425 YYYY=          -1270.6283 ZZZZ=           -278.7388 XXXY=            919.2846
 XXXZ=            162.1933 YYYX=             10.4998 YYYZ=            -10.8909 ZZZX=             27.3590
 ZZZY=              5.4783 XXYY=          -6047.4126 XXZZ=          -5970.8724 YYZZ=           -264.1301
 XXYZ=             36.0709 YYXZ=             11.8209 ZZXY=             24.7764
 N-N= 2.265969307997D+03 E-N=-7.739428519308D+03  KE= 1.363039644549D+03
 No NMR shielding tensors so no spin-rotation constants.
 Leave Link  601 at Tue Jul 27 20:22:13 2021, MaxMem=   524288000 cpu:               2.4 elap:               0.8
 (Enter /opt/gaussian/g16_legacy/l9999.exe)
 1\1\GINC-TRUENO91\FOpt\RM062X\6-31G(d,p)\C20H18O8\JRAMOS\27-Jul-2021\0
 \\#p opt=loose m062x/6-31g(d,p)\\Conformer number 361. Energy MM = 72.
 118 kcal/mol\\0,1\C,1.0140898731,0.2525484957,0.7457651565\C,4.3710250
 841,-1.1907667712,-0.2552203089\H,4.8102368677,-2.0660778866,-0.721169
 7482\C,2.9991288702,-1.0756805601,-0.0776708067\H,2.3291753841,-1.8630
 408698,-0.4023545706\C,2.4782882473,0.0703423585,0.5275273664\C,3.3242
 521561,1.0960340022,0.9528375204\H,2.8861393489,1.9717869212,1.4190276
 094\C,4.6959746215,0.9796205013,0.7759172222\H,5.367121969,1.765809294
 1,1.1010119655\C,5.2170475874,-0.1659433155,0.1707706062\O,7.175164786
 ,-1.3223069113,-0.5651400729\C,6.684631296,-0.3479468513,-0.0460753045
 \O,7.4022728139,0.692234405,0.4012283842\O,0.2954704284,-0.796524025,0
 .303025235\O,0.5194607846,1.2267228533,1.2618033002\C,8.8224685572,0.5
 778321109,0.2237988934\H,9.1685520771,-0.3229524576,0.7388797638\H,9.0
 335337554,0.4498064209,-0.8418248336\C,9.4468306639,1.8355697744,0.785
 4511318\H,9.0765701243,2.717456257,0.2582436308\H,9.2116164179,1.94098
 23815,1.8467430982\H,10.5325184871,1.7943282197,0.6729681713\C,-9.5528
 945338,-0.2474479749,0.0209331095\C,-6.2026891508,-1.6205498922,-0.960
 7502165\H,-5.7762932382,-2.5023276139,-1.4262901001\C,-7.5697355244,-1
 .4901976082,-0.768262044\H,-8.2636199015,-2.2649071336,-1.0757115598\C
 ,-8.0762009053,-0.3378378715,-0.164333285\C,-7.2204079396,0.6852908612
 ,0.2471010828\H,-7.6313040412,1.5727590649,0.7140747367\C,-5.85068485,
 0.5553046964,0.0537060508\H,-5.1706498771,1.3387948678,0.3663999009\C,
 -5.3453007199,-0.5976698595,-0.5498015863\O,-3.4012940279,-1.771015098
 5,-1.2956964039\C,-3.8835087179,-0.7908517483,-0.7801022124\O,-3.15492
 55003,0.2552013237,-0.3481942448\O,-9.9382278734,0.8999598142,0.609264
 7495\O,-10.3366260101,-1.1018296193,-0.3134903477\C,-1.7440262827,0.16
 50084606,-0.5621675836\H,-1.3672198214,1.1844852171,-0.4824580478\H,-1
 .5425574906,-0.2464270676,-1.5537795012\C,-1.1166907409,-0.7168693327,
 0.5094875324\H,-1.4867959773,-1.7384632488,0.4253270299\H,-1.326542963
 3,-0.3090232329,1.5008849013\H,-10.9034741137,0.8589786487,0.683414629
 4\\Version=EM64L-G16RevA.03\State=1-A\HF=-1374.3095585\RMSD=6.060e-09\
 RMSF=2.461e-05\Dipole=0.455586,1.102187,0.4969897\Quadrupole=12.951087
 9,-6.1757352,-6.7753526,-0.4696915,-1.7000976,-1.8449977\PG=C01 [X(C20
 H18O8)]\\@


 "WHERE SHALL I START, PLEASE YOUR MAJESTY?" HE ASKED.
 "BEGIN AT THE BEGINNING," THE KING SAID GRAVELY,
 "AND GO ON TILL YOU COME TO THE END: THEN STOP." 

                                      -- LEWIS CARROLL
 Job cpu time:       0 days  3 hours 18 minutes 27.0 seconds.
 Elapsed time:       0 days  0 hours 49 minutes 44.6 seconds.
 File lengths (MBytes):  RWF=    165 Int=      0 D2E=      0 Chk=     21 Scr=      1
 Normal termination of Gaussian 16 at Tue Jul 27 20:22:13 2021.
