 Entering Gaussian System, Link 0=/opt/gaussian/g16_legacy/g16
 Input=05-PET_1390_gaussian.com
 Output=05-PET_1390_gaussian.log
 Initial command:
 /opt/gaussian/g16_legacy/l1.exe "/scratch-local/jramos/2648137/Gau-32582.inp" -scrdir="/scratch-local/jramos/2648137/"
 Entering Link 1 = /opt/gaussian/g16_legacy/l1.exe PID=     32583.
  
 Copyright (c) 1988,1990,1992,1993,1995,1998,2003,2009,2016,
            Gaussian, Inc.  All Rights Reserved.
  
 This is part of the Gaussian(R) 16 program.  It is based on
 the Gaussian(R) 09 system (copyright 2009, Gaussian, Inc.),
 the Gaussian(R) 03 system (copyright 2003, Gaussian, Inc.),
 the Gaussian(R) 98 system (copyright 1998, Gaussian, Inc.),
 the Gaussian(R) 94 system (copyright 1995, Gaussian, Inc.),
 the Gaussian 92(TM) system (copyright 1992, Gaussian, Inc.),
 the Gaussian 90(TM) system (copyright 1990, Gaussian, Inc.),
 the Gaussian 88(TM) system (copyright 1988, Gaussian, Inc.),
 the Gaussian 86(TM) system (copyright 1986, Carnegie Mellon
 University), and the Gaussian 82(TM) system (copyright 1983,
 Carnegie Mellon University). Gaussian is a federally registered
 trademark of Gaussian, Inc.
  
 This software contains proprietary and confidential information,
 including trade secrets, belonging to Gaussian, Inc.
  
 This software is provided under written license and may be
 used, copied, transmitted, or stored only in accord with that
 written license.
  
 The following legend is applicable only to US Government
 contracts under FAR:
  
                    RESTRICTED RIGHTS LEGEND
  
 Use, reproduction and disclosure by the US Government is
 subject to restrictions as set forth in subparagraphs (a)
 and (c) of the Commercial Computer Software - Restricted
 Rights clause in FAR 52.227-19.
  
 Gaussian, Inc.
 340 Quinnipiac St., Bldg. 40, Wallingford CT 06492
  
  
 ---------------------------------------------------------------
 Warning -- This program may not be used in any manner that
 competes with the business of Gaussian, Inc. or will provide
 assistance to any competitor of Gaussian, Inc.  The licensee
 of this program is prohibited from giving any competitor of
 Gaussian, Inc. access to this program.  By using this program,
 the user acknowledges that Gaussian, Inc. is engaged in the
 business of creating and licensing software in the field of
 computational chemistry and represents and warrants to the
 licensee that it is not a competitor of Gaussian, Inc. and that
 it will not use this program in any manner prohibited above.
 ---------------------------------------------------------------
  

 Cite this work as:
 Gaussian 16, Revision A.03,
 M. J. Frisch, G. W. Trucks, H. B. Schlegel, G. E. Scuseria, 
 M. A. Robb, J. R. Cheeseman, G. Scalmani, V. Barone, 
 G. A. Petersson, H. Nakatsuji, X. Li, M. Caricato, A. V. Marenich, 
 J. Bloino, B. G. Janesko, R. Gomperts, B. Mennucci, H. P. Hratchian, 
 J. V. Ortiz, A. F. Izmaylov, J. L. Sonnenberg, D. Williams-Young, 
 F. Ding, F. Lipparini, F. Egidi, J. Goings, B. Peng, A. Petrone, 
 T. Henderson, D. Ranasinghe, V. G. Zakrzewski, J. Gao, N. Rega, 
 G. Zheng, W. Liang, M. Hada, M. Ehara, K. Toyota, R. Fukuda, 
 J. Hasegawa, M. Ishida, T. Nakajima, Y. Honda, O. Kitao, H. Nakai, 
 T. Vreven, K. Throssell, J. A. Montgomery, Jr., J. E. Peralta, 
 F. Ogliaro, M. J. Bearpark, J. J. Heyd, E. N. Brothers, K. N. Kudin, 
 V. N. Staroverov, T. A. Keith, R. Kobayashi, J. Normand, 
 K. Raghavachari, A. P. Rendell, J. C. Burant, S. S. Iyengar, 
 J. Tomasi, M. Cossi, J. M. Millam, M. Klene, C. Adamo, R. Cammi, 
 J. W. Ochterski, R. L. Martin, K. Morokuma, O. Farkas, 
 J. B. Foresman, and D. J. Fox, Gaussian, Inc., Wallingford CT, 2016.
 
 ******************************************
 Gaussian 16:  EM64L-G16RevA.03 25-Dec-2016
                27-Jul-2021 
 ******************************************
 %chk=05-PET_1390_gaussian.chk
 %nproc=4
 Will use up to    4 processors via shared memory.
 %mem=4000Mb
 -----------------------------
 #p opt=loose m062x/6-31g(d,p)
 -----------------------------
 1/7=-1,18=20,19=15,26=3,38=1/1,3;
 2/9=110,12=2,17=6,18=5,40=1/2;
 3/5=1,6=6,7=101,11=2,25=1,30=1,71=1,74=-55/1,2,3;
 4//1;
 5/5=2,38=5/2;
 6/7=2,8=2,9=2,10=2,28=1/1;
 7//1,2,3,16;
 1/7=-1,18=20,19=15,26=3/3(2);
 2/9=110/2;
 99//99;
 2/9=110/2;
 3/5=1,6=6,7=101,11=2,25=1,30=1,71=1,74=-55/1,2,3;
 4/5=5,16=3,69=1/1;
 5/5=2,38=5/2;
 7//1,2,3,16;
 1/7=-1,18=20,19=15,26=3/3(-5);
 2/9=110/2;
 6/7=2,8=2,9=2,10=2,19=2,28=1/1;
 99/9=1/99;
 Leave Link    1 at Tue Jul 27 19:32:25 2021, MaxMem=   524288000 cpu:               0.1 elap:               0.1
 (Enter /opt/gaussian/g16_legacy/l101.exe)
 --------------------------------------------------
 Conformer number 1390. Energy MM = 71.187 kcal/mol
 --------------------------------------------------
 Symbolic Z-matrix:
 Charge =  0 Multiplicity = 1
 C                     0.9703   -2.6697   -0.134 
 C                     4.0311   -0.559     0.5301 
 H                     4.9568   -0.6661    1.0912 
 C                     3.1135   -1.6158    0.5347 
 H                     3.3442   -2.5194    1.0975 
 C                     1.9096   -1.5158   -0.1766 
 C                     1.6315   -0.3448   -0.894 
 H                     0.706    -0.2371   -1.4552 
 C                     2.5491    0.7119   -0.8984 
 H                     2.319     1.6158   -1.4612 
 C                     3.7534    0.612    -0.1875 
 O                     4.4662    2.7955   -0.8467 
 C                     4.6915    1.7675   -0.2282 
 O                     5.8011    1.5085    0.5066 
 O                    -0.1334   -2.4151   -0.8773 
 O                     1.1851   -3.6918    0.4977 
 C                     6.7586    2.5745    0.5196 
 H                     7.0984    2.7789   -0.5019 
 H                     6.3031    3.4756    0.9452 
 C                     7.9345    2.1426    1.3739 
 H                     7.6067    1.9138    2.3934 
 H                     8.3875    1.2299    0.9729 
 H                     8.6958    2.9265    1.4149 
 C                    -6.3041    3.0994    0.4713 
 C                    -5.5994   -0.4271   -0.7548 
 H                    -6.0368   -1.162    -1.4292 
 C                    -6.2259    0.8136   -0.5949 
 H                    -7.1395    1.0213   -1.1478 
 C                    -5.6778    1.7704    0.2677 
 C                    -4.5004    1.477     0.9677 
 H                    -4.0657    2.214     1.6413 
 C                    -3.8738    0.2361    0.8078 
 H                    -2.9606    0.0349    1.3635 
 C                    -4.4209   -0.7236   -0.0551 
 O                    -4.2463   -2.9028   -1.0229 
 C                    -3.7961   -2.0583   -0.2654 
 O                    -2.6764   -2.1854    0.4868 
 O                    -7.4243    3.2645   -0.2532 
 O                    -5.887     3.9776    1.2031 
 C                    -1.9809   -3.441     0.3588 
 H                    -1.3589   -3.5353    1.254 
 H                    -2.693    -4.2742    0.3677 
 C                    -1.1204   -3.4646   -0.9047 
 H                    -1.7313   -3.2828   -1.7941 
 H                    -0.6369   -4.4397   -1.0354 
 H                    -7.7233    4.1695   -0.0233 
 
 ITRead=  0  0  0  0  0  0  0  0  0  0  0  0  0  0  0  0  0  0  0  0
 ITRead=  0  0  0  0  0  0  0  0  0  0  0  0  0  0  0  0  0  0  0  0
 ITRead=  0  0  0  0  0  0
 MicOpt= -1 -1 -1 -1 -1 -1 -1 -1 -1 -1 -1 -1 -1 -1 -1 -1 -1 -1 -1 -1
 MicOpt= -1 -1 -1 -1 -1 -1 -1 -1 -1 -1 -1 -1 -1 -1 -1 -1 -1 -1 -1 -1
 MicOpt= -1 -1 -1 -1 -1 -1
 NAtoms=     46 NQM=       46 NQMF=       0 NMMI=      0 NMMIF=      0
                NMic=       0 NMicF=      0.
                    Isotopes and Nuclear Properties:
 (Nuclear quadrupole moments (NQMom) in fm**2, nuclear magnetic moments (NMagM)
  in nuclear magnetons)

  Atom         1           2           3           4           5           6           7           8           9          10
 IAtWgt=          12          12           1          12           1          12          12           1          12           1
 AtmWgt=  12.0000000  12.0000000   1.0078250  12.0000000   1.0078250  12.0000000  12.0000000   1.0078250  12.0000000   1.0078250
 NucSpn=           0           0           1           0           1           0           0           1           0           1
 AtZEff=  -0.0000000  -0.0000000  -0.0000000  -0.0000000  -0.0000000  -0.0000000  -0.0000000  -0.0000000  -0.0000000  -0.0000000
 NQMom=    0.0000000   0.0000000   0.0000000   0.0000000   0.0000000   0.0000000   0.0000000   0.0000000   0.0000000   0.0000000
 NMagM=    0.0000000   0.0000000   2.7928460   0.0000000   2.7928460   0.0000000   0.0000000   2.7928460   0.0000000   2.7928460
 AtZNuc=   6.0000000   6.0000000   1.0000000   6.0000000   1.0000000   6.0000000   6.0000000   1.0000000   6.0000000   1.0000000

  Atom        11          12          13          14          15          16          17          18          19          20
 IAtWgt=          12          16          12          16          16          16          12           1           1          12
 AtmWgt=  12.0000000  15.9949146  12.0000000  15.9949146  15.9949146  15.9949146  12.0000000   1.0078250   1.0078250  12.0000000
 NucSpn=           0           0           0           0           0           0           0           1           1           0
 AtZEff=  -0.0000000  -0.0000000  -0.0000000  -0.0000000  -0.0000000  -0.0000000  -0.0000000  -0.0000000  -0.0000000  -0.0000000
 NQMom=    0.0000000   0.0000000   0.0000000   0.0000000   0.0000000   0.0000000   0.0000000   0.0000000   0.0000000   0.0000000
 NMagM=    0.0000000   0.0000000   0.0000000   0.0000000   0.0000000   0.0000000   0.0000000   2.7928460   2.7928460   0.0000000
 AtZNuc=   6.0000000   8.0000000   6.0000000   8.0000000   8.0000000   8.0000000   6.0000000   1.0000000   1.0000000   6.0000000

  Atom        21          22          23          24          25          26          27          28          29          30
 IAtWgt=           1           1           1          12          12           1          12           1          12          12
 AtmWgt=   1.0078250   1.0078250   1.0078250  12.0000000  12.0000000   1.0078250  12.0000000   1.0078250  12.0000000  12.0000000
 NucSpn=           1           1           1           0           0           1           0           1           0           0
 AtZEff=  -0.0000000  -0.0000000  -0.0000000  -0.0000000  -0.0000000  -0.0000000  -0.0000000  -0.0000000  -0.0000000  -0.0000000
 NQMom=    0.0000000   0.0000000   0.0000000   0.0000000   0.0000000   0.0000000   0.0000000   0.0000000   0.0000000   0.0000000
 NMagM=    2.7928460   2.7928460   2.7928460   0.0000000   0.0000000   2.7928460   0.0000000   2.7928460   0.0000000   0.0000000
 AtZNuc=   1.0000000   1.0000000   1.0000000   6.0000000   6.0000000   1.0000000   6.0000000   1.0000000   6.0000000   6.0000000

  Atom        31          32          33          34          35          36          37          38          39          40
 IAtWgt=           1          12           1          12          16          12          16          16          16          12
 AtmWgt=   1.0078250  12.0000000   1.0078250  12.0000000  15.9949146  12.0000000  15.9949146  15.9949146  15.9949146  12.0000000
 NucSpn=           1           0           1           0           0           0           0           0           0           0
 AtZEff=  -0.0000000  -0.0000000  -0.0000000  -0.0000000  -0.0000000  -0.0000000  -0.0000000  -0.0000000  -0.0000000  -0.0000000
 NQMom=    0.0000000   0.0000000   0.0000000   0.0000000   0.0000000   0.0000000   0.0000000   0.0000000   0.0000000   0.0000000
 NMagM=    2.7928460   0.0000000   2.7928460   0.0000000   0.0000000   0.0000000   0.0000000   0.0000000   0.0000000   0.0000000
 AtZNuc=   1.0000000   6.0000000   1.0000000   6.0000000   8.0000000   6.0000000   8.0000000   8.0000000   8.0000000   6.0000000

  Atom        41          42          43          44          45          46
 IAtWgt=           1           1          12           1           1           1
 AtmWgt=   1.0078250   1.0078250  12.0000000   1.0078250   1.0078250   1.0078250
 NucSpn=           1           1           0           1           1           1
 AtZEff=  -0.0000000  -0.0000000  -0.0000000  -0.0000000  -0.0000000  -0.0000000
 NQMom=    0.0000000   0.0000000   0.0000000   0.0000000   0.0000000   0.0000000
 NMagM=    2.7928460   2.7928460   0.0000000   2.7928460   2.7928460   2.7928460
 AtZNuc=   1.0000000   1.0000000   6.0000000   1.0000000   1.0000000   1.0000000
 Leave Link  101 at Tue Jul 27 19:32:26 2021, MaxMem=   524288000 cpu:               0.4 elap:               0.1
 (Enter /opt/gaussian/g16_legacy/l103.exe)

 GradGradGradGradGradGradGradGradGradGradGradGradGradGradGradGradGradGrad
 Berny optimization.
 Initialization pass.
                           ----------------------------
                           !    Initial Parameters    !
                           ! (Angstroms and Degrees)  !
 --------------------------                            --------------------------
 ! Name  Definition              Value          Derivative Info.                !
 --------------------------------------------------------------------------------
 ! R1    R(1,6)                  1.4885         estimate D2E/DX2                !
 ! R2    R(1,15)                 1.3548         estimate D2E/DX2                !
 ! R3    R(1,16)                 1.2206         estimate D2E/DX2                !
 ! R4    R(2,3)                  1.0878         estimate D2E/DX2                !
 ! R5    R(2,4)                  1.3996         estimate D2E/DX2                !
 ! R6    R(2,11)                 1.4012         estimate D2E/DX2                !
 ! R7    R(4,5)                  1.0892         estimate D2E/DX2                !
 ! R8    R(4,6)                  1.4019         estimate D2E/DX2                !
 ! R9    R(6,7)                  1.4012         estimate D2E/DX2                !
 ! R10   R(7,8)                  1.0877         estimate D2E/DX2                !
 ! R11   R(7,9)                  1.3995         estimate D2E/DX2                !
 ! R12   R(9,10)                 1.0894         estimate D2E/DX2                !
 ! R13   R(9,11)                 1.402          estimate D2E/DX2                !
 ! R14   R(11,13)                1.4889         estimate D2E/DX2                !
 ! R15   R(12,13)                1.2207         estimate D2E/DX2                !
 ! R16   R(13,14)                1.3558         estimate D2E/DX2                !
 ! R17   R(14,17)                1.4329         estimate D2E/DX2                !
 ! R18   R(15,43)                1.441          estimate D2E/DX2                !
 ! R19   R(17,18)                1.0958         estimate D2E/DX2                !
 ! R20   R(17,19)                1.0957         estimate D2E/DX2                !
 ! R21   R(17,20)                1.5163         estimate D2E/DX2                !
 ! R22   R(20,21)                1.0951         estimate D2E/DX2                !
 ! R23   R(20,22)                1.095          estimate D2E/DX2                !
 ! R24   R(20,23)                1.0935         estimate D2E/DX2                !
 ! R25   R(24,29)                1.4832         estimate D2E/DX2                !
 ! R26   R(24,38)                1.3442         estimate D2E/DX2                !
 ! R27   R(24,39)                1.2169         estimate D2E/DX2                !
 ! R28   R(25,26)                1.0891         estimate D2E/DX2                !
 ! R29   R(25,27)                1.3991         estimate D2E/DX2                !
 ! R30   R(25,34)                1.4023         estimate D2E/DX2                !
 ! R31   R(27,28)                1.0879         estimate D2E/DX2                !
 ! R32   R(27,29)                1.4            estimate D2E/DX2                !
 ! R33   R(29,30)                1.4008         estimate D2E/DX2                !
 ! R34   R(30,31)                1.089          estimate D2E/DX2                !
 ! R35   R(30,32)                1.3993         estimate D2E/DX2                !
 ! R36   R(32,33)                1.0878         estimate D2E/DX2                !
 ! R37   R(32,34)                1.4018         estimate D2E/DX2                !
 ! R38   R(34,36)                1.4886         estimate D2E/DX2                !
 ! R39   R(35,36)                1.2205         estimate D2E/DX2                !
 ! R40   R(36,37)                1.3549         estimate D2E/DX2                !
 ! R41   R(37,40)                1.4411         estimate D2E/DX2                !
 ! R42   R(38,46)                0.9804         estimate D2E/DX2                !
 ! R43   R(40,41)                1.0941         estimate D2E/DX2                !
 ! R44   R(40,42)                1.0961         estimate D2E/DX2                !
 ! R45   R(40,43)                1.5289         estimate D2E/DX2                !
 ! R46   R(43,44)                1.0942         estimate D2E/DX2                !
 ! R47   R(43,45)                1.0962         estimate D2E/DX2                !
 ! A1    A(6,1,15)             110.6527         estimate D2E/DX2                !
 ! A2    A(6,1,16)             123.5667         estimate D2E/DX2                !
 ! A3    A(15,1,16)            125.7794         estimate D2E/DX2                !
 ! A4    A(3,2,4)              118.8099         estimate D2E/DX2                !
 ! A5    A(3,2,11)             121.0057         estimate D2E/DX2                !
 ! A6    A(4,2,11)             120.1844         estimate D2E/DX2                !
 ! A7    A(2,4,5)              119.2898         estimate D2E/DX2                !
 ! A8    A(2,4,6)              120.4972         estimate D2E/DX2                !
 ! A9    A(5,4,6)              120.213          estimate D2E/DX2                !
 ! A10   A(1,6,4)              118.1706         estimate D2E/DX2                !
 ! A11   A(1,6,7)              122.4989         estimate D2E/DX2                !
 ! A12   A(4,6,7)              119.3303         estimate D2E/DX2                !
 ! A13   A(6,7,8)              121.051          estimate D2E/DX2                !
 ! A14   A(6,7,9)              120.1655         estimate D2E/DX2                !
 ! A15   A(8,7,9)              118.7834         estimate D2E/DX2                !
 ! A16   A(7,9,10)             119.3166         estimate D2E/DX2                !
 ! A17   A(7,9,11)             120.5171         estimate D2E/DX2                !
 ! A18   A(10,9,11)            120.1664         estimate D2E/DX2                !
 ! A19   A(2,11,9)             119.3055         estimate D2E/DX2                !
 ! A20   A(2,11,13)            122.5277         estimate D2E/DX2                !
 ! A21   A(9,11,13)            118.1667         estimate D2E/DX2                !
 ! A22   A(11,13,12)           123.4442         estimate D2E/DX2                !
 ! A23   A(11,13,14)           110.6448         estimate D2E/DX2                !
 ! A24   A(12,13,14)           125.911          estimate D2E/DX2                !
 ! A25   A(13,14,17)           114.1839         estimate D2E/DX2                !
 ! A26   A(1,15,43)            115.5673         estimate D2E/DX2                !
 ! A27   A(14,17,18)           109.726          estimate D2E/DX2                !
 ! A28   A(14,17,19)           109.7267         estimate D2E/DX2                !
 ! A29   A(14,17,20)           108.1445         estimate D2E/DX2                !
 ! A30   A(18,17,19)           109.731          estimate D2E/DX2                !
 ! A31   A(18,17,20)           109.7475         estimate D2E/DX2                !
 ! A32   A(19,17,20)           109.7426         estimate D2E/DX2                !
 ! A33   A(17,20,21)           110.6039         estimate D2E/DX2                !
 ! A34   A(17,20,22)           110.6048         estimate D2E/DX2                !
 ! A35   A(17,20,23)           110.9066         estimate D2E/DX2                !
 ! A36   A(21,20,22)           106.8952         estimate D2E/DX2                !
 ! A37   A(21,20,23)           108.8611         estimate D2E/DX2                !
 ! A38   A(22,20,23)           108.8586         estimate D2E/DX2                !
 ! A39   A(29,24,38)           112.8267         estimate D2E/DX2                !
 ! A40   A(29,24,39)           125.7656         estimate D2E/DX2                !
 ! A41   A(38,24,39)           121.4077         estimate D2E/DX2                !
 ! A42   A(26,25,27)           119.2951         estimate D2E/DX2                !
 ! A43   A(26,25,34)           120.2528         estimate D2E/DX2                !
 ! A44   A(27,25,34)           120.4522         estimate D2E/DX2                !
 ! A45   A(25,27,28)           119.1618         estimate D2E/DX2                !
 ! A46   A(25,27,29)           120.0779         estimate D2E/DX2                !
 ! A47   A(28,27,29)           120.7603         estimate D2E/DX2                !
 ! A48   A(24,29,27)           122.1161         estimate D2E/DX2                !
 ! A49   A(24,29,30)           118.2929         estimate D2E/DX2                !
 ! A50   A(27,29,30)           119.591          estimate D2E/DX2                !
 ! A51   A(29,30,31)           120.1892         estimate D2E/DX2                !
 ! A52   A(29,30,32)           120.3318         estimate D2E/DX2                !
 ! A53   A(31,30,32)           119.479          estimate D2E/DX2                !
 ! A54   A(30,32,33)           118.7892         estimate D2E/DX2                !
 ! A55   A(30,32,34)           120.1795         estimate D2E/DX2                !
 ! A56   A(33,32,34)           121.0313         estimate D2E/DX2                !
 ! A57   A(25,34,32)           119.3677         estimate D2E/DX2                !
 ! A58   A(25,34,36)           118.1529         estimate D2E/DX2                !
 ! A59   A(32,34,36)           122.4793         estimate D2E/DX2                !
 ! A60   A(34,36,35)           123.5891         estimate D2E/DX2                !
 ! A61   A(34,36,37)           110.6427         estimate D2E/DX2                !
 ! A62   A(35,36,37)           125.7671         estimate D2E/DX2                !
 ! A63   A(36,37,40)           115.549          estimate D2E/DX2                !
 ! A64   A(24,38,46)           103.9528         estimate D2E/DX2                !
 ! A65   A(37,40,41)           106.0686         estimate D2E/DX2                !
 ! A66   A(37,40,42)           110.3686         estimate D2E/DX2                !
 ! A67   A(37,40,43)           111.008          estimate D2E/DX2                !
 ! A68   A(41,40,42)           107.2877         estimate D2E/DX2                !
 ! A69   A(41,40,43)           110.7854         estimate D2E/DX2                !
 ! A70   A(42,40,43)           111.1394         estimate D2E/DX2                !
 ! A71   A(15,43,40)           111.0118         estimate D2E/DX2                !
 ! A72   A(15,43,44)           106.073          estimate D2E/DX2                !
 ! A73   A(15,43,45)           110.3664         estimate D2E/DX2                !
 ! A74   A(40,43,44)           110.7901         estimate D2E/DX2                !
 ! A75   A(40,43,45)           111.1316         estimate D2E/DX2                !
 ! A76   A(44,43,45)           107.2852         estimate D2E/DX2                !
 ! D1    D(15,1,6,4)          -179.5565         estimate D2E/DX2                !
 ! D2    D(15,1,6,7)             0.589          estimate D2E/DX2                !
 ! D3    D(16,1,6,4)             0.8019         estimate D2E/DX2                !
 ! D4    D(16,1,6,7)          -179.0526         estimate D2E/DX2                !
 ! D5    D(6,1,15,43)         -179.7126         estimate D2E/DX2                !
 ! D6    D(16,1,15,43)          -0.0807         estimate D2E/DX2                !
 ! D7    D(3,2,4,5)              0.0054         estimate D2E/DX2                !
 ! D8    D(3,2,4,6)           -179.9802         estimate D2E/DX2                !
 ! D9    D(11,2,4,5)          -179.9985         estimate D2E/DX2                !
 ! D10   D(11,2,4,6)             0.0159         estimate D2E/DX2                !
 ! D11   D(3,2,11,9)          -179.9981         estimate D2E/DX2                !
 ! D12   D(3,2,11,13)           -0.012          estimate D2E/DX2                !
 ! D13   D(4,2,11,9)             0.0059         estimate D2E/DX2                !
 ! D14   D(4,2,11,13)          179.992          estimate D2E/DX2                !
 ! D15   D(2,4,6,1)           -179.891          estimate D2E/DX2                !
 ! D16   D(2,4,6,7)             -0.0316         estimate D2E/DX2                !
 ! D17   D(5,4,6,1)              0.1235         estimate D2E/DX2                !
 ! D18   D(5,4,6,7)            179.9829         estimate D2E/DX2                !
 ! D19   D(1,6,7,8)             -0.124          estimate D2E/DX2                !
 ! D20   D(1,6,7,9)            179.8787         estimate D2E/DX2                !
 ! D21   D(4,6,7,8)           -179.9769         estimate D2E/DX2                !
 ! D22   D(4,6,7,9)              0.0257         estimate D2E/DX2                !
 ! D23   D(6,7,9,10)           179.9735         estimate D2E/DX2                !
 ! D24   D(6,7,9,11)            -0.0041         estimate D2E/DX2                !
 ! D25   D(8,7,9,10)            -0.0239         estimate D2E/DX2                !
 ! D26   D(8,7,9,11)           179.9984         estimate D2E/DX2                !
 ! D27   D(7,9,11,2)            -0.0118         estimate D2E/DX2                !
 ! D28   D(7,9,11,13)         -179.9985         estimate D2E/DX2                !
 ! D29   D(10,9,11,2)         -179.9893         estimate D2E/DX2                !
 ! D30   D(10,9,11,13)           0.0241         estimate D2E/DX2                !
 ! D31   D(2,11,13,12)        -179.9415         estimate D2E/DX2                !
 ! D32   D(2,11,13,14)           0.0383         estimate D2E/DX2                !
 ! D33   D(9,11,13,12)           0.0447         estimate D2E/DX2                !
 ! D34   D(9,11,13,14)        -179.9755         estimate D2E/DX2                !
 ! D35   D(11,13,14,17)        179.9976         estimate D2E/DX2                !
 ! D36   D(12,13,14,17)         -0.0233         estimate D2E/DX2                !
 ! D37   D(13,14,17,18)        -60.308          estimate D2E/DX2                !
 ! D38   D(13,14,17,19)         60.3281         estimate D2E/DX2                !
 ! D39   D(13,14,17,20)       -179.9927         estimate D2E/DX2                !
 ! D40   D(1,15,43,40)          79.9648         estimate D2E/DX2                !
 ! D41   D(1,15,43,44)        -159.6133         estimate D2E/DX2                !
 ! D42   D(1,15,43,45)         -43.7137         estimate D2E/DX2                !
 ! D43   D(14,17,20,21)        -59.1146         estimate D2E/DX2                !
 ! D44   D(14,17,20,22)         59.1178         estimate D2E/DX2                !
 ! D45   D(14,17,20,23)       -179.9997         estimate D2E/DX2                !
 ! D46   D(18,17,20,21)       -178.7858         estimate D2E/DX2                !
 ! D47   D(18,17,20,22)        -60.5534         estimate D2E/DX2                !
 ! D48   D(18,17,20,23)         60.3292         estimate D2E/DX2                !
 ! D49   D(19,17,20,21)         60.5546         estimate D2E/DX2                !
 ! D50   D(19,17,20,22)        178.787          estimate D2E/DX2                !
 ! D51   D(19,17,20,23)        -60.3305         estimate D2E/DX2                !
 ! D52   D(38,24,29,27)         -0.0931         estimate D2E/DX2                !
 ! D53   D(38,24,29,30)        179.9125         estimate D2E/DX2                !
 ! D54   D(39,24,29,27)        179.9263         estimate D2E/DX2                !
 ! D55   D(39,24,29,30)         -0.068          estimate D2E/DX2                !
 ! D56   D(29,24,38,46)       -179.9798         estimate D2E/DX2                !
 ! D57   D(39,24,38,46)          0.0017         estimate D2E/DX2                !
 ! D58   D(26,25,27,28)          0.0083         estimate D2E/DX2                !
 ! D59   D(26,25,27,29)       -179.9961         estimate D2E/DX2                !
 ! D60   D(34,25,27,28)       -179.9817         estimate D2E/DX2                !
 ! D61   D(34,25,27,29)          0.0139         estimate D2E/DX2                !
 ! D62   D(26,25,34,32)        179.9819         estimate D2E/DX2                !
 ! D63   D(26,25,34,36)          0.1096         estimate D2E/DX2                !
 ! D64   D(27,25,34,32)         -0.0282         estimate D2E/DX2                !
 ! D65   D(27,25,34,36)       -179.9005         estimate D2E/DX2                !
 ! D66   D(25,27,29,24)       -179.9927         estimate D2E/DX2                !
 ! D67   D(25,27,29,30)          0.0016         estimate D2E/DX2                !
 ! D68   D(28,27,29,24)          0.0028         estimate D2E/DX2                !
 ! D69   D(28,27,29,30)        179.9971         estimate D2E/DX2                !
 ! D70   D(24,29,30,31)          0.0032         estimate D2E/DX2                !
 ! D71   D(24,29,30,32)        179.992          estimate D2E/DX2                !
 ! D72   D(27,29,30,31)       -179.9912         estimate D2E/DX2                !
 ! D73   D(27,29,30,32)         -0.0025         estimate D2E/DX2                !
 ! D74   D(29,30,32,33)        179.9925         estimate D2E/DX2                !
 ! D75   D(29,30,32,34)         -0.012          estimate D2E/DX2                !
 ! D76   D(31,30,32,33)         -0.0187         estimate D2E/DX2                !
 ! D77   D(31,30,32,34)        179.9768         estimate D2E/DX2                !
 ! D78   D(30,32,34,25)          0.0272         estimate D2E/DX2                !
 ! D79   D(30,32,34,36)        179.8937         estimate D2E/DX2                !
 ! D80   D(33,32,34,25)       -179.9774         estimate D2E/DX2                !
 ! D81   D(33,32,34,36)         -0.1109         estimate D2E/DX2                !
 ! D82   D(25,34,36,35)          0.7402         estimate D2E/DX2                !
 ! D83   D(25,34,36,37)       -179.6221         estimate D2E/DX2                !
 ! D84   D(32,34,36,35)       -179.1278         estimate D2E/DX2                !
 ! D85   D(32,34,36,37)          0.5099         estimate D2E/DX2                !
 ! D86   D(34,36,37,40)       -179.7149         estimate D2E/DX2                !
 ! D87   D(35,36,37,40)         -0.0868         estimate D2E/DX2                !
 ! D88   D(36,37,40,41)       -159.6292         estimate D2E/DX2                !
 ! D89   D(36,37,40,42)        -43.728          estimate D2E/DX2                !
 ! D90   D(36,37,40,43)         79.9594         estimate D2E/DX2                !
 ! D91   D(37,40,43,15)         60.1122         estimate D2E/DX2                !
 ! D92   D(37,40,43,44)        -57.4731         estimate D2E/DX2                !
 ! D93   D(37,40,43,45)       -176.648          estimate D2E/DX2                !
 ! D94   D(41,40,43,15)        -57.4623         estimate D2E/DX2                !
 ! D95   D(41,40,43,44)       -175.0476         estimate D2E/DX2                !
 ! D96   D(41,40,43,45)         65.7775         estimate D2E/DX2                !
 ! D97   D(42,40,43,15)       -176.6424         estimate D2E/DX2                !
 ! D98   D(42,40,43,44)         65.7723         estimate D2E/DX2                !
 ! D99   D(42,40,43,45)        -53.4026         estimate D2E/DX2                !
 --------------------------------------------------------------------------------
 Trust Radius=3.00D-01 FncErr=1.00D-07 GrdErr=1.00D-06 EigMax=2.50D+02 EigMin=1.00D-04
 Number of steps in this run=    232 maximum allowed number of steps=    276.
 GradGradGradGradGradGradGradGradGradGradGradGradGradGradGradGradGradGrad

 Leave Link  103 at Tue Jul 27 19:32:26 2021, MaxMem=   524288000 cpu:               0.1 elap:               0.1
 (Enter /opt/gaussian/g16_legacy/l202.exe)
                          Input orientation:                          
 ---------------------------------------------------------------------
 Center     Atomic      Atomic             Coordinates (Angstroms)
 Number     Number       Type             X           Y           Z
 ---------------------------------------------------------------------
      1          6           0        0.970300   -2.669700   -0.134000
      2          6           0        4.031100   -0.559000    0.530100
      3          1           0        4.956800   -0.666100    1.091200
      4          6           0        3.113500   -1.615800    0.534700
      5          1           0        3.344200   -2.519400    1.097500
      6          6           0        1.909600   -1.515800   -0.176600
      7          6           0        1.631500   -0.344800   -0.894000
      8          1           0        0.706000   -0.237100   -1.455200
      9          6           0        2.549100    0.711900   -0.898400
     10          1           0        2.319000    1.615800   -1.461200
     11          6           0        3.753400    0.612000   -0.187500
     12          8           0        4.466200    2.795500   -0.846700
     13          6           0        4.691500    1.767500   -0.228200
     14          8           0        5.801100    1.508500    0.506600
     15          8           0       -0.133400   -2.415100   -0.877300
     16          8           0        1.185100   -3.691800    0.497700
     17          6           0        6.758600    2.574500    0.519600
     18          1           0        7.098400    2.778900   -0.501900
     19          1           0        6.303100    3.475600    0.945200
     20          6           0        7.934500    2.142600    1.373900
     21          1           0        7.606700    1.913800    2.393400
     22          1           0        8.387500    1.229900    0.972900
     23          1           0        8.695800    2.926500    1.414900
     24          6           0       -6.304100    3.099400    0.471300
     25          6           0       -5.599400   -0.427100   -0.754800
     26          1           0       -6.036800   -1.162000   -1.429200
     27          6           0       -6.225900    0.813600   -0.594900
     28          1           0       -7.139500    1.021300   -1.147800
     29          6           0       -5.677800    1.770400    0.267700
     30          6           0       -4.500400    1.477000    0.967700
     31          1           0       -4.065700    2.214000    1.641300
     32          6           0       -3.873800    0.236100    0.807800
     33          1           0       -2.960600    0.034900    1.363500
     34          6           0       -4.420900   -0.723600   -0.055100
     35          8           0       -4.246300   -2.902800   -1.022900
     36          6           0       -3.796100   -2.058300   -0.265400
     37          8           0       -2.676400   -2.185400    0.486800
     38          8           0       -7.424300    3.264500   -0.253200
     39          8           0       -5.887000    3.977600    1.203100
     40          6           0       -1.980900   -3.441000    0.358800
     41          1           0       -1.358900   -3.535300    1.254000
     42          1           0       -2.693000   -4.274200    0.367700
     43          6           0       -1.120400   -3.464600   -0.904700
     44          1           0       -1.731300   -3.282800   -1.794100
     45          1           0       -0.636900   -4.439700   -1.035400
     46          1           0       -7.723300    4.169500   -0.023300
 ---------------------------------------------------------------------
                    Distance matrix (angstroms):
                    1          2          3          4          5
     1  C    0.000000
     2  C    3.776848   0.000000
     3  H    4.626847   1.087761   0.000000
     4  C    2.480155   1.399585   2.146946   0.000000
     5  H    2.678541   2.153356   2.456672   1.089247   0.000000
     6  C    1.488484   2.432212   3.408040   1.401900   2.165322
     7  C    2.533761   2.798575   3.886113   2.419287   3.410029
     8  H    2.780821   3.886042   4.973680   3.414172   4.322646
     9  C    3.809480   2.419116   3.413856   2.791149   3.880348
    10  H    4.684652   3.409739   4.322014   3.880475   4.969694
    11  C    4.303262   1.401181   2.171816   2.427785   3.409448
    12  O    6.526689   3.652062   3.997352   4.816392   5.769485
    13  C    5.791800   2.534512   2.780937   3.810357   4.685105
    14  O    6.419062   2.721766   2.404888   4.121315   4.754945
    15  O    1.354795   4.771681   5.730980   3.629736   4.000552
    16  O    1.220603   4.232635   4.871635   2.833703   2.529030
    17  C    7.837936   4.154298   3.751626   5.553881   6.159538
    18  H    8.208301   4.649186   4.358032   6.022238   6.687607
    19  H    8.207810   4.648902   4.357467   6.021994   6.687175
    20  C    8.598376   4.821532   4.103098   6.170241   6.548396
    21  H    8.452102   4.729856   3.920916   6.008468   6.285024
    22  H    8.452631   4.730164   3.921545   6.008752   6.285511
    23  H    9.664362   5.889907   5.195352   7.250470   7.641871
    24  C    9.304074  10.963745  11.889959  10.532251  11.182698
    25  C    6.969620   9.716733  10.719058   8.887657   9.369990
    26  H    7.283554  10.274487  11.289711   9.369676   9.809684
    27  C    8.008190  10.409405  11.405491   9.716088  10.274236
    28  H    8.967727  11.405920  12.416961  10.719567  11.290965
    29  C    8.004566   9.987878  10.941179   9.424680  10.024342
    30  C    6.952512   8.781986   9.697771   8.229482   8.804874
    31  H    7.236264   8.630322   9.486996   8.211750   8.809507
    32  C    5.726776   7.949638   8.881091   7.233704   7.731509
    33  H    5.000934   7.066197   7.953035   6.348733   6.807768
    34  C    5.732239   8.473834   9.447675   7.609932   8.052960
    35  O    5.296923   8.741885   9.704087   7.632113   7.890423
    36  C    4.807249   8.009106   8.966150   6.969831   7.283817
    37  O    3.730732   6.902000   7.806364   5.818048   6.060704
    38  O   10.280965  12.102021  13.059428  11.639731  12.297906
    39  O    9.643495  10.927139  11.796799  10.617998  11.288809
    40  C    3.089877   6.669289   7.507873   5.414352   5.454513
    41  H    2.846222   6.199556   6.938795   4.919780   4.814114
    42  H    4.030619   7.683919   8.488891   6.388304   6.329274
    43  C    2.365771   6.085977   6.981947   4.838992   4.983459
    44  H    3.229623   6.784265   7.739687   5.627991   5.891081
    45  H    2.555096   6.269039   7.074741   4.950265   4.907746
    46  H   11.061898  12.681912  13.616537  12.297044  12.980259
                    6          7          8          9         10
     6  C    0.000000
     7  C    1.401158   0.000000
     8  H    2.172221   1.087702   0.000000
     9  C    2.427468   1.399508   2.146543   0.000000
    10  H    3.409505   2.153677   2.456633   1.089369   0.000000
    11  C    2.815537   2.432502   3.408032   1.402033   2.165047
    12  O    5.056930   4.230750   4.868885   2.831843   2.525821
    13  C    4.303683   3.777393   4.626895   2.480592   2.678070
    14  O    4.975633   4.773046   5.732000   3.630992   4.001096
    15  O    2.339566   2.720532   2.404630   4.119998   4.754299
    16  O    2.390514   3.652193   3.997287   4.816863   5.770064
    17  C    6.381853   6.066938   6.959806   4.816627   4.955070
    18  H    6.743435   6.308585   7.132168   5.012567   5.011559
    19  H    6.743541   6.308879   7.132572   5.012925   5.012252
    20  C    7.217157   7.145512   8.118990   6.017706   6.312618
    21  H    7.129096   7.184100   8.188880   6.153034   6.550307
    22  H    7.129054   7.183908   8.188602   6.152804   6.549844
    23  H    8.265556   8.120145   9.059953   6.930926   7.117125
    24  C    9.443766   8.757871   7.999071   9.271213   8.960663
    25  C    7.609511   7.232708   6.347025   8.228973   8.208136
    26  H    8.052295   7.730270   6.805988   8.804029   8.805486
    27  C    8.472747   7.947961   7.063662   8.780836   8.626083
    28  H    9.448085   8.880376   7.951725   9.696747   9.482345
    29  C    8.280408   7.697369   6.910235   8.376282   8.183019
    30  C    7.166197   6.662213   5.992928   7.332336   7.240375
    31  H    7.274639   6.740422   6.193975   7.243063   7.123745
    32  C    6.122574   5.791537   5.130269   6.662668   6.738153
    33  H    5.338111   5.131068   4.632819   5.994273   6.192928
    34  C    6.381032   6.121992   5.336859   7.166081   7.271600
    35  O    6.366718   6.411592   5.640755   7.697988   7.982043
    36  C    5.732120   5.726261   5.000130   6.952428   7.233491
    37  O    4.681865   4.883894   4.359801   6.133431   6.572507
    38  O   10.487079   9.769605   8.933520  10.315074   9.955369
    39  O    9.636804   8.922377   8.264255   9.287028   8.945112
    40  C    4.373676   4.919898   4.557960   6.272801   6.882788
    41  H    4.099767   4.871928   4.741487   6.159870   6.887169
    42  H    5.393418   5.977740   5.583399   7.344645   7.947145
    43  C    3.675439   4.160075   3.749072   5.559534   6.160327
    44  H    4.358296   4.555266   3.915555   5.922983   6.364906
    45  H    3.971321   4.683358   4.431869   6.058741   6.751869
    46  H   11.186550  10.423498   9.618813  10.873960  10.461201
                   11         12         13         14         15
    11  C    0.000000
    12  O    2.389624   0.000000
    13  C    1.488915   1.220691   0.000000
    14  O    2.340633   2.295593   1.355811   0.000000
    15  O    4.974573   6.950368   6.418344   7.247628   0.000000
    16  O    5.058494   7.393111   6.528838   6.953464   2.293258
    17  C    3.658227   2.677819   2.341657   1.432945   8.622477
    18  H    3.997915   2.654739   2.625073   2.077011   8.911649
    19  H    3.998023   2.654740   2.625210   2.076983   8.913495
    20  C    4.718295   4.169706   3.636547   2.388658   9.535803
    21  H    4.817017   4.597650   3.923338   2.642815   9.452301
    22  H    4.816971   4.597678   3.923273   2.642824   9.450661
    23  H    5.687874   4.798074   4.480790   3.348884  10.570792
    24  C   10.381449  10.854899  11.098039  12.209344   8.384866
    25  C    9.427429  10.569290  10.535473  11.632243   5.817586
    26  H   10.026810  11.238956  11.185741  12.288807   6.060114
    27  C    9.989647  10.877147  10.965127  12.097310   6.900928
    28  H   10.942805  11.744391  11.890124  13.055019   7.808166
    29  C    9.512972  10.256386  10.381152  11.484372   7.040583
    30  C    8.379017   9.242857   9.273920  10.311862   6.133772
    31  H    8.188360   8.906268   8.965654   9.956858   6.575325
    32  C    7.701046   8.879386   8.762582   9.762859   4.884569
    33  H    6.914943   8.225768   8.005626   8.925982   4.360819
    34  C    8.283751   9.591206   9.448353  10.477932   4.681863
    35  O    8.777637  10.411980  10.115707  11.079223   4.144273
    36  C    8.008216   9.600150   9.310074  10.267633   3.730563
    37  O    7.044321   8.809332   8.391817   9.247340   2.894889
    38  O   11.488301  11.914537  12.207958  13.363085   9.263076
    39  O   10.305258  10.620160  10.901276  11.966338   8.848649
    40  C    7.043256   9.050539   8.484926   9.223823   2.448197
    41  H    6.738964   8.855719   8.180706   8.790001   2.701692
    42  H    8.107976  10.134573   9.559711  10.276607   3.399681
    43  C    6.394292   8.390609   7.849249   8.638903   1.440961
    44  H    6.916109   8.732257   8.319251   9.218830   2.036347
    45  H    6.746358   8.855809   8.220265   8.899814   2.092251
    46  H   12.016547  12.294298  12.646693  13.793879  10.084288
                   16         17         18         19         20
    16  O    0.000000
    17  C    8.386352   0.000000
    18  H    8.822487   1.095767   0.000000
    19  H    8.818492   1.095717   1.792203   0.000000
    20  C    8.964505   1.516281   2.150015   2.149916   0.000000
    21  H    8.732318   2.160307   3.064234   2.497173   1.095072
    22  H    8.736333   2.160265   2.497241   3.064092   1.095003
    23  H   10.052550   2.162917   2.499519   2.499428   1.093507
    24  C   10.109857  13.073331  13.441609  12.621711  14.299227
    25  C    7.632592  12.780996  13.098722  12.640830  13.939195
    26  H    7.891050  13.471508  13.744965  13.394709  14.627883
    27  C    8.741586  13.150670  13.468780  12.900930  14.358250
    28  H    9.706696  14.083673  14.360506  13.824172  15.324548
    29  C    8.774276  12.464914  12.839028  12.120589  13.662244
    30  C    7.698201  11.321236  11.763793  10.986834  12.459324
    31  H    7.984810  10.888234  11.381983  10.468438  12.003391
    32  C    6.412256  10.890322  11.338885  10.680942  11.974605
    33  H    5.641341  10.080902  10.592107   9.890881  11.097104
    34  C    6.367341  11.670003  12.048295  11.560193  12.763740
    35  O    5.695160  12.389025  12.698637  12.483879  13.400470
    36  C    5.297452  11.553387  11.922440  11.579440  12.567491
    37  O    4.144942  10.567731  11.007657  10.624899  11.493900
    38  O   11.093950  14.220688  14.532944  13.781228  15.485440
    39  O   10.456189  12.741549  13.151598  12.203158  13.943825
    40  C    3.178954  10.610889  11.039096  10.807769  11.424630
    41  H    2.658650  10.186403  10.699450  10.390107  10.891290
    42  H    3.923742  11.673068  12.098510  11.887923  12.455180
    43  C    2.708076  10.028858  10.329192  10.329417  10.891461
    44  H    3.731624  10.570694  10.787845  10.850406  11.528178
    45  H    2.495883  10.310696  10.593756  10.711599  11.072502
    46  H   11.892480  14.579581  14.894483  14.076910  15.850148
                   21         22         23         24         25
    21  H    0.000000
    22  H    1.759315   0.000000
    23  H    1.780214   1.780130   0.000000
    24  C   14.092923  14.818561  15.030545   0.000000
    25  C   13.776504  14.190277  14.842741   3.799490   0.000000
    26  H   14.498893  14.817277  15.551664   4.673637   1.089134
    27  C   14.194407  14.703155  15.203972   2.523446   1.399074
    28  H   15.191678  15.672543  16.154069   2.763671   2.150400
    29  C   13.454260  14.093336  14.465580   1.483221   2.425007
    30  C   12.198577  12.890270  13.283100   2.476273   2.792920
    31  H   11.700457  12.509892  12.783380   2.676428   3.881873
    32  C   11.710281  12.302617  12.868631   3.770687   2.420588
    33  H   10.782337  11.417529  12.009815   4.622356   3.415246
    34  C   12.554449  12.997233  13.694230   4.294050   1.402268
    35  O   13.242521  13.441552  14.402137   6.518710   2.834051
    36  C   12.364087  12.680132  13.554306   5.782271   2.480366
    37  O   11.233019  11.589239  12.502793   6.410114   3.630030
    38  O   15.321875  15.989244  16.209702   1.344249   4.148466
    39  O   13.702409  14.538370  14.622166   1.216856   4.828816
    40  C   11.168507  11.388509  12.476070   7.840889   4.839136
    41  H   10.553336  10.852579  11.953148   8.311851   5.628323
    42  H   12.185181  12.387044  13.514861   8.211014   4.950489
    43  C   10.768794  10.768652  11.940875   8.476451   5.413900
    44  H   11.477720  11.419758  12.552988   8.171598   4.919082
    45  H   10.958128  10.845157  12.139364   9.551195   6.387965
    46  H   15.682395  16.407058  16.528772   1.844958   5.116129
                   26         27         28         29         30
    26  H    0.000000
    27  C    2.152861   0.000000
    28  H    2.462099   1.087889   0.000000
    29  C    3.406952   1.399985   2.168262   0.000000
    30  C    3.882007   2.420572   3.412895   1.400841   0.000000
    31  H    4.970974   3.410011   4.318548   2.163891   1.088977
    32  C    3.411367   2.798830   3.886606   2.429033   1.399296
    33  H    4.323743   3.886372   4.974215   3.405277   2.146461
    34  C    2.165982   2.431541   3.410199   2.811411   2.427979
    35  O    2.530090   4.232450   4.876963   5.055061   4.817645
    36  C    2.679276   3.776282   4.630431   4.299295   3.809845
    37  O    4.001336   4.771061   5.733594   4.970388   4.119638
    38  O    4.785607   2.749515   2.431741   2.356679   3.637986
    39  O    5.776412   3.654935   3.979346   2.406339   2.868985
    40  C    4.984086   6.085326   6.985207   6.390153   5.559259
    41  H    5.891932   6.783734   7.742518   6.912028   5.922343
    42  H    4.908731   6.268468   7.078872   6.742123   6.058300
    43  C    5.454178   6.668216   7.510790   7.039151   6.272933
    44  H    4.813343   6.198387   6.942018   6.735036   6.160450
    45  H    6.329085   7.682976   8.492288   8.103955   7.344820
    46  H    5.765911   3.719005   3.393595   3.166138   4.314942
                   31         32         33         34         35
    31  H    0.000000
    32  C    2.154910   0.000000
    33  H    2.459044   1.087758   0.000000
    34  C    3.410782   1.401763   2.172608   0.000000
    35  O    5.771674   3.652795   3.997250   2.390823   0.000000
    36  C    4.686228   2.534180   2.780802   1.488632   1.220519
    37  O    4.755812   2.720380   2.403977   2.339614   2.293129
    38  O    3.996608   4.785706   5.741834   4.996458   6.980524
    39  O    2.572827   4.267090   4.912680   5.082696   7.415314
    40  C    6.161998   4.160016   3.748482   3.675483   2.707543
    41  H    6.366413   4.554918   3.914558   4.358353   3.731140
    42  H    6.753007   4.683031   4.430753   3.971292   2.495445
    43  C    6.885013   4.920269   4.558242   4.373580   3.178182
    44  H    6.889572   4.872663   4.742230   4.099704   2.657889
    45  H    7.949410   5.978128   5.583578   5.393426   3.923007
    46  H    4.469106   5.566059   6.457665   5.903328   7.943938
                   36         37         38         39         40
    36  C    0.000000
    37  O    1.354875   0.000000
    38  O    6.441753   7.265780   0.000000
    39  O    6.554422   6.985958   2.234415   0.000000
    40  C    2.365679   1.441054   8.658457   8.426511   0.000000
    41  H    3.229559   2.036328   9.235692   8.772112   1.094148
    42  H    2.554967   2.092259   8.922035   8.887729   1.096078
    43  C    3.089620   2.448216   9.243614   9.085683   1.528872
    44  H    2.846001   2.701852   8.812024   8.886307   2.173087
    45  H    4.030448   3.399783  10.297346  10.169827   2.178883
    46  H    7.366614   8.131184   0.980449   2.216502   9.541534
                   41         42         43         44         45
    41  H    0.000000
    42  H    1.763894   0.000000
    43  C    2.172986   2.178882   0.000000
    44  H    3.081128   2.565369   1.094204   0.000000
    45  H    2.565263   2.494720   1.096209   1.764017   0.000000
    46  H   10.074772   9.836304  10.131862   9.725049  11.196416
                   46
    46  H    0.000000
 Stoichiometry    C20H18O8
 Framework group  C1[X(C20H18O8)]
 Deg. of freedom   132
 Full point group                 C1      NOp   1
 Largest Abelian subgroup         C1      NOp   1
 Largest concise Abelian subgroup C1      NOp   1
                         Standard orientation:                         
 ---------------------------------------------------------------------
 Center     Atomic      Atomic             Coordinates (Angstroms)
 Number     Number       Type             X           Y           Z
 ---------------------------------------------------------------------
      1          6           0       -1.375920   -2.675186   -0.075263
      2          6           0       -4.491911   -0.575150   -0.456094
      3          1           0       -5.428382   -0.645213   -1.005036
      4          6           0       -3.554368   -1.605974   -0.587438
      5          1           0       -3.780768   -2.453064   -1.233691
      6          6           0       -2.336136   -1.552077    0.104173
      7          6           0       -2.063882   -0.453559    0.930236
      8          1           0       -1.127620   -0.382914    1.479344
      9          6           0       -3.001427    0.577186    1.061372
     10          1           0       -2.775633    1.424561    1.707668
     11          6           0       -4.220052    0.523339    0.370177
     12          8           0       -4.959234    2.613355    1.262221
     13          6           0       -5.179144    1.648257    0.547860
     14          8           0       -6.300595    1.440617   -0.185254
     15          8           0       -0.260080   -2.472906    0.665987
     16          8           0       -1.585761   -3.632858   -0.802383
     17          6           0       -7.278614    2.481501   -0.069622
     18          1           0       -7.598041    2.574537    0.974416
     19          1           0       -6.850864    3.430552   -0.411569
     20          6           0       -8.465812    2.112484   -0.937663
     21          1           0       -8.157860    1.994716   -1.981923
     22          1           0       -8.891422    1.154426   -0.621412
     23          1           0       -9.242919    2.879842   -0.882668
     24          6           0        5.768943    3.281830   -0.250456
     25          6           0        5.161935   -0.364692    0.627352
     26          1           0        5.629334   -1.154143    1.214308
     27          6           0        5.760313    0.899089    0.580359
     28          1           0        6.682545    1.069780    1.131589
     29          6           0        5.173511    1.925820   -0.168938
     30          6           0        3.985782    1.678988   -0.869457
     31          1           0        3.521060    2.470506   -1.455463
     32          6           0        3.387308    0.415006   -0.822482
     33          1           0        2.465283    0.251071   -1.375848
     34          6           0        3.973173   -0.614662   -0.073159
     35          8           0        3.863793   -2.883545    0.672654
     36          6           0        3.379510   -1.976983    0.014414
     37          8           0        2.244995   -2.051891   -0.722439
     38          8           0        6.902566    3.397337    0.462681
     39          8           0        5.317699    4.220041   -0.880438
     40          6           0        1.577184   -3.328775   -0.707193
     41          1           0        0.936116   -3.345865   -1.593703
     42          1           0        2.304887   -4.141210   -0.815747
     43          6           0        0.747447   -3.498190    0.565711
     44          1           0        1.375587   -3.393721    1.455548
     45          1           0        0.286164   -4.491744    0.607456
     46          1           0        7.178446    4.327160    0.319157
 ---------------------------------------------------------------------
 Rotational constants (GHZ):           0.2191614           0.0621067           0.0501686
 Leave Link  202 at Tue Jul 27 19:32:26 2021, MaxMem=   524288000 cpu:               0.1 elap:               0.1
 (Enter /opt/gaussian/g16_legacy/l301.exe)
 Standard basis: 6-31G(d,p) (6D, 7F)
 Ernie: Thresh=  0.10000D-02 Tol=  0.10000D-05 Strict=F.
 There are   510 symmetry adapted cartesian basis functions of A   symmetry.
 There are   510 symmetry adapted basis functions of A   symmetry.
   510 basis functions,   910 primitive gaussians,   510 cartesian basis functions
   101 alpha electrons      101 beta electrons
       nuclear repulsion energy      2349.4225251183 Hartrees.
 IExCor= 4336 DFT=T Ex+Corr=M062X ExCW=0 ScaHFX=  0.540000
 ScaDFX=  1.000000  1.000000  1.000000  1.000000 ScalE2=  1.000000  1.000000
 IRadAn=      5 IRanWt=     -1 IRanGd=            0 ICorTp=0 IEmpDi=  4
 NAtoms=   46 NActive=   46 NUniq=   46 SFac= 1.00D+00 NAtFMM=   60 NAOKFM=F Big=F
 Integral buffers will be    131072 words long.
 Raffenetti 2 integral format.
 Two-electron integral symmetry is turned on.
 Leave Link  301 at Tue Jul 27 19:32:26 2021, MaxMem=   524288000 cpu:               0.3 elap:               0.1
 (Enter /opt/gaussian/g16_legacy/l302.exe)
 NPDir=0 NMtPBC=     1 NCelOv=     1 NCel=       1 NClECP=     1 NCelD=      1
         NCelK=      1 NCelE2=     1 NClLst=     1 CellRange=     0.0.
 One-electron integrals computed using PRISM.
 One-electron integral symmetry used in STVInt
 NBasis=   510 RedAO= T EigKep=  4.17D-04  NBF=   510
 NBsUse=   510 1.00D-06 EigRej= -1.00D+00 NBFU=   510
 Precomputing XC quadrature grid using
 IXCGrd= 4 IRadAn=           5 IRanWt=          -1 IRanGd=           0 AccXCQ= 0.00D+00.
 Generated NRdTot=       0 NPtTot=           0 NUsed=           0 NTot=          32
 NSgBfM=   480   480   480   480   480 MxSgAt=    46 MxSgA2=    46.
 Leave Link  302 at Tue Jul 27 19:32:28 2021, MaxMem=   524288000 cpu:               4.5 elap:               1.3
 (Enter /opt/gaussian/g16_legacy/l303.exe)
 DipDrv:  MaxL=1.
 Leave Link  303 at Tue Jul 27 19:32:28 2021, MaxMem=   524288000 cpu:               0.2 elap:               0.1
 (Enter /opt/gaussian/g16_legacy/l401.exe)
 ExpMin= 1.61D-01 ExpMax= 5.48D+03 ExpMxC= 8.25D+02 IAcc=3 IRadAn=         5 AccDes= 0.00D+00
 Harris functional with IExCor= 1009 and IRadAn=       5 diagonalized for initial guess.
 HarFok:  IExCor= 1009 AccDes= 0.00D+00 IRadAn=         5 IDoV= 1 UseB2=F ITyADJ=14
 ICtDFT=  3500011 ScaDFX=  1.000000  1.000000  1.000000  1.000000
 FoFCou: FMM=F IPFlag=           0 FMFlag=      100000 FMFlg1=           0
         NFxFlg=           0 DoJE=T BraDBF=F KetDBF=T FulRan=T
         wScrn=  0.000000 ICntrl=       500 IOpCl=  0 I1Cent=   200000004 NGrid=           0
         NMat0=    1 NMatS0=      1 NMatT0=    0 NMatD0=    1 NMtDS0=    0 NMtDT0=    0
 Petite list used in FoFCou.
 Harris En= -1373.60480115799    
 JPrj=0 DoOrth=F DoCkMO=F.
 Leave Link  401 at Tue Jul 27 19:32:35 2021, MaxMem=   524288000 cpu:              25.5 elap:               6.5
 (Enter /opt/gaussian/g16_legacy/l502.exe)
 Integral symmetry usage will be decided dynamically.
 Closed shell SCF:
 Using DIIS extrapolation, IDIIS=  1040.
 NGot=   524288000 LenX=   523759406 LenY=   523498796
 Requested convergence on RMS density matrix=1.00D-08 within 128 cycles.
 Requested convergence on MAX density matrix=1.00D-06.
 Requested convergence on             energy=1.00D-06.
 No special actions if energy rises.
 Fock matrices will be formed incrementally for  20 cycles.
 Integral accuracy reduced to 1.0D-05 until final iterations.

 Cycle   1  Pass 0  IDiag  1:
 FoFJK:  IHMeth= 1 ICntrl=       0 DoSepK=F KAlg= 0 I1Cent=           0 FoldK=F
 IRaf= 520000000 NMat=       1 IRICut=       1 DoRegI=T DoRafI=F ISym2E= 0 IDoP0=0 IntGTp=1.
 FoFCou: FMM=F IPFlag=           0 FMFlag=      100000 FMFlg1=           0
         NFxFlg=           0 DoJE=F BraDBF=F KetDBF=F FulRan=T
         wScrn=  0.000000 ICntrl=         0 IOpCl=  0 I1Cent=           0 NGrid=           0
         NMat0=    1 NMatS0=      1 NMatT0=    0 NMatD0=    1 NMtDS0=    0 NMtDT0=    0
 Symmetry not used in FoFCou.
 E= -1373.72264666800    
 DIIS: error= 3.92D-02 at cycle   1 NSaved=   1.
 NSaved= 1 IEnMin= 1 EnMin= -1373.72264666800     IErMin= 1 ErrMin= 3.92D-02
 ErrMax= 3.92D-02  0.00D+00 EMaxC= 1.00D-01 BMatC= 7.49D-01 BMatP= 7.49D-01
 IDIUse=3 WtCom= 6.08D-01 WtEn= 3.92D-01
 Coeff-Com:  0.100D+01
 Coeff-En:   0.100D+01
 Coeff:      0.100D+01
 Gap=     0.297 Goal=   None    Shift=    0.000
 GapD=    0.297 DampG=1.000 DampE=0.500 DampFc=0.5000 IDamp=-1.
 Damping current iteration by 5.00D-01
 RMSDP=2.95D-03 MaxDP=1.36D-01              OVMax= 1.82D-01

 Cycle   2  Pass 0  IDiag  1:
 RMSU=  1.46D-03    CP:  9.85D-01
 E= -1373.98740159464     Delta-E=       -0.264754926632 Rises=F Damp=T
 DIIS: error= 1.14D-02 at cycle   2 NSaved=   2.
 NSaved= 2 IEnMin= 2 EnMin= -1373.98740159464     IErMin= 2 ErrMin= 1.14D-02
 ErrMax= 1.14D-02  0.00D+00 EMaxC= 1.00D-01 BMatC= 8.29D-02 BMatP= 7.49D-01
 IDIUse=3 WtCom= 8.86D-01 WtEn= 1.14D-01
 Coeff-Com:  0.126D-01 0.987D+00
 Coeff-En:   0.127D-01 0.987D+00
 Coeff:      0.126D-01 0.987D+00
 Gap=     0.268 Goal=   None    Shift=    0.000
 RMSDP=8.73D-04 MaxDP=2.95D-02 DE=-2.65D-01 OVMax= 1.06D-01

 Cycle   3  Pass 0  IDiag  1:
 RMSU=  8.64D-04    CP:  9.77D-01  9.58D-01
 E= -1374.26308987648     Delta-E=       -0.275688281846 Rises=F Damp=F
 DIIS: error= 5.61D-03 at cycle   3 NSaved=   3.
 NSaved= 3 IEnMin= 3 EnMin= -1374.26308987648     IErMin= 3 ErrMin= 5.61D-03
 ErrMax= 5.61D-03  0.00D+00 EMaxC= 1.00D-01 BMatC= 5.22D-02 BMatP= 8.29D-02
 IDIUse=3 WtCom= 9.44D-01 WtEn= 5.61D-02
 Coeff-Com: -0.879D-01 0.468D+00 0.619D+00
 Coeff-En:   0.000D+00 0.000D+00 0.100D+01
 Coeff:     -0.830D-01 0.442D+00 0.641D+00
 Gap=     0.280 Goal=   None    Shift=    0.000
 RMSDP=5.21D-04 MaxDP=2.74D-02 DE=-2.76D-01 OVMax= 4.70D-02

 Cycle   4  Pass 0  IDiag  1:
 RMSU=  3.06D-04    CP:  9.80D-01  1.08D+00  5.61D-01
 E= -1374.29780344629     Delta-E=       -0.034713569812 Rises=F Damp=F
 DIIS: error= 2.19D-03 at cycle   4 NSaved=   4.
 NSaved= 4 IEnMin= 4 EnMin= -1374.29780344629     IErMin= 4 ErrMin= 2.19D-03
 ErrMax= 2.19D-03  0.00D+00 EMaxC= 1.00D-01 BMatC= 8.64D-03 BMatP= 5.22D-02
 IDIUse=3 WtCom= 9.78D-01 WtEn= 2.19D-02
 Coeff-Com: -0.340D-01 0.987D-01 0.333D+00 0.602D+00
 Coeff-En:   0.000D+00 0.000D+00 0.122D+00 0.878D+00
 Coeff:     -0.332D-01 0.966D-01 0.328D+00 0.609D+00
 Gap=     0.273 Goal=   None    Shift=    0.000
 RMSDP=1.82D-04 MaxDP=7.68D-03 DE=-3.47D-02 OVMax= 1.33D-02

 Cycle   5  Pass 0  IDiag  1:
 RMSU=  8.07D-05    CP:  9.79D-01  1.06D+00  6.90D-01  6.37D-01
 E= -1374.30435579218     Delta-E=       -0.006552345890 Rises=F Damp=F
 DIIS: error= 4.44D-04 at cycle   5 NSaved=   5.
 NSaved= 5 IEnMin= 5 EnMin= -1374.30435579218     IErMin= 5 ErrMin= 4.44D-04
 ErrMax= 4.44D-04  0.00D+00 EMaxC= 1.00D-01 BMatC= 3.13D-04 BMatP= 8.64D-03
 IDIUse=3 WtCom= 9.96D-01 WtEn= 4.44D-03
 Coeff-Com: -0.863D-02 0.170D-01 0.112D+00 0.264D+00 0.616D+00
 Coeff-En:   0.000D+00 0.000D+00 0.000D+00 0.000D+00 0.100D+01
 Coeff:     -0.859D-02 0.169D-01 0.111D+00 0.263D+00 0.617D+00
 Gap=     0.273 Goal=   None    Shift=    0.000
 RMSDP=3.43D-05 MaxDP=1.92D-03 DE=-6.55D-03 OVMax= 3.29D-03

 Cycle   6  Pass 0  IDiag  1:
 RMSU=  2.64D-05    CP:  9.79D-01  1.06D+00  6.95D-01  6.69D-01  7.71D-01
 E= -1374.30460178889     Delta-E=       -0.000245996705 Rises=F Damp=F
 DIIS: error= 1.38D-04 at cycle   6 NSaved=   6.
 NSaved= 6 IEnMin= 6 EnMin= -1374.30460178889     IErMin= 6 ErrMin= 1.38D-04
 ErrMax= 1.38D-04  0.00D+00 EMaxC= 1.00D-01 BMatC= 2.89D-05 BMatP= 3.13D-04
 IDIUse=3 WtCom= 9.99D-01 WtEn= 1.38D-03
 Coeff-Com: -0.121D-02 0.397D-03 0.261D-01 0.675D-01 0.280D+00 0.627D+00
 Coeff-En:   0.000D+00 0.000D+00 0.000D+00 0.000D+00 0.000D+00 0.100D+01
 Coeff:     -0.121D-02 0.396D-03 0.260D-01 0.674D-01 0.280D+00 0.628D+00
 Gap=     0.273 Goal=   None    Shift=    0.000
 RMSDP=1.17D-05 MaxDP=6.61D-04 DE=-2.46D-04 OVMax= 1.14D-03

 Cycle   7  Pass 0  IDiag  1:
 RMSU=  8.95D-06    CP:  9.79D-01  1.06D+00  6.97D-01  6.75D-01  8.14D-01
                    CP:  7.77D-01
 E= -1374.30462546769     Delta-E=       -0.000023678802 Rises=F Damp=F
 DIIS: error= 7.17D-05 at cycle   7 NSaved=   7.
 NSaved= 7 IEnMin= 7 EnMin= -1374.30462546769     IErMin= 7 ErrMin= 7.17D-05
 ErrMax= 7.17D-05  0.00D+00 EMaxC= 1.00D-01 BMatC= 3.73D-06 BMatP= 2.89D-05
 IDIUse=1 WtCom= 1.00D+00 WtEn= 0.00D+00
 Coeff-Com:  0.988D-03-0.291D-02-0.487D-02-0.125D-01 0.404D-01 0.262D+00
 Coeff-Com:  0.717D+00
 Coeff:      0.988D-03-0.291D-02-0.487D-02-0.125D-01 0.404D-01 0.262D+00
 Coeff:      0.717D+00
 Gap=     0.273 Goal=   None    Shift=    0.000
 RMSDP=5.89D-06 MaxDP=3.18D-04 DE=-2.37D-05 OVMax= 5.32D-04

 Initial convergence to 1.0D-05 achieved.  Increase integral accuracy.
 Cycle   8  Pass 1  IDiag  1:
 E= -1374.30444800992     Delta-E=        0.000177457772 Rises=F Damp=F
 DIIS: error= 5.27D-05 at cycle   1 NSaved=   1.
 NSaved= 1 IEnMin= 1 EnMin= -1374.30444800992     IErMin= 1 ErrMin= 5.27D-05
 ErrMax= 5.27D-05  0.00D+00 EMaxC= 1.00D-01 BMatC= 2.01D-06 BMatP= 2.01D-06
 IDIUse=1 WtCom= 1.00D+00 WtEn= 0.00D+00
 Coeff-Com:  0.100D+01
 Coeff:      0.100D+01
 Gap=     0.273 Goal=   None    Shift=    0.000
 RMSDP=5.89D-06 MaxDP=3.18D-04 DE= 1.77D-04 OVMax= 5.17D-04

 Cycle   9  Pass 1  IDiag  1:
 RMSU=  2.24D-05    CP:  1.00D+00
 E= -1374.30444809240     Delta-E=       -0.000000082485 Rises=F Damp=F
 DIIS: error= 4.29D-05 at cycle   2 NSaved=   2.
 NSaved= 2 IEnMin= 2 EnMin= -1374.30444809240     IErMin= 2 ErrMin= 4.29D-05
 ErrMax= 4.29D-05  0.00D+00 EMaxC= 1.00D-01 BMatC= 2.33D-06 BMatP= 2.01D-06
 IDIUse=1 WtCom= 1.00D+00 WtEn= 0.00D+00
 Coeff-Com:  0.522D+00 0.478D+00
 Coeff:      0.522D+00 0.478D+00
 Gap=     0.273 Goal=   None    Shift=    0.000
 RMSDP=3.32D-06 MaxDP=2.14D-04 DE=-8.25D-08 OVMax= 3.37D-04

 Cycle  10  Pass 1  IDiag  1:
 RMSU=  3.31D-06    CP:  1.00D+00  9.88D-01
 E= -1374.30444980874     Delta-E=       -0.000001716340 Rises=F Damp=F
 DIIS: error= 1.38D-05 at cycle   3 NSaved=   3.
 NSaved= 3 IEnMin= 3 EnMin= -1374.30444980874     IErMin= 3 ErrMin= 1.38D-05
 ErrMax= 1.38D-05  0.00D+00 EMaxC= 1.00D-01 BMatC= 2.07D-07 BMatP= 2.01D-06
 IDIUse=1 WtCom= 1.00D+00 WtEn= 0.00D+00
 Coeff-Com: -0.765D-02 0.221D+00 0.787D+00
 Coeff:     -0.765D-02 0.221D+00 0.787D+00
 Gap=     0.273 Goal=   None    Shift=    0.000
 RMSDP=9.66D-07 MaxDP=5.00D-05 DE=-1.72D-06 OVMax= 9.34D-05

 Cycle  11  Pass 1  IDiag  1:
 RMSU=  5.68D-07    CP:  1.00D+00  1.01D+00  8.08D-01
 E= -1374.30444997464     Delta-E=       -0.000000165898 Rises=F Damp=F
 DIIS: error= 2.64D-06 at cycle   4 NSaved=   4.
 NSaved= 4 IEnMin= 4 EnMin= -1374.30444997464     IErMin= 4 ErrMin= 2.64D-06
 ErrMax= 2.64D-06  0.00D+00 EMaxC= 1.00D-01 BMatC= 1.11D-08 BMatP= 2.07D-07
 IDIUse=1 WtCom= 1.00D+00 WtEn= 0.00D+00
 Coeff-Com: -0.215D-01 0.873D-01 0.356D+00 0.578D+00
 Coeff:     -0.215D-01 0.873D-01 0.356D+00 0.578D+00
 Gap=     0.273 Goal=   None    Shift=    0.000
 RMSDP=2.34D-07 MaxDP=1.38D-05 DE=-1.66D-07 OVMax= 2.24D-05

 Cycle  12  Pass 1  IDiag  1:
 RMSU=  2.26D-07    CP:  1.00D+00  1.01D+00  8.15D-01  9.27D-01
 E= -1374.30444998509     Delta-E=       -0.000000010443 Rises=F Damp=F
 DIIS: error= 6.27D-07 at cycle   5 NSaved=   5.
 NSaved= 5 IEnMin= 5 EnMin= -1374.30444998509     IErMin= 5 ErrMin= 6.27D-07
 ErrMax= 6.27D-07  0.00D+00 EMaxC= 1.00D-01 BMatC= 1.08D-09 BMatP= 1.11D-08
 IDIUse=1 WtCom= 1.00D+00 WtEn= 0.00D+00
 Coeff-Com: -0.373D-02-0.166D-01-0.598D-01 0.152D+00 0.928D+00
 Coeff:     -0.373D-02-0.166D-01-0.598D-01 0.152D+00 0.928D+00
 Gap=     0.273 Goal=   None    Shift=    0.000
 RMSDP=1.35D-07 MaxDP=4.54D-06 DE=-1.04D-08 OVMax= 1.29D-05

 Cycle  13  Pass 1  IDiag  1:
 RMSU=  7.95D-08    CP:  1.00D+00  1.01D+00  8.13D-01  1.10D+00  1.20D+00
 E= -1374.30444998655     Delta-E=       -0.000000001468 Rises=F Damp=F
 DIIS: error= 5.40D-07 at cycle   6 NSaved=   6.
 NSaved= 6 IEnMin= 6 EnMin= -1374.30444998655     IErMin= 6 ErrMin= 5.40D-07
 ErrMax= 5.40D-07  0.00D+00 EMaxC= 1.00D-01 BMatC= 2.73D-10 BMatP= 1.08D-09
 IDIUse=1 WtCom= 1.00D+00 WtEn= 0.00D+00
 Coeff-Com:  0.181D-02-0.223D-01-0.895D-01-0.131D-01 0.463D+00 0.660D+00
 Coeff:      0.181D-02-0.223D-01-0.895D-01-0.131D-01 0.463D+00 0.660D+00
 Gap=     0.273 Goal=   None    Shift=    0.000
 RMSDP=4.53D-08 MaxDP=3.14D-06 DE=-1.47D-09 OVMax= 7.83D-06

 Cycle  14  Pass 1  IDiag  1:
 RMSU=  2.58D-08    CP:  1.00D+00  1.01D+00  8.13D-01  1.15D+00  1.28D+00
                    CP:  7.78D-01
 E= -1374.30444998684     Delta-E=       -0.000000000284 Rises=F Damp=F
 DIIS: error= 2.64D-07 at cycle   7 NSaved=   7.
 NSaved= 7 IEnMin= 7 EnMin= -1374.30444998684     IErMin= 7 ErrMin= 2.64D-07
 ErrMax= 2.64D-07  0.00D+00 EMaxC= 1.00D-01 BMatC= 3.31D-11 BMatP= 2.73D-10
 IDIUse=1 WtCom= 1.00D+00 WtEn= 0.00D+00
 Coeff-Com:  0.128D-02-0.109D-01-0.443D-01-0.195D-01 0.169D+00 0.347D+00
 Coeff-Com:  0.558D+00
 Coeff:      0.128D-02-0.109D-01-0.443D-01-0.195D-01 0.169D+00 0.347D+00
 Coeff:      0.558D+00
 Gap=     0.273 Goal=   None    Shift=    0.000
 RMSDP=1.44D-08 MaxDP=1.00D-06 DE=-2.84D-10 OVMax= 1.33D-06

 Cycle  15  Pass 1  IDiag  1:
 RMSU=  9.44D-09    CP:  1.00D+00  1.01D+00  8.13D-01  1.16D+00  1.30D+00
                    CP:  8.44D-01  8.03D-01
 E= -1374.30444998703     Delta-E=       -0.000000000191 Rises=F Damp=F
 DIIS: error= 5.44D-08 at cycle   8 NSaved=   8.
 NSaved= 8 IEnMin= 8 EnMin= -1374.30444998703     IErMin= 8 ErrMin= 5.44D-08
 ErrMax= 5.44D-08  0.00D+00 EMaxC= 1.00D-01 BMatC= 2.34D-12 BMatP= 3.31D-11
 IDIUse=1 WtCom= 1.00D+00 WtEn= 0.00D+00
 Coeff-Com:  0.267D-03-0.121D-02-0.531D-02-0.533D-02 0.343D-02 0.507D-01
 Coeff-Com:  0.231D+00 0.727D+00
 Coeff:      0.267D-03-0.121D-02-0.531D-02-0.533D-02 0.343D-02 0.507D-01
 Coeff:      0.231D+00 0.727D+00
 Gap=     0.273 Goal=   None    Shift=    0.000
 RMSDP=3.62D-09 MaxDP=2.43D-07 DE=-1.91D-10 OVMax= 4.68D-07

 SCF Done:  E(RM062X) =  -1374.30444999     A.U. after   15 cycles
            NFock= 15  Conv=0.36D-08     -V/T= 2.0087
 KE= 1.362397407907D+03 PE=-7.905906152373D+03 EE= 2.819781769361D+03
 Leave Link  502 at Tue Jul 27 19:36:44 2021, MaxMem=   524288000 cpu:             994.2 elap:             249.1
 (Enter /opt/gaussian/g16_legacy/l601.exe)
 Copying SCF densities to generalized density rwf, IOpCl= 0 IROHF=0.

 **********************************************************************

            Population analysis using the SCF density.

 **********************************************************************

 Orbital symmetries:
       Occupied  (A) (A) (A) (A) (A) (A) (A) (A) (A) (A) (A) (A)
                 (A) (A) (A) (A) (A) (A) (A) (A) (A) (A) (A) (A)
                 (A) (A) (A) (A) (A) (A) (A) (A) (A) (A) (A) (A)
                 (A) (A) (A) (A) (A) (A) (A) (A) (A) (A) (A) (A)
                 (A) (A) (A) (A) (A) (A) (A) (A) (A) (A) (A) (A)
                 (A) (A) (A) (A) (A) (A) (A) (A) (A) (A) (A) (A)
                 (A) (A) (A) (A) (A) (A) (A) (A) (A) (A) (A) (A)
                 (A) (A) (A) (A) (A) (A) (A) (A) (A) (A) (A) (A)
                 (A) (A) (A) (A) (A)
       Virtual   (A) (A) (A) (A) (A) (A) (A) (A) (A) (A) (A) (A)
                 (A) (A) (A) (A) (A) (A) (A) (A) (A) (A) (A) (A)
                 (A) (A) (A) (A) (A) (A) (A) (A) (A) (A) (A) (A)
                 (A) (A) (A) (A) (A) (A) (A) (A) (A) (A) (A) (A)
                 (A) (A) (A) (A) (A) (A) (A) (A) (A) (A) (A) (A)
                 (A) (A) (A) (A) (A) (A) (A) (A) (A) (A) (A) (A)
                 (A) (A) (A) (A) (A) (A) (A) (A) (A) (A) (A) (A)
                 (A) (A) (A) (A) (A) (A) (A) (A) (A) (A) (A) (A)
                 (A) (A) (A) (A) (A) (A) (A) (A) (A) (A) (A) (A)
                 (A) (A) (A) (A) (A) (A) (A) (A) (A) (A) (A) (A)
                 (A) (A) (A) (A) (A) (A) (A) (A) (A) (A) (A) (A)
                 (A) (A) (A) (A) (A) (A) (A) (A) (A) (A) (A) (A)
                 (A) (A) (A) (A) (A) (A) (A) (A) (A) (A) (A) (A)
                 (A) (A) (A) (A) (A) (A) (A) (A) (A) (A) (A) (A)
                 (A) (A) (A) (A) (A) (A) (A) (A) (A) (A) (A) (A)
                 (A) (A) (A) (A) (A) (A) (A) (A) (A) (A) (A) (A)
                 (A) (A) (A) (A) (A) (A) (A) (A) (A) (A) (A) (A)
                 (A) (A) (A) (A) (A) (A) (A) (A) (A) (A) (A) (A)
                 (A) (A) (A) (A) (A) (A) (A) (A) (A) (A) (A) (A)
                 (A) (A) (A) (A) (A) (A) (A) (A) (A) (A) (A) (A)
                 (A) (A) (A) (A) (A) (A) (A) (A) (A) (A) (A) (A)
                 (A) (A) (A) (A) (A) (A) (A) (A) (A) (A) (A) (A)
                 (A) (A) (A) (A) (A) (A) (A) (A) (A) (A) (A) (A)
                 (A) (A) (A) (A) (A) (A) (A) (A) (A) (A) (A) (A)
                 (A) (A) (A) (A) (A) (A) (A) (A) (A) (A) (A) (A)
                 (A) (A) (A) (A) (A) (A) (A) (A) (A) (A) (A) (A)
                 (A) (A) (A) (A) (A) (A) (A) (A) (A) (A) (A) (A)
                 (A) (A) (A) (A) (A) (A) (A) (A) (A) (A) (A) (A)
                 (A) (A) (A) (A) (A) (A) (A) (A) (A) (A) (A) (A)
                 (A) (A) (A) (A) (A) (A) (A) (A) (A) (A) (A) (A)
                 (A) (A) (A) (A) (A) (A) (A) (A) (A) (A) (A) (A)
                 (A) (A) (A) (A) (A) (A) (A) (A) (A) (A) (A) (A)
                 (A) (A) (A) (A) (A) (A) (A) (A) (A) (A) (A) (A)
                 (A) (A) (A) (A) (A) (A) (A) (A) (A) (A) (A) (A)
                 (A)
 The electronic state is 1-A.
 Alpha  occ. eigenvalues --  -19.70168 -19.70040 -19.69546 -19.69361 -19.64652
 Alpha  occ. eigenvalues --  -19.64464 -19.63927 -19.63895 -10.69887 -10.69693
 Alpha  occ. eigenvalues --  -10.69527 -10.69078 -10.62145 -10.62097 -10.60972
 Alpha  occ. eigenvalues --  -10.58431 -10.58421 -10.58055 -10.57950 -10.57587
 Alpha  occ. eigenvalues --  -10.57522 -10.57419 -10.57401 -10.57178 -10.57157
 Alpha  occ. eigenvalues --  -10.57065 -10.56965 -10.54872  -1.24339  -1.24139
 Alpha  occ. eigenvalues --   -1.23468  -1.23265  -1.15012  -1.14484  -1.14115
 Alpha  occ. eigenvalues --   -1.13809  -0.98290  -0.97884  -0.90874  -0.89675
 Alpha  occ. eigenvalues --   -0.87838  -0.86253  -0.85912  -0.85432  -0.80272
 Alpha  occ. eigenvalues --   -0.77088  -0.75244  -0.72027  -0.71217  -0.70345
 Alpha  occ. eigenvalues --   -0.68938  -0.67093  -0.65729  -0.64100  -0.62733
 Alpha  occ. eigenvalues --   -0.62327  -0.60469  -0.60102  -0.58622  -0.58244
 Alpha  occ. eigenvalues --   -0.57934  -0.57242  -0.56734  -0.55743  -0.54055
 Alpha  occ. eigenvalues --   -0.53880  -0.53367  -0.52942  -0.52774  -0.51841
 Alpha  occ. eigenvalues --   -0.51383  -0.50359  -0.50320  -0.50151  -0.49917
 Alpha  occ. eigenvalues --   -0.48704  -0.48300  -0.47110  -0.46344  -0.44781
 Alpha  occ. eigenvalues --   -0.44703  -0.44574  -0.44251  -0.44038  -0.43106
 Alpha  occ. eigenvalues --   -0.42466  -0.42327  -0.41696  -0.41145  -0.39885
 Alpha  occ. eigenvalues --   -0.39579  -0.37445  -0.37304  -0.36494  -0.36036
 Alpha  occ. eigenvalues --   -0.35889  -0.35596  -0.32663  -0.32181  -0.32128
 Alpha  occ. eigenvalues --   -0.31757
 Alpha virt. eigenvalues --   -0.04442  -0.04070   0.01532   0.01885   0.04970
 Alpha virt. eigenvalues --    0.05102   0.11813   0.12686   0.12764   0.13271
 Alpha virt. eigenvalues --    0.13949   0.14698   0.15646   0.16043   0.16412
 Alpha virt. eigenvalues --    0.17641   0.18581   0.18826   0.19388   0.19526
 Alpha virt. eigenvalues --    0.19839   0.20671   0.21069   0.21504   0.22182
 Alpha virt. eigenvalues --    0.22281   0.22519   0.22685   0.23694   0.23785
 Alpha virt. eigenvalues --    0.24588   0.25538   0.26380   0.28355   0.28955
 Alpha virt. eigenvalues --    0.29344   0.29967   0.31163   0.31811   0.32289
 Alpha virt. eigenvalues --    0.32483   0.32870   0.33253   0.33451   0.33613
 Alpha virt. eigenvalues --    0.37324   0.38180   0.38500   0.38575   0.44728
 Alpha virt. eigenvalues --    0.45087   0.47865   0.48646   0.50612   0.52161
 Alpha virt. eigenvalues --    0.52377   0.53039   0.54442   0.54781   0.56161
 Alpha virt. eigenvalues --    0.56344   0.56832   0.57308   0.57482   0.57734
 Alpha virt. eigenvalues --    0.58055   0.58543   0.58831   0.59736   0.59881
 Alpha virt. eigenvalues --    0.60703   0.61429   0.62367   0.62591   0.63006
 Alpha virt. eigenvalues --    0.63142   0.63267   0.63457   0.63553   0.64696
 Alpha virt. eigenvalues --    0.65115   0.65449   0.65603   0.67319   0.67723
 Alpha virt. eigenvalues --    0.68539   0.69287   0.69595   0.70662   0.70803
 Alpha virt. eigenvalues --    0.71329   0.72062   0.74402   0.75135   0.75383
 Alpha virt. eigenvalues --    0.76171   0.77497   0.78075   0.78666   0.79223
 Alpha virt. eigenvalues --    0.79789   0.80324   0.82150   0.82529   0.83102
 Alpha virt. eigenvalues --    0.83427   0.84798   0.85320   0.85783   0.85979
 Alpha virt. eigenvalues --    0.86197   0.86666   0.87090   0.87334   0.87554
 Alpha virt. eigenvalues --    0.87774   0.89318   0.89610   0.90316   0.91865
 Alpha virt. eigenvalues --    0.92237   0.92539   0.94056   0.94311   0.94525
 Alpha virt. eigenvalues --    0.95169   0.95237   0.97755   0.98232   0.99472
 Alpha virt. eigenvalues --    0.99922   1.00171   1.00552   1.01366   1.01835
 Alpha virt. eigenvalues --    1.02465   1.02794   1.03813   1.04846   1.06056
 Alpha virt. eigenvalues --    1.06336   1.07186   1.08915   1.09503   1.09729
 Alpha virt. eigenvalues --    1.10621   1.10915   1.12531   1.13340   1.15270
 Alpha virt. eigenvalues --    1.16625   1.17041   1.18039   1.18995   1.20394
 Alpha virt. eigenvalues --    1.21840   1.22826   1.25665   1.27198   1.27885
 Alpha virt. eigenvalues --    1.28179   1.29007   1.29310   1.30286   1.31588
 Alpha virt. eigenvalues --    1.31855   1.32984   1.33653   1.33759   1.34762
 Alpha virt. eigenvalues --    1.35417   1.35763   1.36127   1.36434   1.38591
 Alpha virt. eigenvalues --    1.39751   1.41614   1.41690   1.42684   1.42915
 Alpha virt. eigenvalues --    1.43638   1.44186   1.44530   1.44732   1.45153
 Alpha virt. eigenvalues --    1.46074   1.47084   1.47853   1.48683   1.48843
 Alpha virt. eigenvalues --    1.50381   1.51036   1.51214   1.55631   1.57760
 Alpha virt. eigenvalues --    1.59444   1.60479   1.61265   1.61630   1.63413
 Alpha virt. eigenvalues --    1.67776   1.68856   1.69796   1.70282   1.71567
 Alpha virt. eigenvalues --    1.71757   1.72432   1.74433   1.77527   1.77692
 Alpha virt. eigenvalues --    1.78050   1.78836   1.79175   1.79650   1.79849
 Alpha virt. eigenvalues --    1.80585   1.81981   1.82943   1.85396   1.86273
 Alpha virt. eigenvalues --    1.88549   1.89004   1.89812   1.89948   1.90063
 Alpha virt. eigenvalues --    1.90379   1.90560   1.91346   1.92793   1.92989
 Alpha virt. eigenvalues --    1.93250   1.93544   1.94755   1.94947   1.95418
 Alpha virt. eigenvalues --    1.95753   1.96016   1.97790   1.98456   1.98930
 Alpha virt. eigenvalues --    1.99274   1.99631   1.99852   2.00103   2.00955
 Alpha virt. eigenvalues --    2.02409   2.03339   2.04601   2.05525   2.06152
 Alpha virt. eigenvalues --    2.07295   2.07861   2.08573   2.10235   2.10687
 Alpha virt. eigenvalues --    2.11419   2.11528   2.12232   2.12468   2.12886
 Alpha virt. eigenvalues --    2.13162   2.13285   2.13491   2.15075   2.15706
 Alpha virt. eigenvalues --    2.17453   2.18528   2.20591   2.21371   2.23417
 Alpha virt. eigenvalues --    2.26186   2.27158   2.29084   2.29304   2.29739
 Alpha virt. eigenvalues --    2.30950   2.31377   2.32290   2.33305   2.34842
 Alpha virt. eigenvalues --    2.35429   2.36697   2.38805   2.39668   2.39908
 Alpha virt. eigenvalues --    2.40290   2.41561   2.41699   2.41983   2.42507
 Alpha virt. eigenvalues --    2.42936   2.43845   2.44361   2.44897   2.45915
 Alpha virt. eigenvalues --    2.46404   2.47228   2.50064   2.52269   2.52731
 Alpha virt. eigenvalues --    2.53002   2.54497   2.55007   2.56087   2.57246
 Alpha virt. eigenvalues --    2.57940   2.59669   2.59779   2.59971   2.60414
 Alpha virt. eigenvalues --    2.60805   2.61538   2.62411   2.63405   2.63586
 Alpha virt. eigenvalues --    2.65138   2.66162   2.67017   2.68152   2.68354
 Alpha virt. eigenvalues --    2.68497   2.70087   2.70639   2.71682   2.72393
 Alpha virt. eigenvalues --    2.74539   2.75337   2.76617   2.77107   2.77311
 Alpha virt. eigenvalues --    2.78049   2.78571   2.79330   2.79751   2.80704
 Alpha virt. eigenvalues --    2.83339   2.84125   2.84711   2.86257   2.87301
 Alpha virt. eigenvalues --    2.89071   2.89669   2.89961   2.92356   2.93665
 Alpha virt. eigenvalues --    2.95782   2.98202   2.98714   2.99839   3.01401
 Alpha virt. eigenvalues --    3.02328   3.04509   3.04877   3.11528   3.14187
 Alpha virt. eigenvalues --    3.15783   3.17060   3.17658   3.18529   3.20072
 Alpha virt. eigenvalues --    3.21709   3.22739   3.23383   3.23948   3.28098
 Alpha virt. eigenvalues --    3.28645   3.31152   3.35550   3.36085   3.36377
 Alpha virt. eigenvalues --    3.38044   3.39837   3.41902   3.44560   3.45282
 Alpha virt. eigenvalues --    3.48840   3.49720   3.50427   3.51330   3.80789
 Alpha virt. eigenvalues --    3.80905   3.95366   3.97038   4.02945   4.08424
 Alpha virt. eigenvalues --    4.11542   4.12619   4.16429   4.16704   4.16827
 Alpha virt. eigenvalues --    4.19415   4.27047   4.29491   4.35051   4.37489
[...]
    44  H   -0.000000   0.000000  -0.000000   0.000000  -0.000000   0.000000
    45  H    0.000000  -0.000000  -0.000000   0.000000   0.000000  -0.000000
    46  H    0.000000   0.000000   0.000000   0.000000   0.000000  -0.015023
              25         26         27         28         29         30
     1  C   -0.000000  -0.000000   0.000000   0.000000   0.000000   0.000000
     2  C   -0.000000  -0.000000   0.000000   0.000000   0.000000   0.000000
     3  H   -0.000000  -0.000000   0.000000   0.000000   0.000000   0.000000
     4  C    0.000000   0.000000  -0.000000  -0.000000  -0.000000  -0.000000
     5  H    0.000000   0.000000  -0.000000  -0.000000  -0.000000  -0.000000
     6  C    0.000000   0.000000  -0.000000  -0.000000   0.000000  -0.000000
     7  C    0.000000   0.000000   0.000000  -0.000000   0.000000  -0.000000
     8  H   -0.000000  -0.000000  -0.000000   0.000000  -0.000000   0.000000
     9  C   -0.000000  -0.000000   0.000000   0.000000   0.000000   0.000000
    10  H    0.000000   0.000000   0.000000  -0.000000   0.000000  -0.000000
    11  C   -0.000000  -0.000000   0.000000   0.000000   0.000000   0.000000
    12  O    0.000000  -0.000000  -0.000000   0.000000  -0.000000   0.000000
    13  C    0.000000   0.000000  -0.000000  -0.000000  -0.000000  -0.000000
    14  O    0.000000   0.000000   0.000000   0.000000   0.000000   0.000000
    15  O   -0.000001  -0.000000   0.000000   0.000000   0.000000  -0.000000
    16  O   -0.000000   0.000000   0.000000   0.000000  -0.000000   0.000000
    17  C    0.000000   0.000000   0.000000   0.000000  -0.000000  -0.000000
    18  H    0.000000   0.000000   0.000000   0.000000   0.000000   0.000000
    19  H   -0.000000   0.000000   0.000000   0.000000  -0.000000  -0.000000
    20  C    0.000000   0.000000   0.000000   0.000000   0.000000  -0.000000
    21  H    0.000000   0.000000   0.000000   0.000000   0.000000   0.000000
    22  H    0.000000   0.000000   0.000000   0.000000   0.000000   0.000000
    23  H    0.000000   0.000000   0.000000   0.000000   0.000000   0.000000
    24  C    0.004229  -0.000112  -0.036418  -0.008539   0.307429  -0.042625
    25  C    4.911115   0.376107   0.492102  -0.032368  -0.032157  -0.043423
    26  H    0.376107   0.522972  -0.031169  -0.003518   0.002872   0.000471
    27  C    0.492102  -0.031169   4.926427   0.376633   0.520095  -0.058657
    28  H   -0.032368  -0.003518   0.376633   0.527537  -0.033194   0.004247
    29  C   -0.032157   0.002872   0.520095  -0.033194   5.006673   0.537658
    30  C   -0.043423   0.000471  -0.058657   0.004247   0.537658   4.917107
    31  H    0.000524   0.000016   0.004281  -0.000138  -0.037236   0.376361
    32  C   -0.059029   0.004403  -0.041656   0.000523  -0.037899   0.487417
    33  H    0.004315  -0.000136   0.000505   0.000015   0.003011  -0.032814
    34  C    0.534211  -0.037798  -0.036898   0.002945  -0.028233  -0.029264
    35  O    0.002570   0.010792   0.000788   0.000001  -0.000010  -0.000065
    36  C   -0.039406  -0.007986   0.005937  -0.000141   0.000497   0.004363
    37  O    0.004229   0.000285  -0.000053   0.000000  -0.000006   0.000353
    38  O    0.000287  -0.000001   0.000591   0.006152  -0.103932   0.004103
    39  O   -0.000062   0.000000   0.003709   0.000105  -0.100726   0.002910
    40  C   -0.000162  -0.000014   0.000001  -0.000000   0.000000   0.000003
    41  H    0.000002   0.000000  -0.000000   0.000000   0.000000  -0.000001
    42  H   -0.000018  -0.000005   0.000000  -0.000000  -0.000000   0.000001
    43  C    0.000025   0.000003  -0.000000   0.000000  -0.000000   0.000000
    44  H   -0.000001   0.000001  -0.000000  -0.000000   0.000000   0.000000
    45  H   -0.000000  -0.000000   0.000000  -0.000000   0.000000  -0.000000
    46  H    0.000005  -0.000000  -0.000558  -0.000194   0.011430  -0.000225
              31         32         33         34         35         36
     1  C   -0.000000   0.000001   0.000008  -0.000000   0.000003   0.000062
     2  C    0.000000   0.000000  -0.000000  -0.000000   0.000000   0.000000
     3  H   -0.000000  -0.000000   0.000000  -0.000000   0.000000   0.000000
     4  C    0.000000   0.000000  -0.000000   0.000000  -0.000000  -0.000000
     5  H    0.000000   0.000000  -0.000000   0.000000   0.000000  -0.000000
     6  C    0.000000  -0.000001  -0.000000   0.000001   0.000000  -0.000001
     7  C   -0.000000  -0.000001   0.000003  -0.000001   0.000000   0.000001
     8  H   -0.000000   0.000004   0.000002  -0.000000   0.000000   0.000009
     9  C   -0.000000  -0.000000   0.000000  -0.000000   0.000000   0.000000
    10  H    0.000000  -0.000000  -0.000000   0.000000   0.000000  -0.000000
    11  C    0.000000   0.000000  -0.000000   0.000000  -0.000000   0.000000
    12  O   -0.000000  -0.000000   0.000000  -0.000000   0.000000   0.000000
    13  C    0.000000   0.000000  -0.000000   0.000000  -0.000000  -0.000000
    14  O   -0.000000  -0.000000   0.000000  -0.000000   0.000000   0.000000
    15  O   -0.000000   0.000011   0.000013  -0.000043   0.000043   0.001579
    16  O    0.000000   0.000000   0.000000   0.000000  -0.000000   0.000003
    17  C    0.000000   0.000000  -0.000000   0.000000   0.000000  -0.000000
    18  H   -0.000000  -0.000000   0.000000  -0.000000   0.000000   0.000000
    19  H    0.000000   0.000000  -0.000000  -0.000000   0.000000   0.000000
    20  C    0.000000  -0.000000  -0.000000   0.000000   0.000000   0.000000
    21  H   -0.000000  -0.000000   0.000000   0.000000   0.000000  -0.000000
    22  H    0.000000   0.000000  -0.000000   0.000000   0.000000   0.000000
    23  H    0.000000   0.000000  -0.000000   0.000000   0.000000   0.000000
    24  C   -0.008170   0.006686  -0.000134   0.000241  -0.000000   0.000002
    25  C    0.000524  -0.059029   0.004315   0.534211   0.002570  -0.039406
    26  H    0.000016   0.004403  -0.000136  -0.037798   0.010792  -0.007986
    27  C    0.004281  -0.041656   0.000505  -0.036898   0.000788   0.005937
    28  H   -0.000138   0.000523   0.000015   0.002945   0.000001  -0.000141
    29  C   -0.037236  -0.037899   0.003011  -0.028233  -0.000010   0.000497
    30  C    0.376361   0.487417  -0.032814  -0.029264  -0.000065   0.004363
    31  H    0.520689  -0.030727  -0.003483   0.002797   0.000000  -0.000126
    32  C   -0.030727   4.927562   0.376733   0.520585   0.003719  -0.039967
    33  H   -0.003483   0.376733   0.526867  -0.034093   0.000117  -0.008539
    34  C    0.002797   0.520585  -0.034093   4.972078  -0.091052   0.349082
    35  O    0.000000   0.003719   0.000117  -0.091052   8.101502   0.551618
    36  C   -0.000126  -0.039967  -0.008539   0.349082   0.551618   4.300302
    37  O   -0.000001   0.001146   0.007862  -0.098289  -0.093451   0.265687
    38  O    0.000272  -0.000048   0.000000  -0.000006   0.000000  -0.000000
    39  O    0.010065   0.000860   0.000001  -0.000017  -0.000000  -0.000000
    40  C   -0.000000  -0.000287  -0.000251   0.007641   0.000171  -0.028612
    41  H   -0.000000  -0.000050  -0.000007   0.000035   0.000376   0.003317
    42  H   -0.000000   0.000056   0.000019   0.000023   0.011118  -0.005962
    43  C    0.000000   0.000017   0.000019  -0.000685  -0.006799  -0.004651
    44  H   -0.000000  -0.000024  -0.000001   0.000241   0.007002   0.004127
    45  H   -0.000000  -0.000000  -0.000000   0.000002   0.000068   0.000236
    46  H   -0.000018   0.000001  -0.000000   0.000001   0.000000   0.000000
              37         38         39         40         41         42
     1  C    0.001560   0.000000   0.000000  -0.004675   0.004107   0.000234
     2  C    0.000000   0.000000  -0.000000  -0.000000  -0.000000   0.000000
     3  H    0.000000   0.000000   0.000000   0.000000  -0.000000  -0.000000
     4  C   -0.000001   0.000000   0.000000   0.000024  -0.000001  -0.000000
     5  H   -0.000000   0.000000  -0.000000   0.000003   0.000000  -0.000000
     6  C   -0.000042  -0.000000  -0.000000  -0.000678   0.000241   0.000002
     7  C    0.000011  -0.000000  -0.000000   0.000017  -0.000024  -0.000000
     8  H    0.000013   0.000000   0.000000   0.000019  -0.000001  -0.000000
     9  C   -0.000000   0.000000   0.000000   0.000000   0.000000  -0.000000
    10  H   -0.000000  -0.000000  -0.000000   0.000000  -0.000000  -0.000000
    11  C    0.000000   0.000000  -0.000000  -0.000000   0.000000   0.000000
    12  O    0.000000   0.000000   0.000000  -0.000000   0.000000   0.000000
    13  C   -0.000000   0.000000  -0.000000   0.000000   0.000000  -0.000000
    14  O   -0.000000   0.000000   0.000000  -0.000000  -0.000000  -0.000000
    15  O    0.000030  -0.000000   0.000000  -0.039082  -0.006307   0.002840
    16  O    0.000044   0.000000   0.000000  -0.006825   0.007090   0.000069
    17  C   -0.000000   0.000000   0.000000   0.000000  -0.000000  -0.000000
    18  H   -0.000000   0.000000   0.000000  -0.000000  -0.000000  -0.000000
    19  H   -0.000000   0.000000   0.000000  -0.000000   0.000000   0.000000
    20  C    0.000000   0.000000   0.000000   0.000000  -0.000000   0.000000
    21  H   -0.000000   0.000000   0.000000  -0.000000  -0.000000  -0.000000
    22  H    0.000000   0.000000   0.000000  -0.000000   0.000000   0.000000
    23  H    0.000000   0.000000   0.000000   0.000000  -0.000000   0.000000
    24  C   -0.000000   0.280172   0.595894   0.000000   0.000000  -0.000000
    25  C    0.004229   0.000287  -0.000062  -0.000162   0.000002  -0.000018
    26  H    0.000285  -0.000001   0.000000  -0.000014   0.000000  -0.000005
    27  C   -0.000053   0.000591   0.003709   0.000001  -0.000000   0.000000
    28  H    0.000000   0.006152   0.000105  -0.000000   0.000000  -0.000000
    29  C   -0.000006  -0.103932  -0.100726   0.000000   0.000000  -0.000000
    30  C    0.000353   0.004103   0.002910   0.000003  -0.000001   0.000001
    31  H   -0.000001   0.000272   0.010065  -0.000000  -0.000000  -0.000000
    32  C    0.001146  -0.000048   0.000860  -0.000287  -0.000050   0.000056
    33  H    0.007862   0.000000   0.000001  -0.000251  -0.000007   0.000019
    34  C   -0.098289  -0.000006  -0.000017   0.007641   0.000035   0.000023
    35  O   -0.093451   0.000000  -0.000000   0.000171   0.000376   0.011118
    36  C    0.265687  -0.000000  -0.000000  -0.028612   0.003317  -0.005962
    37  O    8.344947  -0.000000   0.000000   0.183719  -0.033808  -0.031713
    38  O   -0.000000   8.160073  -0.097188   0.000000  -0.000000  -0.000000
    39  O    0.000000  -0.097188   8.057195   0.000000   0.000000   0.000000
    40  C    0.183719   0.000000   0.000000   4.855678   0.401513   0.380090
    41  H   -0.033808  -0.000000   0.000000   0.401513   0.513024  -0.025043
    42  H   -0.031713  -0.000000   0.000000   0.380090  -0.025043   0.552153
    43  C   -0.038989  -0.000000  -0.000000   0.340888  -0.037227  -0.039763
    44  H   -0.006299  -0.000000  -0.000000  -0.037421   0.003567  -0.002318
    45  H    0.002836  -0.000000   0.000000  -0.039867  -0.002339   0.002068
    46  H    0.000000   0.284608   0.006470  -0.000000  -0.000000   0.000000
              43         44         45         46
     1  C   -0.028613   0.003334  -0.006009  -0.000000
     2  C    0.000001  -0.000000   0.000000   0.000000
     3  H   -0.000000   0.000000  -0.000000   0.000000
     4  C   -0.000163   0.000002  -0.000017  -0.000000
     5  H   -0.000014   0.000000  -0.000005   0.000000
     6  C    0.007640   0.000037   0.000017   0.000000
     7  C   -0.000287  -0.000050   0.000057   0.000000
     8  H   -0.000251  -0.000006   0.000019  -0.000000
     9  C    0.000003  -0.000001   0.000001  -0.000000
    10  H   -0.000000  -0.000000  -0.000000   0.000000
    11  C    0.000000   0.000000  -0.000000  -0.000000
    12  O    0.000000   0.000000   0.000000   0.000000
    13  C    0.000000   0.000000  -0.000000   0.000000
    14  O    0.000000  -0.000000   0.000000   0.000000
    15  O    0.184295  -0.033912  -0.031707  -0.000000
    16  O    0.000144   0.000381   0.011256   0.000000
    17  C   -0.000000  -0.000000   0.000000   0.000000
    18  H    0.000000  -0.000000  -0.000000   0.000000
    19  H    0.000000  -0.000000   0.000000   0.000000
    20  C   -0.000000   0.000000  -0.000000   0.000000
    21  H    0.000000  -0.000000  -0.000000   0.000000
    22  H   -0.000000   0.000000   0.000000   0.000000
    23  H   -0.000000  -0.000000   0.000000   0.000000
    24  C    0.000000   0.000000  -0.000000  -0.015023
    25  C    0.000025  -0.000001  -0.000000   0.000005
    26  H    0.000003   0.000001  -0.000000  -0.000000
    27  C   -0.000000  -0.000000   0.000000  -0.000558
    28  H    0.000000  -0.000000  -0.000000  -0.000194
    29  C   -0.000000   0.000000   0.000000   0.011430
    30  C    0.000000   0.000000  -0.000000  -0.000225
    31  H    0.000000  -0.000000  -0.000000  -0.000018
    32  C    0.000017  -0.000024  -0.000000   0.000001
    33  H    0.000019  -0.000001  -0.000000  -0.000000
    34  C   -0.000685   0.000241   0.000002   0.000001
    35  O   -0.006799   0.007002   0.000068   0.000000
    36  C   -0.004651   0.004127   0.000236   0.000000
    37  O   -0.038989  -0.006299   0.002836   0.000000
    38  O   -0.000000  -0.000000  -0.000000   0.284608
    39  O   -0.000000  -0.000000   0.000000   0.006470
    40  C    0.340888  -0.037421  -0.039867  -0.000000
    41  H   -0.037227   0.003567  -0.002339  -0.000000
    42  H   -0.039763  -0.002318   0.002068   0.000000
    43  C    4.854190   0.401610   0.380182   0.000000
    44  H    0.401610   0.513705  -0.025054  -0.000000
    45  H    0.380182  -0.025054   0.552077  -0.000000
    46  H    0.000000  -0.000000  -0.000000   0.359959
 Mulliken charges:
               1
     1  C    0.647169
     2  C   -0.123011
     3  H    0.154621
     4  C   -0.125350
     5  H    0.160871
     6  C   -0.032207
     7  C   -0.122386
     8  H    0.158094
     9  C   -0.125383
    10  H    0.163133
    11  C   -0.031882
    12  O   -0.494302
    13  C    0.650086
    14  O   -0.518068
    15  O   -0.510314
    16  O   -0.499657
    17  C    0.022353
    18  H    0.141875
    19  H    0.141882
    20  C   -0.388121
    21  H    0.140945
    22  H    0.140940
    23  H    0.134109
    24  C    0.602761
    25  C   -0.123094
    26  H    0.162816
    27  C   -0.125660
    28  H    0.159935
    29  C   -0.016274
    30  C   -0.127919
    31  H    0.164894
    32  C   -0.120036
    33  H    0.159967
    34  C   -0.033503
    35  O   -0.498510
    36  C    0.648573
    37  O   -0.510070
    38  O   -0.535084
    39  O   -0.479216
    40  C   -0.011894
    41  H    0.171535
    42  H    0.156150
    43  C   -0.011573
    44  H    0.171079
    45  H    0.156182
    46  H    0.353545
 Sum of Mulliken charges =  -0.00000
 Mulliken charges with hydrogens summed into heavy atoms:
               1
     1  C    0.647169
     2  C    0.031611
     4  C    0.035521
     6  C   -0.032207
     7  C    0.035707
     9  C    0.037750
    11  C   -0.031882
    12  O   -0.494302
    13  C    0.650086
    14  O   -0.518068
    15  O   -0.510314
    16  O   -0.499657
    17  C    0.306110
    20  C    0.027873
    24  C    0.602761
    25  C    0.039722
    27  C    0.034275
    29  C   -0.016274
    30  C    0.036975
    32  C    0.039931
    34  C   -0.033503
    35  O   -0.498510
    36  C    0.648573
    37  O   -0.510070
    38  O   -0.181539
    39  O   -0.479216
    40  C    0.315791
    43  C    0.315688
 Electronic spatial extent (au):  <R**2>=          19709.0862
 Charge=              0.0000 electrons
 Dipole moment (field-independent basis, Debye):
    X=             -0.7636    Y=              0.0378    Z=             -0.2563  Tot=              0.8064
 Quadrupole moment (field-independent basis, Debye-Ang):
   XX=           -125.3660   YY=           -163.9802   ZZ=           -160.0786
   XY=              1.9983   XZ=             10.9033   YZ=              0.5551
 Traceless Quadrupole moment (field-independent basis, Debye-Ang):
   XX=             24.4423   YY=            -14.1719   ZZ=            -10.2703
   XY=              1.9983   XZ=             10.9033   YZ=              0.5551
 Octapole moment (field-independent basis, Debye-Ang**2):
  XXX=            -92.5537  YYY=             -3.7732  ZZZ=             -0.9784  XYY=             28.0787
  XXY=            145.0800  XXZ=             -8.7191  XZZ=              5.1081  YZZ=             -7.1785
  YYZ=             14.6242  XYZ=             57.7353
 Hexadecapole moment (field-independent basis, Debye-Ang**3):
 XXXX=         -16405.9190 YYYY=          -5038.1872 ZZZZ=           -654.5583 XXXY=            297.5843
 XXXZ=            464.3121 YYYX=            122.6259 YYYZ=             67.6543 ZZZX=             23.3251
 ZZZY=              3.5074 XXYY=          -3705.3237 XXZZ=          -3461.8799 YYZZ=           -992.2942
 XXYZ=             83.5474 YYXZ=            158.6755 ZZXY=              4.0220
 N-N= 2.362595977955D+03 E-N=-7.932872372317D+03  KE= 1.363043017279D+03
 No NMR shielding tensors so no spin-rotation constants.
 Leave Link  601 at Tue Jul 27 20:18:12 2021, MaxMem=   524288000 cpu:               0.9 elap:               0.2
 (Enter /opt/gaussian/g16_legacy/l9999.exe)
 1\1\GINC-TRUENO93\FOpt\RM062X\6-31G(d,p)\C20H18O8\JRAMOS\27-Jul-2021\0
 \\#p opt=loose m062x/6-31g(d,p)\\Conformer number 1390. Energy MM = 71
 .187 kcal/mol\\0,1\C,0.9216495468,-2.6169099779,-0.1253846278\C,3.9881
 203094,-0.5636127363,0.5601286119\H,4.906600898,-0.6385917231,1.130187
 7998\C,3.057975982,-1.5938758912,0.5696647497\H,3.2216593156,-2.498794
 3228,1.1445733538\C,1.8822561146,-1.4767469934,-0.1734980638\C,1.62957
 90774,-0.3286472218,-0.9277876308\H,0.7111718092,-0.252794397,-1.49784
 0158\C,2.5596478114,0.7018691585,-0.935803839\H,2.3964357836,1.6076580
 11,-1.5094632453\C,3.7360929856,0.5842206232,-0.1943595312\O,4.5194718
 701,2.7352130699,-0.8822617225\C,4.6998411183,1.725468287,-0.243927027
 6\O,5.7930802378,1.5067959833,0.500422399\O,-0.1611580786,-2.409924305
 5,-0.8941480641\O,1.0918095149,-3.6210040321,0.5267703331\C,6.75984973
 75,2.5684221077,0.4947999624\H,7.0758883341,2.7492507894,-0.5366532071
 \H,6.2794679089,3.4818329692,0.8573107232\C,7.9074320846,2.1339199368,
 1.3787279847\H,7.5603384863,1.9519003751,2.3981166583\H,8.3608300174,1
 .2165775275,0.9970681623\H,8.6719314235,2.9136014694,1.4062694081\C,-6
 .3054158391,3.0695176724,0.5066092641\C,-5.5269121131,-0.402428134,-0.
 7874183201\H,-5.8965295628,-1.1468917181,-1.4840098932\C,-6.1693808146
 ,0.816804327,-0.6213753536\H,-7.0618648289,1.0560012535,-1.1877161728\
 C,-5.656804455,1.745078253,0.2872831596\C,-4.5084168994,1.458152858,1.
 0266026197\H,-4.138751465,2.2033386212,1.7224822843\C,-3.866135209,0.2
 388790745,0.8609958669\H,-2.9729832289,-0.0002699372,1.4259436303\C,-4
 .3791233635,-0.6899974297,-0.0473241024\O,-4.1364416172,-2.8445651394,
 -1.0525896908\C,-3.7326824724,-2.0168005868,-0.2690961122\O,-2.6486222
 541,-2.1955293311,0.503637268\O,-7.4011420258,3.2485896866,-0.25386903
 48\O,-5.9067170713,3.9061504141,1.2795060025\C,-1.9752757696,-3.449127
 5141,0.3500305505\H,-1.3510594927,-3.5555658727,1.2367733039\H,-2.7082
 586696,-4.2585867702,0.3028882919\C,-1.1258503797,-3.4664180445,-0.905
 8522904\H,-1.7410395626,-3.2905737307,-1.7878500313\H,-0.6172268527,-4
 .430664417,-0.9849130149\H,-7.7434383413,4.1289777584,-0.0380512541\\V
 ersion=EM64L-G16RevA.03\State=1-A\HF=-1374.3111928\RMSD=5.933e-09\RMSF
 =7.024e-06\Dipole=0.2980745,0.0101851,0.1081836\Quadrupole=17.9064497,
 -10.4995654,-7.4068843,-1.7469663,8.4615982,-0.5863347\PG=C01 [X(C20H1
 8O8)]\\@


 THE SOLUTION TO A PROBLEM CHANGES THE PROBLEM.

                                 -- JOHN PEERS
           PAUL DICKSON'S "THE OFFICIAL RULES"
 Job cpu time:       0 days  3 hours  2 minutes 32.8 seconds.
 Elapsed time:       0 days  0 hours 45 minutes 44.5 seconds.
 File lengths (MBytes):  RWF=    165 Int=      0 D2E=      0 Chk=     21 Scr=      1
 Normal termination of Gaussian 16 at Tue Jul 27 20:18:12 2021.
