 Entering Gaussian System, Link 0=/opt/gaussian/g16_legacy/g16
 Input=05-PET_1404_gaussian.com
 Output=05-PET_1404_gaussian.log
 Initial command:
 /opt/gaussian/g16_legacy/l1.exe "/scratch-local/jramos/2648138/Gau-12517.inp" -scrdir="/scratch-local/jramos/2648138/"
 Entering Link 1 = /opt/gaussian/g16_legacy/l1.exe PID=     12530.
  
 Copyright (c) 1988,1990,1992,1993,1995,1998,2003,2009,2016,
            Gaussian, Inc.  All Rights Reserved.
  
 This is part of the Gaussian(R) 16 program.  It is based on
 the Gaussian(R) 09 system (copyright 2009, Gaussian, Inc.),
 the Gaussian(R) 03 system (copyright 2003, Gaussian, Inc.),
 the Gaussian(R) 98 system (copyright 1998, Gaussian, Inc.),
 the Gaussian(R) 94 system (copyright 1995, Gaussian, Inc.),
 the Gaussian 92(TM) system (copyright 1992, Gaussian, Inc.),
 the Gaussian 90(TM) system (copyright 1990, Gaussian, Inc.),
 the Gaussian 88(TM) system (copyright 1988, Gaussian, Inc.),
 the Gaussian 86(TM) system (copyright 1986, Carnegie Mellon
 University), and the Gaussian 82(TM) system (copyright 1983,
 Carnegie Mellon University). Gaussian is a federally registered
 trademark of Gaussian, Inc.
  
 This software contains proprietary and confidential information,
 including trade secrets, belonging to Gaussian, Inc.
  
 This software is provided under written license and may be
 used, copied, transmitted, or stored only in accord with that
 written license.
  
 The following legend is applicable only to US Government
 contracts under FAR:
  
                    RESTRICTED RIGHTS LEGEND
  
 Use, reproduction and disclosure by the US Government is
 subject to restrictions as set forth in subparagraphs (a)
 and (c) of the Commercial Computer Software - Restricted
 Rights clause in FAR 52.227-19.
  
 Gaussian, Inc.
 340 Quinnipiac St., Bldg. 40, Wallingford CT 06492
  
  
 ---------------------------------------------------------------
 Warning -- This program may not be used in any manner that
 competes with the business of Gaussian, Inc. or will provide
 assistance to any competitor of Gaussian, Inc.  The licensee
 of this program is prohibited from giving any competitor of
 Gaussian, Inc. access to this program.  By using this program,
 the user acknowledges that Gaussian, Inc. is engaged in the
 business of creating and licensing software in the field of
 computational chemistry and represents and warrants to the
 licensee that it is not a competitor of Gaussian, Inc. and that
 it will not use this program in any manner prohibited above.
 ---------------------------------------------------------------
  

 Cite this work as:
 Gaussian 16, Revision A.03,
 M. J. Frisch, G. W. Trucks, H. B. Schlegel, G. E. Scuseria, 
 M. A. Robb, J. R. Cheeseman, G. Scalmani, V. Barone, 
 G. A. Petersson, H. Nakatsuji, X. Li, M. Caricato, A. V. Marenich, 
 J. Bloino, B. G. Janesko, R. Gomperts, B. Mennucci, H. P. Hratchian, 
 J. V. Ortiz, A. F. Izmaylov, J. L. Sonnenberg, D. Williams-Young, 
 F. Ding, F. Lipparini, F. Egidi, J. Goings, B. Peng, A. Petrone, 
 T. Henderson, D. Ranasinghe, V. G. Zakrzewski, J. Gao, N. Rega, 
 G. Zheng, W. Liang, M. Hada, M. Ehara, K. Toyota, R. Fukuda, 
 J. Hasegawa, M. Ishida, T. Nakajima, Y. Honda, O. Kitao, H. Nakai, 
 T. Vreven, K. Throssell, J. A. Montgomery, Jr., J. E. Peralta, 
 F. Ogliaro, M. J. Bearpark, J. J. Heyd, E. N. Brothers, K. N. Kudin, 
 V. N. Staroverov, T. A. Keith, R. Kobayashi, J. Normand, 
 K. Raghavachari, A. P. Rendell, J. C. Burant, S. S. Iyengar, 
 J. Tomasi, M. Cossi, J. M. Millam, M. Klene, C. Adamo, R. Cammi, 
 J. W. Ochterski, R. L. Martin, K. Morokuma, O. Farkas, 
 J. B. Foresman, and D. J. Fox, Gaussian, Inc., Wallingford CT, 2016.
 
 ******************************************
 Gaussian 16:  EM64L-G16RevA.03 25-Dec-2016
                27-Jul-2021 
 ******************************************
 %chk=05-PET_1404_gaussian.chk
 %nproc=4
 Will use up to    4 processors via shared memory.
 %mem=4000Mb
 -----------------------------
 #p opt=loose m062x/6-31g(d,p)
 -----------------------------
 1/7=-1,18=20,19=15,26=3,38=1/1,3;
 2/9=110,12=2,17=6,18=5,40=1/2;
 3/5=1,6=6,7=101,11=2,25=1,30=1,71=1,74=-55/1,2,3;
 4//1;
 5/5=2,38=5/2;
 6/7=2,8=2,9=2,10=2,28=1/1;
 7//1,2,3,16;
 1/7=-1,18=20,19=15,26=3/3(2);
 2/9=110/2;
 99//99;
 2/9=110/2;
 3/5=1,6=6,7=101,11=2,25=1,30=1,71=1,74=-55/1,2,3;
 4/5=5,16=3,69=1/1;
 5/5=2,38=5/2;
 7//1,2,3,16;
 1/7=-1,18=20,19=15,26=3/3(-5);
 2/9=110/2;
 6/7=2,8=2,9=2,10=2,19=2,28=1/1;
 99/9=1/99;
 Leave Link    1 at Tue Jul 27 19:32:26 2021, MaxMem=   524288000 cpu:               1.0 elap:               0.3
 (Enter /opt/gaussian/g16_legacy/l101.exe)
 --------------------------------------------------
 Conformer number 1404. Energy MM = 72.083 kcal/mol
 --------------------------------------------------
 Symbolic Z-matrix:
 Charge =  0 Multiplicity = 1
 C                     1.0469    0.7817    0.0015 
 C                     4.2415   -0.4987    1.6356 
 H                     4.5382   -1.1303    2.4721 
 C                     2.8807   -0.2871    1.386 
 H                     2.1493   -0.7609    2.0371 
 C                     2.4788    0.522     0.315 
 C                     3.4527    1.1152   -0.5005 
 H                     3.1567    1.7474   -1.3367 
 C                     4.8135    0.9036   -0.2507 
 H                     5.5456    1.3775   -0.9007 
 C                     5.2156    0.0943    0.8201 
 O                     7.0171   -0.8676    2.0612 
 C                     6.6478   -0.1659    1.1331 
 O                     7.4539    0.4782    0.2536 
 O                     0.2398    0.1349    0.8771 
 O                     0.6764    1.4797   -0.9285 
 C                     8.8538    0.2792    0.4858 
 H                     9.0935   -0.7873    0.4092 
 H                     9.1192    0.6471    1.4833 
 C                     9.6221    1.0538   -0.567 
 H                     9.3512    0.7116   -1.5714 
 H                     10.7004   0.9328   -0.4313 
 H                     9.3765    2.1198   -0.517 
 C                    -9.5242   -0.0744   -0.8568 
 C                    -5.7642    0.0486   -1.1162 
 H                    -5.0316    0.5205   -1.7673 
 C                    -7.1244    0.2616   -1.367 
 H                    -7.4226    0.8918   -2.2037 
 C                    -8.0958   -0.3305   -0.5498 
 C                    -7.6983   -1.1387    0.5221 
 H                    -8.4364   -1.6081    1.1686 
 C                    -6.3384   -1.3516    0.7729 
 H                    -6.0436   -1.983     1.61 
 C                    -5.3638   -0.76     -0.0435 
 O                    -3.562    -1.7182    1.2012 
 C                    -3.9322   -1.0207    0.2707 
 O                    -3.1243   -0.3749   -0.6051 
 O                    -10.3597  -0.6941   -0.0053 
 O                    -9.9436    0.614    -1.7683 
 C                    -1.7155   -0.577    -0.4111 
 H                    -1.4927   -1.6302   -0.1983 
 H                    -1.2268   -0.36     -1.3667 
 C                    -1.1692    0.3362    0.6839 
 H                    -1.3927    1.3893    0.4714 
 H                    -1.6574    0.1187    1.6397 
 H                    -11.2518  -0.4403   -0.3231 
 
 ITRead=  0  0  0  0  0  0  0  0  0  0  0  0  0  0  0  0  0  0  0  0
 ITRead=  0  0  0  0  0  0  0  0  0  0  0  0  0  0  0  0  0  0  0  0
 ITRead=  0  0  0  0  0  0
 MicOpt= -1 -1 -1 -1 -1 -1 -1 -1 -1 -1 -1 -1 -1 -1 -1 -1 -1 -1 -1 -1
 MicOpt= -1 -1 -1 -1 -1 -1 -1 -1 -1 -1 -1 -1 -1 -1 -1 -1 -1 -1 -1 -1
 MicOpt= -1 -1 -1 -1 -1 -1
 NAtoms=     46 NQM=       46 NQMF=       0 NMMI=      0 NMMIF=      0
                NMic=       0 NMicF=      0.
                    Isotopes and Nuclear Properties:
 (Nuclear quadrupole moments (NQMom) in fm**2, nuclear magnetic moments (NMagM)
  in nuclear magnetons)

  Atom         1           2           3           4           5           6           7           8           9          10
 IAtWgt=          12          12           1          12           1          12          12           1          12           1
 AtmWgt=  12.0000000  12.0000000   1.0078250  12.0000000   1.0078250  12.0000000  12.0000000   1.0078250  12.0000000   1.0078250
 NucSpn=           0           0           1           0           1           0           0           1           0           1
 AtZEff=  -0.0000000  -0.0000000  -0.0000000  -0.0000000  -0.0000000  -0.0000000  -0.0000000  -0.0000000  -0.0000000  -0.0000000
 NQMom=    0.0000000   0.0000000   0.0000000   0.0000000   0.0000000   0.0000000   0.0000000   0.0000000   0.0000000   0.0000000
 NMagM=    0.0000000   0.0000000   2.7928460   0.0000000   2.7928460   0.0000000   0.0000000   2.7928460   0.0000000   2.7928460
 AtZNuc=   6.0000000   6.0000000   1.0000000   6.0000000   1.0000000   6.0000000   6.0000000   1.0000000   6.0000000   1.0000000

  Atom        11          12          13          14          15          16          17          18          19          20
 IAtWgt=          12          16          12          16          16          16          12           1           1          12
 AtmWgt=  12.0000000  15.9949146  12.0000000  15.9949146  15.9949146  15.9949146  12.0000000   1.0078250   1.0078250  12.0000000
 NucSpn=           0           0           0           0           0           0           0           1           1           0
 AtZEff=  -0.0000000  -0.0000000  -0.0000000  -0.0000000  -0.0000000  -0.0000000  -0.0000000  -0.0000000  -0.0000000  -0.0000000
 NQMom=    0.0000000   0.0000000   0.0000000   0.0000000   0.0000000   0.0000000   0.0000000   0.0000000   0.0000000   0.0000000
 NMagM=    0.0000000   0.0000000   0.0000000   0.0000000   0.0000000   0.0000000   0.0000000   2.7928460   2.7928460   0.0000000
 AtZNuc=   6.0000000   8.0000000   6.0000000   8.0000000   8.0000000   8.0000000   6.0000000   1.0000000   1.0000000   6.0000000

  Atom        21          22          23          24          25          26          27          28          29          30
 IAtWgt=           1           1           1          12          12           1          12           1          12          12
 AtmWgt=   1.0078250   1.0078250   1.0078250  12.0000000  12.0000000   1.0078250  12.0000000   1.0078250  12.0000000  12.0000000
 NucSpn=           1           1           1           0           0           1           0           1           0           0
 AtZEff=  -0.0000000  -0.0000000  -0.0000000  -0.0000000  -0.0000000  -0.0000000  -0.0000000  -0.0000000  -0.0000000  -0.0000000
 NQMom=    0.0000000   0.0000000   0.0000000   0.0000000   0.0000000   0.0000000   0.0000000   0.0000000   0.0000000   0.0000000
 NMagM=    2.7928460   2.7928460   2.7928460   0.0000000   0.0000000   2.7928460   0.0000000   2.7928460   0.0000000   0.0000000
 AtZNuc=   1.0000000   1.0000000   1.0000000   6.0000000   6.0000000   1.0000000   6.0000000   1.0000000   6.0000000   6.0000000

  Atom        31          32          33          34          35          36          37          38          39          40
 IAtWgt=           1          12           1          12          16          12          16          16          16          12
 AtmWgt=   1.0078250  12.0000000   1.0078250  12.0000000  15.9949146  12.0000000  15.9949146  15.9949146  15.9949146  12.0000000
 NucSpn=           1           0           1           0           0           0           0           0           0           0
 AtZEff=  -0.0000000  -0.0000000  -0.0000000  -0.0000000  -0.0000000  -0.0000000  -0.0000000  -0.0000000  -0.0000000  -0.0000000
 NQMom=    0.0000000   0.0000000   0.0000000   0.0000000   0.0000000   0.0000000   0.0000000   0.0000000   0.0000000   0.0000000
 NMagM=    2.7928460   0.0000000   2.7928460   0.0000000   0.0000000   0.0000000   0.0000000   0.0000000   0.0000000   0.0000000
 AtZNuc=   1.0000000   6.0000000   1.0000000   6.0000000   8.0000000   6.0000000   8.0000000   8.0000000   8.0000000   6.0000000

  Atom        41          42          43          44          45          46
 IAtWgt=           1           1          12           1           1           1
 AtmWgt=   1.0078250   1.0078250  12.0000000   1.0078250   1.0078250   1.0078250
 NucSpn=           1           1           0           1           1           1
 AtZEff=  -0.0000000  -0.0000000  -0.0000000  -0.0000000  -0.0000000  -0.0000000
 NQMom=    0.0000000   0.0000000   0.0000000   0.0000000   0.0000000   0.0000000
 NMagM=    2.7928460   2.7928460   0.0000000   2.7928460   2.7928460   2.7928460
 AtZNuc=   1.0000000   1.0000000   6.0000000   1.0000000   1.0000000   1.0000000
 Leave Link  101 at Tue Jul 27 19:32:26 2021, MaxMem=   524288000 cpu:               1.3 elap:               0.4
 (Enter /opt/gaussian/g16_legacy/l103.exe)

 GradGradGradGradGradGradGradGradGradGradGradGradGradGradGradGradGradGrad
 Berny optimization.
 Initialization pass.
                           ----------------------------
                           !    Initial Parameters    !
                           ! (Angstroms and Degrees)  !
 --------------------------                            --------------------------
 ! Name  Definition              Value          Derivative Info.                !
 --------------------------------------------------------------------------------
 ! R1    R(1,6)                  1.4886         estimate D2E/DX2                !
 ! R2    R(1,15)                 1.3552         estimate D2E/DX2                !
 ! R3    R(1,16)                 1.2204         estimate D2E/DX2                !
 ! R4    R(2,3)                  1.0893         estimate D2E/DX2                !
 ! R5    R(2,4)                  1.3996         estimate D2E/DX2                !
 ! R6    R(2,11)                 1.402          estimate D2E/DX2                !
 ! R7    R(4,5)                  1.0878         estimate D2E/DX2                !
 ! R8    R(4,6)                  1.4011         estimate D2E/DX2                !
 ! R9    R(6,7)                  1.4019         estimate D2E/DX2                !
 ! R10   R(7,8)                  1.0893         estimate D2E/DX2                !
 ! R11   R(7,9)                  1.3996         estimate D2E/DX2                !
 ! R12   R(9,10)                 1.0877         estimate D2E/DX2                !
 ! R13   R(9,11)                 1.4012         estimate D2E/DX2                !
 ! R14   R(11,13)                1.4889         estimate D2E/DX2                !
 ! R15   R(12,13)                1.2207         estimate D2E/DX2                !
 ! R16   R(13,14)                1.3558         estimate D2E/DX2                !
 ! R17   R(14,17)                1.4329         estimate D2E/DX2                !
 ! R18   R(15,43)                1.4364         estimate D2E/DX2                !
 ! R19   R(17,18)                1.0958         estimate D2E/DX2                !
 ! R20   R(17,19)                1.0958         estimate D2E/DX2                !
 ! R21   R(17,20)                1.5161         estimate D2E/DX2                !
 ! R22   R(20,21)                1.0951         estimate D2E/DX2                !
 ! R23   R(20,22)                1.0935         estimate D2E/DX2                !
 ! R24   R(20,23)                1.0951         estimate D2E/DX2                !
 ! R25   R(24,29)                1.4833         estimate D2E/DX2                !
 ! R26   R(24,38)                1.3443         estimate D2E/DX2                !
 ! R27   R(24,39)                1.2168         estimate D2E/DX2                !
 ! R28   R(25,26)                1.0878         estimate D2E/DX2                !
 ! R29   R(25,27)                1.3994         estimate D2E/DX2                !
 ! R30   R(25,34)                1.4017         estimate D2E/DX2                !
 ! R31   R(27,28)                1.0891         estimate D2E/DX2                !
 ! R32   R(27,29)                1.4007         estimate D2E/DX2                !
 ! R33   R(29,30)                1.4001         estimate D2E/DX2                !
 ! R34   R(30,31)                1.0877         estimate D2E/DX2                !
 ! R35   R(30,32)                1.3991         estimate D2E/DX2                !
 ! R36   R(32,33)                1.0892         estimate D2E/DX2                !
 ! R37   R(32,34)                1.4023         estimate D2E/DX2                !
 ! R38   R(34,36)                1.4887         estimate D2E/DX2                !
 ! R39   R(35,36)                1.2204         estimate D2E/DX2                !
 ! R40   R(36,37)                1.3553         estimate D2E/DX2                !
 ! R41   R(37,40)                1.4364         estimate D2E/DX2                !
 ! R42   R(38,46)                0.9804         estimate D2E/DX2                !
 ! R43   R(40,41)                1.0973         estimate D2E/DX2                !
 ! R44   R(40,42)                1.095          estimate D2E/DX2                !
 ! R45   R(40,43)                1.5269         estimate D2E/DX2                !
 ! R46   R(43,44)                1.0973         estimate D2E/DX2                !
 ! R47   R(43,45)                1.0951         estimate D2E/DX2                !
 ! A1    A(6,1,15)             110.704          estimate D2E/DX2                !
 ! A2    A(6,1,16)             123.5234         estimate D2E/DX2                !
 ! A3    A(15,1,16)            125.7712         estimate D2E/DX2                !
 ! A4    A(3,2,4)              119.3023         estimate D2E/DX2                !
 ! A5    A(3,2,11)             120.1762         estimate D2E/DX2                !
 ! A6    A(4,2,11)             120.5215         estimate D2E/DX2                !
 ! A7    A(2,4,5)              118.759          estimate D2E/DX2                !
 ! A8    A(2,4,6)              120.1661         estimate D2E/DX2                !
 ! A9    A(5,4,6)              121.075          estimate D2E/DX2                !
 ! A10   A(1,6,4)              122.5215         estimate D2E/DX2                !
 ! A11   A(1,6,7)              118.1568         estimate D2E/DX2                !
 ! A12   A(4,6,7)              119.3218         estimate D2E/DX2                !
 ! A13   A(6,7,8)              120.2222         estimate D2E/DX2                !
 ! A14   A(6,7,9)              120.5058         estimate D2E/DX2                !
 ! A15   A(8,7,9)              119.272          estimate D2E/DX2                !
 ! A16   A(7,9,10)             118.8085         estimate D2E/DX2                !
 ! A17   A(7,9,11)             120.1809         estimate D2E/DX2                !
 ! A18   A(10,9,11)            121.0106         estimate D2E/DX2                !
 ! A19   A(2,11,9)             119.304          estimate D2E/DX2                !
 ! A20   A(2,11,13)            118.1731         estimate D2E/DX2                !
 ! A21   A(9,11,13)            122.5229         estimate D2E/DX2                !
 ! A22   A(11,13,12)           123.4556         estimate D2E/DX2                !
 ! A23   A(11,13,14)           110.6415         estimate D2E/DX2                !
 ! A24   A(12,13,14)           125.903          estimate D2E/DX2                !
 ! A25   A(13,14,17)           114.19           estimate D2E/DX2                !
 ! A26   A(1,15,43)            115.4952         estimate D2E/DX2                !
 ! A27   A(14,17,18)           109.7274         estimate D2E/DX2                !
 ! A28   A(14,17,19)           109.7246         estimate D2E/DX2                !
 ! A29   A(14,17,20)           108.1554         estimate D2E/DX2                !
 ! A30   A(18,17,19)           109.7194         estimate D2E/DX2                !
 ! A31   A(18,17,20)           109.7464         estimate D2E/DX2                !
 ! A32   A(19,17,20)           109.7453         estimate D2E/DX2                !
 ! A33   A(17,20,21)           110.6017         estimate D2E/DX2                !
 ! A34   A(17,20,22)           110.9155         estimate D2E/DX2                !
 ! A35   A(17,20,23)           110.6087         estimate D2E/DX2                !
 ! A36   A(21,20,22)           108.8543         estimate D2E/DX2                !
 ! A37   A(21,20,23)           106.8925         estimate D2E/DX2                !
 ! A38   A(22,20,23)           108.8569         estimate D2E/DX2                !
 ! A39   A(29,24,38)           112.819          estimate D2E/DX2                !
 ! A40   A(29,24,39)           125.7773         estimate D2E/DX2                !
 ! A41   A(38,24,39)           121.4037         estimate D2E/DX2                !
 ! A42   A(26,25,27)           118.7696         estimate D2E/DX2                !
 ! A43   A(26,25,34)           121.059          estimate D2E/DX2                !
 ! A44   A(27,25,34)           120.1714         estimate D2E/DX2                !
 ! A45   A(25,27,28)           119.4643         estimate D2E/DX2                !
 ! A46   A(25,27,29)           120.3422         estimate D2E/DX2                !
 ! A47   A(28,27,29)           120.1935         estimate D2E/DX2                !
 ! A48   A(24,29,27)           118.3008         estimate D2E/DX2                !
 ! A49   A(24,29,30)           122.1094         estimate D2E/DX2                !
 ! A50   A(27,29,30)           119.5898         estimate D2E/DX2                !
 ! A51   A(29,30,31)           120.7648         estimate D2E/DX2                !
 ! A52   A(29,30,32)           120.0686         estimate D2E/DX2                !
 ! A53   A(31,30,32)           119.1666         estimate D2E/DX2                !
 ! A54   A(30,32,33)           119.2784         estimate D2E/DX2                !
 ! A55   A(30,32,34)           120.4624         estimate D2E/DX2                !
 ! A56   A(33,32,34)           120.2592         estimate D2E/DX2                !
 ! A57   A(25,34,32)           119.3657         estimate D2E/DX2                !
 ! A58   A(25,34,36)           122.4955         estimate D2E/DX2                !
 ! A59   A(32,34,36)           118.1388         estimate D2E/DX2                !
 ! A60   A(34,36,35)           123.554          estimate D2E/DX2                !
 ! A61   A(34,36,37)           110.6967         estimate D2E/DX2                !
 ! A62   A(35,36,37)           125.7479         estimate D2E/DX2                !
 ! A63   A(36,37,40)           115.4893         estimate D2E/DX2                !
 ! A64   A(24,38,46)           103.9377         estimate D2E/DX2                !
 ! A65   A(37,40,41)           111.1229         estimate D2E/DX2                !
 ! A66   A(37,40,42)           106.9761         estimate D2E/DX2                !
 ! A67   A(37,40,43)           111.3229         estimate D2E/DX2                !
 ! A68   A(41,40,42)           105.5938         estimate D2E/DX2                !
 ! A69   A(41,40,43)           111.2419         estimate D2E/DX2                !
 ! A70   A(42,40,43)           110.3427         estimate D2E/DX2                !
 ! A71   A(15,43,40)           111.3222         estimate D2E/DX2                !
 ! A72   A(15,43,44)           111.1212         estimate D2E/DX2                !
 ! A73   A(15,43,45)           106.9829         estimate D2E/DX2                !
 ! A74   A(40,43,44)           111.2368         estimate D2E/DX2                !
 ! A75   A(40,43,45)           110.343          estimate D2E/DX2                !
 ! A76   A(44,43,45)           105.5947         estimate D2E/DX2                !
 ! D1    D(15,1,6,4)            -0.1835         estimate D2E/DX2                !
 ! D2    D(15,1,6,7)           179.7937         estimate D2E/DX2                !
 ! D3    D(16,1,6,4)          -179.7767         estimate D2E/DX2                !
 ! D4    D(16,1,6,7)             0.2005         estimate D2E/DX2                !
 ! D5    D(6,1,15,43)          178.8477         estimate D2E/DX2                !
 ! D6    D(16,1,15,43)          -1.5702         estimate D2E/DX2                !
 ! D7    D(3,2,4,5)              0.015          estimate D2E/DX2                !
 ! D8    D(3,2,4,6)            179.9985         estimate D2E/DX2                !
 ! D9    D(11,2,4,5)          -179.9762         estimate D2E/DX2                !
 ! D10   D(11,2,4,6)             0.0073         estimate D2E/DX2                !
 ! D11   D(3,2,11,9)          -179.9854         estimate D2E/DX2                !
 ! D12   D(3,2,11,13)            0.0029         estimate D2E/DX2                !
 ! D13   D(4,2,11,9)             0.0057         estimate D2E/DX2                !
 ! D14   D(4,2,11,13)          179.994          estimate D2E/DX2                !
 ! D15   D(2,4,6,1)            179.9623         estimate D2E/DX2                !
 ! D16   D(2,4,6,7)             -0.0146         estimate D2E/DX2                !
 ! D17   D(5,4,6,1)             -0.0545         estimate D2E/DX2                !
 ! D18   D(5,4,6,7)            179.9685         estimate D2E/DX2                !
 ! D19   D(1,6,7,8)              0.061          estimate D2E/DX2                !
 ! D20   D(1,6,7,9)           -179.969          estimate D2E/DX2                !
 ! D21   D(4,6,7,8)           -179.961          estimate D2E/DX2                !
 ! D22   D(4,6,7,9)              0.009          estimate D2E/DX2                !
 ! D23   D(6,7,9,10)          -179.986          estimate D2E/DX2                !
 ! D24   D(6,7,9,11)             0.0041         estimate D2E/DX2                !
 ! D25   D(8,7,9,10)            -0.0158         estimate D2E/DX2                !
 ! D26   D(8,7,9,11)           179.9743         estimate D2E/DX2                !
 ! D27   D(7,9,11,2)            -0.0114         estimate D2E/DX2                !
 ! D28   D(7,9,11,13)         -179.9991         estimate D2E/DX2                !
 ! D29   D(10,9,11,2)          179.9785         estimate D2E/DX2                !
 ! D30   D(10,9,11,13)          -0.0093         estimate D2E/DX2                !
 ! D31   D(2,11,13,12)           0.0066         estimate D2E/DX2                !
 ! D32   D(2,11,13,14)        -179.9946         estimate D2E/DX2                !
 ! D33   D(9,11,13,12)         179.9945         estimate D2E/DX2                !
 ! D34   D(9,11,13,14)          -0.0067         estimate D2E/DX2                !
 ! D35   D(11,13,14,17)        179.9961         estimate D2E/DX2                !
 ! D36   D(12,13,14,17)         -0.0051         estimate D2E/DX2                !
 ! D37   D(13,14,17,18)         60.311          estimate D2E/DX2                !
 ! D38   D(13,14,17,19)        -60.3105         estimate D2E/DX2                !
 ! D39   D(13,14,17,20)       -179.9983         estimate D2E/DX2                !
 ! D40   D(1,15,43,40)          81.7033         estimate D2E/DX2                !
 ! D41   D(1,15,43,44)         -42.8814         estimate D2E/DX2                !
 ! D42   D(1,15,43,45)        -157.6723         estimate D2E/DX2                !
 ! D43   D(14,17,20,21)        -59.1174         estimate D2E/DX2                !
 ! D44   D(14,17,20,22)       -179.9985         estimate D2E/DX2                !
 ! D45   D(14,17,20,23)         59.1126         estimate D2E/DX2                !
 ! D46   D(18,17,20,21)         60.5614         estimate D2E/DX2                !
 ! D47   D(18,17,20,22)        -60.3197         estimate D2E/DX2                !
 ! D48   D(18,17,20,23)        178.7914         estimate D2E/DX2                !
 ! D49   D(19,17,20,21)       -178.7922         estimate D2E/DX2                !
 ! D50   D(19,17,20,22)         60.3268         estimate D2E/DX2                !
 ! D51   D(19,17,20,23)        -60.5621         estimate D2E/DX2                !
 ! D52   D(38,24,29,27)       -179.9789         estimate D2E/DX2                !
 ! D53   D(38,24,29,30)          0.0279         estimate D2E/DX2                !
 ! D54   D(39,24,29,27)          0.011          estimate D2E/DX2                !
 ! D55   D(39,24,29,30)       -179.9821         estimate D2E/DX2                !
 ! D56   D(29,24,38,46)       -179.9889         estimate D2E/DX2                !
 ! D57   D(39,24,38,46)          0.0206         estimate D2E/DX2                !
 ! D58   D(26,25,27,28)         -0.0103         estimate D2E/DX2                !
 ! D59   D(26,25,27,29)        179.9695         estimate D2E/DX2                !
 ! D60   D(34,25,27,28)       -179.9885         estimate D2E/DX2                !
 ! D61   D(34,25,27,29)         -0.0087         estimate D2E/DX2                !
 ! D62   D(26,25,34,32)       -179.9632         estimate D2E/DX2                !
 ! D63   D(26,25,34,36)          0.0586         estimate D2E/DX2                !
 ! D64   D(27,25,34,32)          0.0145         estimate D2E/DX2                !
 ! D65   D(27,25,34,36)       -179.9637         estimate D2E/DX2                !
 ! D66   D(25,27,29,24)       -179.9942         estimate D2E/DX2                !
 ! D67   D(25,27,29,30)         -0.0009         estimate D2E/DX2                !
 ! D68   D(28,27,29,24)         -0.0145         estimate D2E/DX2                !
 ! D69   D(28,27,29,30)        179.9788         estimate D2E/DX2                !
 ! D70   D(24,29,30,31)          0.013          estimate D2E/DX2                !
 ! D71   D(24,29,30,32)        179.9975         estimate D2E/DX2                !
 ! D72   D(27,29,30,31)       -179.98           estimate D2E/DX2                !
 ! D73   D(27,29,30,32)          0.0044         estimate D2E/DX2                !
 ! D74   D(29,30,32,33)       -179.9744         estimate D2E/DX2                !
 ! D75   D(29,30,32,34)          0.0015         estimate D2E/DX2                !
 ! D76   D(31,30,32,33)          0.0103         estimate D2E/DX2                !
 ! D77   D(31,30,32,34)        179.9862         estimate D2E/DX2                !
 ! D78   D(30,32,34,25)         -0.011          estimate D2E/DX2                !
 ! D79   D(30,32,34,36)        179.9682         estimate D2E/DX2                !
 ! D80   D(33,32,34,25)        179.9647         estimate D2E/DX2                !
 ! D81   D(33,32,34,36)         -0.0561         estimate D2E/DX2                !
 ! D82   D(25,34,36,35)        179.8048         estimate D2E/DX2                !
 ! D83   D(25,34,36,37)          0.2252         estimate D2E/DX2                !
 ! D84   D(32,34,36,35)         -0.1737         estimate D2E/DX2                !
 ! D85   D(32,34,36,37)       -179.7533         estimate D2E/DX2                !
 ! D86   D(34,36,37,40)       -178.8602         estimate D2E/DX2                !
 ! D87   D(35,36,37,40)          1.5714         estimate D2E/DX2                !
 ! D88   D(36,37,40,41)         42.9107         estimate D2E/DX2                !
 ! D89   D(36,37,40,42)        157.6975         estimate D2E/DX2                !
 ! D90   D(36,37,40,43)        -81.6824         estimate D2E/DX2                !
 ! D91   D(37,40,43,15)       -179.9508         estimate D2E/DX2                !
 ! D92   D(37,40,43,44)        -55.4311         estimate D2E/DX2                !
 ! D93   D(37,40,43,45)         61.4208         estimate D2E/DX2                !
 ! D94   D(41,40,43,15)         55.523          estimate D2E/DX2                !
 ! D95   D(41,40,43,44)       -179.9573         estimate D2E/DX2                !
 ! D96   D(41,40,43,45)        -63.1054         estimate D2E/DX2                !
 ! D97   D(42,40,43,15)        -61.3307         estimate D2E/DX2                !
 ! D98   D(42,40,43,44)         63.189          estimate D2E/DX2                !
 ! D99   D(42,40,43,45)       -179.9591         estimate D2E/DX2                !
 --------------------------------------------------------------------------------
 Trust Radius=3.00D-01 FncErr=1.00D-07 GrdErr=1.00D-06 EigMax=2.50D+02 EigMin=1.00D-04
 Number of steps in this run=    232 maximum allowed number of steps=    276.
 GradGradGradGradGradGradGradGradGradGradGradGradGradGradGradGradGradGrad

 Leave Link  103 at Tue Jul 27 19:32:26 2021, MaxMem=   524288000 cpu:               0.2 elap:               0.1
 (Enter /opt/gaussian/g16_legacy/l202.exe)
                          Input orientation:                          
 ---------------------------------------------------------------------
 Center     Atomic      Atomic             Coordinates (Angstroms)
 Number     Number       Type             X           Y           Z
 ---------------------------------------------------------------------
      1          6           0        1.046900    0.781700    0.001500
      2          6           0        4.241500   -0.498700    1.635600
      3          1           0        4.538200   -1.130300    2.472100
      4          6           0        2.880700   -0.287100    1.386000
      5          1           0        2.149300   -0.760900    2.037100
      6          6           0        2.478800    0.522000    0.315000
      7          6           0        3.452700    1.115200   -0.500500
      8          1           0        3.156700    1.747400   -1.336700
      9          6           0        4.813500    0.903600   -0.250700
     10          1           0        5.545600    1.377500   -0.900700
     11          6           0        5.215600    0.094300    0.820100
     12          8           0        7.017100   -0.867600    2.061200
     13          6           0        6.647800   -0.165900    1.133100
     14          8           0        7.453900    0.478200    0.253600
     15          8           0        0.239800    0.134900    0.877100
     16          8           0        0.676400    1.479700   -0.928500
     17          6           0        8.853800    0.279200    0.485800
     18          1           0        9.093500   -0.787300    0.409200
     19          1           0        9.119200    0.647100    1.483300
     20          6           0        9.622100    1.053800   -0.567000
     21          1           0        9.351200    0.711600   -1.571400
     22          1           0       10.700400    0.932800   -0.431300
     23          1           0        9.376500    2.119800   -0.517000
     24          6           0       -9.524200   -0.074400   -0.856800
     25          6           0       -5.764200    0.048600   -1.116200
     26          1           0       -5.031600    0.520500   -1.767300
     27          6           0       -7.124400    0.261600   -1.367000
     28          1           0       -7.422600    0.891800   -2.203700
     29          6           0       -8.095800   -0.330500   -0.549800
     30          6           0       -7.698300   -1.138700    0.522100
     31          1           0       -8.436400   -1.608100    1.168600
     32          6           0       -6.338400   -1.351600    0.772900
     33          1           0       -6.043600   -1.983000    1.610000
     34          6           0       -5.363800   -0.760000   -0.043500
     35          8           0       -3.562000   -1.718200    1.201200
     36          6           0       -3.932200   -1.020700    0.270700
     37          8           0       -3.124300   -0.374900   -0.605100
     38          8           0      -10.359700   -0.694100   -0.005300
     39          8           0       -9.943600    0.614000   -1.768300
     40          6           0       -1.715500   -0.577000   -0.411100
     41          1           0       -1.492700   -1.630200   -0.198300
     42          1           0       -1.226800   -0.360000   -1.366700
     43          6           0       -1.169200    0.336200    0.683900
     44          1           0       -1.392700    1.389300    0.471400
     45          1           0       -1.657400    0.118700    1.639700
     46          1           0      -11.251800   -0.440300   -0.323100
 ---------------------------------------------------------------------
                    Distance matrix (angstroms):
                    1          2          3          4          5
     1  C    0.000000
     2  C    3.809879   0.000000
     3  H    4.684953   1.089349   0.000000
     4  C    2.534166   1.399590   2.153580   0.000000
     5  H    2.781828   2.146451   2.456120   1.087825   0.000000
     6  C    1.488645   2.427535   3.409443   1.401145   2.172563
     7  C    2.480141   2.791022   3.880326   2.419196   3.414384
     8  H    2.678547   3.880248   4.969573   3.410053   4.323072
     9  C    3.777001   2.419041   3.409718   2.798619   3.886200
    10  H    4.626796   3.413740   4.322001   3.886075   4.973759
    11  C    4.303566   1.401984   2.165091   2.432584   3.408028
    12  O    6.527315   2.832168   2.526419   4.231156   4.869029
    13  C    5.792111   2.480633   2.678320   3.777524   4.626850
    14  O    6.419137   3.630946   4.001290   4.773067   5.731930
    15  O    1.355152   4.121938   4.756154   2.722392   2.407124
    16  O    1.220399   4.816494   5.769721   3.652045   3.998063
    17  C    7.838032   4.816688   4.955450   6.067040   6.959789
    18  H    8.208273   5.012908   5.012381   6.308979   7.132508
    19  H    8.208281   5.012785   5.012229   6.308810   7.132227
    20  C    8.598330   6.017687   6.312881   7.145537   8.118942
    21  H    8.452238   6.152943   6.550378   7.184079   8.188827
    22  H    9.664378   6.930993   7.117501   8.120249   9.059963
    23  H    8.452313   6.152922   6.550345   7.184010   8.188668
    24  C   10.640383  13.995949  14.489568  12.607813  12.046433
    25  C    6.941021  10.391630  10.972928   9.005998   8.556990
    26  H    6.336011   9.930200  10.596166   8.555700   8.226832
    27  C    8.301412  11.780380  12.356873  10.391444   9.931511
    28  H    8.752569  12.358193  13.000490  10.974231  10.598918
    29  C    9.226586  12.530492  13.014973  11.145975  10.575413
    30  C    8.968695  12.008676  12.390904  10.648323   9.970616
    31  H    9.849175  12.734913  13.048665  11.396011  10.655003
    32  C    7.725845  10.649224  11.010753   9.300584   8.601638
    33  H    7.778562  10.391683  10.651047   9.086770   8.294550
    34  C    6.593629   9.754458  10.223256   8.380864   7.795869
    35  O    5.378730   7.910151   8.220344   6.602316   5.850991
    36  C    5.302127   8.303301   8.752477   6.942454   6.338163
    37  O    4.370881   7.700070   8.291785   6.327101   5.911098
    38  O   11.501676  14.694413  15.108779  13.319518  12.674815
    39  O   11.133347  14.630164  15.190329  13.237230  12.751849
    40  C    3.105987   6.299283   6.908527   4.943548   4.578666
    41  H    3.508098   6.125727   6.614582   4.841544   4.360832
    42  H    2.888799   6.239820   6.968857   4.945122   4.810886
    43  C    2.361194   5.556840   6.158141   4.157299   3.747962
    44  H    2.557661   6.055090   6.747352   4.680679   4.429508
    45  H    3.230558   5.931123   6.374822   4.563265   3.927160
    46  H   12.363522  15.616730  16.050338  14.236293  13.611128
                    6          7          8          9         10
     6  C    0.000000
     7  C    1.401930   0.000000
     8  H    2.165471   1.089276   0.000000
     9  C    2.432377   1.399625   2.153226   0.000000
    10  H    3.408089   2.146903   2.456372   1.087682   0.000000
    11  C    2.815693   2.427764   3.409339   1.401165   2.171786
    12  O    5.057309   4.816508   5.769457   3.652107   3.997329
    13  C    4.303842   3.810319   4.684913   2.534441   2.780876
    14  O    4.975672   4.121169   4.754561   2.721580   2.404737
    15  O    2.340710   3.630633   4.001171   4.773004   5.732028
    16  O    2.390006   2.832646   2.527880   4.231655   4.870352
    17  C    6.381908   5.553698   6.159064   4.154074   3.751377
    18  H    6.743693   6.022100   6.687187   4.648980   4.357728
    19  H    6.743552   6.021943   6.686888   4.648828   4.357471
    20  C    7.217165   6.170064   6.547894   4.821332   4.102925
    21  H    7.129119   6.008496   6.284886   4.729887   3.921206
    22  H    8.265617   7.250325   7.641383   5.889742   5.195196
    23  H    7.129057   6.008402   6.284624   4.729802   3.920973
    24  C   12.074801  13.036182  12.820081  14.383792  15.139644
    25  C    8.379707   9.298815   9.083887  10.647434  11.389644
    26  H    7.793721   8.598942   8.290896   9.968592  10.647188
    27  C    9.752865  10.646807  10.387952  12.007154  12.727591
    28  H   10.223420  11.010129  10.649194  12.390984  13.042543
    29  C   10.644097  11.638743  11.469771  12.971603  13.752388
    30  C   10.313786  11.422372  11.384891  12.700919  13.555682
    31  H   11.153813  12.310685  12.326227  13.560343  14.446181
    32  C    9.025689  10.177047  10.208386  11.423597  12.307655
    33  H    8.976823  10.209445  10.355889  11.387330  12.325021
    34  C    7.954773   9.025292   8.975430  10.314453  11.149830
    35  O    6.503469   7.754351   7.974475   8.895552   9.846305
    36  C    6.594149   7.726161   7.778086   8.970064   9.846433
    37  O    5.748543   6.744499   6.670109   8.047908   8.850167
    38  O   12.899945  13.939196  13.799515  15.259058  16.064614
    39  O   12.596215  13.465488  13.156319  14.837755  15.532256
    40  C    4.396268   5.438918   5.477034   6.696697   7.535473
    41  H    4.546235   5.664409   5.858418   6.796400   7.686175
    42  H    4.163834   4.982393   4.863857   6.271153   7.007244
    43  C    3.671309   4.834419   4.978727   6.081786   6.977378
    44  H    3.970539   4.949507   4.908615   6.266917   7.072680
    45  H    4.361838   5.629084   5.889582   6.786916   7.740893
    46  H   13.779063  14.787609  14.608843  16.121575  16.905344
                   11         12         13         14         15
    11  C    0.000000
    12  O    2.389766   0.000000
    13  C    1.488916   1.220711   0.000000
    14  O    2.340574   2.295515   1.355796   0.000000
    15  O    4.976292   6.952618   6.420162   7.249127   0.000000
    16  O    5.057793   7.392740   6.528079   6.952328   2.293316
    17  C    3.658202   2.677779   2.341698   1.432912   8.624090
    18  H    3.998020   2.654617   2.625189   2.077015   8.913887
    19  H    3.997939   2.654639   2.625153   2.076996   8.914795
    20  C    4.718255   4.169561   3.636546   2.388680   9.537157
    21  H    4.817003   4.597573   3.923353   2.642886   9.452267
    22  H    5.687892   4.797989   4.480854   3.348957  10.572261
    23  H    4.817009   4.597656   3.923399   2.642927   9.453181
    24  C   14.835840  16.815424  16.294222  17.023344   9.918967
    25  C   11.149321  13.202156  12.615986  13.295829   6.326825
    26  H   10.577400  12.718310  12.053707  12.648065   5.910093
    27  C   12.533435  14.594851  14.003812  14.669700   7.699577
    28  H   13.019350  15.158819  14.499280  15.083754   8.293166
    29  C   13.388445  15.346190  14.840249  15.591428   8.469644
    30  C   12.976051  14.798153  14.392020  15.240591   8.047454
    31  H   13.762148  15.496959  15.153029  16.052773   8.854347
    32  C   11.644216  13.426219  13.045191  13.922837   6.744869
    33  H   11.476441  13.116005  12.829689  13.786944   6.671114
    34  C   10.648913  12.558982  12.083703  12.880793   5.748798
    35  O    8.970878  10.648027  10.327356  11.272629   4.241781
    36  C    9.231864  11.095788  10.649451  11.484349   4.371352
    37  O    8.473799  10.497614   9.927686  10.647228   3.711332
    38  O   15.617069  17.500106  17.053739  17.854010  10.668424
    39  O   15.387373  17.450661  16.861225  17.515123  10.532299
    40  C    7.071538   9.080475   8.514596   9.253819   2.447337
    41  H    7.000880   8.837624   8.377621   9.202783   2.696965
    42  H    6.818578   8.942597   8.264139   8.870316   2.725891
    43  C    6.390832   8.388182   7.845978   8.634997   1.436360
    44  H    6.743015   8.851316   8.216212   8.896059   2.098373
    45  H    6.921739   8.740561   8.325502   9.223139   2.044796
    46  H   16.515688  18.428787  17.960832  18.737114  11.568414
                   16         17         18         19         20
    16  O    0.000000
    17  C    8.385184   0.000000
    18  H    8.819087   1.095786   0.000000
    19  H    8.819913   1.095807   1.792165   0.000000
    20  C    8.963126   1.516139   2.149892   2.149894   0.000000
    21  H    8.732437   2.160196   2.497176   3.064176   1.095129
    22  H   10.051213   2.162914   2.499462   2.499502   1.093520
    23  H    8.733316   2.160239   3.064175   2.497248   1.095069
    24  C   10.318556  18.430369  18.674307  18.803537  19.181700
    25  C    6.600349  14.707328  14.959172  15.120555  15.428878
    26  H    5.848497  14.069080  14.351514  14.519902  14.712446
    27  C    7.907498  16.085274  16.348558  16.496283  16.784303
    28  H    8.219827  16.508479  16.805600  16.949484  17.123867
    29  C    8.965028  16.992149  17.222090  17.362184  17.771904
    30  C    8.893585  16.612759  16.795856  16.939342  17.492554
    31  H    9.847612  17.406296  17.565529  17.702657  18.335960
    32  C    7.753608  15.282175  15.446496  15.602464  16.196260
    33  H    7.974501  15.110060  15.231658  15.389736  16.105143
    34  C    6.502576  14.265351  14.464412  14.631074  15.104341
    35  O    5.720684  12.595773  12.714382  12.902986  13.587899
    36  C    5.378594  12.853708  13.028527  13.213289  13.737698
    37  O    4.241397  12.045447  12.266765  12.462311  12.826276
    38  O   11.285974  19.244404  19.457839  19.581683  20.065966
    39  O   10.688269  18.935029  19.212400  19.338158  19.607477
    40  C    3.196702  10.641786  10.842122  11.066973  11.455348
    41  H    3.861304  10.543427  10.637066  10.983000  11.440217
    42  H    2.683037  10.269315  10.480696  10.778519  10.969821
    43  C    2.704379  10.025120  10.327668  10.324092  10.887234
    44  H    2.499813  10.306468  10.709895  10.586541  11.068724
    45  H    3.727545  10.575565  10.858951  10.790680  11.531308
    46  H   12.096895  20.134725  20.361432  20.479823  20.928725
                   21         22         23         24         25
    21  H    0.000000
    22  H    1.780196   0.000000
    23  H    1.759382   1.780175   0.000000
    24  C   18.905268  20.254134  19.030671   0.000000
    25  C   15.136779  16.502544  15.293453   3.770944   0.000000
    26  H   14.385403  15.794009  14.550407   4.622377   1.087807
    27  C   16.483012  17.861958  16.626939   2.476336   1.399433
    28  H   16.786680  18.209509  16.928163   2.676641   2.154979
    29  C   17.507925  18.838978  17.643308   1.483295   2.429174
    30  C   17.276915  18.539478  17.413970   2.523492   2.799009
    31  H   18.146276  19.370931  18.276704   2.763655   3.886595
    32  C   15.997377  17.233377  16.145357   3.799537   2.420530
    33  H   15.949359  17.118129  16.097720   4.673589   3.411397
    34  C   14.867122  16.157799  15.026440   4.294232   1.401727
    35  O   13.429146  14.598250  13.604677   6.518073   3.652617
    36  C   13.521942  14.779105  13.696887   5.782491   2.534387
    37  O   12.559949  13.887499  12.747599   6.411893   2.722067
    38  O   19.822922  21.127141  19.942353   1.344299   4.785846
    39  O   19.296051  20.689706  19.419049   1.216809   4.267587
    40  C   11.201725  12.507377  11.415621   7.837541   4.156984
    41  H   11.178533  12.461739  11.502329   8.207261   4.680451
    42  H   10.634111  12.033470  10.922517   8.317957   4.562642
    43  C   10.765970  11.936792  10.762675   8.505785   4.943389
    44  H   10.957358  12.135334  10.839107   8.368263   4.840244
    45  H   11.482681  12.556553  11.419400   8.255685   4.946282
    46  H   20.672899  21.995368  20.787459   1.844809   5.566128
                   26         27         28         29         30
    26  H    0.000000
    27  C    2.146411   0.000000
    28  H    2.458697   1.089102   0.000000
    29  C    3.405265   1.400720   2.163932   0.000000
    30  C    3.886591   2.420516   3.410121   1.400058   0.000000
    31  H    4.974245   3.412681   4.318530   2.168218   1.087700
    32  C    3.415421   2.792737   3.881814   2.425002   1.399127
    33  H    4.324097   3.881866   4.970958   3.406907   2.152766
    34  C    2.172907   2.427969   3.410801   2.811518   2.431709
    35  O    3.997936   4.817256   5.771454   5.054409   4.231545
    36  C    2.781622   3.810052   4.686492   4.299437   3.776326
    37  O    2.406292   4.121459   4.757671   4.972006   4.772363
    38  O    5.741824   3.637960   3.996823   2.356677   2.749340
    39  O    4.912890   2.869341   2.573361   2.406489   3.655032
    40  C    3.747039   5.556365   6.159690   6.386566   6.081140
    41  H    4.428440   6.054817   6.748765   6.738969   6.266580
    42  H    3.925846   5.930267   6.376167   6.917468   6.786328
    43  C    4.578262   6.298902   6.910278   7.067128   6.695570
    44  H    4.359838   6.124035   6.615388   6.995149   6.793670
    45  H    4.811893   6.240894   6.971868   6.815327   6.270770
    46  H    6.457533   4.314837   4.469219   3.166036   3.718802
                   31         32         33         34         35
    31  H    0.000000
    32  C    2.150343   0.000000
    33  H    2.461885   1.089178   0.000000
    34  C    3.410180   1.402264   2.166084   0.000000
    35  O    4.875752   2.833061   2.528947   2.390378   0.000000
    36  C    4.630236   2.480221   2.679133   1.488679   1.220403
    37  O    5.734562   3.630877   4.001870   2.340739   2.293198
    38  O    2.431567   4.148344   4.785308   4.996481   6.979481
    39  O    3.979292   4.828949   5.776445   5.083048   7.414978
    40  C    6.980624   4.834570   4.979371   3.671336   2.703962
    41  H    7.076996   4.949915   4.909695   3.970721   2.499669
    42  H    7.743632   5.629353   5.890368   4.361838   3.727194
    43  C    7.538397   5.438494   5.476872   4.396070   3.195880
    44  H    7.686625   5.662454   5.856594   4.544694   3.859408
    45  H    7.011320   4.982458   4.863823   4.164454   2.682161
    46  H    3.393435   5.115973   5.765600   5.903298   7.942893
                   36         37         38         39         40
    36  C    0.000000
    37  O    1.355281   0.000000
    38  O    6.441708   7.267232   0.000000
    39  O    6.554899   6.988119   2.234375   0.000000
    40  C    2.361245   1.436384   8.654512   8.423901   0.000000
    41  H    2.557853   2.098424   8.918364   8.883639   1.097339
    42  H    3.230602   2.044691   9.239854   8.780237   1.095029
    43  C    3.105814   2.447366   9.273716   9.114853   1.526893
    44  H    3.506771   2.696237   9.218182   8.873288   2.179298
    45  H    2.889136   2.726640   8.893632   8.973344   2.166369
    46  H    7.366546   8.132654   0.980435   2.216199   9.537686
                   41         42         43         44         45
    41  H    0.000000
    42  H    1.746216   0.000000
    43  C    2.179371   2.166327   0.000000
    44  H    3.094492   2.542869   1.097328   0.000000
    45  H    2.542444   3.074575   1.095080   1.746258   0.000000
    46  H    9.832165  10.079493  10.162471  10.058853   9.809056
                   46
    46  H    0.000000
 Stoichiometry    C20H18O8
 Framework group  C1[X(C20H18O8)]
 Deg. of freedom   132
 Full point group                 C1      NOp   1
 Largest Abelian subgroup         C1      NOp   1
 Largest concise Abelian subgroup C1      NOp   1
                         Standard orientation:                         
 ---------------------------------------------------------------------
 Center     Atomic      Atomic             Coordinates (Angstroms)
 Number     Number       Type             X           Y           Z
 ---------------------------------------------------------------------
      1          6           0        1.663205   -0.649747   -0.437074
      2          6           0        4.889226    1.365935   -0.224961
      3          1           0        5.207892    2.407466   -0.243602
      4          6           0        3.527486    1.064068   -0.340685
      5          1           0        2.817446    1.881299   -0.447175
      6          6           0        3.097562   -0.269311   -0.318948
      7          6           0        4.044495   -1.293816   -0.180689
      8          1           0        3.726578   -2.335509   -0.162642
      9          6           0        5.406249   -0.991794   -0.065091
     10          1           0        6.117064   -1.808253    0.040683
     11          6           0        5.836349    0.341554   -0.086531
     12          8           0        7.664429    1.877350    0.015622
     13          6           0        7.270946    0.721917    0.032320
     14          8           0        8.049036   -0.381218    0.158222
     15          8           0        0.883723    0.452114   -0.558510
     16          8           0        1.268212   -1.804272   -0.416421
     17          6           0        9.449234   -0.101515    0.278430
     18          1           0        9.628646    0.513014    1.167762
     19          1           0        9.798314    0.429342   -0.614390
     20          6           0       10.184873   -1.420643    0.410387
     21          1           0        9.831166   -1.973063    1.287332
     22          1           0       11.262200   -1.259023    0.505419
     23          1           0        9.997800   -2.055270   -0.462211
     24          6           0       -8.971370   -0.571438   -0.094420
     25          6           0       -5.235323   -0.919618    0.280734
     26          1           0       -4.524184   -1.735663    0.388784
     27          6           0       -6.596473   -1.223312    0.164739
     28          1           0       -6.916718   -2.264079    0.184463
     29          6           0       -7.540747   -0.198242    0.024760
     30          6           0       -7.115102    1.135341    0.001403
     31          1           0       -7.831898    1.946350   -0.106110
     32          6           0       -5.754246    1.438978    0.117296
     33          1           0       -5.437424    2.480879    0.097967
     34          6           0       -4.806756    0.414783    0.257414
     35          8           0       -2.977950    1.950999    0.354464
     36          6           0       -3.372703    0.796401    0.375843
     37          8           0       -2.592488   -0.304994    0.498240
     38          8           0       -9.779362    0.495123   -0.223790
     39          8           0       -9.414362   -1.704676   -0.082054
     40          6           0       -1.186101   -0.052960    0.645726
     41          1           0       -1.003750    0.776734    1.340355
     42          1           0       -0.751112   -0.937371    1.122896
     43          6           0       -0.522851    0.201210   -0.705902
     44          1           0       -0.705886   -0.628177   -1.400700
     45          1           0       -0.957354    1.086083   -1.182773
     46          1           0      -10.676384    0.105098   -0.290753
 ---------------------------------------------------------------------
 Rotational constants (GHZ):           0.9810447           0.0346882           0.0337270
 Leave Link  202 at Tue Jul 27 19:32:27 2021, MaxMem=   524288000 cpu:               0.3 elap:               0.2
 (Enter /opt/gaussian/g16_legacy/l301.exe)
 Standard basis: 6-31G(d,p) (6D, 7F)
 Ernie: Thresh=  0.10000D-02 Tol=  0.10000D-05 Strict=F.
 There are   510 symmetry adapted cartesian basis functions of A   symmetry.
 There are   510 symmetry adapted basis functions of A   symmetry.
   510 basis functions,   910 primitive gaussians,   510 cartesian basis functions
   101 alpha electrons      101 beta electrons
       nuclear repulsion energy      2253.4696479170 Hartrees.
 IExCor= 4336 DFT=T Ex+Corr=M062X ExCW=0 ScaHFX=  0.540000
 ScaDFX=  1.000000  1.000000  1.000000  1.000000 ScalE2=  1.000000  1.000000
 IRadAn=      5 IRanWt=     -1 IRanGd=            0 ICorTp=0 IEmpDi=  4
 NAtoms=   46 NActive=   46 NUniq=   46 SFac= 1.00D+00 NAtFMM=   60 NAOKFM=F Big=F
 Integral buffers will be    131072 words long.
 Raffenetti 2 integral format.
 Two-electron integral symmetry is turned on.
 Leave Link  301 at Tue Jul 27 19:32:27 2021, MaxMem=   524288000 cpu:               0.5 elap:               0.3
 (Enter /opt/gaussian/g16_legacy/l302.exe)
 NPDir=0 NMtPBC=     1 NCelOv=     1 NCel=       1 NClECP=     1 NCelD=      1
         NCelK=      1 NCelE2=     1 NClLst=     1 CellRange=     0.0.
 One-electron integrals computed using PRISM.
 One-electron integral symmetry used in STVInt
 NBasis=   510 RedAO= T EigKep=  4.17D-04  NBF=   510
 NBsUse=   510 1.00D-06 EigRej= -1.00D+00 NBFU=   510
 Precomputing XC quadrature grid using
 IXCGrd= 4 IRadAn=           5 IRanWt=          -1 IRanGd=           0 AccXCQ= 0.00D+00.
 Generated NRdTot=       0 NPtTot=           0 NUsed=           0 NTot=          32
 NSgBfM=   431   431   431   431   431 MxSgAt=    46 MxSgA2=    46.
 Leave Link  302 at Tue Jul 27 19:32:29 2021, MaxMem=   524288000 cpu:               7.8 elap:               2.3
 (Enter /opt/gaussian/g16_legacy/l303.exe)
 DipDrv:  MaxL=1.
 Leave Link  303 at Tue Jul 27 19:32:30 2021, MaxMem=   524288000 cpu:               0.4 elap:               0.1
 (Enter /opt/gaussian/g16_legacy/l401.exe)
 ExpMin= 1.61D-01 ExpMax= 5.48D+03 ExpMxC= 8.25D+02 IAcc=3 IRadAn=         5 AccDes= 0.00D+00
 Harris functional with IExCor= 1009 and IRadAn=       5 diagonalized for initial guess.
 HarFok:  IExCor= 1009 AccDes= 0.00D+00 IRadAn=         5 IDoV= 1 UseB2=F ITyADJ=14
 ICtDFT=  3500011 ScaDFX=  1.000000  1.000000  1.000000  1.000000
 FoFCou: FMM=F IPFlag=           0 FMFlag=      100000 FMFlg1=           0
         NFxFlg=           0 DoJE=T BraDBF=F KetDBF=T FulRan=T
         wScrn=  0.000000 ICntrl=       500 IOpCl=  0 I1Cent=   200000004 NGrid=           0
         NMat0=    1 NMatS0=      1 NMatT0=    0 NMatD0=    1 NMtDS0=    0 NMtDT0=    0
 Petite list used in FoFCou.
 Harris En= -1373.60327360463    
 JPrj=0 DoOrth=F DoCkMO=F.
 Leave Link  401 at Tue Jul 27 19:32:41 2021, MaxMem=   524288000 cpu:              42.3 elap:              10.8
 (Enter /opt/gaussian/g16_legacy/l502.exe)
 Integral symmetry usage will be decided dynamically.
 Closed shell SCF:
 Using DIIS extrapolation, IDIIS=  1040.
 NGot=   524288000 LenX=   523759406 LenY=   523498796
 Requested convergence on RMS density matrix=1.00D-08 within 128 cycles.
 Requested convergence on MAX density matrix=1.00D-06.
 Requested convergence on             energy=1.00D-06.
 No special actions if energy rises.
 Fock matrices will be formed incrementally for  20 cycles.
 Integral accuracy reduced to 1.0D-05 until final iterations.

 Cycle   1  Pass 0  IDiag  1:
 FoFJK:  IHMeth= 1 ICntrl=       0 DoSepK=F KAlg= 0 I1Cent=           0 FoldK=F
 IRaf= 480000000 NMat=       1 IRICut=       1 DoRegI=T DoRafI=F ISym2E= 0 IDoP0=0 IntGTp=1.
 FoFCou: FMM=F IPFlag=           0 FMFlag=      100000 FMFlg1=           0
         NFxFlg=           0 DoJE=F BraDBF=F KetDBF=F FulRan=T
         wScrn=  0.000000 ICntrl=         0 IOpCl=  0 I1Cent=           0 NGrid=           0
         NMat0=    1 NMatS0=      1 NMatT0=    0 NMatD0=    1 NMtDS0=    0 NMtDT0=    0
 Symmetry not used in FoFCou.
 E= -1373.71942198677    
 DIIS: error= 4.08D-02 at cycle   1 NSaved=   1.
 NSaved= 1 IEnMin= 1 EnMin= -1373.71942198677     IErMin= 1 ErrMin= 4.08D-02
 ErrMax= 4.08D-02  0.00D+00 EMaxC= 1.00D-01 BMatC= 7.49D-01 BMatP= 7.49D-01
 IDIUse=3 WtCom= 5.92D-01 WtEn= 4.08D-01
 Coeff-Com:  0.100D+01
 Coeff-En:   0.100D+01
 Coeff:      0.100D+01
 Gap=     0.298 Goal=   None    Shift=    0.000
 GapD=    0.298 DampG=1.000 DampE=0.500 DampFc=0.5000 IDamp=-1.
 Damping current iteration by 5.00D-01
 RMSDP=2.95D-03 MaxDP=1.56D-01              OVMax= 1.84D-01

 Cycle   2  Pass 0  IDiag  1:
 RMSU=  1.46D-03    CP:  9.85D-01
 E= -1373.98452316640     Delta-E=       -0.265101179628 Rises=F Damp=T
 DIIS: error= 1.09D-02 at cycle   2 NSaved=   2.
 NSaved= 2 IEnMin= 2 EnMin= -1373.98452316640     IErMin= 2 ErrMin= 1.09D-02
 ErrMax= 1.09D-02  0.00D+00 EMaxC= 1.00D-01 BMatC= 8.29D-02 BMatP= 7.49D-01
 IDIUse=3 WtCom= 8.91D-01 WtEn= 1.09D-01
 Coeff-Com:  0.130D-01 0.987D+00
 Coeff-En:   0.130D-01 0.987D+00
 Coeff:      0.130D-01 0.987D+00
 Gap=     0.267 Goal=   None    Shift=    0.000
 RMSDP=8.63D-04 MaxDP=3.18D-02 DE=-2.65D-01 OVMax= 1.07D-01

 Cycle   3  Pass 0  IDiag  1:
 RMSU=  8.55D-04    CP:  9.77D-01  9.64D-01
 E= -1374.26234603817     Delta-E=       -0.277822871774 Rises=F Damp=F
 DIIS: error= 8.58D-03 at cycle   3 NSaved=   3.
 NSaved= 3 IEnMin= 3 EnMin= -1374.26234603817     IErMin= 3 ErrMin= 8.58D-03
 ErrMax= 8.58D-03  0.00D+00 EMaxC= 1.00D-01 BMatC= 5.00D-02 BMatP= 8.29D-02
 IDIUse=3 WtCom= 9.14D-01 WtEn= 8.58D-02
 Coeff-Com: -0.877D-01 0.461D+00 0.626D+00
 Coeff-En:   0.000D+00 0.000D+00 0.100D+01
 Coeff:     -0.801D-01 0.422D+00 0.658D+00
 Gap=     0.279 Goal=   None    Shift=    0.000
 RMSDP=5.17D-04 MaxDP=3.26D-02 DE=-2.78D-01 OVMax= 4.61D-02

 Cycle   4  Pass 0  IDiag  1:
 RMSU=  3.04D-04    CP:  9.79D-01  1.09D+00  5.63D-01
 E= -1374.29479252450     Delta-E=       -0.032446486322 Rises=F Damp=F
 DIIS: error= 3.26D-03 at cycle   4 NSaved=   4.
 NSaved= 4 IEnMin= 4 EnMin= -1374.29479252450     IErMin= 4 ErrMin= 3.26D-03
 ErrMax= 3.26D-03  0.00D+00 EMaxC= 1.00D-01 BMatC= 9.34D-03 BMatP= 5.00D-02
 IDIUse=3 WtCom= 9.67D-01 WtEn= 3.26D-02
 Coeff-Com: -0.304D-01 0.890D-01 0.343D+00 0.599D+00
 Coeff-En:   0.000D+00 0.000D+00 0.145D+00 0.855D+00
 Coeff:     -0.294D-01 0.861D-01 0.336D+00 0.607D+00
 Gap=     0.272 Goal=   None    Shift=    0.000
 RMSDP=1.87D-04 MaxDP=8.56D-03 DE=-3.24D-02 OVMax= 1.35D-02

 Cycle   5  Pass 0  IDiag  1:
 RMSU=  7.94D-05    CP:  9.79D-01  1.06D+00  7.00D-01  6.31D-01
 E= -1374.30189014807     Delta-E=       -0.007097623577 Rises=F Damp=F
 DIIS: error= 7.05D-04 at cycle   5 NSaved=   5.
 NSaved= 5 IEnMin= 5 EnMin= -1374.30189014807     IErMin= 5 ErrMin= 7.05D-04
 ErrMax= 7.05D-04  0.00D+00 EMaxC= 1.00D-01 BMatC= 2.70D-04 BMatP= 9.34D-03
 IDIUse=3 WtCom= 9.93D-01 WtEn= 7.05D-03
 Coeff-Com: -0.696D-02 0.133D-01 0.112D+00 0.256D+00 0.626D+00
 Coeff-En:   0.000D+00 0.000D+00 0.000D+00 0.000D+00 0.100D+01
 Coeff:     -0.691D-02 0.132D-01 0.111D+00 0.254D+00 0.629D+00
 Gap=     0.273 Goal=   None    Shift=    0.000
 RMSDP=3.15D-05 MaxDP=2.03D-03 DE=-7.10D-03 OVMax= 3.60D-03

 Cycle   6  Pass 0  IDiag  1:
 RMSU=  2.40D-05    CP:  9.79D-01  1.06D+00  7.04D-01  6.62D-01  7.85D-01
 E= -1374.30210644869     Delta-E=       -0.000216300617 Rises=F Damp=F
 DIIS: error= 1.73D-04 at cycle   6 NSaved=   6.
 NSaved= 6 IEnMin= 6 EnMin= -1374.30210644869     IErMin= 6 ErrMin= 1.73D-04
 ErrMax= 1.73D-04  0.00D+00 EMaxC= 1.00D-01 BMatC= 2.33D-05 BMatP= 2.70D-04
 IDIUse=3 WtCom= 9.98D-01 WtEn= 1.73D-03
 Coeff-Com: -0.619D-03-0.765D-03 0.227D-01 0.577D-01 0.269D+00 0.652D+00
 Coeff-En:   0.000D+00 0.000D+00 0.000D+00 0.000D+00 0.000D+00 0.100D+01
 Coeff:     -0.618D-03-0.764D-03 0.227D-01 0.576D-01 0.269D+00 0.652D+00
 Gap=     0.273 Goal=   None    Shift=    0.000
 RMSDP=1.04D-05 MaxDP=6.12D-04 DE=-2.16D-04 OVMax= 8.17D-04

 Cycle   7  Pass 0  IDiag  1:
 RMSU=  8.30D-06    CP:  9.79D-01  1.06D+00  7.07D-01  6.68D-01  8.26D-01
                    CP:  8.25D-01
 E= -1374.30212598576     Delta-E=       -0.000019537074 Rises=F Damp=F
 DIIS: error= 6.61D-05 at cycle   7 NSaved=   7.
 NSaved= 7 IEnMin= 7 EnMin= -1374.30212598576     IErMin= 7 ErrMin= 6.61D-05
 ErrMax= 6.61D-05  0.00D+00 EMaxC= 1.00D-01 BMatC= 2.68D-06 BMatP= 2.33D-05
 IDIUse=1 WtCom= 1.00D+00 WtEn= 0.00D+00
 Coeff-Com:  0.107D-02-0.290D-02-0.795D-02-0.193D-01 0.194D-01 0.234D+00
 Coeff-Com:  0.776D+00
 Coeff:      0.107D-02-0.290D-02-0.795D-02-0.193D-01 0.194D-01 0.234D+00
 Coeff:      0.776D+00
 Gap=     0.273 Goal=   None    Shift=    0.000
 RMSDP=5.50D-06 MaxDP=3.04D-04 DE=-1.95D-05 OVMax= 6.09D-04

 Initial convergence to 1.0D-05 achieved.  Increase integral accuracy.
 Cycle   8  Pass 1  IDiag  1:
 E= -1374.30201765527     Delta-E=        0.000108330492 Rises=F Damp=F
 DIIS: error= 5.01D-05 at cycle   1 NSaved=   1.
 NSaved= 1 IEnMin= 1 EnMin= -1374.30201765527     IErMin= 1 ErrMin= 5.01D-05
 ErrMax= 5.01D-05  0.00D+00 EMaxC= 1.00D-01 BMatC= 1.40D-06 BMatP= 1.40D-06
 IDIUse=1 WtCom= 1.00D+00 WtEn= 0.00D+00
 Coeff-Com:  0.100D+01
 Coeff:      0.100D+01
 Gap=     0.273 Goal=   None    Shift=    0.000
 RMSDP=5.50D-06 MaxDP=3.04D-04 DE= 1.08D-04 OVMax= 4.00D-04

 Cycle   9  Pass 1  IDiag  1:
 RMSU=  1.67D-05    CP:  1.00D+00
 E= -1374.30201759161     Delta-E=        0.000000063660 Rises=F Damp=F
 DIIS: error= 7.54D-05 at cycle   2 NSaved=   2.
 NSaved= 2 IEnMin= 1 EnMin= -1374.30201765527     IErMin= 1 ErrMin= 5.01D-05
 ErrMax= 7.54D-05  0.00D+00 EMaxC= 1.00D-01 BMatC= 1.75D-06 BMatP= 1.40D-06
 IDIUse=1 WtCom= 1.00D+00 WtEn= 0.00D+00
 Coeff-Com:  0.534D+00 0.466D+00
 Coeff:      0.534D+00 0.466D+00
 Gap=     0.273 Goal=   None    Shift=    0.000
 RMSDP=2.74D-06 MaxDP=2.55D-04 DE= 6.37D-08 OVMax= 3.53D-04

 Cycle  10  Pass 1  IDiag  1:
 RMSU=  2.72D-06    CP:  1.00D+00  9.81D-01
 E= -1374.30201887984     Delta-E=       -0.000001288224 Rises=F Damp=F
 DIIS: error= 1.58D-05 at cycle   3 NSaved=   3.
 NSaved= 3 IEnMin= 3 EnMin= -1374.30201887984     IErMin= 3 ErrMin= 1.58D-05
 ErrMax= 1.58D-05  0.00D+00 EMaxC= 1.00D-01 BMatC= 1.25D-07 BMatP= 1.40D-06
 IDIUse=1 WtCom= 1.00D+00 WtEn= 0.00D+00
 Coeff-Com: -0.115D-01 0.202D+00 0.810D+00
 Coeff:     -0.115D-01 0.202D+00 0.810D+00
 Gap=     0.273 Goal=   None    Shift=    0.000
 RMSDP=7.49D-07 MaxDP=5.16D-05 DE=-1.29D-06 OVMax= 6.69D-05

 Cycle  11  Pass 1  IDiag  1:
 RMSU=  4.49D-07    CP:  1.00D+00  1.00D+00  8.30D-01
 E= -1374.30201898068     Delta-E=       -0.000000100843 Rises=F Damp=F
 DIIS: error= 3.69D-06 at cycle   4 NSaved=   4.
 NSaved= 4 IEnMin= 4 EnMin= -1374.30201898068     IErMin= 4 ErrMin= 3.69D-06
 ErrMax= 3.69D-06  0.00D+00 EMaxC= 1.00D-01 BMatC= 4.32D-09 BMatP= 1.25D-07
 IDIUse=1 WtCom= 1.00D+00 WtEn= 0.00D+00
 Coeff-Com: -0.189D-01 0.692D-01 0.311D+00 0.639D+00
 Coeff:     -0.189D-01 0.692D-01 0.311D+00 0.639D+00
 Gap=     0.273 Goal=   None    Shift=    0.000
 RMSDP=1.71D-07 MaxDP=1.20D-05 DE=-1.01D-07 OVMax= 1.75D-05

 Cycle  12  Pass 1  IDiag  1:
 RMSU=  1.68D-07    CP:  1.00D+00  1.00D+00  8.34D-01  9.89D-01
 E= -1374.30201898502     Delta-E=       -0.000000004337 Rises=F Damp=F
 DIIS: error= 9.97D-07 at cycle   5 NSaved=   5.
 NSaved= 5 IEnMin= 5 EnMin= -1374.30201898502     IErMin= 5 ErrMin= 9.97D-07
 ErrMax= 9.97D-07  0.00D+00 EMaxC= 1.00D-01 BMatC= 8.62D-10 BMatP= 4.32D-09
 IDIUse=1 WtCom= 1.00D+00 WtEn= 0.00D+00
 Coeff-Com: -0.542D-02-0.536D-02-0.189D-01 0.261D+00 0.768D+00
 Coeff:     -0.542D-02-0.536D-02-0.189D-01 0.261D+00 0.768D+00
 Gap=     0.273 Goal=   None    Shift=    0.000
 RMSDP=9.68D-08 MaxDP=8.51D-06 DE=-4.34D-09 OVMax= 1.05D-05

 Cycle  13  Pass 1  IDiag  1:
 RMSU=  7.05D-08    CP:  1.00D+00  1.01D+00  8.32D-01  1.13D+00  1.03D+00
 E= -1374.30201898598     Delta-E=       -0.000000000968 Rises=F Damp=F
 DIIS: error= 7.50D-07 at cycle   6 NSaved=   6.
 NSaved= 6 IEnMin= 6 EnMin= -1374.30201898598     IErMin= 6 ErrMin= 7.50D-07
 ErrMax= 7.50D-07  0.00D+00 EMaxC= 1.00D-01 BMatC= 2.54D-10 BMatP= 8.62D-10
 IDIUse=1 WtCom= 1.00D+00 WtEn= 0.00D+00
 Coeff-Com:  0.184D-02-0.209D-01-0.937D-01-0.162D-01 0.428D+00 0.701D+00
 Coeff:      0.184D-02-0.209D-01-0.937D-01-0.162D-01 0.428D+00 0.701D+00
 Gap=     0.273 Goal=   None    Shift=    0.000
 RMSDP=5.05D-08 MaxDP=3.16D-06 DE=-9.68D-10 OVMax= 5.79D-06

 Cycle  14  Pass 1  IDiag  1:
 RMSU=  2.30D-08    CP:  1.00D+00  1.00D+00  8.32D-01  1.21D+00  1.20D+00
                    CP:  8.06D-01
 E= -1374.30201898635     Delta-E=       -0.000000000367 Rises=F Damp=F
 DIIS: error= 1.77D-07 at cycle   7 NSaved=   7.
 NSaved= 7 IEnMin= 7 EnMin= -1374.30201898635     IErMin= 7 ErrMin= 1.77D-07
 ErrMax= 1.77D-07  0.00D+00 EMaxC= 1.00D-01 BMatC= 2.31D-11 BMatP= 2.54D-10
 IDIUse=1 WtCom= 1.00D+00 WtEn= 0.00D+00
 Coeff-Com:  0.133D-02-0.101D-01-0.465D-01-0.258D-01 0.166D+00 0.361D+00
 Coeff-Com:  0.554D+00
 Coeff:      0.133D-02-0.101D-01-0.465D-01-0.258D-01 0.166D+00 0.361D+00
 Coeff:      0.554D+00
 Gap=     0.273 Goal=   None    Shift=    0.000
 RMSDP=9.81D-09 MaxDP=7.48D-07 DE=-3.67D-10 OVMax= 9.89D-07

 SCF Done:  E(RM062X) =  -1374.30201899     A.U. after   14 cycles
            NFock= 14  Conv=0.98D-08     -V/T= 2.0087
 KE= 1.362402019524D+03 PE=-7.713790411375D+03 EE= 2.723616724947D+03
 Leave Link  502 at Tue Jul 27 19:38:48 2021, MaxMem=   524288000 cpu:            1462.9 elap:             366.6
 (Enter /opt/gaussian/g16_legacy/l601.exe)
 Copying SCF densities to generalized density rwf, IOpCl= 0 IROHF=0.

 **********************************************************************

            Population analysis using the SCF density.

 **********************************************************************

 Orbital symmetries:
       Occupied  (A) (A) (A) (A) (A) (A) (A) (A) (A) (A) (A) (A)
                 (A) (A) (A) (A) (A) (A) (A) (A) (A) (A) (A) (A)
                 (A) (A) (A) (A) (A) (A) (A) (A) (A) (A) (A) (A)
                 (A) (A) (A) (A) (A) (A) (A) (A) (A) (A) (A) (A)
                 (A) (A) (A) (A) (A) (A) (A) (A) (A) (A) (A) (A)
                 (A) (A) (A) (A) (A) (A) (A) (A) (A) (A) (A) (A)
                 (A) (A) (A) (A) (A) (A) (A) (A) (A) (A) (A) (A)
                 (A) (A) (A) (A) (A) (A) (A) (A) (A) (A) (A) (A)
                 (A) (A) (A) (A) (A)
       Virtual   (A) (A) (A) (A) (A) (A) (A) (A) (A) (A) (A) (A)
                 (A) (A) (A) (A) (A) (A) (A) (A) (A) (A) (A) (A)
                 (A) (A) (A) (A) (A) (A) (A) (A) (A) (A) (A) (A)
                 (A) (A) (A) (A) (A) (A) (A) (A) (A) (A) (A) (A)
                 (A) (A) (A) (A) (A) (A) (A) (A) (A) (A) (A) (A)
                 (A) (A) (A) (A) (A) (A) (A) (A) (A) (A) (A) (A)
                 (A) (A) (A) (A) (A) (A) (A) (A) (A) (A) (A) (A)
                 (A) (A) (A) (A) (A) (A) (A) (A) (A) (A) (A) (A)
                 (A) (A) (A) (A) (A) (A) (A) (A) (A) (A) (A) (A)
                 (A) (A) (A) (A) (A) (A) (A) (A) (A) (A) (A) (A)
                 (A) (A) (A) (A) (A) (A) (A) (A) (A) (A) (A) (A)
                 (A) (A) (A) (A) (A) (A) (A) (A) (A) (A) (A) (A)
                 (A) (A) (A) (A) (A) (A) (A) (A) (A) (A) (A) (A)
                 (A) (A) (A) (A) (A) (A) (A) (A) (A) (A) (A) (A)
                 (A) (A) (A) (A) (A) (A) (A) (A) (A) (A) (A) (A)
                 (A) (A) (A) (A) (A) (A) (A) (A) (A) (A) (A) (A)
                 (A) (A) (A) (A) (A) (A) (A) (A) (A) (A) (A) (A)
                 (A) (A) (A) (A) (A) (A) (A) (A) (A) (A) (A) (A)
                 (A) (A) (A) (A) (A) (A) (A) (A) (A) (A) (A) (A)
                 (A) (A) (A) (A) (A) (A) (A) (A) (A) (A) (A) (A)
                 (A) (A) (A) (A) (A) (A) (A) (A) (A) (A) (A) (A)
                 (A) (A) (A) (A) (A) (A) (A) (A) (A) (A) (A) (A)
                 (A) (A) (A) (A) (A) (A) (A) (A) (A) (A) (A) (A)
                 (A) (A) (A) (A) (A) (A) (A) (A) (A) (A) (A) (A)
                 (A) (A) (A) (A) (A) (A) (A) (A) (A) (A) (A) (A)
                 (A) (A) (A) (A) (A) (A) (A) (A) (A) (A) (A) (A)
                 (A) (A) (A) (A) (A) (A) (A) (A) (A) (A) (A) (A)
                 (A) (A) (A) (A) (A) (A) (A) (A) (A) (A) (A) (A)
                 (A) (A) (A) (A) (A) (A) (A) (A) (A) (A) (A) (A)
                 (A) (A) (A) (A) (A) (A) (A) (A) (A) (A) (A) (A)
                 (A) (A) (A) (A) (A) (A) (A) (A) (A) (A) (A) (A)
                 (A) (A) (A) (A) (A) (A) (A) (A) (A) (A) (A) (A)
                 (A) (A) (A) (A) (A) (A) (A) (A) (A) (A) (A) (A)
                 (A) (A) (A) (A) (A) (A) (A) (A) (A) (A) (A) (A)
                 (A)
 The electronic state is 1-A.
 Alpha  occ. eigenvalues --  -19.70599 -19.70460 -19.69633 -19.69429 -19.64799
 Alpha  occ. eigenvalues --  -19.64598 -19.64026 -19.63972 -10.70076 -10.69868
 Alpha  occ. eigenvalues --  -10.69627 -10.69156 -10.61944 -10.61895 -10.61028
 Alpha  occ. eigenvalues --  -10.58589 -10.58543 -10.58192 -10.58050 -10.57703
 Alpha  occ. eigenvalues --  -10.57667 -10.57546 -10.57530 -10.57299 -10.57254
 Alpha  occ. eigenvalues --  -10.57169 -10.57067 -10.54920  -1.24455  -1.24231
 Alpha  occ. eigenvalues --   -1.23966  -1.23336  -1.15118  -1.14823  -1.14186
 Alpha  occ. eigenvalues --   -1.13905  -0.98421  -0.97993  -0.90951  -0.89804
 Alpha  occ. eigenvalues --   -0.87892  -0.86325  -0.86019  -0.85519  -0.80414
 Alpha  occ. eigenvalues --   -0.77068  -0.75294  -0.72027  -0.71344  -0.70085
 Alpha  occ. eigenvalues --   -0.68975  -0.67009  -0.65855  -0.65255  -0.63369
 Alpha  occ. eigenvalues --   -0.62597  -0.60619  -0.60018  -0.58758  -0.57996
 Alpha  occ. eigenvalues --   -0.57894  -0.57468  -0.56308  -0.55784  -0.54144
 Alpha  occ. eigenvalues --   -0.53916  -0.53534  -0.53181  -0.52933  -0.51888
 Alpha  occ. eigenvalues --   -0.51573  -0.50439  -0.50396  -0.50110  -0.49995
 Alpha  occ. eigenvalues --   -0.48545  -0.48323  -0.47169  -0.46436  -0.45925
 Alpha  occ. eigenvalues --   -0.44799  -0.44697  -0.44394  -0.44140  -0.42594
 Alpha  occ. eigenvalues --   -0.42521  -0.42044  -0.41483  -0.41081  -0.40308
 Alpha  occ. eigenvalues --   -0.39693  -0.37508  -0.37218  -0.36657  -0.36152
 Alpha  occ. eigenvalues --   -0.36093  -0.35675  -0.32799  -0.32295  -0.32248
 Alpha  occ. eigenvalues --   -0.31853
 Alpha virt. eigenvalues --   -0.04585  -0.04185   0.01405   0.01784   0.04812
 Alpha virt. eigenvalues --    0.05015   0.11556   0.12273   0.12637   0.12711
 Alpha virt. eigenvalues --    0.13534   0.14523   0.15296   0.16403   0.17204
 Alpha virt. eigenvalues --    0.17649   0.18617   0.18769   0.19266   0.19384
 Alpha virt. eigenvalues --    0.19740   0.20823   0.21339   0.21643   0.21979
 Alpha virt. eigenvalues --    0.22239   0.22606   0.23105   0.23719   0.24008
 Alpha virt. eigenvalues --    0.24761   0.26293   0.27313   0.28346   0.28746
 Alpha virt. eigenvalues --    0.29267   0.29578   0.30940   0.31533   0.32170
 Alpha virt. eigenvalues --    0.32257   0.32879   0.32925   0.33412   0.33883
 Alpha virt. eigenvalues --    0.37165   0.38161   0.38318   0.38486   0.44630
 Alpha virt. eigenvalues --    0.44999   0.47904   0.48653   0.51124   0.51315
 Alpha virt. eigenvalues --    0.52969   0.54171   0.54597   0.54898   0.55995
 Alpha virt. eigenvalues --    0.56068   0.56625   0.57097   0.57504   0.57754
 Alpha virt. eigenvalues --    0.58008   0.58252   0.58585   0.59001   0.59663
 Alpha virt. eigenvalues --    0.60549   0.61255   0.62242   0.62494   0.62911
 Alpha virt. eigenvalues --    0.63098   0.63207   0.63432   0.63827   0.64667
 Alpha virt. eigenvalues --    0.65005   0.65241   0.65330   0.66018   0.67165
 Alpha virt. eigenvalues --    0.69043   0.69207   0.69451   0.70314   0.70836
 Alpha virt. eigenvalues --    0.71536   0.72024   0.74399   0.75088   0.75390
 Alpha virt. eigenvalues --    0.75781   0.77036   0.77430   0.78658   0.79108
 Alpha virt. eigenvalues --    0.79617   0.79958   0.82252   0.82602   0.83010
 Alpha virt. eigenvalues --    0.83190   0.83817   0.84784   0.85339   0.85860
 Alpha virt. eigenvalues --    0.86271   0.86868   0.86971   0.87324   0.87578
 Alpha virt. eigenvalues --    0.88376   0.89111   0.89733   0.90820   0.91612
 Alpha virt. eigenvalues --    0.92484   0.93853   0.94276   0.94327   0.94690
 Alpha virt. eigenvalues --    0.94795   0.95449   0.97510   0.98255   0.99543
 Alpha virt. eigenvalues --    0.99769   0.99983   1.00096   1.00638   1.01839
 Alpha virt. eigenvalues --    1.02221   1.02822   1.02989   1.04566   1.06008
 Alpha virt. eigenvalues --    1.07305   1.07485   1.07886   1.10215   1.10264
 Alpha virt. eigenvalues --    1.10589   1.10984   1.13027   1.13108   1.15988
 Alpha virt. eigenvalues --    1.16817   1.17159   1.18115   1.18574   1.20406
 Alpha virt. eigenvalues --    1.22052   1.22981   1.26096   1.27419   1.28040
 Alpha virt. eigenvalues --    1.28275   1.28755   1.29399   1.31256   1.31953
 Alpha virt. eigenvalues --    1.32071   1.32778   1.33455   1.33981   1.34674
 Alpha virt. eigenvalues --    1.35122   1.35521   1.35743   1.35933   1.38198
 Alpha virt. eigenvalues --    1.39576   1.41366   1.41587   1.42560   1.42800
 Alpha virt. eigenvalues --    1.43568   1.44277   1.44436   1.44581   1.44829
 Alpha virt. eigenvalues --    1.46183   1.47034   1.47688   1.48129   1.48637
 Alpha virt. eigenvalues --    1.49773   1.50878   1.51589   1.54451   1.57035
 Alpha virt. eigenvalues --    1.58020   1.60049   1.61183   1.61956   1.64778
 Alpha virt. eigenvalues --    1.66515   1.68850   1.69558   1.70246   1.71712
 Alpha virt. eigenvalues --    1.72230   1.72509   1.74084   1.77289   1.77386
 Alpha virt. eigenvalues --    1.78034   1.78568   1.79160   1.79504   1.79634
 Alpha virt. eigenvalues --    1.79974   1.81803   1.82797   1.86208   1.86605
 Alpha virt. eigenvalues --    1.87983   1.88757   1.89470   1.89780   1.90019
 Alpha virt. eigenvalues --    1.90311   1.90423   1.91003   1.92534   1.92935
 Alpha virt. eigenvalues --    1.93052   1.93340   1.93768   1.94634   1.95417
 Alpha virt. eigenvalues --    1.95923   1.96138   1.97718   1.98504   1.98928
 Alpha virt. eigenvalues --    1.99398   1.99674   1.99944   2.00241   2.00582
 Alpha virt. eigenvalues --    2.02214   2.03150   2.04595   2.05092   2.05702
 Alpha virt. eigenvalues --    2.06334   2.07815   2.08435   2.08831   2.10180
 Alpha virt. eigenvalues --    2.10842   2.11471   2.11685   2.12389   2.12500
 Alpha virt. eigenvalues --    2.12994   2.13060   2.13142   2.14334   2.15190
 Alpha virt. eigenvalues --    2.15648   2.17646   2.21674   2.22663   2.26401
 Alpha virt. eigenvalues --    2.26836   2.27792   2.29175   2.29654   2.30747
 Alpha virt. eigenvalues --    2.31188   2.32110   2.33227   2.33870   2.34294
 Alpha virt. eigenvalues --    2.35335   2.35772   2.37200   2.39641   2.39735
 Alpha virt. eigenvalues --    2.40004   2.40340   2.41491   2.41680   2.41907
 Alpha virt. eigenvalues --    2.43342   2.43809   2.44547   2.44899   2.45840
 Alpha virt. eigenvalues --    2.46564   2.46945   2.49974   2.51257   2.52034
 Alpha virt. eigenvalues --    2.52795   2.53176   2.55771   2.56291   2.57198
 Alpha virt. eigenvalues --    2.58156   2.59541   2.59752   2.60041   2.60596
 Alpha virt. eigenvalues --    2.61367   2.61805   2.62964   2.63373   2.63687
 Alpha virt. eigenvalues --    2.65096   2.66311   2.67594   2.68105   2.69083
 Alpha virt. eigenvalues --    2.69798   2.70265   2.71207   2.72009   2.72390
 Alpha virt. eigenvalues --    2.74723   2.75688   2.76534   2.77017   2.77309
 Alpha virt. eigenvalues --    2.77592   2.78500   2.79036   2.79645   2.80794
 Alpha virt. eigenvalues --    2.82993   2.84024   2.84565   2.87318   2.87854
 Alpha virt. eigenvalues --    2.88487   2.89615   2.92259   2.93088   2.93893
 Alpha virt. eigenvalues --    2.94973   2.98312   2.99509   2.99891   3.01494
 Alpha virt. eigenvalues --    3.01905   3.04424   3.04762   3.11849   3.14451
 Alpha virt. eigenvalues --    3.16132   3.16964   3.17099   3.18489   3.19674
 Alpha virt. eigenvalues --    3.21749   3.22287   3.23160   3.23639   3.24877
 Alpha virt. eigenvalues --    3.28336   3.33402   3.35492   3.35843   3.36223
 Alpha virt. eigenvalues --    3.38022   3.39622   3.40932   3.44511   3.45200
 Alpha virt. eigenvalues --    3.49251   3.49638   3.50372   3.52984   3.80673
 Alpha virt. eigenvalues --    3.80770   3.95793   3.99248   4.02888   4.04803
 Alpha virt. eigenvalues --    4.11376   4.12487   4.16303   4.16594   4.16748
 Alpha virt. eigenvalues --    4.18069   4.26825   4.29906   4.35006   4.37914
 Alpha virt. eigenvalues --    4.40907   4.41769   4.42632   4.43807   4.49437
 Alpha virt. eigenvalues --    4.50740   4.52026   4.52981   4.59819   4.62891
 Alpha virt. eigenvalues --    4.64705   4.68968   4.84893   4.85225
          Condensed to atoms (all electrons):
               1          2          3          4          5          6
     1  C    4.309586   0.003977  -0.000127  -0.040938  -0.007924   0.350115
     2  C    0.003977   4.916806   0.375916   0.491572  -0.033429  -0.030833
     3  H   -0.000127   0.375916   0.523615  -0.031953  -0.003959   0.002902
     4  C   -0.040938   0.491572  -0.031953   4.932440   0.377000   0.517329
     5  H   -0.007924  -0.033429  -0.003959   0.377000   0.529795  -0.033468
     6  C    0.350115  -0.030833   0.002902   0.517329  -0.033468   4.977109
[...]
    45  H   -0.000000   0.000000  -0.000000  -0.000000   0.000000   0.000000
    46  H    0.000000   0.000000   0.000000   0.000000   0.000000  -0.015011
              25         26         27         28         29         30
     1  C   -0.000000   0.000000  -0.000000   0.000000   0.000000  -0.000000
     2  C    0.000000   0.000000   0.000000  -0.000000  -0.000000   0.000000
     3  H   -0.000000  -0.000000  -0.000000   0.000000   0.000000   0.000000
     4  C    0.000000   0.000000   0.000000  -0.000000  -0.000000   0.000000
     5  H    0.000000   0.000000   0.000000  -0.000000  -0.000000  -0.000000
     6  C   -0.000000  -0.000000  -0.000000  -0.000000   0.000000  -0.000000
     7  C    0.000000  -0.000000  -0.000000   0.000000  -0.000000   0.000000
     8  H   -0.000000  -0.000000  -0.000000   0.000000  -0.000000  -0.000000
     9  C    0.000000  -0.000000   0.000000   0.000000   0.000000   0.000000
    10  H    0.000000   0.000000   0.000000   0.000000   0.000000   0.000000
    11  C   -0.000000  -0.000000  -0.000000   0.000000   0.000000   0.000000
    12  O    0.000000   0.000000   0.000000   0.000000   0.000000   0.000000
    13  C    0.000000  -0.000000   0.000000   0.000000   0.000000   0.000000
    14  O    0.000000   0.000000   0.000000   0.000000   0.000000   0.000000
    15  O   -0.000000  -0.000000  -0.000000  -0.000000   0.000000   0.000000
    16  O   -0.000000   0.000000   0.000000  -0.000000   0.000000  -0.000000
    17  C    0.000000   0.000000   0.000000   0.000000   0.000000   0.000000
    18  H    0.000000   0.000000   0.000000   0.000000   0.000000   0.000000
    19  H    0.000000   0.000000   0.000000   0.000000   0.000000   0.000000
    20  C    0.000000   0.000000   0.000000   0.000000   0.000000   0.000000
    21  H    0.000000   0.000000   0.000000   0.000000   0.000000   0.000000
    22  H    0.000000   0.000000   0.000000   0.000000   0.000000   0.000000
    23  H    0.000000   0.000000   0.000000   0.000000   0.000000   0.000000
    24  C    0.006696  -0.000133  -0.042648  -0.008168   0.307327  -0.036399
    25  C    4.927193   0.376730   0.487909  -0.030700  -0.037990  -0.041800
    26  H    0.376730   0.526092  -0.032563  -0.003481   0.003000   0.000504
    27  C    0.487909  -0.032563   4.916068   0.376340   0.537870  -0.058499
    28  H   -0.030700  -0.003481   0.376340   0.520369  -0.037167   0.004280
    29  C   -0.037990   0.003000   0.537870  -0.037167   5.006593   0.520115
    30  C   -0.041800   0.000504  -0.058499   0.004280   0.520115   4.925879
    31  H    0.000521   0.000015   0.004246  -0.000137  -0.033157   0.376645
    32  C   -0.058424   0.004281  -0.043494   0.000521  -0.032174   0.492495
    33  H    0.004386  -0.000136   0.000471   0.000016   0.002864  -0.031007
    34  C    0.520811  -0.034098  -0.029482   0.002796  -0.028191  -0.037053
    35  O    0.003710   0.000117  -0.000065   0.000000  -0.000011   0.000787
    36  C   -0.040291  -0.008580   0.004326  -0.000126   0.000495   0.005978
    37  O    0.001226   0.007933   0.000347  -0.000001  -0.000006  -0.000052
    38  O   -0.000048   0.000000   0.004103   0.000272  -0.103983   0.000618
    39  O    0.000862   0.000001   0.002934   0.010076  -0.100791   0.003708
    40  C   -0.000198  -0.000220   0.000003  -0.000000   0.000000   0.000001
    41  H    0.000062   0.000020   0.000001  -0.000000  -0.000000   0.000000
    42  H   -0.000051  -0.000013  -0.000001  -0.000000   0.000000  -0.000000
    43  C    0.000018   0.000010   0.000000   0.000000  -0.000000   0.000000
    44  H    0.000012   0.000009   0.000000  -0.000000   0.000000   0.000000
    45  H   -0.000022  -0.000002   0.000000  -0.000000   0.000000  -0.000000
    46  H    0.000001  -0.000000  -0.000225  -0.000018   0.011423  -0.000558
              31         32         33         34         35         36
     1  C    0.000000   0.000000   0.000000   0.000000  -0.000002   0.000026
     2  C    0.000000  -0.000000  -0.000000  -0.000000   0.000000  -0.000000
     3  H    0.000000   0.000000   0.000000  -0.000000  -0.000000   0.000000
     4  C    0.000000   0.000000  -0.000000  -0.000000  -0.000000  -0.000000
     5  H    0.000000  -0.000000  -0.000000  -0.000000   0.000000   0.000000
     6  C   -0.000000  -0.000000  -0.000000   0.000000   0.000000   0.000000
     7  C    0.000000   0.000000   0.000000  -0.000000  -0.000000   0.000000
     8  H    0.000000   0.000000   0.000000   0.000000   0.000000   0.000000
     9  C    0.000000   0.000000  -0.000000  -0.000000  -0.000000  -0.000000
    10  H    0.000000   0.000000   0.000000  -0.000000  -0.000000   0.000000
    11  C    0.000000  -0.000000  -0.000000   0.000000   0.000000   0.000000
    12  O    0.000000   0.000000   0.000000   0.000000   0.000000   0.000000
    13  C    0.000000   0.000000   0.000000   0.000000   0.000000   0.000000
    14  O    0.000000   0.000000   0.000000   0.000000   0.000000   0.000000
    15  O   -0.000000  -0.000000  -0.000000   0.000000   0.000009   0.000007
    16  O   -0.000000  -0.000000   0.000000   0.000000  -0.000000  -0.000002
    17  C    0.000000   0.000000   0.000000   0.000000   0.000000   0.000000
    18  H    0.000000   0.000000   0.000000   0.000000   0.000000   0.000000
    19  H    0.000000   0.000000   0.000000   0.000000   0.000000   0.000000
    20  C    0.000000   0.000000   0.000000   0.000000   0.000000   0.000000
    21  H    0.000000   0.000000   0.000000   0.000000   0.000000   0.000000
    22  H    0.000000   0.000000   0.000000   0.000000   0.000000   0.000000
    23  H    0.000000   0.000000   0.000000   0.000000   0.000000   0.000000
    24  C   -0.008528   0.004232  -0.000112   0.000237  -0.000000   0.000002
    25  C    0.000521  -0.058424   0.004386   0.520811   0.003710  -0.040291
    26  H    0.000015   0.004281  -0.000136  -0.034098   0.000117  -0.008580
    27  C    0.004246  -0.043494   0.000471  -0.029482  -0.000065   0.004326
    28  H   -0.000137   0.000521   0.000016   0.002796   0.000000  -0.000126
    29  C   -0.033157  -0.032174   0.002864  -0.028191  -0.000011   0.000495
    30  C    0.376645   0.492495  -0.031007  -0.037053   0.000787   0.005978
    31  H    0.526959  -0.032312  -0.003511   0.002945   0.000001  -0.000141
    32  C   -0.032312   4.908889   0.376177   0.535418   0.002554  -0.039709
    33  H   -0.003511   0.376177   0.522129  -0.037741   0.010648  -0.007953
    34  C    0.002945   0.535418  -0.037741   4.972924  -0.091145   0.349258
    35  O    0.000001   0.002554   0.010648  -0.091145   8.092568   0.554404
    36  C   -0.000141  -0.039709  -0.007953   0.349258   0.554404   4.304404
    37  O    0.000000   0.004159   0.000281  -0.098736  -0.093628   0.262560
    38  O    0.006148   0.000287  -0.000001  -0.000006   0.000000  -0.000000
    39  O    0.000105  -0.000062   0.000000  -0.000017  -0.000000  -0.000000
    40  C   -0.000000  -0.000159  -0.000013   0.006899  -0.001110  -0.026938
    41  H   -0.000000  -0.000021  -0.000006   0.000019   0.011879  -0.006621
    42  H    0.000000   0.000002   0.000000   0.000062   0.000333   0.003550
    43  C    0.000000   0.000014   0.000001  -0.000524  -0.005278  -0.003760
    44  H    0.000000  -0.000003  -0.000000  -0.000058   0.000240   0.000473
    45  H   -0.000000  -0.000003   0.000000   0.000290   0.005881   0.004888
    46  H   -0.000194   0.000005  -0.000000   0.000001   0.000000   0.000000
              37         38         39         40         41         42
     1  C    0.000004   0.000000  -0.000000  -0.003788   0.000455   0.004941
     2  C   -0.000000   0.000000   0.000000   0.000000   0.000000   0.000000
     3  H   -0.000000   0.000000   0.000000   0.000000  -0.000000  -0.000000
     4  C   -0.000000   0.000000   0.000000   0.000018   0.000011  -0.000022
     5  H   -0.000000   0.000000   0.000000   0.000011   0.000009  -0.000002
     6  C    0.000000   0.000000   0.000000  -0.000518  -0.000057   0.000291
     7  C   -0.000000   0.000000   0.000000   0.000014  -0.000003  -0.000003
     8  H   -0.000000   0.000000   0.000000   0.000001  -0.000000   0.000000
     9  C    0.000000   0.000000   0.000000   0.000000   0.000000  -0.000000
    10  H   -0.000000   0.000000   0.000000   0.000000   0.000000  -0.000000
    11  C    0.000000   0.000000   0.000000  -0.000000  -0.000000   0.000000
    12  O    0.000000   0.000000   0.000000  -0.000000   0.000000  -0.000000
    13  C   -0.000000   0.000000   0.000000  -0.000000  -0.000000   0.000000
    14  O    0.000000   0.000000   0.000000  -0.000000  -0.000000  -0.000000
    15  O    0.001288   0.000000   0.000000  -0.031369   0.003200  -0.002418
    16  O    0.000008   0.000000   0.000000  -0.005309   0.000245   0.005965
    17  C    0.000000   0.000000   0.000000   0.000000  -0.000000  -0.000000
    18  H    0.000000   0.000000   0.000000   0.000000   0.000000   0.000000
    19  H    0.000000   0.000000   0.000000  -0.000000  -0.000000  -0.000000
    20  C    0.000000   0.000000   0.000000   0.000000  -0.000000   0.000000
    21  H    0.000000   0.000000   0.000000  -0.000000  -0.000000  -0.000000
    22  H    0.000000   0.000000   0.000000   0.000000   0.000000  -0.000000
    23  H    0.000000   0.000000   0.000000   0.000000   0.000000   0.000000
    24  C   -0.000000   0.280330   0.595922   0.000000  -0.000000   0.000000
    25  C    0.001226  -0.000048   0.000862  -0.000198   0.000062  -0.000051
    26  H    0.007933   0.000000   0.000001  -0.000220   0.000020  -0.000013
    27  C    0.000347   0.004103   0.002934   0.000003   0.000001  -0.000001
    28  H   -0.000001   0.000272   0.010076  -0.000000  -0.000000  -0.000000
    29  C   -0.000006  -0.103983  -0.100791   0.000000  -0.000000   0.000000
    30  C   -0.000052   0.000618   0.003708   0.000001   0.000000  -0.000000
    31  H    0.000000   0.006148   0.000105  -0.000000  -0.000000   0.000000
    32  C    0.004159   0.000287  -0.000062  -0.000159  -0.000021   0.000002
    33  H    0.000281  -0.000001   0.000000  -0.000013  -0.000006   0.000000
    34  C   -0.098736  -0.000006  -0.000017   0.006899   0.000019   0.000062
    35  O   -0.093628   0.000000  -0.000000  -0.001110   0.011879   0.000333
    36  C    0.262560  -0.000000  -0.000000  -0.026938  -0.006621   0.003550
    37  O    8.346523  -0.000000   0.000000   0.176849  -0.030543  -0.029016
    38  O   -0.000000   8.159686  -0.097124   0.000000  -0.000000  -0.000000
    39  O    0.000000  -0.097124   8.056931   0.000000   0.000000   0.000000
    40  C    0.176849   0.000000   0.000000   4.852053   0.383258   0.400851
    41  H   -0.030543  -0.000000   0.000000   0.383258   0.554396  -0.029517
    42  H   -0.029016  -0.000000   0.000000   0.400851  -0.029517   0.518984
    43  C   -0.031315  -0.000000  -0.000000   0.338808  -0.044475  -0.039328
    44  H    0.003222  -0.000000   0.000000  -0.044768   0.005233  -0.005875
    45  H   -0.002325  -0.000000  -0.000000  -0.039392  -0.005911   0.003800
    46  H    0.000000   0.284650   0.006439  -0.000000   0.000000  -0.000000
              43         44         45         46
     1  C   -0.026942  -0.006715   0.003574  -0.000000
     2  C    0.000003   0.000001  -0.000001   0.000000
     3  H   -0.000000  -0.000000  -0.000000   0.000000
     4  C   -0.000200   0.000062  -0.000051   0.000000
     5  H   -0.000219   0.000019  -0.000012   0.000000
     6  C    0.006911   0.000014   0.000064   0.000000
     7  C   -0.000160  -0.000021   0.000002   0.000000
     8  H   -0.000013  -0.000006   0.000000   0.000000
     9  C    0.000001   0.000000  -0.000000   0.000000
    10  H   -0.000000  -0.000000   0.000000   0.000000
    11  C    0.000000  -0.000000   0.000000   0.000000
    12  O    0.000000   0.000000   0.000000   0.000000
    13  C    0.000000  -0.000000   0.000000   0.000000
    14  O    0.000000   0.000000  -0.000000   0.000000
    15  O    0.177749  -0.030539  -0.029071   0.000000
    16  O   -0.001287   0.012083   0.000337   0.000000
    17  C   -0.000000   0.000000  -0.000000   0.000000
    18  H    0.000000   0.000000  -0.000000   0.000000
    19  H    0.000000   0.000000  -0.000000   0.000000
    20  C   -0.000000  -0.000000   0.000000   0.000000
    21  H    0.000000  -0.000000  -0.000000   0.000000
    22  H   -0.000000   0.000000  -0.000000   0.000000
    23  H   -0.000000   0.000000   0.000000   0.000000
    24  C   -0.000000  -0.000000   0.000000  -0.015011
    25  C    0.000018   0.000012  -0.000022   0.000001
    26  H    0.000010   0.000009  -0.000002  -0.000000
    27  C    0.000000   0.000000   0.000000  -0.000225
    28  H    0.000000  -0.000000  -0.000000  -0.000018
    29  C   -0.000000   0.000000   0.000000   0.011423
    30  C    0.000000   0.000000  -0.000000  -0.000558
    31  H    0.000000   0.000000  -0.000000  -0.000194
    32  C    0.000014  -0.000003  -0.000003   0.000005
    33  H    0.000001  -0.000000   0.000000  -0.000000
    34  C   -0.000524  -0.000058   0.000290   0.000001
    35  O   -0.005278   0.000240   0.005881   0.000000
    36  C   -0.003760   0.000473   0.004888   0.000000
    37  O   -0.031315   0.003222  -0.002325   0.000000
    38  O   -0.000000  -0.000000  -0.000000   0.284650
    39  O   -0.000000   0.000000  -0.000000   0.006439
    40  C    0.338808  -0.044768  -0.039392  -0.000000
    41  H   -0.044475   0.005233  -0.005911   0.000000
    42  H   -0.039328  -0.005875   0.003800  -0.000000
    43  C    4.850275   0.383319   0.400802   0.000000
    44  H    0.383319   0.554757  -0.029573  -0.000000
    45  H    0.400802  -0.029573   0.519679  -0.000000
    46  H    0.000000  -0.000000  -0.000000   0.359764
 Mulliken charges:
               1
     1  C    0.642448
     2  C   -0.125083
     3  H    0.163366
     4  C   -0.122911
     5  H    0.158797
     6  C   -0.033243
     7  C   -0.124924
     8  H    0.161486
     9  C   -0.122963
    10  H    0.155060
    11  C   -0.031801
    12  O   -0.494102
    13  C    0.650278
    14  O   -0.517980
    15  O   -0.518926
    16  O   -0.493267
    17  C    0.022197
    18  H    0.141913
    19  H    0.141953
    20  C   -0.388159
    21  H    0.140974
    22  H    0.134234
    23  H    0.141075
    24  C    0.602945
    25  C   -0.120613
    26  H    0.160515
    27  C   -0.127641
    28  H    0.165130
    29  C   -0.016218
    30  C   -0.125643
    31  H    0.160397
    32  C   -0.122673
    33  H    0.163503
    34  C   -0.034610
    35  O   -0.491891
    36  C    0.643751
    37  O   -0.518780
    38  O   -0.534931
    39  O   -0.478983
    40  C   -0.004985
    41  H    0.158366
    42  H    0.167469
    43  C   -0.004413
    44  H    0.158113
    45  H    0.167045
    46  H    0.353723
 Sum of Mulliken charges =  -0.00000
 Mulliken charges with hydrogens summed into heavy atoms:
               1
     1  C    0.642448
     2  C    0.038283
     4  C    0.035885
     6  C   -0.033243
     7  C    0.036562
     9  C    0.032098
    11  C   -0.031801
    12  O   -0.494102
    13  C    0.650278
    14  O   -0.517980
    15  O   -0.518926
    16  O   -0.493267
    17  C    0.306063
    20  C    0.028124
    24  C    0.602945
    25  C    0.039901
    27  C    0.037490
    29  C   -0.016218
    30  C    0.034754
    32  C    0.040830
    34  C   -0.034610
    35  O   -0.491891
    36  C    0.643751
    37  O   -0.518780
    38  O   -0.181208
    39  O   -0.478983
    40  C    0.320850
    43  C    0.320745
 Electronic spatial extent (au):  <R**2>=          28571.9969
 Charge=             -0.0000 electrons
 Dipole moment (field-independent basis, Debye):
    X=              0.7899    Y=             -0.3622    Z=              0.0720  Tot=              0.8719
 Quadrupole moment (field-independent basis, Debye-Ang):
   XX=           -122.0950   YY=           -167.0907   ZZ=           -158.3294
   XY=            -25.6602   XZ=              4.0852   YZ=             -2.1936
 Traceless Quadrupole moment (field-independent basis, Debye-Ang):
   XX=             27.0767   YY=            -17.9190   ZZ=             -9.1577
   XY=            -25.6602   XZ=              4.0852   YZ=             -2.1936
 Octapole moment (field-independent basis, Debye-Ang**2):
  XXX=             61.2541  YYY=             -1.4849  ZZZ=              0.0091  XYY=              4.5369
  XXY=              7.1589  XXZ=             -1.8430  XZZ=              0.4409  YZZ=              0.1924
  YYZ=             -0.0492  XYZ=              1.8919
 Hexadecapole moment (field-independent basis, Debye-Ang**3):
 XXXX=         -28187.6320 YYYY=          -1272.1807 ZZZZ=           -279.0406 XXXY=          -2479.6474
 XXXZ=            450.7707 YYYX=            -96.8323 YYYZ=            -12.9478 ZZZX=             27.8987
 ZZZY=              5.3078 XXYY=          -6639.6692 XXZZ=          -5967.5318 YYZZ=           -261.5018
 XXYZ=            -36.1424 YYXZ=             -0.0017 ZZXY=             22.1005
 N-N= 2.265772814836D+03 E-N=-7.739055763626D+03  KE= 1.363039529805D+03
 No NMR shielding tensors so no spin-rotation constants.
 Leave Link  601 at Tue Jul 27 20:22:58 2021, MaxMem=   524288000 cpu:               1.6 elap:               0.5
 (Enter /opt/gaussian/g16_legacy/l9999.exe)
 1\1\GINC-TRUENO90\FOpt\RM062X\6-31G(d,p)\C20H18O8\JRAMOS\27-Jul-2021\0
 \\#p opt=loose m062x/6-31g(d,p)\\Conformer number 1404. Energy MM = 72
 .083 kcal/mol\\0,1\C,1.0315157646,0.7291956238,0.0314570053\C,4.232498
 3093,-0.5061740802,1.638207673\H,4.5838959938,-1.1199950071,2.46035389
 92\C,2.8777452123,-0.3136562378,1.404882887\H,2.133302752,-0.774986574
 2,2.0429836499\C,2.4716536453,0.4852356943,0.3335507069\C,3.4147437665
 ,1.0884442029,-0.5002999892\H,3.0644936401,1.7024699006,-1.3228068371\
 C,4.7691885717,0.8963494848,-0.2655495264\H,5.5146476055,1.3578503881,
 -0.9023607923\C,5.1755535816,0.097531758,0.8053259614\O,7.0118548646,-
 0.8294089154,2.0226644846\C,6.6189971441,-0.1454820873,1.1075837954\O,
 7.4355942805,0.4819415135,0.2493607044\O,0.2129793221,0.105314081,0.89
 97329939\O,0.6345295506,1.4092173073,-0.8849569906\C,8.8384563083,0.28
 96440442,0.4870206239\H,9.057471515,-0.7812731897,0.4461732007\H,9.073
 3766598,0.6357944702,1.4977084854\C,9.5833967895,1.0686245441,-0.57385
 23075\H,9.3226232621,0.7071562087,-1.5708981323\H,10.6603708492,0.9526
 674141,-0.4333105866\H,9.3380319987,2.1311825356,-0.5143302623\C,-9.48
 62294783,-0.0729799937,-0.8533487101\C,-5.7466424418,0.0705046194,-1.1
 412342783\H,-4.9963271869,0.5243965771,-1.7776912705\C,-7.0989092806,0
 .2715522858,-1.380653953\H,-7.4428796582,0.8849075394,-2.2062942252\C,
 -8.048272415,-0.3231244797,-0.5483436728\C,-7.6526424898,-1.1211508229
 ,0.5271070964\H,-8.4030435778,-1.5755695917,1.1634327272\C,-6.30026437
 93,-1.3217026088,0.7673341042\H,-5.9569253289,-1.9351014679,1.59314752
 3\C,-5.3506788858,-0.7274950338,-0.0653727119\O,-3.5242704069,-1.65973
 63692,1.1628189309\C,-3.9123761286,-0.9795273507,0.2429931089\O,-3.088
 1109139,-0.3623045077,-0.6233392608\O,-10.3187934084,-0.6898096587,0.0
 051961476\O,-9.8822277063,0.605710088,-1.7691813597\C,-1.6897579015,-0
 .5808465697,-0.4197138617\H,-1.5082817278,-1.6289364418,-0.1712123115\
 H,-1.20917818,-0.3178024054,-1.3617841275\C,-1.1863799247,0.3188715583
 ,0.7013606027\H,-1.3728594094,1.3664266064,0.4542086094\H,-1.663393857
 2,0.0532428187,1.6445699049\H,-11.2184767003,-0.467167871,-0.277439659
 \\Version=EM64L-G16RevA.03\State=1-A\HF=-1374.3095955\RMSD=6.673e-09\R
 MSF=3.416e-05\Dipole=0.3148667,0.082741,-0.1081199\Quadrupole=21.21052
 64,-9.916108,-11.2944184,10.8951547,-14.9041579,3.41522\PG=C01 [X(C20H
 18O8)]\\@


 THE ... SCIENTISTS WERE WRONG ... THE MOST PERSISTENT PRINCIPLES 
 OF THE UNIVERSE WERE ACCIDENT AND ERROR.

                          -- FRANK HERBERT IN DUNE
 Job cpu time:       0 days  3 hours 21 minutes 25.6 seconds.
 Elapsed time:       0 days  0 hours 50 minutes 30.9 seconds.
 File lengths (MBytes):  RWF=    165 Int=      0 D2E=      0 Chk=     21 Scr=      1
 Normal termination of Gaussian 16 at Tue Jul 27 20:22:58 2021.
