 Entering Gaussian System, Link 0=/opt/gaussian/g16_legacy/g16
 Input=05-PET_214_gaussian.com
 Output=05-PET_214_gaussian.log
 Initial command:
 /opt/gaussian/g16_legacy/l1.exe "/scratch-local/jramos/2648143/Gau-2895.inp" -scrdir="/scratch-local/jramos/2648143/"
 Entering Link 1 = /opt/gaussian/g16_legacy/l1.exe PID=      2899.
  
 Copyright (c) 1988,1990,1992,1993,1995,1998,2003,2009,2016,
            Gaussian, Inc.  All Rights Reserved.
  
 This is part of the Gaussian(R) 16 program.  It is based on
 the Gaussian(R) 09 system (copyright 2009, Gaussian, Inc.),
 the Gaussian(R) 03 system (copyright 2003, Gaussian, Inc.),
 the Gaussian(R) 98 system (copyright 1998, Gaussian, Inc.),
 the Gaussian(R) 94 system (copyright 1995, Gaussian, Inc.),
 the Gaussian 92(TM) system (copyright 1992, Gaussian, Inc.),
 the Gaussian 90(TM) system (copyright 1990, Gaussian, Inc.),
 the Gaussian 88(TM) system (copyright 1988, Gaussian, Inc.),
 the Gaussian 86(TM) system (copyright 1986, Carnegie Mellon
 University), and the Gaussian 82(TM) system (copyright 1983,
 Carnegie Mellon University). Gaussian is a federally registered
 trademark of Gaussian, Inc.
  
 This software contains proprietary and confidential information,
 including trade secrets, belonging to Gaussian, Inc.
  
 This software is provided under written license and may be
 used, copied, transmitted, or stored only in accord with that
 written license.
  
 The following legend is applicable only to US Government
 contracts under FAR:
  
                    RESTRICTED RIGHTS LEGEND
  
 Use, reproduction and disclosure by the US Government is
 subject to restrictions as set forth in subparagraphs (a)
 and (c) of the Commercial Computer Software - Restricted
 Rights clause in FAR 52.227-19.
  
 Gaussian, Inc.
 340 Quinnipiac St., Bldg. 40, Wallingford CT 06492
  
  
 ---------------------------------------------------------------
 Warning -- This program may not be used in any manner that
 competes with the business of Gaussian, Inc. or will provide
 assistance to any competitor of Gaussian, Inc.  The licensee
 of this program is prohibited from giving any competitor of
 Gaussian, Inc. access to this program.  By using this program,
 the user acknowledges that Gaussian, Inc. is engaged in the
 business of creating and licensing software in the field of
 computational chemistry and represents and warrants to the
 licensee that it is not a competitor of Gaussian, Inc. and that
 it will not use this program in any manner prohibited above.
 ---------------------------------------------------------------
  

 Cite this work as:
 Gaussian 16, Revision A.03,
 M. J. Frisch, G. W. Trucks, H. B. Schlegel, G. E. Scuseria, 
 M. A. Robb, J. R. Cheeseman, G. Scalmani, V. Barone, 
 G. A. Petersson, H. Nakatsuji, X. Li, M. Caricato, A. V. Marenich, 
 J. Bloino, B. G. Janesko, R. Gomperts, B. Mennucci, H. P. Hratchian, 
 J. V. Ortiz, A. F. Izmaylov, J. L. Sonnenberg, D. Williams-Young, 
 F. Ding, F. Lipparini, F. Egidi, J. Goings, B. Peng, A. Petrone, 
 T. Henderson, D. Ranasinghe, V. G. Zakrzewski, J. Gao, N. Rega, 
 G. Zheng, W. Liang, M. Hada, M. Ehara, K. Toyota, R. Fukuda, 
 J. Hasegawa, M. Ishida, T. Nakajima, Y. Honda, O. Kitao, H. Nakai, 
 T. Vreven, K. Throssell, J. A. Montgomery, Jr., J. E. Peralta, 
 F. Ogliaro, M. J. Bearpark, J. J. Heyd, E. N. Brothers, K. N. Kudin, 
 V. N. Staroverov, T. A. Keith, R. Kobayashi, J. Normand, 
 K. Raghavachari, A. P. Rendell, J. C. Burant, S. S. Iyengar, 
 J. Tomasi, M. Cossi, J. M. Millam, M. Klene, C. Adamo, R. Cammi, 
 J. W. Ochterski, R. L. Martin, K. Morokuma, O. Farkas, 
 J. B. Foresman, and D. J. Fox, Gaussian, Inc., Wallingford CT, 2016.
 
 ******************************************
 Gaussian 16:  EM64L-G16RevA.03 25-Dec-2016
                27-Jul-2021 
 ******************************************
 %chk=05-PET_214_gaussian.chk
 %nproc=4
 Will use up to    4 processors via shared memory.
 %mem=4000Mb
 -----------------------------
 #p opt=loose m062x/6-31g(d,p)
 -----------------------------
 1/7=-1,18=20,19=15,26=3,38=1/1,3;
 2/9=110,12=2,17=6,18=5,40=1/2;
 3/5=1,6=6,7=101,11=2,25=1,30=1,71=1,74=-55/1,2,3;
 4//1;
 5/5=2,38=5/2;
 6/7=2,8=2,9=2,10=2,28=1/1;
 7//1,2,3,16;
 1/7=-1,18=20,19=15,26=3/3(2);
 2/9=110/2;
 99//99;
 2/9=110/2;
 3/5=1,6=6,7=101,11=2,25=1,30=1,71=1,74=-55/1,2,3;
 4/5=5,16=3,69=1/1;
 5/5=2,38=5/2;
 7//1,2,3,16;
 1/7=-1,18=20,19=15,26=3/3(-5);
 2/9=110/2;
 6/7=2,8=2,9=2,10=2,19=2,28=1/1;
 99/9=1/99;
 Leave Link    1 at Tue Jul 27 19:32:25 2021, MaxMem=   524288000 cpu:               0.2 elap:               0.1
 (Enter /opt/gaussian/g16_legacy/l101.exe)
 -------------------------------------------------
 Conformer number 214. Energy MM = 73.475 kcal/mol
 -------------------------------------------------
 Symbolic Z-matrix:
 Charge =  0 Multiplicity = 1
 C                     1.2312   -0.6146    0.9652 
 C                     4.229     1.0211   -0.7243 
 H                     4.4342    1.7093   -1.5435 
 C                     2.904     0.674    -0.4365 
 H                     2.1081    1.1024   -1.0414 
 C                     2.6198   -0.2095    0.6132 
 C                     3.675    -0.7397    1.369 
 H                     3.4706   -1.4278    2.1882 
 C                     4.9998   -0.3924    1.081 
 H                     5.7969   -0.8201    1.6851 
 C                     5.2843    0.4911    0.0314 
 O                     6.9402    1.6638   -1.2307 
 C                     6.6733    0.8958   -0.3201 
 O                     7.5686    0.2971    0.5034 
 O                     0.3336   -0.0168    0.1434 
 O                     0.9633   -1.3826    1.8753 
 C                     8.9343    0.6352    0.231 
 H                     9.0773    1.7157    0.3434 
 H                     9.1939    0.3318   -0.7894 
 C                     9.8106   -0.1035    1.2236 
 H                     9.6626   -1.1851    1.1381 
 H                     10.8671   0.1231    1.0556 
 H                     9.5482    0.1734    2.2501 
 C                    -9.66     -0.8242    0.1062 
 C                    -6.6404    0.7512   -1.5074 
 H                    -6.4391    1.4398   -2.3269 
 C                    -7.9628    0.4016   -1.2159 
 H                    -8.7721    0.8217   -1.8112 
 C                    -8.2427   -0.482    -0.1664 
 C                    -7.1901   -1.0134    0.5894 
 H                    -7.388    -1.7014    1.4087 
 C                    -5.8663   -0.6634    0.2977 
 H                    -5.068    -1.0905    0.9004 
 C                    -5.5843    0.2213   -0.7529 
 O                    -3.9286    1.3953   -2.0162 
 C                    -4.1961    0.6273   -1.1063 
 O                    -3.2978    0.0295   -0.285 
 O                    -9.8011   -1.6787    1.1344 
 O                    -10.6245  -0.4039   -0.5051 
 C                    -1.9344    0.3716   -0.563 
 H                    -1.6748    0.0822   -1.5887 
 H                    -1.7899    1.4545   -0.4643 
 C                    -1.03     -0.3583    0.4205 
 H                    -1.1747   -1.4411    0.3218 
 H                    -1.2899   -0.069     1.4462 
 H                    -10.7704  -1.812     1.1981 
 
 ITRead=  0  0  0  0  0  0  0  0  0  0  0  0  0  0  0  0  0  0  0  0
 ITRead=  0  0  0  0  0  0  0  0  0  0  0  0  0  0  0  0  0  0  0  0
 ITRead=  0  0  0  0  0  0
 MicOpt= -1 -1 -1 -1 -1 -1 -1 -1 -1 -1 -1 -1 -1 -1 -1 -1 -1 -1 -1 -1
 MicOpt= -1 -1 -1 -1 -1 -1 -1 -1 -1 -1 -1 -1 -1 -1 -1 -1 -1 -1 -1 -1
 MicOpt= -1 -1 -1 -1 -1 -1
 NAtoms=     46 NQM=       46 NQMF=       0 NMMI=      0 NMMIF=      0
                NMic=       0 NMicF=      0.
                    Isotopes and Nuclear Properties:
 (Nuclear quadrupole moments (NQMom) in fm**2, nuclear magnetic moments (NMagM)
  in nuclear magnetons)

  Atom         1           2           3           4           5           6           7           8           9          10
 IAtWgt=          12          12           1          12           1          12          12           1          12           1
 AtmWgt=  12.0000000  12.0000000   1.0078250  12.0000000   1.0078250  12.0000000  12.0000000   1.0078250  12.0000000   1.0078250
 NucSpn=           0           0           1           0           1           0           0           1           0           1
 AtZEff=  -0.0000000  -0.0000000  -0.0000000  -0.0000000  -0.0000000  -0.0000000  -0.0000000  -0.0000000  -0.0000000  -0.0000000
 NQMom=    0.0000000   0.0000000   0.0000000   0.0000000   0.0000000   0.0000000   0.0000000   0.0000000   0.0000000   0.0000000
 NMagM=    0.0000000   0.0000000   2.7928460   0.0000000   2.7928460   0.0000000   0.0000000   2.7928460   0.0000000   2.7928460
 AtZNuc=   6.0000000   6.0000000   1.0000000   6.0000000   1.0000000   6.0000000   6.0000000   1.0000000   6.0000000   1.0000000

  Atom        11          12          13          14          15          16          17          18          19          20
 IAtWgt=          12          16          12          16          16          16          12           1           1          12
 AtmWgt=  12.0000000  15.9949146  12.0000000  15.9949146  15.9949146  15.9949146  12.0000000   1.0078250   1.0078250  12.0000000
 NucSpn=           0           0           0           0           0           0           0           1           1           0
 AtZEff=  -0.0000000  -0.0000000  -0.0000000  -0.0000000  -0.0000000  -0.0000000  -0.0000000  -0.0000000  -0.0000000  -0.0000000
 NQMom=    0.0000000   0.0000000   0.0000000   0.0000000   0.0000000   0.0000000   0.0000000   0.0000000   0.0000000   0.0000000
 NMagM=    0.0000000   0.0000000   0.0000000   0.0000000   0.0000000   0.0000000   0.0000000   2.7928460   2.7928460   0.0000000
 AtZNuc=   6.0000000   8.0000000   6.0000000   8.0000000   8.0000000   8.0000000   6.0000000   1.0000000   1.0000000   6.0000000

  Atom        21          22          23          24          25          26          27          28          29          30
 IAtWgt=           1           1           1          12          12           1          12           1          12          12
 AtmWgt=   1.0078250   1.0078250   1.0078250  12.0000000  12.0000000   1.0078250  12.0000000   1.0078250  12.0000000  12.0000000
 NucSpn=           1           1           1           0           0           1           0           1           0           0
 AtZEff=  -0.0000000  -0.0000000  -0.0000000  -0.0000000  -0.0000000  -0.0000000  -0.0000000  -0.0000000  -0.0000000  -0.0000000
 NQMom=    0.0000000   0.0000000   0.0000000   0.0000000   0.0000000   0.0000000   0.0000000   0.0000000   0.0000000   0.0000000
 NMagM=    2.7928460   2.7928460   2.7928460   0.0000000   0.0000000   2.7928460   0.0000000   2.7928460   0.0000000   0.0000000
 AtZNuc=   1.0000000   1.0000000   1.0000000   6.0000000   6.0000000   1.0000000   6.0000000   1.0000000   6.0000000   6.0000000

  Atom        31          32          33          34          35          36          37          38          39          40
 IAtWgt=           1          12           1          12          16          12          16          16          16          12
 AtmWgt=   1.0078250  12.0000000   1.0078250  12.0000000  15.9949146  12.0000000  15.9949146  15.9949146  15.9949146  12.0000000
 NucSpn=           1           0           1           0           0           0           0           0           0           0
 AtZEff=  -0.0000000  -0.0000000  -0.0000000  -0.0000000  -0.0000000  -0.0000000  -0.0000000  -0.0000000  -0.0000000  -0.0000000
 NQMom=    0.0000000   0.0000000   0.0000000   0.0000000   0.0000000   0.0000000   0.0000000   0.0000000   0.0000000   0.0000000
 NMagM=    2.7928460   0.0000000   2.7928460   0.0000000   0.0000000   0.0000000   0.0000000   0.0000000   0.0000000   0.0000000
 AtZNuc=   1.0000000   6.0000000   1.0000000   6.0000000   8.0000000   6.0000000   8.0000000   8.0000000   8.0000000   6.0000000

  Atom        41          42          43          44          45          46
 IAtWgt=           1           1          12           1           1           1
 AtmWgt=   1.0078250   1.0078250  12.0000000   1.0078250   1.0078250   1.0078250
 NucSpn=           1           1           0           1           1           1
 AtZEff=  -0.0000000  -0.0000000  -0.0000000  -0.0000000  -0.0000000  -0.0000000
 NQMom=    0.0000000   0.0000000   0.0000000   0.0000000   0.0000000   0.0000000
 NMagM=    2.7928460   2.7928460   0.0000000   2.7928460   2.7928460   2.7928460
 AtZNuc=   1.0000000   1.0000000   6.0000000   1.0000000   1.0000000   1.0000000
 Leave Link  101 at Tue Jul 27 19:32:26 2021, MaxMem=   524288000 cpu:               1.2 elap:               0.4
 (Enter /opt/gaussian/g16_legacy/l103.exe)

 GradGradGradGradGradGradGradGradGradGradGradGradGradGradGradGradGradGrad
 Berny optimization.
 Initialization pass.
                           ----------------------------
                           !    Initial Parameters    !
                           ! (Angstroms and Degrees)  !
 --------------------------                            --------------------------
 ! Name  Definition              Value          Derivative Info.                !
 --------------------------------------------------------------------------------
 ! R1    R(1,6)                  1.4887         estimate D2E/DX2                !
 ! R2    R(1,15)                 1.3559         estimate D2E/DX2                !
 ! R3    R(1,16)                 1.2206         estimate D2E/DX2                !
 ! R4    R(2,3)                  1.0894         estimate D2E/DX2                !
 ! R5    R(2,4)                  1.3996         estimate D2E/DX2                !
 ! R6    R(2,11)                 1.402          estimate D2E/DX2                !
 ! R7    R(4,5)                  1.0876         estimate D2E/DX2                !
 ! R8    R(4,6)                  1.4011         estimate D2E/DX2                !
 ! R9    R(6,7)                  1.4021         estimate D2E/DX2                !
 ! R10   R(7,8)                  1.0892         estimate D2E/DX2                !
 ! R11   R(7,9)                  1.3995         estimate D2E/DX2                !
 ! R12   R(9,10)                 1.0878         estimate D2E/DX2                !
 ! R13   R(9,11)                 1.4011         estimate D2E/DX2                !
 ! R14   R(11,13)                1.4888         estimate D2E/DX2                !
 ! R15   R(12,13)                1.2208         estimate D2E/DX2                !
 ! R16   R(13,14)                1.3558         estimate D2E/DX2                !
 ! R17   R(14,17)                1.4331         estimate D2E/DX2                !
 ! R18   R(15,43)                1.4328         estimate D2E/DX2                !
 ! R19   R(17,18)                1.0957         estimate D2E/DX2                !
 ! R20   R(17,19)                1.0957         estimate D2E/DX2                !
 ! R21   R(17,20)                1.5162         estimate D2E/DX2                !
 ! R22   R(20,21)                1.095          estimate D2E/DX2                !
 ! R23   R(20,22)                1.0935         estimate D2E/DX2                !
 ! R24   R(20,23)                1.0951         estimate D2E/DX2                !
 ! R25   R(24,29)                1.4833         estimate D2E/DX2                !
 ! R26   R(24,38)                1.3443         estimate D2E/DX2                !
 ! R27   R(24,39)                1.2168         estimate D2E/DX2                !
 ! R28   R(25,26)                1.0892         estimate D2E/DX2                !
 ! R29   R(25,27)                1.3985         estimate D2E/DX2                !
 ! R30   R(25,34)                1.4019         estimate D2E/DX2                !
 ! R31   R(27,28)                1.089          estimate D2E/DX2                !
 ! R32   R(27,29)                1.4002         estimate D2E/DX2                !
 ! R33   R(29,30)                1.4006         estimate D2E/DX2                !
 ! R34   R(30,31)                1.088          estimate D2E/DX2                !
 ! R35   R(30,32)                1.4            estimate D2E/DX2                !
 ! R36   R(32,33)                1.0876         estimate D2E/DX2                !
 ! R37   R(32,34)                1.4021         estimate D2E/DX2                !
 ! R38   R(34,36)                1.4889         estimate D2E/DX2                !
 ! R39   R(35,36)                1.2204         estimate D2E/DX2                !
 ! R40   R(36,37)                1.356          estimate D2E/DX2                !
 ! R41   R(37,40)                1.4329         estimate D2E/DX2                !
 ! R42   R(38,46)                0.9805         estimate D2E/DX2                !
 ! R43   R(40,41)                1.0969         estimate D2E/DX2                !
 ! R44   R(40,42)                1.0969         estimate D2E/DX2                !
 ! R45   R(40,43)                1.5225         estimate D2E/DX2                !
 ! R46   R(43,44)                1.0969         estimate D2E/DX2                !
 ! R47   R(43,45)                1.097          estimate D2E/DX2                !
 ! A1    A(6,1,15)             110.7449         estimate D2E/DX2                !
 ! A2    A(6,1,16)             123.5207         estimate D2E/DX2                !
 ! A3    A(15,1,16)            125.7344         estimate D2E/DX2                !
 ! A4    A(3,2,4)              119.3146         estimate D2E/DX2                !
 ! A5    A(3,2,11)             120.1554         estimate D2E/DX2                !
 ! A6    A(4,2,11)             120.53           estimate D2E/DX2                !
 ! A7    A(2,4,5)              118.7329         estimate D2E/DX2                !
 ! A8    A(2,4,6)              120.1619         estimate D2E/DX2                !
 ! A9    A(5,4,6)              121.1051         estimate D2E/DX2                !
 ! A10   A(1,6,4)              122.5422         estimate D2E/DX2                !
 ! A11   A(1,6,7)              118.1406         estimate D2E/DX2                !
 ! A12   A(4,6,7)              119.3172         estimate D2E/DX2                !
 ! A13   A(6,7,8)              120.2054         estimate D2E/DX2                !
 ! A14   A(6,7,9)              120.5074         estimate D2E/DX2                !
 ! A15   A(8,7,9)              119.2873         estimate D2E/DX2                !
 ! A16   A(7,9,10)             118.8034         estimate D2E/DX2                !
 ! A17   A(7,9,11)             120.1882         estimate D2E/DX2                !
 ! A18   A(10,9,11)            121.0083         estimate D2E/DX2                !
 ! A19   A(2,11,9)             119.2953         estimate D2E/DX2                !
 ! A20   A(2,11,13)            118.1782         estimate D2E/DX2                !
 ! A21   A(9,11,13)            122.5265         estimate D2E/DX2                !
 ! A22   A(11,13,12)           123.4416         estimate D2E/DX2                !
 ! A23   A(11,13,14)           110.6487         estimate D2E/DX2                !
 ! A24   A(12,13,14)           125.9097         estimate D2E/DX2                !
 ! A25   A(13,14,17)           114.1846         estimate D2E/DX2                !
 ! A26   A(1,15,43)            114.063          estimate D2E/DX2                !
 ! A27   A(14,17,18)           109.7266         estimate D2E/DX2                !
 ! A28   A(14,17,19)           109.7226         estimate D2E/DX2                !
 ! A29   A(14,17,20)           108.1441         estimate D2E/DX2                !
 ! A30   A(18,17,19)           109.7341         estimate D2E/DX2                !
 ! A31   A(18,17,20)           109.7466         estimate D2E/DX2                !
 ! A32   A(19,17,20)           109.7441         estimate D2E/DX2                !
 ! A33   A(17,20,21)           110.6099         estimate D2E/DX2                !
 ! A34   A(17,20,22)           110.9075         estimate D2E/DX2                !
 ! A35   A(17,20,23)           110.6085         estimate D2E/DX2                !
 ! A36   A(21,20,22)           108.8608         estimate D2E/DX2                !
 ! A37   A(21,20,23)           106.8915         estimate D2E/DX2                !
 ! A38   A(22,20,23)           108.8516         estimate D2E/DX2                !
 ! A39   A(29,24,38)           112.7984         estimate D2E/DX2                !
 ! A40   A(29,24,39)           125.8293         estimate D2E/DX2                !
 ! A41   A(38,24,39)           121.3723         estimate D2E/DX2                !
 ! A42   A(26,25,27)           119.3159         estimate D2E/DX2                !
 ! A43   A(26,25,34)           120.31           estimate D2E/DX2                !
 ! A44   A(27,25,34)           120.374          estimate D2E/DX2                !
 ! A45   A(25,27,28)           119.4948         estimate D2E/DX2                !
 ! A46   A(25,27,29)           120.1981         estimate D2E/DX2                !
 ! A47   A(28,27,29)           120.3071         estimate D2E/DX2                !
 ! A48   A(24,29,27)           118.3167         estimate D2E/DX2                !
 ! A49   A(24,29,30)           122.1007         estimate D2E/DX2                !
 ! A50   A(27,29,30)           119.5826         estimate D2E/DX2                !
 ! A51   A(29,30,31)           120.6362         estimate D2E/DX2                !
 ! A52   A(29,30,32)           120.2219         estimate D2E/DX2                !
 ! A53   A(31,30,32)           119.1418         estimate D2E/DX2                !
 ! A54   A(30,32,33)           118.7112         estimate D2E/DX2                !
 ! A55   A(30,32,34)           120.2671         estimate D2E/DX2                !
 ! A56   A(33,32,34)           121.0217         estimate D2E/DX2                !
 ! A57   A(25,34,32)           119.3563         estimate D2E/DX2                !
 ! A58   A(25,34,36)           118.1354         estimate D2E/DX2                !
 ! A59   A(32,34,36)           122.5083         estimate D2E/DX2                !
 ! A60   A(34,36,35)           123.5695         estimate D2E/DX2                !
 ! A61   A(34,36,37)           110.7121         estimate D2E/DX2                !
 ! A62   A(35,36,37)           125.7185         estimate D2E/DX2                !
 ! A63   A(36,37,40)           114.0517         estimate D2E/DX2                !
 ! A64   A(24,38,46)           103.8784         estimate D2E/DX2                !
 ! A65   A(37,40,41)           110.0974         estimate D2E/DX2                !
 ! A66   A(37,40,42)           110.0948         estimate D2E/DX2                !
 ! A67   A(37,40,43)           108.9917         estimate D2E/DX2                !
 ! A68   A(41,40,42)           108.2651         estimate D2E/DX2                !
 ! A69   A(41,40,43)           109.6928         estimate D2E/DX2                !
 ! A70   A(42,40,43)           109.6881         estimate D2E/DX2                !
 ! A71   A(15,43,40)           109.0352         estimate D2E/DX2                !
 ! A72   A(15,43,44)           110.0867         estimate D2E/DX2                !
 ! A73   A(15,43,45)           110.0885         estimate D2E/DX2                !
 ! A74   A(40,43,44)           109.6802         estimate D2E/DX2                !
 ! A75   A(40,43,45)           109.6847         estimate D2E/DX2                !
 ! A76   A(44,43,45)           108.2539         estimate D2E/DX2                !
 ! D1    D(15,1,6,4)            -0.013          estimate D2E/DX2                !
 ! D2    D(15,1,6,7)           179.9899         estimate D2E/DX2                !
 ! D3    D(16,1,6,4)           179.9918         estimate D2E/DX2                !
 ! D4    D(16,1,6,7)            -0.0052         estimate D2E/DX2                !
 ! D5    D(6,1,15,43)         -179.9954         estimate D2E/DX2                !
 ! D6    D(16,1,15,43)          -0.0004         estimate D2E/DX2                !
 ! D7    D(3,2,4,5)              0.0059         estimate D2E/DX2                !
 ! D8    D(3,2,4,6)           -179.9953         estimate D2E/DX2                !
 ! D9    D(11,2,4,5)           179.9974         estimate D2E/DX2                !
 ! D10   D(11,2,4,6)            -0.0038         estimate D2E/DX2                !
 ! D11   D(3,2,11,9)           179.9973         estimate D2E/DX2                !
 ! D12   D(3,2,11,13)           -0.0065         estimate D2E/DX2                !
 ! D13   D(4,2,11,9)             0.0058         estimate D2E/DX2                !
 ! D14   D(4,2,11,13)         -179.998          estimate D2E/DX2                !
 ! D15   D(2,4,6,1)           -179.9972         estimate D2E/DX2                !
 ! D16   D(2,4,6,7)             -0.0002         estimate D2E/DX2                !
 ! D17   D(5,4,6,1)              0.0015         estimate D2E/DX2                !
 ! D18   D(5,4,6,7)            179.9985         estimate D2E/DX2                !
 ! D19   D(1,6,7,8)              0.0003         estimate D2E/DX2                !
 ! D20   D(1,6,7,9)            179.9993         estimate D2E/DX2                !
 ! D21   D(4,6,7,8)           -179.9968         estimate D2E/DX2                !
 ! D22   D(4,6,7,9)              0.0022         estimate D2E/DX2                !
 ! D23   D(6,7,9,10)          -179.9989         estimate D2E/DX2                !
 ! D24   D(6,7,9,11)            -0.0001         estimate D2E/DX2                !
 ! D25   D(8,7,9,10)             0.0001         estimate D2E/DX2                !
 ! D26   D(8,7,9,11)           179.9989         estimate D2E/DX2                !
 ! D27   D(7,9,11,2)            -0.0038         estimate D2E/DX2                !
 ! D28   D(7,9,11,13)         -179.9999         estimate D2E/DX2                !
 ! D29   D(10,9,11,2)          179.9949         estimate D2E/DX2                !
 ! D30   D(10,9,11,13)          -0.0011         estimate D2E/DX2                !
 ! D31   D(2,11,13,12)          -0.0041         estimate D2E/DX2                !
 ! D32   D(2,11,13,14)         179.9902         estimate D2E/DX2                !
 ! D33   D(9,11,13,12)         179.9919         estimate D2E/DX2                !
 ! D34   D(9,11,13,14)          -0.0137         estimate D2E/DX2                !
 ! D35   D(11,13,14,17)       -179.9962         estimate D2E/DX2                !
 ! D36   D(12,13,14,17)         -0.0021         estimate D2E/DX2                !
 ! D37   D(13,14,17,18)         60.3152         estimate D2E/DX2                !
 ! D38   D(13,14,17,19)        -60.3227         estimate D2E/DX2                !
 ! D39   D(13,14,17,20)        179.9989         estimate D2E/DX2                !
 ! D40   D(1,15,43,40)         179.9934         estimate D2E/DX2                !
 ! D41   D(1,15,43,44)         -59.6427         estimate D2E/DX2                !
 ! D42   D(1,15,43,45)          59.6228         estimate D2E/DX2                !
 ! D43   D(14,17,20,21)         59.1117         estimate D2E/DX2                !
 ! D44   D(14,17,20,22)       -179.9989         estimate D2E/DX2                !
 ! D45   D(14,17,20,23)        -59.1221         estimate D2E/DX2                !
 ! D46   D(18,17,20,21)        178.7829         estimate D2E/DX2                !
 ! D47   D(18,17,20,22)        -60.3278         estimate D2E/DX2                !
 ! D48   D(18,17,20,23)         60.549          estimate D2E/DX2                !
 ! D49   D(19,17,20,21)        -60.5532         estimate D2E/DX2                !
 ! D50   D(19,17,20,22)         60.3362         estimate D2E/DX2                !
 ! D51   D(19,17,20,23)       -178.787          estimate D2E/DX2                !
 ! D52   D(38,24,29,27)       -179.9996         estimate D2E/DX2                !
 ! D53   D(38,24,29,30)          0.0073         estimate D2E/DX2                !
 ! D54   D(39,24,29,27)         -0.0058         estimate D2E/DX2                !
 ! D55   D(39,24,29,30)       -179.9989         estimate D2E/DX2                !
 ! D56   D(29,24,38,46)        179.9932         estimate D2E/DX2                !
 ! D57   D(39,24,38,46)         -0.0009         estimate D2E/DX2                !
 ! D58   D(26,25,27,28)          0.0073         estimate D2E/DX2                !
 ! D59   D(26,25,27,29)       -179.9959         estimate D2E/DX2                !
 ! D60   D(34,25,27,28)        179.9999         estimate D2E/DX2                !
 ! D61   D(34,25,27,29)         -0.0034         estimate D2E/DX2                !
 ! D62   D(26,25,34,32)        179.9966         estimate D2E/DX2                !
 ! D63   D(26,25,34,36)         -0.002          estimate D2E/DX2                !
 ! D64   D(27,25,34,32)          0.0042         estimate D2E/DX2                !
 ! D65   D(27,25,34,36)       -179.9945         estimate D2E/DX2                !
 ! D66   D(25,27,29,24)       -179.995          estimate D2E/DX2                !
 ! D67   D(25,27,29,30)         -0.0018         estimate D2E/DX2                !
 ! D68   D(28,27,29,24)          0.0017         estimate D2E/DX2                !
 ! D69   D(28,27,29,30)        179.995          estimate D2E/DX2                !
 ! D70   D(24,29,30,31)         -0.0101         estimate D2E/DX2                !
 ! D71   D(24,29,30,32)        179.9991         estimate D2E/DX2                !
 ! D72   D(27,29,30,31)        179.9969         estimate D2E/DX2                !
 ! D73   D(27,29,30,32)          0.0061         estimate D2E/DX2                !
 ! D74   D(29,30,32,33)        179.9955         estimate D2E/DX2                !
 ! D75   D(29,30,32,34)         -0.0053         estimate D2E/DX2                !
 ! D76   D(31,30,32,33)          0.0046         estimate D2E/DX2                !
 ! D77   D(31,30,32,34)       -179.9963         estimate D2E/DX2                !
 ! D78   D(30,32,34,25)          0.0002         estimate D2E/DX2                !
 ! D79   D(30,32,34,36)        179.9988         estimate D2E/DX2                !
 ! D80   D(33,32,34,25)        179.9993         estimate D2E/DX2                !
 ! D81   D(33,32,34,36)         -0.0021         estimate D2E/DX2                !
 ! D82   D(25,34,36,35)         -0.0087         estimate D2E/DX2                !
 ! D83   D(25,34,36,37)        179.9973         estimate D2E/DX2                !
 ! D84   D(32,34,36,35)        179.9927         estimate D2E/DX2                !
 ! D85   D(32,34,36,37)         -0.0013         estimate D2E/DX2                !
 ! D86   D(34,36,37,40)        179.9991         estimate D2E/DX2                !
 ! D87   D(35,36,37,40)          0.0053         estimate D2E/DX2                !
 ! D88   D(36,37,40,41)        -59.6511         estimate D2E/DX2                !
 ! D89   D(36,37,40,42)         59.6389         estimate D2E/DX2                !
 ! D90   D(36,37,40,43)        179.9902         estimate D2E/DX2                !
 ! D91   D(37,40,43,15)       -179.9961         estimate D2E/DX2                !
 ! D92   D(37,40,43,44)         59.3904         estimate D2E/DX2                !
 ! D93   D(37,40,43,45)        -59.3774         estimate D2E/DX2                !
 ! D94   D(41,40,43,15)         59.3965         estimate D2E/DX2                !
 ! D95   D(41,40,43,44)        -61.217          estimate D2E/DX2                !
 ! D96   D(41,40,43,45)       -179.9849         estimate D2E/DX2                !
 ! D97   D(42,40,43,15)        -59.3947         estimate D2E/DX2                !
 ! D98   D(42,40,43,44)        179.9918         estimate D2E/DX2                !
 ! D99   D(42,40,43,45)         61.2239         estimate D2E/DX2                !
 --------------------------------------------------------------------------------
 Trust Radius=3.00D-01 FncErr=1.00D-07 GrdErr=1.00D-06 EigMax=2.50D+02 EigMin=1.00D-04
 Number of steps in this run=    232 maximum allowed number of steps=    276.
 GradGradGradGradGradGradGradGradGradGradGradGradGradGradGradGradGradGrad

 Leave Link  103 at Tue Jul 27 19:32:26 2021, MaxMem=   524288000 cpu:               0.2 elap:               0.1
 (Enter /opt/gaussian/g16_legacy/l202.exe)
                          Input orientation:                          
 ---------------------------------------------------------------------
 Center     Atomic      Atomic             Coordinates (Angstroms)
 Number     Number       Type             X           Y           Z
 ---------------------------------------------------------------------
      1          6           0        1.231200   -0.614600    0.965200
      2          6           0        4.229000    1.021100   -0.724300
      3          1           0        4.434200    1.709300   -1.543500
      4          6           0        2.904000    0.674000   -0.436500
      5          1           0        2.108100    1.102400   -1.041400
      6          6           0        2.619800   -0.209500    0.613200
      7          6           0        3.675000   -0.739700    1.369000
      8          1           0        3.470600   -1.427800    2.188200
      9          6           0        4.999800   -0.392400    1.081000
     10          1           0        5.796900   -0.820100    1.685100
     11          6           0        5.284300    0.491100    0.031400
     12          8           0        6.940200    1.663800   -1.230700
     13          6           0        6.673300    0.895800   -0.320100
     14          8           0        7.568600    0.297100    0.503400
     15          8           0        0.333600   -0.016800    0.143400
     16          8           0        0.963300   -1.382600    1.875300
     17          6           0        8.934300    0.635200    0.231000
     18          1           0        9.077300    1.715700    0.343400
     19          1           0        9.193900    0.331800   -0.789400
     20          6           0        9.810600   -0.103500    1.223600
     21          1           0        9.662600   -1.185100    1.138100
     22          1           0       10.867100    0.123100    1.055600
     23          1           0        9.548200    0.173400    2.250100
     24          6           0       -9.660000   -0.824200    0.106200
     25          6           0       -6.640400    0.751200   -1.507400
     26          1           0       -6.439100    1.439800   -2.326900
     27          6           0       -7.962800    0.401600   -1.215900
     28          1           0       -8.772100    0.821700   -1.811200
     29          6           0       -8.242700   -0.482000   -0.166400
     30          6           0       -7.190100   -1.013400    0.589400
     31          1           0       -7.388000   -1.701400    1.408700
     32          6           0       -5.866300   -0.663400    0.297700
     33          1           0       -5.068000   -1.090500    0.900400
     34          6           0       -5.584300    0.221300   -0.752900
     35          8           0       -3.928600    1.395300   -2.016200
     36          6           0       -4.196100    0.627300   -1.106300
     37          8           0       -3.297800    0.029500   -0.285000
     38          8           0       -9.801100   -1.678700    1.134400
     39          8           0      -10.624500   -0.403900   -0.505100
     40          6           0       -1.934400    0.371600   -0.563000
     41          1           0       -1.674800    0.082200   -1.588700
     42          1           0       -1.789900    1.454500   -0.464300
     43          6           0       -1.030000   -0.358300    0.420500
     44          1           0       -1.174700   -1.441100    0.321800
     45          1           0       -1.289900   -0.069000    1.446200
     46          1           0      -10.770400   -1.812000    1.198100
 ---------------------------------------------------------------------
                    Distance matrix (angstroms):
                    1          2          3          4          5
     1  C    0.000000
     2  C    3.810083   0.000000
     3  H    4.685434   1.089410   0.000000
     4  C    2.534465   1.399619   2.153789   0.000000
     5  H    2.782712   2.146015   2.455845   1.087606   0.000000
     6  C    1.488697   2.427511   3.409574   1.401147   2.172699
     7  C    2.480093   2.790921   3.880289   2.419260   3.414460
     8  H    2.678047   3.880069   4.969457   3.409934   4.323035
     9  C    3.776920   2.418930   3.409552   2.798641   3.885992
    10  H    4.626673   3.413728   4.321883   3.886180   4.973636
    11  C    4.303740   1.402013   2.164946   2.432737   3.407761
    12  O    6.527309   2.831980   2.525856   4.231001   4.868285
    13  C    5.792215   2.480661   2.678070   3.777614   4.626447
    14  O    6.419275   3.631026   4.001071   4.773255   5.731664
    15  O    1.355878   4.123625   4.758148   2.724049   2.409400
    16  O    1.220605   4.816689   5.770198   3.652443   3.999116
    17  C    7.838291   4.816780   4.955143   6.067255   6.959474
    18  H    8.208424   5.012830   5.011867   6.308963   7.131869
    19  H    8.208464   5.012944   5.012077   6.309079   7.132033
    20  C    8.598494   6.017749   6.312588   7.145737   8.118678
    21  H    8.452448   6.153037   6.550168   7.184309   8.188611
    22  H    9.664520   6.931004   7.117131   8.120395   9.059609
    23  H    8.452479   6.153011   6.550068   7.184275   8.188535
    24  C   10.927033  14.035640  14.414805  12.664645  11.979856
    25  C    8.363088  10.900915  11.116026   9.604601   8.767939
    26  H    8.596045  10.795925  10.904815   9.563136   8.649912
    27  C    9.503657  12.217424  12.470085  10.898119  10.096762
    28  H   10.480332  13.047977  13.238801  11.757675  10.911010
    29  C    9.542163  12.574333  12.938392  11.209737  10.507855
    30  C    8.439109  11.673082  12.127931  10.285458   9.674329
    31  H    8.698761  12.120907  12.653568  10.722525  10.200010
    32  C    7.128986  10.285772  10.729400   8.902014   8.276611
    33  H    6.317484   9.671231  10.203104   8.273666   7.750859
    34  C    7.078251   9.845880  10.159209   8.506250   7.748070
    35  O    6.289036   8.267737   8.382032   7.049833   6.121909
    36  C    5.940456   8.442945   8.708843   7.131776   6.322410
    37  O    4.742331   7.604536   8.011827   6.237039   5.563004
    38  O   11.084791  14.407893  14.875936  13.016239  12.421661
    39  O   11.948381  14.923308  15.241664  13.571547  12.832601
    40  C    3.650892   6.199626   6.581025   4.849491   4.135788
    41  H    3.931001   6.040163   6.322134   4.758487   3.956094
    42  H    3.930864   6.040082   6.322105   4.758429   3.956188
    43  C    2.339960   5.556113   6.163582   4.156495   3.757455
    44  H    2.624009   6.029654   6.698069   4.656658   4.370867
    45  H    2.623926   6.029730   6.698207   4.656759   4.371125
    46  H   12.063433  15.385190  15.846002  13.994332  13.392716
                    6          7          8          9         10
     6  C    0.000000
     7  C    1.402067   0.000000
     8  H    2.165350   1.089197   0.000000
     9  C    2.432425   1.399520   2.153230   0.000000
    10  H    3.408191   2.146822   2.456437   1.087765   0.000000
    11  C    2.815829   2.427733   3.409321   1.401133   2.171803
    12  O    5.057181   4.816304   5.769315   3.651995   3.997347
    13  C    4.303905   3.810213   4.684866   2.534392   2.780866
    14  O    4.975874   4.121206   4.754728   2.721721   2.404885
    15  O    2.341913   3.631754   4.001612   4.774263   5.733217
    16  O    2.390199   2.832486   2.527153   4.231399   4.869935
    17  C    6.382202   5.553884   6.159433   4.154365   3.751744
    18  H    6.743774   6.022100   6.687299   4.649102   4.357920
    19  H    6.743818   6.022048   6.687186   4.649015   4.357710
    20  C    7.217439   6.170209   6.548269   4.821576   4.103204
    21  H    7.129400   6.008581   6.285100   4.730046   3.921233
    22  H    8.265851   7.250445   7.641746   5.889957   5.195462
    23  H    7.129431   6.008708   6.285292   4.730208   3.921545
    24  C   12.305624  13.394925  13.308332  14.698518  15.537332
    25  C    9.548361  10.812212  10.983525  11.979228  12.936285
    26  H    9.665819  10.986579  11.261057  12.075561  13.073752
    27  C   10.756880  11.975920  12.068854  13.188449  14.115158
    28  H   11.692582  12.941481  13.074370  14.124592  15.072338
    29  C   10.893849  12.018962  11.984994  13.301423  14.165194
    30  C    9.842813  10.896471  10.787883  12.215604  13.034573
    31  H   10.149613  11.104792  10.889980  12.461078  13.217211
    32  C    8.504085   9.601558   9.556987  10.897666  11.746475
    33  H    7.743443   8.762574   8.641753  10.093590  10.896556
    34  C    8.328210   9.547807   9.662340  10.759321  11.685892
    35  O    7.236758   8.592586   8.966328   9.617944  10.639218
    36  C    7.079082   8.363613   8.593920   9.507294  10.476017
    37  O    5.990148   7.207449   7.351985   8.419865   9.344340
    38  O   12.518345  13.510812  13.315835  14.856785  15.631317
    39  O   13.292850  14.425696  14.386594  15.704604  16.572042
    40  C    4.739395   6.035974   6.326213   7.167256   8.139232
    41  H    4.834981   6.167971   6.558980   7.204362   8.207205
    42  H    4.834807   6.167709   6.558679   7.204097   8.206903
    43  C    3.657911   4.814784   4.952171   6.065963   6.958379
    44  H    3.999998   5.010806   5.006240   6.308772   7.130739
    45  H    3.999923   5.010592   5.005923   6.308588   7.130495
    46  H   13.498428  14.486153  14.280546  15.834399  16.604110
                   11         12         13         14         15
    11  C    0.000000
    12  O    2.389587   0.000000
    13  C    1.488844   1.220759   0.000000
    14  O    2.340608   2.295617   1.355786   0.000000
    15  O    4.977945   6.954116   6.421796   7.250749   0.000000
    16  O    5.057841   7.392640   6.528016   6.952229   2.293776
    17  C    3.658293   2.677876   2.341740   1.433056   8.625823
    18  H    3.997979   2.654747   2.625202   2.077066   8.915932
    19  H    3.998007   2.654832   2.625217   2.077050   8.916084
    20  C    4.718292   4.169668   3.636518   2.388667   9.538757
    21  H    4.817047   4.597707   3.923316   2.642839   9.454343
    22  H    5.687888   4.798069   4.480801   3.348926  10.573850
    23  H    4.817095   4.597709   3.923371   2.642930   9.454270
    24  C   15.002257  16.838767  16.429145  17.269619  10.026232
    25  C   12.026389  13.614040  13.367318  14.357758   7.207749
    26  H   11.995821  13.426001  13.276227  14.336388   7.354830
    27  C   13.305992  14.956362  14.671814  15.626621   8.417423
    28  H   14.180510  15.745554  15.517385  16.512149   9.350792
    29  C   13.563398  15.370675  14.980287  15.844647   8.594493
    30  C   12.577183  14.496398  14.023769  14.817018   7.602512
    31  H   12.934110  14.952870  14.403276  15.116661   8.003872
    32  C   11.213370  13.105659  12.651259  13.470761   6.235436
    33  H   10.508413  12.502985  11.970511  12.718754   5.559061
    34  C   10.900201  12.616347  12.283771  13.212979   5.990124
    35  O    9.480916  10.900455  10.748327  11.821169   4.982394
    36  C    9.549392  11.185123  10.901104  11.878903   4.742868
    37  O    8.600327  10.410664  10.008723  10.898249   3.656875
    38  O   15.280508  17.234765  16.737666  17.493096  10.317758
    39  O   15.942985  17.700863  17.347545  18.234510  10.984096
    40  C    7.244116   8.993004   8.627067   9.562937   2.407006
    41  H    7.156885   8.766290   8.483046   9.479636   2.653986
    42  H    7.156687   8.766175   8.482847   9.479322   2.653917
    43  C    6.383045   8.386861   7.839776   8.623940   1.432764
    44  H    6.748067   8.826226   8.213662   8.916256   2.082169
    45  H    6.747998   8.826264   8.213599   8.916049   2.082250
    46  H   16.260961  18.211140  17.717782  18.472949  11.297520
                   16         17         18         19         20
    16  O    0.000000
    17  C    8.385230   0.000000
    18  H    8.819477   1.095702   0.000000
    19  H    8.819443   1.095746   1.792208   0.000000
    20  C    8.963009   1.516191   2.149877   2.149878   0.000000
    21  H    8.732714   2.160265   3.064109   2.497183   1.095022
    22  H   10.051084   2.162852   2.499397   2.499436   1.093510
    23  H    8.732819   2.160300   2.497187   3.064177   1.095093
    24  C   10.784064  18.651901  18.910150  18.910526  19.515949
    25  C    8.591392  15.671846  15.855656  15.856118  16.698032
    26  H    8.967717  15.605501  15.746914  15.747452  16.704508
    27  C    9.613228  16.960545  17.161681  17.162142  17.947146
    28  H   10.640829  17.824757  18.001184  18.001701  18.851598
    29  C    9.472595  17.217880  17.466316  17.466695  18.110688
    30  C    8.262432  16.212421  16.496570  16.496851  17.036840
    31  H    8.370398  16.530703  16.849853  16.850073  17.273662
    32  C    7.046241  14.857610  15.131867  15.132146  15.714197
    33  H    6.116562  14.124112  14.431719  14.431914  14.914804
    34  C    7.235399  14.557785  14.778282  14.778658  15.524658
    35  O    6.840408  13.079826  13.222095  13.222559  14.195363
    36  C    6.288803  13.198327  13.396619  13.397009  14.217952
    37  O    4.981756  12.257952  12.505249  12.505534  13.195594
    38  O   10.793930  18.899351  19.197438  19.197738  19.675060
    39  O   11.870184  19.600210  19.833648  19.834088  20.510289
    40  C    4.173630  10.900851  11.130395  11.130674  11.889604
    41  H    4.593964  10.778224  11.045768  10.900909  11.826154
    42  H    4.593797  10.777901  10.900305  11.045814  11.825733
    43  C    2.671868  10.015499  10.318185  10.318344  10.873293
    44  H    2.643450  10.320424  10.727039  10.577609  11.103118
    45  H    2.643214  10.320217  10.577342  10.727004  11.102785
    46  H   11.761067  19.879620  20.176877  20.177198  20.651808
                   21         22         23         24         25
    21  H    0.000000
    22  H    1.780172   0.000000
    23  H    1.759305   1.780129   0.000000
    24  C   19.353499  20.570867  19.353203   0.000000
    25  C   16.629364  17.705254  16.628994   3.768763   0.000000
    26  H   16.678161  17.682748  16.677723   4.628160   1.089161
    27  C   17.852553  18.968458  17.852181   2.476090   1.398547
    28  H   18.776682  19.859626  18.776257   2.678391   2.154393
    29  C   17.966520  19.158389  17.966222   1.483291   2.426196
    30  C   16.862504  18.098935  16.862298   2.523823   2.795095
    31  H   17.060561  18.349446  17.060413   2.761878   3.883013
    32  C   15.560372  16.769009  15.560171   3.801932   2.420477
    33  H   14.732821  15.982000  14.732700   4.667776   3.414938
    34  C   15.427955  16.550797  15.427665   4.294468   1.401931
    35  O   14.189038  15.164669  14.188675   6.502285   2.833302
    36  C   14.155765  15.225900  14.155466   5.781973   2.480088
    37  O   13.094748  14.228505  13.094547   6.431130   3.631541
    38  O   19.469958  20.746739  19.469732   1.344349   4.782630
    39  O   20.368525  21.554637  20.368167   1.216799   4.267542
    40  C   11.824021  12.905813  11.823828   7.846188   4.814813
    41  H   11.729370  12.817693  11.861721   8.213262   5.011123
    42  H   11.861489  12.817268  11.728670   8.213186   5.010992
    43  C   10.748500  11.923761  10.748416   8.648280   6.035261
    44  H   10.871014  12.165119  11.013879   8.510427   6.166525
    45  H   11.013531  12.164790  10.870576   8.510259   6.166387
    46  H   20.442703  21.724326  20.442456   1.844175   5.562969
                   26         27         28         29         30
    26  H    0.000000
    27  C    2.152636   0.000000
    28  H    2.467971   1.088959   0.000000
    29  C    3.407939   1.400194   2.164547   0.000000
    30  C    3.884198   2.420413   3.410747   1.400566   0.000000
    31  H    4.972148   3.411969   4.318509   2.167577   1.088008
    32  C    3.411755   2.796520   3.885441   2.428080   1.400013
    33  H    4.324095   3.883936   4.972891   3.403976   2.146153
    34  C    2.166311   2.429843   3.412118   2.811708   2.429989
    35  O    2.530044   4.231157   4.881653   5.055440   4.819582
    36  C    2.679752   3.775047   4.634053   4.299876   3.811998
    37  O    4.003257   4.771505   5.738016   4.972699   4.123374
    38  O    5.745318   3.637431   3.998425   2.356434   2.748994
    39  O    4.922983   2.870316   2.576699   2.407029   3.655752
    40  C    4.954262   6.063727   6.965252   6.378132   5.555955
    41  H    5.008650   6.307134   7.139190   6.743780   6.030174
    42  H    5.008448   6.306996   7.139026   6.743694   6.030172
    43  C    6.327696   7.163726   8.143279   7.237596   6.197138
    44  H    6.559657   7.199887   8.209168   7.149464   6.036520
    45  H    6.559499   7.199711   8.208978   7.149299   6.036419
    46  H    6.462197   4.313935   4.470511   3.165443   3.718444
                   31         32         33         34         35
    31  H    0.000000
    32  C    2.151124   0.000000
    33  H    2.452339   1.087633   0.000000
    34  C    3.409197   1.402134   2.172737   0.000000
    35  O    5.769483   3.653363   3.997998   2.390721   0.000000
    36  C    4.683620   2.535092   2.781707   1.488901   1.220368
    37  O    4.753354   2.723388   2.406903   2.341751   2.293550
    38  O    2.428746   4.148922   4.775246   4.995328   7.339074
    39  O    3.977571   4.832421   5.772481   5.084869   7.096169
    40  C    6.158464   4.155944   3.754827   3.657926   2.671439
    41  H    6.693750   4.656511   4.368598   4.000263   2.643218
    42  H    6.693770   4.656520   4.368681   4.000193   2.643092
    43  C    6.573022   4.847470   4.131811   4.738613   4.173069
    44  H    6.313019   4.755682   3.951643   4.833542   4.592970
    45  H    6.312920   4.755607   3.951633   4.833445   4.592943
    46  H    3.390754   5.116659   5.755567   5.902232   8.211500
                   36         37         38         39         40
    36  C    0.000000
    37  O    1.356039   0.000000
    38  O    6.461764   6.872085   0.000000
    39  O    6.538283   7.342807   2.234069   0.000000
    40  C    2.340052   1.432891   8.304810   8.724826   0.000000
    41  H    2.624271   2.082436   8.749445   9.028157   1.096907
    42  H    2.624161   2.082435   8.749406   9.028038   1.096948
    43  C    3.650577   2.406457   8.898613   9.639152   1.522487
    44  H    3.930217   2.653003   8.667846   9.542446   2.155434
    45  H    3.930151   2.653002   8.667692   9.542247   2.155549
    46  H    7.381183   7.837759   0.980494   2.214706   9.270624
                   41         42         43         44         45
    41  H    0.000000
    42  H    1.777844   0.000000
    43  C    2.155619   2.155589   0.000000
    44  H    2.494104   3.062829   1.096875   0.000000
    45  H    3.062944   2.494206   1.096952   1.777696   0.000000
    46  H    9.699700   9.699638   9.878932   9.642766   9.642587
                   46
    46  H    0.000000
 Stoichiometry    C20H18O8
 Framework group  C1[X(C20H18O8)]
 Deg. of freedom   132
 Full point group                 C1      NOp   1
 Largest Abelian subgroup         C1      NOp   1
 Largest concise Abelian subgroup C1      NOp   1
                         Standard orientation:                         
 ---------------------------------------------------------------------
 Center     Atomic      Atomic             Coordinates (Angstroms)
 Number     Number       Type             X           Y           Z
 ---------------------------------------------------------------------
      1          6           0        1.841810   -1.137322   -0.000512
      2          6           0        4.846800    1.205062   -0.000538
      3          1           0        5.052826    2.274813   -0.000626
      4          6           0        3.518839    0.762964   -0.000603
      5          1           0        2.721523    1.502676   -0.000840
      6          6           0        3.233541   -0.608830   -0.000393
      7          6           0        4.290638   -1.529883   -0.000122
      8          1           0        4.085415   -2.599571   -0.000009
      9          6           0        5.618402   -1.087503   -0.000016
     10          1           0        6.416918   -1.826154    0.000177
     11          6           0        5.904003    0.284213   -0.000182
     12          8           0        7.564022    2.003067   -0.000367
     13          6           0        7.296133    0.812065   -0.000082
     14          8           0        8.192977   -0.204708    0.000486
     15          8           0        0.942695   -0.122434   -0.000551
     16          8           0        1.572902   -2.327938   -0.000478
     17          6           0        9.561727    0.219758    0.000705
     18          1           0        9.763442    0.817454    0.896603
     19          1           0        9.763881    0.816769   -0.895605
     20          6           0       10.439455   -1.016538    0.001367
     21          1           0       10.233793   -1.635739   -0.878045
     22          1           0       11.498297   -0.743375    0.001575
     23          1           0       10.233421   -1.635060    0.881259
     24          6           0       -9.072081   -0.601570    0.000385
     25          6           0       -6.045279    1.643879    0.000395
     26          1           0       -5.843137    2.714117    0.000679
     27          6           0       -7.370621    1.197333    0.000570
     28          1           0       -8.181335    1.924365    0.000866
     29          6           0       -7.651641   -0.174370    0.000298
     30          6           0       -6.597199   -1.096183   -0.000189
     31          1           0       -6.795927   -2.165888   -0.000356
     32          6           0       -5.270448   -0.649230   -0.000273
     33          1           0       -4.470761   -1.386418   -0.000580
     34          6           0       -4.987322    0.724021    0.000017
     35          8           0       -3.327485    2.444628    0.000089
     36          6           0       -3.596002    1.254167   -0.000029
     37          8           0       -2.696209    0.239665   -0.000352
     38          8           0       -9.213996   -1.938408    0.000110
     39          8           0      -10.038312    0.138023    0.000777
     40          6           0       -1.329780    0.670999   -0.000437
     41          1           0       -1.127137    1.280982   -0.889292
     42          1           0       -1.127007    1.280814    0.888553
     43          6           0       -0.423940   -0.552691   -0.000558
     44          1           0       -0.626907   -1.162442   -0.889458
     45          1           0       -0.626887   -1.162738    0.888238
     46          1           0      -10.185375   -2.071795    0.000317
 ---------------------------------------------------------------------
 Rotational constants (GHZ):           0.8643765           0.0337239           0.0324841
 Leave Link  202 at Tue Jul 27 19:32:27 2021, MaxMem=   524288000 cpu:               0.4 elap:               0.2
 (Enter /opt/gaussian/g16_legacy/l301.exe)
 Standard basis: 6-31G(d,p) (6D, 7F)
 Ernie: Thresh=  0.10000D-02 Tol=  0.10000D-05 Strict=F.
 There are   510 symmetry adapted cartesian basis functions of A   symmetry.
 There are   510 symmetry adapted basis functions of A   symmetry.
   510 basis functions,   910 primitive gaussians,   510 cartesian basis functions
   101 alpha electrons      101 beta electrons
       nuclear repulsion energy      2229.1261825132 Hartrees.
 IExCor= 4336 DFT=T Ex+Corr=M062X ExCW=0 ScaHFX=  0.540000
 ScaDFX=  1.000000  1.000000  1.000000  1.000000 ScalE2=  1.000000  1.000000
 IRadAn=      5 IRanWt=     -1 IRanGd=            0 ICorTp=0 IEmpDi=  4
 NAtoms=   46 NActive=   46 NUniq=   46 SFac= 1.00D+00 NAtFMM=   60 NAOKFM=F Big=F
 Integral buffers will be    131072 words long.
 Raffenetti 2 integral format.
 Two-electron integral symmetry is turned on.
 Leave Link  301 at Tue Jul 27 19:32:27 2021, MaxMem=   524288000 cpu:               0.7 elap:               0.3
 (Enter /opt/gaussian/g16_legacy/l302.exe)
 NPDir=0 NMtPBC=     1 NCelOv=     1 NCel=       1 NClECP=     1 NCelD=      1
         NCelK=      1 NCelE2=     1 NClLst=     1 CellRange=     0.0.
 One-electron integrals computed using PRISM.
 One-electron integral symmetry used in STVInt
 NBasis=   510 RedAO= T EigKep=  4.16D-04  NBF=   510
 NBsUse=   510 1.00D-06 EigRej= -1.00D+00 NBFU=   510
 Precomputing XC quadrature grid using
 IXCGrd= 4 IRadAn=           5 IRanWt=          -1 IRanGd=           0 AccXCQ= 0.00D+00.
 Generated NRdTot=       0 NPtTot=           0 NUsed=           0 NTot=          32
 NSgBfM=   428   428   428   428   428 MxSgAt=    46 MxSgA2=    46.
 Leave Link  302 at Tue Jul 27 19:32:29 2021, MaxMem=   524288000 cpu:               7.8 elap:               2.4
 (Enter /opt/gaussian/g16_legacy/l303.exe)
 DipDrv:  MaxL=1.
 Leave Link  303 at Tue Jul 27 19:32:30 2021, MaxMem=   524288000 cpu:               0.4 elap:               0.2
 (Enter /opt/gaussian/g16_legacy/l401.exe)
 ExpMin= 1.61D-01 ExpMax= 5.48D+03 ExpMxC= 8.25D+02 IAcc=3 IRadAn=         5 AccDes= 0.00D+00
 Harris functional with IExCor= 1009 and IRadAn=       5 diagonalized for initial guess.
 HarFok:  IExCor= 1009 AccDes= 0.00D+00 IRadAn=         5 IDoV= 1 UseB2=F ITyADJ=14
 ICtDFT=  3500011 ScaDFX=  1.000000  1.000000  1.000000  1.000000
 FoFCou: FMM=F IPFlag=           0 FMFlag=      100000 FMFlg1=           0
         NFxFlg=           0 DoJE=T BraDBF=F KetDBF=T FulRan=T
         wScrn=  0.000000 ICntrl=       500 IOpCl=  0 I1Cent=   200000004 NGrid=           0
         NMat0=    1 NMatS0=      1 NMatT0=    0 NMatD0=    1 NMtDS0=    0 NMtDT0=    0
 Petite list used in FoFCou.
 Harris En= -1373.60233963957    
 JPrj=0 DoOrth=F DoCkMO=F.
 Leave Link  401 at Tue Jul 27 19:32:41 2021, MaxMem=   524288000 cpu:              41.2 elap:              10.6
 (Enter /opt/gaussian/g16_legacy/l502.exe)
 Integral symmetry usage will be decided dynamically.
 Closed shell SCF:
 Using DIIS extrapolation, IDIIS=  1040.
 NGot=   524288000 LenX=   523759406 LenY=   523498796
 Requested convergence on RMS density matrix=1.00D-08 within 128 cycles.
 Requested convergence on MAX density matrix=1.00D-06.
 Requested convergence on             energy=1.00D-06.
 No special actions if energy rises.
 Fock matrices will be formed incrementally for  20 cycles.
 Integral accuracy reduced to 1.0D-05 until final iterations.

 Cycle   1  Pass 0  IDiag  1:
 FoFJK:  IHMeth= 1 ICntrl=       0 DoSepK=F KAlg= 0 I1Cent=           0 FoldK=F
 IRaf= 480000000 NMat=       1 IRICut=       1 DoRegI=T DoRafI=F ISym2E= 0 IDoP0=0 IntGTp=1.
 FoFCou: FMM=F IPFlag=           0 FMFlag=      100000 FMFlg1=           0
         NFxFlg=           0 DoJE=F BraDBF=F KetDBF=F FulRan=T
         wScrn=  0.000000 ICntrl=         0 IOpCl=  0 I1Cent=           0 NGrid=           0
         NMat0=    1 NMatS0=      1 NMatT0=    0 NMatD0=    1 NMtDS0=    0 NMtDT0=    0
 Symmetry not used in FoFCou.
 E= -1373.71527961498    
 DIIS: error= 3.59D-02 at cycle   1 NSaved=   1.
 NSaved= 1 IEnMin= 1 EnMin= -1373.71527961498     IErMin= 1 ErrMin= 3.59D-02
 ErrMax= 3.59D-02  0.00D+00 EMaxC= 1.00D-01 BMatC= 7.50D-01 BMatP= 7.50D-01
 IDIUse=3 WtCom= 6.41D-01 WtEn= 3.59D-01
 Coeff-Com:  0.100D+01
 Coeff-En:   0.100D+01
 Coeff:      0.100D+01
 Gap=     0.293 Goal=   None    Shift=    0.000
 GapD=    0.293 DampG=1.000 DampE=0.500 DampFc=0.5000 IDamp=-1.
 Damping current iteration by 5.00D-01
 RMSDP=2.96D-03 MaxDP=1.58D-01              OVMax= 1.80D-01

 Cycle   2  Pass 0  IDiag  1:
 RMSU=  1.46D-03    CP:  9.85D-01
 E= -1373.97988020060     Delta-E=       -0.264600585620 Rises=F Damp=T
 DIIS: error= 1.10D-02 at cycle   2 NSaved=   2.
 NSaved= 2 IEnMin= 2 EnMin= -1373.97988020060     IErMin= 2 ErrMin= 1.10D-02
 ErrMax= 1.10D-02  0.00D+00 EMaxC= 1.00D-01 BMatC= 8.39D-02 BMatP= 7.50D-01
 IDIUse=3 WtCom= 8.90D-01 WtEn= 1.10D-01
 Coeff-Com:  0.169D-01 0.983D+00
 Coeff-En:   0.200D-01 0.980D+00
 Coeff:      0.172D-01 0.983D+00
 Gap=     0.267 Goal=   None    Shift=    0.000
 RMSDP=8.69D-04 MaxDP=3.28D-02 DE=-2.65D-01 OVMax= 1.19D-01

 Cycle   3  Pass 0  IDiag  1:
 RMSU=  8.61D-04    CP:  9.77D-01  9.63D-01
 E= -1374.25886023867     Delta-E=       -0.278980038071 Rises=F Damp=F
 DIIS: error= 9.72D-03 at cycle   3 NSaved=   3.
 NSaved= 3 IEnMin= 3 EnMin= -1374.25886023867     IErMin= 3 ErrMin= 9.72D-03
 ErrMax= 9.72D-03  0.00D+00 EMaxC= 1.00D-01 BMatC= 5.15D-02 BMatP= 8.39D-02
 IDIUse=3 WtCom= 9.03D-01 WtEn= 9.72D-02
 Coeff-Com: -0.863D-01 0.463D+00 0.623D+00
 Coeff-En:   0.000D+00 0.000D+00 0.100D+01
 Coeff:     -0.779D-01 0.418D+00 0.660D+00
 Gap=     0.280 Goal=   None    Shift=    0.000
 RMSDP=5.28D-04 MaxDP=3.46D-02 DE=-2.79D-01 OVMax= 5.23D-02

 Cycle   4  Pass 0  IDiag  1:
 RMSU=  3.11D-04    CP:  9.79D-01  1.09D+00  5.56D-01
 E= -1374.29193063852     Delta-E=       -0.033070399847 Rises=F Damp=F
 DIIS: error= 3.61D-03 at cycle   4 NSaved=   4.
 NSaved= 4 IEnMin= 4 EnMin= -1374.29193063852     IErMin= 4 ErrMin= 3.61D-03
 ErrMax= 3.61D-03  0.00D+00 EMaxC= 1.00D-01 BMatC= 1.02D-02 BMatP= 5.15D-02
 IDIUse=3 WtCom= 9.64D-01 WtEn= 3.61D-02
 Coeff-Com: -0.293D-01 0.877D-01 0.348D+00 0.594D+00
 Coeff-En:   0.000D+00 0.000D+00 0.159D+00 0.841D+00
 Coeff:     -0.282D-01 0.845D-01 0.341D+00 0.603D+00
 Gap=     0.273 Goal=   None    Shift=    0.000
 RMSDP=1.95D-04 MaxDP=9.51D-03 DE=-3.31D-02 OVMax= 1.46D-02

 Cycle   5  Pass 0  IDiag  1:
 RMSU=  8.13D-05    CP:  9.79D-01  1.06D+00  6.98D-01  6.24D-01
 E= -1374.29974335241     Delta-E=       -0.007812713886 Rises=F Damp=F
 DIIS: error= 6.57D-04 at cycle   5 NSaved=   5.
 NSaved= 5 IEnMin= 5 EnMin= -1374.29974335241     IErMin= 5 ErrMin= 6.57D-04
 ErrMax= 6.57D-04  0.00D+00 EMaxC= 1.00D-01 BMatC= 2.91D-04 BMatP= 1.02D-02
 IDIUse=3 WtCom= 9.93D-01 WtEn= 6.57D-03
 Coeff-Com: -0.648D-02 0.123D-01 0.114D+00 0.257D+00 0.624D+00
 Coeff-En:   0.000D+00 0.000D+00 0.000D+00 0.000D+00 0.100D+01
 Coeff:     -0.644D-02 0.122D-01 0.113D+00 0.255D+00 0.626D+00
 Gap=     0.273 Goal=   None    Shift=    0.000
 RMSDP=3.36D-05 MaxDP=2.00D-03 DE=-7.81D-03 OVMax= 3.13D-03

 Cycle   6  Pass 0  IDiag  1:
 RMSU=  2.54D-05    CP:  9.79D-01  1.06D+00  7.02D-01  6.56D-01  7.71D-01
 E= -1374.29998115864     Delta-E=       -0.000237806233 Rises=F Damp=F
 DIIS: error= 1.42D-04 at cycle   6 NSaved=   6.
 NSaved= 6 IEnMin= 6 EnMin= -1374.29998115864     IErMin= 6 ErrMin= 1.42D-04
 ErrMax= 1.42D-04  0.00D+00 EMaxC= 1.00D-01 BMatC= 2.47D-05 BMatP= 2.91D-04
 IDIUse=3 WtCom= 9.99D-01 WtEn= 1.42D-03
 Coeff-Com: -0.486D-03-0.109D-02 0.232D-01 0.584D-01 0.269D+00 0.651D+00
 Coeff-En:   0.000D+00 0.000D+00 0.000D+00 0.000D+00 0.000D+00 0.100D+01
 Coeff:     -0.486D-03-0.109D-02 0.232D-01 0.584D-01 0.269D+00 0.651D+00
 Gap=     0.273 Goal=   None    Shift=    0.000
 RMSDP=1.12D-05 MaxDP=5.70D-04 DE=-2.38D-04 OVMax= 1.10D-03

 Cycle   7  Pass 0  IDiag  1:
 RMSU=  8.69D-06    CP:  9.79D-01  1.06D+00  7.04D-01  6.63D-01  8.16D-01
                    CP:  8.09D-01
 E= -1374.30000285906     Delta-E=       -0.000021700418 Rises=F Damp=F
 DIIS: error= 6.11D-05 at cycle   7 NSaved=   7.
 NSaved= 7 IEnMin= 7 EnMin= -1374.30000285906     IErMin= 7 ErrMin= 6.11D-05
 ErrMax= 6.11D-05  0.00D+00 EMaxC= 1.00D-01 BMatC= 2.85D-06 BMatP= 2.47D-05
 IDIUse=1 WtCom= 1.00D+00 WtEn= 0.00D+00
 Coeff-Com:  0.106D-02-0.292D-02-0.822D-02-0.193D-01 0.194D-01 0.235D+00
 Coeff-Com:  0.775D+00
 Coeff:      0.106D-02-0.292D-02-0.822D-02-0.193D-01 0.194D-01 0.235D+00
 Coeff:      0.775D+00
 Gap=     0.273 Goal=   None    Shift=    0.000
 RMSDP=5.61D-06 MaxDP=3.54D-04 DE=-2.17D-05 OVMax= 4.88D-04

 Initial convergence to 1.0D-05 achieved.  Increase integral accuracy.
 Cycle   8  Pass 1  IDiag  1:
 E= -1374.30001497466     Delta-E=       -0.000012115603 Rises=F Damp=F
 DIIS: error= 4.80D-05 at cycle   1 NSaved=   1.
 NSaved= 1 IEnMin= 1 EnMin= -1374.30001497466     IErMin= 1 ErrMin= 4.80D-05
 ErrMax= 4.80D-05  0.00D+00 EMaxC= 1.00D-01 BMatC= 1.45D-06 BMatP= 1.45D-06
 IDIUse=1 WtCom= 1.00D+00 WtEn= 0.00D+00
 Coeff-Com:  0.100D+01
 Coeff:      0.100D+01
 Gap=     0.273 Goal=   None    Shift=    0.000
 RMSDP=5.61D-06 MaxDP=3.54D-04 DE=-1.21D-05 OVMax= 3.60D-04

 Cycle   9  Pass 1  IDiag  1:
 RMSU=  1.70D-05    CP:  1.00D+00
 E= -1374.30001492406     Delta-E=        0.000000050597 Rises=F Damp=F
 DIIS: error= 6.06D-05 at cycle   2 NSaved=   2.
 NSaved= 2 IEnMin= 1 EnMin= -1374.30001497466     IErMin= 1 ErrMin= 4.80D-05
 ErrMax= 6.06D-05  0.00D+00 EMaxC= 1.00D-01 BMatC= 1.78D-06 BMatP= 1.45D-06
 IDIUse=1 WtCom= 1.00D+00 WtEn= 0.00D+00
 Coeff-Com:  0.531D+00 0.469D+00
 Coeff:      0.531D+00 0.469D+00
 Gap=     0.273 Goal=   None    Shift=    0.000
 RMSDP=2.80D-06 MaxDP=2.49D-04 DE= 5.06D-08 OVMax= 3.10D-04

 Cycle  10  Pass 1  IDiag  1:
 RMSU=  2.78D-06    CP:  1.00D+00  9.77D-01
 E= -1374.30001627206     Delta-E=       -0.000001347995 Rises=F Damp=F
 DIIS: error= 1.69D-05 at cycle   3 NSaved=   3.
 NSaved= 3 IEnMin= 3 EnMin= -1374.30001627206     IErMin= 3 ErrMin= 1.69D-05
 ErrMax= 1.69D-05  0.00D+00 EMaxC= 1.00D-01 BMatC= 1.37D-07 BMatP= 1.45D-06
 IDIUse=1 WtCom= 1.00D+00 WtEn= 0.00D+00
 Coeff-Com: -0.917D-02 0.208D+00 0.801D+00
 Coeff:     -0.917D-02 0.208D+00 0.801D+00
 Gap=     0.273 Goal=   None    Shift=    0.000
 RMSDP=7.89D-07 MaxDP=5.42D-05 DE=-1.35D-06 OVMax= 6.44D-05

 Cycle  11  Pass 1  IDiag  1:
 RMSU=  4.73D-07    CP:  1.00D+00  1.00D+00  8.23D-01
 E= -1374.30001638178     Delta-E=       -0.000000109718 Rises=F Damp=F
 DIIS: error= 3.78D-06 at cycle   4 NSaved=   4.
 NSaved= 4 IEnMin= 4 EnMin= -1374.30001638178     IErMin= 4 ErrMin= 3.78D-06
 ErrMax= 3.78D-06  0.00D+00 EMaxC= 1.00D-01 BMatC= 6.80D-09 BMatP= 1.37D-07
 IDIUse=1 WtCom= 1.00D+00 WtEn= 0.00D+00
 Coeff-Com: -0.211D-01 0.796D-01 0.346D+00 0.595D+00
 Coeff:     -0.211D-01 0.796D-01 0.346D+00 0.595D+00
 Gap=     0.273 Goal=   None    Shift=    0.000
 RMSDP=1.95D-07 MaxDP=1.42D-05 DE=-1.10D-07 OVMax= 2.69D-05

 Cycle  12  Pass 1  IDiag  1:
 RMSU=  1.91D-07    CP:  1.00D+00  1.00D+00  8.22D-01  9.51D-01
 E= -1374.30001638872     Delta-E=       -0.000000006948 Rises=F Damp=F
 DIIS: error= 1.01D-06 at cycle   5 NSaved=   5.
 NSaved= 5 IEnMin= 5 EnMin= -1374.30001638872     IErMin= 5 ErrMin= 1.01D-06
 ErrMax= 1.01D-06  0.00D+00 EMaxC= 1.00D-01 BMatC= 7.76D-10 BMatP= 6.80D-09
 IDIUse=1 WtCom= 1.00D+00 WtEn= 0.00D+00
 Coeff-Com: -0.398D-02-0.140D-01-0.548D-01 0.178D+00 0.895D+00
 Coeff:     -0.398D-02-0.140D-01-0.548D-01 0.178D+00 0.895D+00
 Gap=     0.273 Goal=   None    Shift=    0.000
 RMSDP=1.10D-07 MaxDP=7.14D-06 DE=-6.95D-09 OVMax= 1.11D-05

 Cycle  13  Pass 1  IDiag  1:
 RMSU=  6.59D-08    CP:  1.00D+00  1.00D+00  8.22D-01  1.13D+00  1.09D+00
 E= -1374.30001638990     Delta-E=       -0.000000001180 Rises=F Damp=F
 DIIS: error= 4.82D-07 at cycle   6 NSaved=   6.
 NSaved= 6 IEnMin= 6 EnMin= -1374.30001638990     IErMin= 6 ErrMin= 4.82D-07
 ErrMax= 4.82D-07  0.00D+00 EMaxC= 1.00D-01 BMatC= 1.67D-10 BMatP= 7.76D-10
 IDIUse=1 WtCom= 1.00D+00 WtEn= 0.00D+00
 Coeff-Com:  0.198D-02-0.205D-01-0.892D-01-0.148D-01 0.414D+00 0.708D+00
 Coeff:      0.198D-02-0.205D-01-0.892D-01-0.148D-01 0.414D+00 0.708D+00
 Gap=     0.273 Goal=   None    Shift=    0.000
 RMSDP=4.44D-08 MaxDP=2.65D-06 DE=-1.18D-09 OVMax= 5.32D-06

 Cycle  14  Pass 1  IDiag  1:
 RMSU=  2.26D-08    CP:  1.00D+00  1.00D+00  8.21D-01  1.19D+00  1.22D+00
                    CP:  8.00D-01
 E= -1374.30001639005     Delta-E=       -0.000000000145 Rises=F Damp=F
 DIIS: error= 2.07D-07 at cycle   7 NSaved=   7.
 NSaved= 7 IEnMin= 7 EnMin= -1374.30001639005     IErMin= 7 ErrMin= 2.07D-07
 ErrMax= 2.07D-07  0.00D+00 EMaxC= 1.00D-01 BMatC= 2.22D-11 BMatP= 1.67D-10
 IDIUse=1 WtCom= 1.00D+00 WtEn= 0.00D+00
 Coeff-Com:  0.129D-02-0.935D-02-0.416D-01-0.184D-01 0.147D+00 0.367D+00
 Coeff-Com:  0.554D+00
 Coeff:      0.129D-02-0.935D-02-0.416D-01-0.184D-01 0.147D+00 0.367D+00
 Coeff:      0.554D+00
 Gap=     0.273 Goal=   None    Shift=    0.000
 RMSDP=1.05D-08 MaxDP=7.90D-07 DE=-1.45D-10 OVMax= 1.20D-06

 Cycle  15  Pass 1  IDiag  1:
 RMSU=  8.00D-09    CP:  1.00D+00  1.00D+00  8.21D-01  1.19D+00  1.22D+00
                    CP:  8.58D-01  8.21D-01
 E= -1374.30001639010     Delta-E=       -0.000000000051 Rises=F Damp=F
 DIIS: error= 4.54D-08 at cycle   8 NSaved=   8.
 NSaved= 8 IEnMin= 8 EnMin= -1374.30001639010     IErMin= 8 ErrMin= 4.54D-08
 ErrMax= 4.54D-08  0.00D+00 EMaxC= 1.00D-01 BMatC= 1.81D-12 BMatP= 2.22D-11
 IDIUse=1 WtCom= 1.00D+00 WtEn= 0.00D+00
 Coeff-Com:  0.254D-03-0.927D-03-0.449D-02-0.554D-02-0.307D-02 0.481D-01
 Coeff-Com:  0.234D+00 0.732D+00
 Coeff:      0.254D-03-0.927D-03-0.449D-02-0.554D-02-0.307D-02 0.481D-01
 Coeff:      0.234D+00 0.732D+00
 Gap=     0.273 Goal=   None    Shift=    0.000
 RMSDP=3.87D-09 MaxDP=1.84D-07 DE=-5.09D-11 OVMax= 4.91D-07

 SCF Done:  E(RM062X) =  -1374.30001639     A.U. after   15 cycles
            NFock= 15  Conv=0.39D-08     -V/T= 2.0087
 KE= 1.362403286476D+03 PE=-7.664894882962D+03 EE= 2.699065397582D+03
 Leave Link  502 at Tue Jul 27 19:39:12 2021, MaxMem=   524288000 cpu:            1561.8 elap:             391.7
 (Enter /opt/gaussian/g16_legacy/l601.exe)
 Copying SCF densities to generalized density rwf, IOpCl= 0 IROHF=0.

 **********************************************************************

            Population analysis using the SCF density.

 **********************************************************************

 Orbital symmetries:
       Occupied  (A) (A) (A) (A) (A) (A) (A) (A) (A) (A) (A) (A)
                 (A) (A) (A) (A) (A) (A) (A) (A) (A) (A) (A) (A)
                 (A) (A) (A) (A) (A) (A) (A) (A) (A) (A) (A) (A)
                 (A) (A) (A) (A) (A) (A) (A) (A) (A) (A) (A) (A)
                 (A) (A) (A) (A) (A) (A) (A) (A) (A) (A) (A) (A)
                 (A) (A) (A) (A) (A) (A) (A) (A) (A) (A) (A) (A)
                 (A) (A) (A) (A) (A) (A) (A) (A) (A) (A) (A) (A)
                 (A) (A) (A) (A) (A) (A) (A) (A) (A) (A) (A) (A)
                 (A) (A) (A) (A) (A)
       Virtual   (A) (A) (A) (A) (A) (A) (A) (A) (A) (A) (A) (A)
                 (A) (A) (A) (A) (A) (A) (A) (A) (A) (A) (A) (A)
                 (A) (A) (A) (A) (A) (A) (A) (A) (A) (A) (A) (A)
                 (A) (A) (A) (A) (A) (A) (A) (A) (A) (A) (A) (A)
                 (A) (A) (A) (A) (A) (A) (A) (A) (A) (A) (A) (A)
                 (A) (A) (A) (A) (A) (A) (A) (A) (A) (A) (A) (A)
                 (A) (A) (A) (A) (A) (A) (A) (A) (A) (A) (A) (A)
                 (A) (A) (A) (A) (A) (A) (A) (A) (A) (A) (A) (A)
                 (A) (A) (A) (A) (A) (A) (A) (A) (A) (A) (A) (A)
                 (A) (A) (A) (A) (A) (A) (A) (A) (A) (A) (A) (A)
                 (A) (A) (A) (A) (A) (A) (A) (A) (A) (A) (A) (A)
                 (A) (A) (A) (A) (A) (A) (A) (A) (A) (A) (A) (A)
                 (A) (A) (A) (A) (A) (A) (A) (A) (A) (A) (A) (A)
                 (A) (A) (A) (A) (A) (A) (A) (A) (A) (A) (A) (A)
                 (A) (A) (A) (A) (A) (A) (A) (A) (A) (A) (A) (A)
                 (A) (A) (A) (A) (A) (A) (A) (A) (A) (A) (A) (A)
                 (A) (A) (A) (A) (A) (A) (A) (A) (A) (A) (A) (A)
                 (A) (A) (A) (A) (A) (A) (A) (A) (A) (A) (A) (A)
                 (A) (A) (A) (A) (A) (A) (A) (A) (A) (A) (A) (A)
                 (A) (A) (A) (A) (A) (A) (A) (A) (A) (A) (A) (A)
                 (A) (A) (A) (A) (A) (A) (A) (A) (A) (A) (A) (A)
                 (A) (A) (A) (A) (A) (A) (A) (A) (A) (A) (A) (A)
                 (A) (A) (A) (A) (A) (A) (A) (A) (A) (A) (A) (A)
                 (A) (A) (A) (A) (A) (A) (A) (A) (A) (A) (A) (A)
                 (A) (A) (A) (A) (A) (A) (A) (A) (A) (A) (A) (A)
                 (A) (A) (A) (A) (A) (A) (A) (A) (A) (A) (A) (A)
                 (A) (A) (A) (A) (A) (A) (A) (A) (A) (A) (A) (A)
                 (A) (A) (A) (A) (A) (A) (A) (A) (A) (A) (A) (A)
                 (A) (A) (A) (A) (A) (A) (A) (A) (A) (A) (A) (A)
                 (A) (A) (A) (A) (A) (A) (A) (A) (A) (A) (A) (A)
                 (A) (A) (A) (A) (A) (A) (A) (A) (A) (A) (A) (A)
                 (A) (A) (A) (A) (A) (A) (A) (A) (A) (A) (A) (A)
                 (A) (A) (A) (A) (A) (A) (A) (A) (A) (A) (A) (A)
                 (A) (A) (A) (A) (A) (A) (A) (A) (A) (A) (A) (A)
                 (A)
 The electronic state is 1-A.
 Alpha  occ. eigenvalues --  -19.70853 -19.70731 -19.69658 -19.69468 -19.64864
 Alpha  occ. eigenvalues --  -19.64688 -19.64050 -19.64011 -10.70128 -10.69950
 Alpha  occ. eigenvalues --  -10.69650 -10.69198 -10.62433 -10.62389 -10.61060
 Alpha  occ. eigenvalues --  -10.58652 -10.58574 -10.58277 -10.58099 -10.57845
 Alpha  occ. eigenvalues --  -10.57771 -10.57549 -10.57473 -10.57395 -10.57308
 Alpha  occ. eigenvalues --  -10.57219 -10.57143 -10.54947  -1.24705  -1.24270
 Alpha  occ. eigenvalues --   -1.24260  -1.23371  -1.15291  -1.14922  -1.14223
 Alpha  occ. eigenvalues --   -1.13924  -0.98470  -0.98063  -0.91410  -0.89871
 Alpha  occ. eigenvalues --   -0.88249  -0.86543  -0.86082  -0.85619  -0.80024
 Alpha  occ. eigenvalues --   -0.77172  -0.74772  -0.72031  -0.70919  -0.69917
 Alpha  occ. eigenvalues --   -0.69398  -0.67957  -0.66339  -0.65085  -0.62860
 Alpha  occ. eigenvalues --   -0.62668  -0.60701  -0.60381  -0.59422  -0.58349
 Alpha  occ. eigenvalues --   -0.58030  -0.57085  -0.56500  -0.56422  -0.55867
 Alpha  occ. eigenvalues --   -0.54144  -0.53304  -0.53156  -0.52437  -0.51898
 Alpha  occ. eigenvalues --   -0.51292  -0.50793  -0.50296  -0.50288  -0.50100
 Alpha  occ. eigenvalues --   -0.49351  -0.47895  -0.46969  -0.46556  -0.46197
 Alpha  occ. eigenvalues --   -0.44603  -0.44497  -0.44288  -0.43898  -0.43255
 Alpha  occ. eigenvalues --   -0.42480  -0.42463  -0.41856  -0.41284  -0.39739
 Alpha  occ. eigenvalues --   -0.38888  -0.38429  -0.37546  -0.36891  -0.36369
 Alpha  occ. eigenvalues --   -0.36062  -0.35718  -0.32778  -0.32342  -0.32329
 Alpha  occ. eigenvalues --   -0.31917
 Alpha virt. eigenvalues --   -0.04589  -0.04218   0.01354   0.01715   0.04793
 Alpha virt. eigenvalues --    0.04969   0.11527   0.12105   0.12555   0.12636
 Alpha virt. eigenvalues --    0.13175   0.13698   0.15039   0.15427   0.17555
 Alpha virt. eigenvalues --    0.17793   0.18252   0.18545   0.18985   0.19355
 Alpha virt. eigenvalues --    0.19752   0.21194   0.21277   0.21841   0.21926
 Alpha virt. eigenvalues --    0.22390   0.22724   0.23603   0.23816   0.24213
 Alpha virt. eigenvalues --    0.24489   0.25236   0.26283   0.28062   0.28473
 Alpha virt. eigenvalues --    0.29070   0.29509   0.30529   0.31170   0.32138
 Alpha virt. eigenvalues --    0.32258   0.32613   0.33384   0.33455   0.33938
 Alpha virt. eigenvalues --    0.37286   0.38282   0.38511   0.39360   0.44348
 Alpha virt. eigenvalues --    0.45034   0.48035   0.49368   0.50969   0.51398
 Alpha virt. eigenvalues --    0.53900   0.54080   0.54242   0.55557   0.55883
 Alpha virt. eigenvalues --    0.56151   0.56374   0.57000   0.57663   0.57976
 Alpha virt. eigenvalues --    0.58148   0.58756   0.58822   0.59525   0.60057
 Alpha virt. eigenvalues --    0.60801   0.61057   0.62227   0.62326   0.62451
 Alpha virt. eigenvalues --    0.62524   0.62859   0.62942   0.63164   0.63360
 Alpha virt. eigenvalues --    0.64815   0.65226   0.65692   0.66340   0.68539
 Alpha virt. eigenvalues --    0.69033   0.69391   0.69670   0.70837   0.71035
 Alpha virt. eigenvalues --    0.71217   0.71944   0.72991   0.74360   0.75431
 Alpha virt. eigenvalues --    0.75748   0.76458   0.76972   0.77404   0.79002
 Alpha virt. eigenvalues --    0.79608   0.79730   0.80653   0.82158   0.82620
 Alpha virt. eigenvalues --    0.82780   0.82980   0.83920   0.85154   0.85996
 Alpha virt. eigenvalues --    0.86216   0.86364   0.87174   0.87336   0.87527
 Alpha virt. eigenvalues --    0.87702   0.87871   0.89465   0.90267   0.91496
 Alpha virt. eigenvalues --    0.92337   0.92456   0.94196   0.94298   0.94911
 Alpha virt. eigenvalues --    0.95162   0.95991   0.96684   0.98433   0.99194
 Alpha virt. eigenvalues --    0.99370   0.99807   1.00148   1.00554   1.01343
 Alpha virt. eigenvalues --    1.02183   1.02680   1.03812   1.04270   1.05107
 Alpha virt. eigenvalues --    1.06011   1.06856   1.06891   1.09086   1.10141
 Alpha virt. eigenvalues --    1.10706   1.10714   1.12390   1.14921   1.15837
 Alpha virt. eigenvalues --    1.16435   1.16862   1.18683   1.18961   1.19903
 Alpha virt. eigenvalues --    1.21087   1.24730   1.27172   1.27233   1.27992
 Alpha virt. eigenvalues --    1.28825   1.29152   1.29420   1.31595   1.31872
 Alpha virt. eigenvalues --    1.32105   1.32268   1.33462   1.33771   1.34412
 Alpha virt. eigenvalues --    1.34738   1.34989   1.35340   1.35841   1.37246
 Alpha virt. eigenvalues --    1.39737   1.41076   1.41819   1.42411   1.42676
 Alpha virt. eigenvalues --    1.42712   1.43651   1.44045   1.44475   1.45011
 Alpha virt. eigenvalues --    1.45303   1.46553   1.47303   1.49037   1.49072
 Alpha virt. eigenvalues --    1.49408   1.50522   1.51201   1.51282   1.54297
 Alpha virt. eigenvalues --    1.57497   1.59005   1.61138   1.66368   1.66853
 Alpha virt. eigenvalues --    1.67521   1.68058   1.69050   1.70065   1.71344
 Alpha virt. eigenvalues --    1.71679   1.71736   1.75035   1.76079   1.77560
 Alpha virt. eigenvalues --    1.77685   1.77691   1.78952   1.79169   1.79559
 Alpha virt. eigenvalues --    1.79739   1.80709   1.81831   1.83141   1.88103
 Alpha virt. eigenvalues --    1.88260   1.89347   1.89850   1.89880   1.90073
 Alpha virt. eigenvalues --    1.90483   1.90901   1.92167   1.92486   1.92535
 Alpha virt. eigenvalues --    1.92986   1.93406   1.93785   1.94410   1.95426
 Alpha virt. eigenvalues --    1.95900   1.95955   1.96428   1.97779   1.97937
 Alpha virt. eigenvalues --    1.98461   1.99414   1.99473   1.99873   1.99879
 Alpha virt. eigenvalues --    2.01238   2.04158   2.04304   2.05352   2.06875
 Alpha virt. eigenvalues --    2.07489   2.07789   2.08283   2.08432   2.08905
 Alpha virt. eigenvalues --    2.09315   2.10729   2.11446   2.11462   2.11853
 Alpha virt. eigenvalues --    2.12525   2.13026   2.13076   2.13888   2.15019
 Alpha virt. eigenvalues --    2.15463   2.15590   2.16940   2.17616   2.23355
 Alpha virt. eigenvalues --    2.26358   2.26850   2.28271   2.29137   2.29631
 Alpha virt. eigenvalues --    2.30620   2.31118   2.32470   2.33343   2.35260
 Alpha virt. eigenvalues --    2.35317   2.37239   2.39124   2.39842   2.40136
 Alpha virt. eigenvalues --    2.41049   2.41208   2.42011   2.42114   2.42787
 Alpha virt. eigenvalues --    2.43170   2.43888   2.43965   2.45829   2.45852
 Alpha virt. eigenvalues --    2.47029   2.49990   2.51485   2.52605   2.52955
 Alpha virt. eigenvalues --    2.53018   2.55422   2.56762   2.56938   2.58285
 Alpha virt. eigenvalues --    2.58288   2.59485   2.59735   2.60035   2.61275
 Alpha virt. eigenvalues --    2.61346   2.61946   2.62360   2.63457   2.63912
 Alpha virt. eigenvalues --    2.63977   2.67004   2.67396   2.68425   2.69619
 Alpha virt. eigenvalues --    2.70737   2.70853   2.71761   2.72503   2.72797
 Alpha virt. eigenvalues --    2.73885   2.75580   2.76168   2.76838   2.76944
 Alpha virt. eigenvalues --    2.77702   2.77849   2.78461   2.79530   2.80352
 Alpha virt. eigenvalues --    2.82290   2.83255   2.84479   2.86054   2.86632
 Alpha virt. eigenvalues --    2.87317   2.89587   2.90194   2.91700   2.93955
 Alpha virt. eigenvalues --    2.96044   2.98999   2.99496   3.00402   3.00938
 Alpha virt. eigenvalues --    3.01789   3.04455   3.04755   3.12951   3.14370
 Alpha virt. eigenvalues --    3.14874   3.15614   3.17337   3.18208   3.19680
 Alpha virt. eigenvalues --    3.21151   3.22021   3.23439   3.24059   3.27066
 Alpha virt. eigenvalues --    3.28351   3.32364   3.34594   3.35406   3.35473
 Alpha virt. eigenvalues --    3.36295   3.38227   3.39799   3.44487   3.45088
 Alpha virt. eigenvalues --    3.49386   3.49448   3.49556   3.50348   3.80579
 Alpha virt. eigenvalues --    3.80725   3.95694   3.98191   4.02834   4.06978
 Alpha virt. eigenvalues --    4.11436   4.12469   4.16250   4.16503   4.16708
 Alpha virt. eigenvalues --    4.18477   4.27046   4.29775   4.34361   4.35331
[...]
    11  C   -0.000000  -0.000000   0.000000   0.000000   0.000000   0.000000
    12  O    0.000000   0.000000   0.000000   0.000000   0.000000   0.000000
    13  C    0.000000   0.000000   0.000000   0.000000   0.000000   0.000000
    14  O    0.000000   0.000000   0.000000   0.000000   0.000000   0.000000
    15  O   -0.000000  -0.000000   0.000000  -0.000000   0.000000   0.000000
    16  O    0.000000   0.000000  -0.000000  -0.000000   0.000000  -0.000000
    17  C    0.000000   0.000000   0.000000   0.000000   0.000000   0.000000
    18  H    0.000000   0.000000   0.000000   0.000000   0.000000   0.000000
    19  H    0.000000   0.000000   0.000000   0.000000   0.000000   0.000000
    20  C    0.000000   0.000000   0.000000   0.000000   0.000000   0.000000
    21  H    0.000000   0.000000   0.000000   0.000000   0.000000   0.000000
    22  H    0.000000   0.000000   0.000000   0.000000   0.000000   0.000000
    23  H    0.000000   0.000000   0.000000   0.000000   0.000000   0.000000
    24  C    0.006617  -0.000129  -0.042361  -0.008076   0.307600  -0.036705
    25  C    4.917713   0.376578   0.484644  -0.030962  -0.036438  -0.042412
    26  H    0.376578   0.519784  -0.031044  -0.003233   0.002922   0.000498
    27  C    0.484644  -0.031044   4.921936   0.376878   0.534505  -0.058876
    28  H   -0.030962  -0.003233   0.376878   0.519252  -0.037596   0.004237
    29  C   -0.036438   0.002922   0.534505  -0.037596   5.005777   0.524055
    30  C   -0.042412   0.000498  -0.058876   0.004237   0.524055   4.918196
    31  H    0.000509   0.000015   0.004286  -0.000138  -0.032487   0.375878
    32  C   -0.058686   0.004363  -0.042131   0.000536  -0.034226   0.496915
    33  H    0.004349  -0.000136   0.000482   0.000015   0.002966  -0.032174
    34  C    0.531821  -0.038367  -0.034535   0.002872  -0.028011  -0.031710
    35  O    0.001683   0.010739   0.000758   0.000001  -0.000010  -0.000072
    36  C   -0.038993  -0.007693   0.005635  -0.000138   0.000577   0.004187
    37  O    0.004116   0.000286  -0.000052   0.000000  -0.000002   0.000317
    38  O   -0.000047   0.000000   0.004077   0.000270  -0.104159   0.000685
    39  O    0.000868   0.000001   0.002814   0.009937  -0.100281   0.003719
    40  C   -0.000117  -0.000011   0.000001  -0.000000   0.000000  -0.000002
    41  H   -0.000003  -0.000001  -0.000000   0.000000  -0.000000   0.000001
    42  H   -0.000003  -0.000001  -0.000000   0.000000  -0.000000   0.000001
    43  C   -0.000001  -0.000000  -0.000000   0.000000   0.000000   0.000000
    44  H   -0.000000   0.000000   0.000000   0.000000   0.000000   0.000000
    45  H   -0.000000   0.000000   0.000000   0.000000   0.000000   0.000000
    46  H    0.000001  -0.000000  -0.000225  -0.000018   0.011431  -0.000560
              31         32         33         34         35         36
     1  C   -0.000000  -0.000000  -0.000000   0.000000   0.000000   0.000003
     2  C   -0.000000   0.000000   0.000000   0.000000  -0.000000   0.000000
     3  H    0.000000  -0.000000  -0.000000  -0.000000   0.000000  -0.000000
     4  C   -0.000000   0.000000   0.000000  -0.000000  -0.000000  -0.000000
     5  H   -0.000000   0.000000   0.000000  -0.000000  -0.000000   0.000000
     6  C   -0.000000  -0.000000  -0.000000   0.000000   0.000000   0.000000
     7  C    0.000000   0.000000  -0.000000  -0.000000   0.000000  -0.000000
     8  H   -0.000000   0.000000   0.000000  -0.000000   0.000000  -0.000000
     9  C   -0.000000   0.000000   0.000000  -0.000000  -0.000000  -0.000000
    10  H    0.000000  -0.000000   0.000000  -0.000000  -0.000000   0.000000
    11  C    0.000000  -0.000000  -0.000000   0.000000   0.000000   0.000000
    12  O    0.000000   0.000000   0.000000   0.000000   0.000000  -0.000000
    13  C    0.000000   0.000000  -0.000000   0.000000   0.000000  -0.000000
    14  O    0.000000   0.000000   0.000000   0.000000   0.000000   0.000000
    15  O   -0.000000   0.000000   0.000000   0.000001   0.000002   0.000010
    16  O    0.000000  -0.000000  -0.000000   0.000000   0.000000   0.000000
    17  C    0.000000   0.000000   0.000000   0.000000   0.000000   0.000000
    18  H    0.000000   0.000000   0.000000   0.000000   0.000000   0.000000
    19  H    0.000000   0.000000   0.000000   0.000000   0.000000   0.000000
    20  C    0.000000   0.000000   0.000000   0.000000   0.000000   0.000000
    21  H    0.000000   0.000000   0.000000   0.000000   0.000000   0.000000
    22  H    0.000000   0.000000   0.000000   0.000000   0.000000   0.000000
    23  H    0.000000   0.000000   0.000000   0.000000   0.000000   0.000000
    24  C   -0.008657   0.004260  -0.000114   0.000262  -0.000000   0.000003
    25  C    0.000509  -0.058686   0.004349   0.531821   0.001683  -0.038993
    26  H    0.000015   0.004363  -0.000136  -0.038367   0.010739  -0.007693
    27  C    0.004286  -0.042131   0.000482  -0.034535   0.000758   0.005635
    28  H   -0.000138   0.000536   0.000015   0.002872   0.000001  -0.000138
    29  C   -0.032487  -0.034226   0.002966  -0.028011  -0.000010   0.000577
    30  C    0.375878   0.496915  -0.032174  -0.031710  -0.000072   0.004187
    31  H    0.527496  -0.031881  -0.003774   0.002829   0.000000  -0.000129
    32  C   -0.031881   4.919662   0.375759   0.523571   0.003805  -0.042541
    33  H   -0.003774   0.375759   0.533875  -0.035144   0.000122  -0.008991
    34  C    0.002829   0.523571  -0.035144   4.959623  -0.085983   0.357599
    35  O    0.000000   0.003805   0.000122  -0.085983   8.074509   0.562133
    36  C   -0.000129  -0.042541  -0.008991   0.357599   0.562133   4.281291
    37  O   -0.000001   0.001260   0.008652  -0.097267  -0.092209   0.260563
    38  O    0.006282   0.000295  -0.000001  -0.000005  -0.000000  -0.000000
    39  O    0.000105  -0.000063   0.000000  -0.000019  -0.000000  -0.000000
    40  C   -0.000000  -0.000258  -0.000371   0.006863   0.000941  -0.021758
    41  H   -0.000000   0.000040   0.000025  -0.000005   0.004782  -0.003757
    42  H   -0.000000   0.000041   0.000025  -0.000010   0.004823  -0.003759
    43  C   -0.000000  -0.000068   0.000013   0.000019   0.001069   0.003599
    44  H   -0.000000  -0.000002   0.000074  -0.000019  -0.000008   0.000014
    45  H   -0.000000  -0.000002   0.000074  -0.000019  -0.000008   0.000013
    46  H   -0.000195   0.000005  -0.000000   0.000001   0.000000   0.000000
              37         38         39         40         41         42
     1  C    0.000010   0.000000   0.000000   0.003634   0.000011   0.000011
     2  C    0.000000   0.000000   0.000000   0.000000   0.000000   0.000000
     3  H   -0.000000   0.000000   0.000000  -0.000000  -0.000000  -0.000000
     4  C    0.000000   0.000000   0.000000  -0.000068  -0.000002  -0.000002
     5  H    0.000000   0.000000   0.000000   0.000013   0.000074   0.000074
     6  C    0.000001   0.000000   0.000000   0.000019  -0.000019  -0.000020
     7  C   -0.000000   0.000000   0.000000  -0.000001  -0.000000  -0.000000
     8  H   -0.000000   0.000000   0.000000  -0.000000   0.000000   0.000000
     9  C    0.000000   0.000000   0.000000  -0.000000   0.000000   0.000000
    10  H   -0.000000   0.000000   0.000000   0.000000   0.000000   0.000000
    11  C    0.000000   0.000000   0.000000   0.000000   0.000000   0.000000
    12  O    0.000000   0.000000   0.000000   0.000000   0.000000   0.000000
    13  C   -0.000000   0.000000   0.000000  -0.000000  -0.000000  -0.000000
    14  O    0.000000   0.000000   0.000000  -0.000000   0.000000   0.000000
    15  O    0.001065   0.000000   0.000000  -0.038982   0.003235   0.003236
    16  O    0.000002   0.000000   0.000000   0.001077  -0.000008  -0.000008
    17  C    0.000000   0.000000   0.000000  -0.000000  -0.000000  -0.000000
    18  H    0.000000   0.000000   0.000000  -0.000000  -0.000000   0.000000
    19  H    0.000000   0.000000   0.000000  -0.000000   0.000000  -0.000000
    20  C    0.000000   0.000000   0.000000  -0.000000   0.000000   0.000000
    21  H    0.000000   0.000000   0.000000   0.000000  -0.000000   0.000000
    22  H    0.000000   0.000000   0.000000   0.000000  -0.000000  -0.000000
    23  H    0.000000   0.000000   0.000000   0.000000   0.000000  -0.000000
    24  C   -0.000000   0.280376   0.595329   0.000000  -0.000000  -0.000000
    25  C    0.004116  -0.000047   0.000868  -0.000117  -0.000003  -0.000003
    26  H    0.000286   0.000000   0.000001  -0.000011  -0.000001  -0.000001
    27  C   -0.000052   0.004077   0.002814   0.000001  -0.000000  -0.000000
    28  H    0.000000   0.000270   0.009937  -0.000000   0.000000   0.000000
    29  C   -0.000002  -0.104159  -0.100281   0.000000  -0.000000  -0.000000
    30  C    0.000317   0.000685   0.003719  -0.000002   0.000001   0.000001
    31  H   -0.000001   0.006282   0.000105  -0.000000  -0.000000  -0.000000
    32  C    0.001260   0.000295  -0.000063  -0.000258   0.000040   0.000041
    33  H    0.008652  -0.000001   0.000000  -0.000371   0.000025   0.000025
    34  C   -0.097267  -0.000005  -0.000019   0.006863  -0.000005  -0.000010
    35  O   -0.092209  -0.000000  -0.000000   0.000941   0.004782   0.004823
    36  C    0.260563  -0.000000  -0.000000  -0.021758  -0.003757  -0.003759
    37  O    8.364205   0.000000  -0.000000   0.176616  -0.032239  -0.032263
    38  O    0.000000   8.160437  -0.097078  -0.000000   0.000000   0.000000
    39  O   -0.000000  -0.097078   8.056575   0.000000  -0.000000  -0.000000
    40  C    0.176616  -0.000000   0.000000   4.805384   0.389270   0.389248
    41  H   -0.032239   0.000000  -0.000000   0.389270   0.562973  -0.040296
    42  H   -0.032263   0.000000  -0.000000   0.389248  -0.040296   0.562946
    43  C   -0.038842   0.000000   0.000000   0.350910  -0.037338  -0.037332
    44  H    0.003223   0.000000  -0.000000  -0.037390  -0.006659   0.004983
    45  H    0.003222   0.000000  -0.000000  -0.037391   0.004983  -0.006659
    46  H    0.000000   0.284613   0.006446  -0.000000   0.000000   0.000000
              43         44         45         46
     1  C   -0.021674  -0.003786  -0.003785  -0.000000
     2  C   -0.000002   0.000001   0.000001   0.000000
     3  H   -0.000000  -0.000000  -0.000000   0.000000
     4  C   -0.000259   0.000040   0.000039   0.000000
     5  H   -0.000369   0.000025   0.000025   0.000000
     6  C    0.006872  -0.000011  -0.000007   0.000000
     7  C   -0.000118  -0.000003  -0.000002   0.000000
     8  H   -0.000011  -0.000001  -0.000001   0.000000
     9  C    0.000001  -0.000000  -0.000000   0.000000
    10  H   -0.000000   0.000000   0.000000   0.000000
    11  C    0.000000  -0.000000  -0.000000   0.000000
    12  O    0.000000   0.000000   0.000000   0.000000
    13  C    0.000000  -0.000000  -0.000000   0.000000
    14  O    0.000000   0.000000   0.000000   0.000000
    15  O    0.177289  -0.032307  -0.032289  -0.000000
    16  O    0.001012   0.004855   0.004826   0.000000
    17  C   -0.000000   0.000000   0.000000   0.000000
    18  H    0.000000   0.000000  -0.000000   0.000000
    19  H    0.000000  -0.000000   0.000000   0.000000
    20  C   -0.000000  -0.000000  -0.000000   0.000000
    21  H    0.000000   0.000000  -0.000000   0.000000
    22  H   -0.000000   0.000000   0.000000   0.000000
    23  H    0.000000  -0.000000   0.000000   0.000000
    24  C   -0.000000  -0.000000  -0.000000  -0.015067
    25  C   -0.000001  -0.000000  -0.000000   0.000001
    26  H   -0.000000   0.000000   0.000000  -0.000000
    27  C   -0.000000   0.000000   0.000000  -0.000225
    28  H    0.000000   0.000000   0.000000  -0.000018
    29  C    0.000000   0.000000   0.000000   0.011431
    30  C    0.000000   0.000000   0.000000  -0.000560
    31  H   -0.000000  -0.000000  -0.000000  -0.000195
    32  C   -0.000068  -0.000002  -0.000002   0.000005
    33  H    0.000013   0.000074   0.000074  -0.000000
    34  C    0.000019  -0.000019  -0.000019   0.000001
    35  O    0.001069  -0.000008  -0.000008   0.000000
    36  C    0.003599   0.000014   0.000013   0.000000
    37  O   -0.038842   0.003223   0.003222   0.000000
    38  O    0.000000   0.000000   0.000000   0.284613
    39  O    0.000000  -0.000000  -0.000000   0.006446
    40  C    0.350910  -0.037390  -0.037391  -0.000000
    41  H   -0.037338  -0.006659   0.004983   0.000000
    42  H   -0.037332   0.004983  -0.006659   0.000000
    43  C    4.803767   0.389058   0.389074  -0.000000
    44  H    0.389058   0.564624  -0.040556   0.000000
    45  H    0.389074  -0.040556   0.564637   0.000000
    46  H   -0.000000   0.000000   0.000000   0.359742
 Mulliken charges:
               1
     1  C    0.650841
     2  C   -0.124990
     3  H    0.163689
     4  C   -0.122126
     5  H    0.153838
     6  C   -0.033109
     7  C   -0.124128
     8  H    0.162036
     9  C   -0.122891
    10  H    0.155303
    11  C   -0.031963
    12  O   -0.494541
    13  C    0.650310
    14  O   -0.517830
    15  O   -0.529980
    16  O   -0.489687
    17  C    0.022059
    18  H    0.142139
    19  H    0.142171
    20  C   -0.388232
    21  H    0.141089
    22  H    0.134379
    23  H    0.141080
    24  C    0.603285
    25  C   -0.121239
    26  H    0.165427
    27  C   -0.126793
    28  H    0.166163
    29  C   -0.016624
    30  C   -0.126178
    31  H    0.159860
    32  C   -0.120655
    33  H    0.154273
    34  C   -0.034366
    35  O   -0.487079
    36  C    0.652130
    37  O   -0.530662
    38  O   -0.535744
    39  O   -0.478355
    40  C    0.012371
    41  H    0.154934
    42  H    0.154964
    43  C    0.013332
    44  H    0.153845
    45  H    0.153827
    46  H    0.353824
 Sum of Mulliken charges =  -0.00000
 Mulliken charges with hydrogens summed into heavy atoms:
               1
     1  C    0.650841
     2  C    0.038699
     4  C    0.031712
     6  C   -0.033109
     7  C    0.037909
     9  C    0.032411
    11  C   -0.031963
    12  O   -0.494541
    13  C    0.650310
    14  O   -0.517830
    15  O   -0.529980
    16  O   -0.489687
    17  C    0.306369
    20  C    0.028316
    24  C    0.603285
    25  C    0.044189
    27  C    0.039369
    29  C   -0.016624
    30  C    0.033682
    32  C    0.033618
    34  C   -0.034366
    35  O   -0.487079
    36  C    0.652130
    37  O   -0.530662
    38  O   -0.181920
    39  O   -0.478355
    40  C    0.322269
    43  C    0.321004
 Electronic spatial extent (au):  <R**2>=          29534.6876
 Charge=              0.0000 electrons
 Dipole moment (field-independent basis, Debye):
    X=              1.6736    Y=             -2.8262    Z=             -0.0014  Tot=              3.2845
 Quadrupole moment (field-independent basis, Debye-Ang):
   XX=           -134.5558   YY=           -165.4953   ZZ=           -158.7722
   XY=              6.9709   XZ=             -0.0001   YZ=              0.0005
 Traceless Quadrupole moment (field-independent basis, Debye-Ang):
   XX=             18.3852   YY=            -12.5542   ZZ=             -5.8311
   XY=              6.9709   XZ=             -0.0001   YZ=              0.0005
 Octapole moment (field-independent basis, Debye-Ang**2):
  XXX=            377.6207  YYY=            -16.8298  ZZZ=             -0.0094  XYY=            -65.3793
  XXY=           -286.4692  XXZ=             -0.1957  XZZ=              0.9114  YZZ=              0.0599
  YYZ=             -0.0024  XYZ=              0.0025
 Hexadecapole moment (field-independent basis, Debye-Ang**3):
 XXXX=         -32495.6736 YYYY=          -1568.1310 ZZZZ=           -173.3798 XXXY=           1191.0270
 XXXZ=             -0.8449 YYYX=             52.5665 YYYZ=              0.0406 ZZZX=             -0.1404
 ZZZY=             -0.0100 XXYY=          -6182.4738 XXZZ=          -6155.7852 YYZZ=           -281.8361
 XXYZ=             -0.0308 YYXZ=             -0.0214 ZZXY=             32.9104
 N-N= 2.240928332037D+03 E-N=-7.689176697075D+03  KE= 1.363036622490D+03
 No NMR shielding tensors so no spin-rotation constants.
 Leave Link  601 at Tue Jul 27 20:12:18 2021, MaxMem=   524288000 cpu:               1.6 elap:               0.5
 (Enter /opt/gaussian/g16_legacy/l9999.exe)
 1\1\GINC-TRUENO91\FOpt\RM062X\6-31G(d,p)\C20H18O8\JRAMOS\27-Jul-2021\0
 \\#p opt=loose m062x/6-31g(d,p)\\Conformer number 214. Energy MM = 73.
 475 kcal/mol\\0,1\C,1.2147852206,-0.6012609961,0.952030955\C,4.2059880
 247,1.0173928254,-0.7181788045\H,4.4614208863,1.6980874502,-1.52299579
 36\C,2.8881826692,0.6806654117,-0.44188793\H,2.074946989,1.0925078341,
 -1.0278039393\C,2.6092716244,-0.2005398781,0.6053588972\C,3.6417810804
 ,-0.7426027545,1.3726586071\H,3.3872831919,-1.423395054,2.1777343639\C
 ,4.9593225555,-0.4054658354,1.0958295494\H,5.7740698268,-0.8161257356,
 1.6804817391\C,5.238384088,0.4755912553,0.048834764\O,6.9188495269,1.6
 341586855,-1.1950137721\C,6.6366898843,0.8762035097,-0.2971073465\O,7.
 5484534694,0.2997504644,0.4979906479\O,0.2973557003,-0.0247881558,0.15
 27272204\O,0.9229650299,-1.358705433,1.8454258742\C,8.9134027566,0.645
 2123089,0.2139454383\H,9.0241078526,1.730430797,0.295935757\H,9.136532
 8415,0.3682968449,-0.8205647396\C,9.7791015459,-0.097279028,1.20695035
 48\H,9.6402799281,-1.1760267837,1.1075263784\H,10.8317284431,0.1346370
 008,1.0300098184\H,9.5273091996,0.1926517367,2.2293963484\C,-9.6226031
 45,-0.8026638604,0.083781525\C,-6.5954487467,0.7466151676,-1.499254313
 9\H,-6.3404351543,1.4273373574,-2.3041292\C,-7.9109149764,0.4087093394
 ,-1.2206507488\H,-8.7370888521,0.811644253,-1.7964362999\C,-8.19143738
 04,-0.4720843779,-0.1741939759\C,-7.1618297848,-1.0165153766,0.5949592
 104\H,-7.3998593199,-1.6984371883,1.4030126259\C,-5.8435651026,-0.6779
 922221,0.3158946739\H,-5.0303563847,-1.0901074077,0.9015661389\C,-5.56
 39368666,0.2027780748,-0.7306414844\O,-3.8765964977,1.3597233487,-1.96
 92008134\C,-4.1679521499,0.6021478406,-1.0762044497\O,-3.251933587,0.0
 251619918,-0.2765151771\O,-9.7861057904,-1.6578857813,1.1098545824\O,-
 10.5503459922,-0.3618027887,-0.5494872222\C,-1.8984774868,0.3761028897
 ,-0.5647141147\H,-1.6477423809,0.0899879855,-1.5900218998\H,-1.7638807
 377,1.4573084371,-0.470545751\C,-1.0552637339,-0.3760657863,0.44146574
 96\H,-1.190057723,-1.4573094079,0.3473555078\H,-1.3061663074,-0.090004
 0363,1.4668103103\H,-10.7403142346,-1.8062449224,1.1932107386\\Version
 =EM64L-G16RevA.03\State=1-A\HF=-1374.307723\RMSD=6.671e-09\RMSF=1.477e
 -04\Dipole=0.6571664,-0.6717721,0.886965\Quadrupole=13.5924131,-5.9656
 875,-7.6267256,4.1794276,-3.2643652,2.4204571\PG=C01 [X(C20H18O8)]\\@


 NOBODY LOSES ALL THE TIME
 I HAD AN UNCLE NAMED
 SOL WHO WAS A BORN FAILURE AND
 NEARLY EVERYBODY SAID HE SHOULD HAVE GONE
 INTO VAUDEVILLE PERHAPS BECAUSE MY UNCLE SOL COULD
 SING MCCANN HE WAS A DIVER ON XMAS EVE LIKE HELL ITSELF WHICH
 MAY OR MAY NOT ACCOUNT FOR THE FACT THAT MY UNCLE
 SOL INDULGED IN THAT POSSIBLY MOST INEXCUSABLE
 OF ALL TO USE A HIGHFALOOTIN PHRASE
 LUXURIES THAT IS OR TO
 WIT FARMING AND BE
 IT NEEDLESSLY
 ADDED
 MY UNCLE SOL'S FARM     
 FAILED BECAUSE THE CHICKENS
 ATE THE VEGETABLES SO
 MY UNCLE SOL HAD A
 CHICKEN FARM TILL THE
 SKUNKS ATE THE CHICKENS WHEN 
 MY UNCLE SOL
 HAD A SKUNK FARM BUT
 THE SKUNKS CAUGHT COLD AND
 DIED AND SO
 MY UNCLE SOL IMITATED THE
 SKUNKS IN A SUBTLE MANNER
 OR BY DROWNING HIMSELF IN THE WATERTANK
 BUT SOMEBODY WHO'D GIVEN MY UNCLE SOL A VICTOR     
 VICTROLA AND RECORDS WHILE HE LIVED PRESENTED TO
 HIM UPON THE AUSPICIOUS OCCASION OF HIS DECEASE A
 SCRUMPTIOUS NOT TO MENTION SPLENDIFEROUS FUNERAL WITH
 TALL BOYS IN BLACK GLOVES AND FLOWERS AND EVERYTHING AND
 I REMEMBER WE ALL CRIED LIKE THE MISSOURI
 WHEN MY UNCLE SOL'S COFFIN LURCHED BECAUSE     
 SOMEBODY PRESSED A BUTTON
 (AND DOWN WENT
 MY UNCLE
 SOL
 AND STARTED A WORM FARM)
           E. E. CUMMINGS
 Job cpu time:       0 days  2 hours 38 minutes 59.3 seconds.
 Elapsed time:       0 days  0 hours 39 minutes 51.0 seconds.
 File lengths (MBytes):  RWF=    165 Int=      0 D2E=      0 Chk=     21 Scr=      1
 Normal termination of Gaussian 16 at Tue Jul 27 20:12:18 2021.
