 Entering Gaussian System, Link 0=/dragofs/sw/campus/0.2/software/gaussian/16.gaussian/gaussian/g16_legacy/g16
 Input=C12H26O3_pair_012_022.com
 Output=C12H26O3_pair_012_022.log
 Initial command:
 /dragofs/sw/campus/0.2/software/gaussian/16.gaussian/gaussian/g16_legacy/l1.exe "/tmp/jramos/38621/Gau-2649170.inp" -scrdir="/tmp/jramos/38621/"
 Entering Link 1 = /dragofs/sw/campus/0.2/software/gaussian/16.gaussian/gaussian/g16_legacy/l1.exe PID=   2649171.
  
 Copyright (c) 1988,1990,1992,1993,1995,1998,2003,2009,2016,
            Gaussian, Inc.  All Rights Reserved.
  
 This is part of the Gaussian(R) 16 program.  It is based on
 the Gaussian(R) 09 system (copyright 2009, Gaussian, Inc.),
 the Gaussian(R) 03 system (copyright 2003, Gaussian, Inc.),
 the Gaussian(R) 98 system (copyright 1998, Gaussian, Inc.),
 the Gaussian(R) 94 system (copyright 1995, Gaussian, Inc.),
 the Gaussian 92(TM) system (copyright 1992, Gaussian, Inc.),
 the Gaussian 90(TM) system (copyright 1990, Gaussian, Inc.),
 the Gaussian 88(TM) system (copyright 1988, Gaussian, Inc.),
 the Gaussian 86(TM) system (copyright 1986, Carnegie Mellon
 University), and the Gaussian 82(TM) system (copyright 1983,
 Carnegie Mellon University). Gaussian is a federally registered
 trademark of Gaussian, Inc.
  
 This software contains proprietary and confidential information,
 including trade secrets, belonging to Gaussian, Inc.
  
 This software is provided under written license and may be
 used, copied, transmitted, or stored only in accord with that
 written license.
  
 The following legend is applicable only to US Government
 contracts under FAR:
  
                    RESTRICTED RIGHTS LEGEND
  
 Use, reproduction and disclosure by the US Government is
 subject to restrictions as set forth in subparagraphs (a)
 and (c) of the Commercial Computer Software - Restricted
 Rights clause in FAR 52.227-19.
  
 Gaussian, Inc.
 340 Quinnipiac St., Bldg. 40, Wallingford CT 06492
  
  
 ---------------------------------------------------------------
 Warning -- This program may not be used in any manner that
 competes with the business of Gaussian, Inc. or will provide
 assistance to any competitor of Gaussian, Inc.  The licensee
 of this program is prohibited from giving any competitor of
 Gaussian, Inc. access to this program.  By using this program,
 the user acknowledges that Gaussian, Inc. is engaged in the
 business of creating and licensing software in the field of
 computational chemistry and represents and warrants to the
 licensee that it is not a competitor of Gaussian, Inc. and that
 it will not use this program in any manner prohibited above.
 ---------------------------------------------------------------
  

 Cite this work as:
 Gaussian 16, Revision A.03,
 M. J. Frisch, G. W. Trucks, H. B. Schlegel, G. E. Scuseria, 
 M. A. Robb, J. R. Cheeseman, G. Scalmani, V. Barone, 
 G. A. Petersson, H. Nakatsuji, X. Li, M. Caricato, A. V. Marenich, 
 J. Bloino, B. G. Janesko, R. Gomperts, B. Mennucci, H. P. Hratchian, 
 J. V. Ortiz, A. F. Izmaylov, J. L. Sonnenberg, D. Williams-Young, 
 F. Ding, F. Lipparini, F. Egidi, J. Goings, B. Peng, A. Petrone, 
 T. Henderson, D. Ranasinghe, V. G. Zakrzewski, J. Gao, N. Rega, 
 G. Zheng, W. Liang, M. Hada, M. Ehara, K. Toyota, R. Fukuda, 
 J. Hasegawa, M. Ishida, T. Nakajima, Y. Honda, O. Kitao, H. Nakai, 
 T. Vreven, K. Throssell, J. A. Montgomery, Jr., J. E. Peralta, 
 F. Ogliaro, M. J. Bearpark, J. J. Heyd, E. N. Brothers, K. N. Kudin, 
 V. N. Staroverov, T. A. Keith, R. Kobayashi, J. Normand, 
 K. Raghavachari, A. P. Rendell, J. C. Burant, S. S. Iyengar, 
 J. Tomasi, M. Cossi, J. M. Millam, M. Klene, C. Adamo, R. Cammi, 
 J. W. Ochterski, R. L. Martin, K. Morokuma, O. Farkas, 
 J. B. Foresman, and D. J. Fox, Gaussian, Inc., Wallingford CT, 2016.
 
 ******************************************
 Gaussian 16:  EM64L-G16RevA.03 25-Dec-2016
                24-Jan-2023 
 ******************************************
 %chk=C12H26O3_pair_012_022.chk
 %nproc=8
 Will use up to    8 processors via shared memory.
 %mem=1000Mb
 -------------------------------------------
 #p opt blyp/6-31G** EmpiricalDispersion=GD3
 -------------------------------------------
 1/18=20,19=15,26=3,38=1/1,3;
 2/9=110,12=2,17=6,18=5,40=1/2;
 3/5=1,6=6,7=101,11=2,25=1,30=1,71=1,74=402,124=31/1,2,3;
 4//1;
 5/5=2,38=5/2;
 6/7=2,8=2,9=2,10=2,28=1/1;
 7//1,2,3,16;
 1/18=20,19=15,26=3/3(2);
 2/9=110/2;
 99//99;
 2/9=110/2;
 3/5=1,6=6,7=101,11=2,25=1,30=1,71=1,74=402,124=31/1,2,3;
 4/5=5,16=3,69=1/1;
 5/5=2,38=5/2;
 7//1,2,3,16;
 1/18=20,19=15,26=3/3(-5);
 2/9=110/2;
 6/7=2,8=2,9=2,10=2,19=2,28=1/1;
 99/9=1/99;
 Leave Link    1 at Tue Jan 24 02:02:19 2023, MaxMem=   131072000 cpu:               0.5 elap:               0.1
 (Enter /dragofs/sw/campus/0.2/software/gaussian/16.gaussian/gaussian/g16_legacy/l101.exe)
 ------------------------------------------------
 Conformer number 066. Energy MM = 0.000 kcal/mol
 ------------------------------------------------
 Symbolic Z-matrix:
 Charge =  0 Multiplicity = 1
 H                     24.028    19.102    24.346 
 C                     24.553    19.022    25.334 
 C                     23.659    19.316    26.535 
 H                     24.953    18.005    25.392 
 H                     25.471    19.632    25.344 
 H                     24.304    19.009    27.414 
 H                     22.776    18.587    26.512 
 C                     23.23     20.727    26.719 
 C                     21.819    20.86     26.595 
 H                     23.461    20.996    27.735 
 H                     21.612    21.907    26.929 
 H                     21.299    20.117    27.274 
 O                     23.963    21.603    25.864 
 H                     24.807    21.185    25.7 
 C                     21.163    20.788    25.246 
 H                     21.094    19.8      24.894 
 H                     21.753    21.355    24.512 
 H                     20.209    21.327    25.293 
 H                     17.286    22.796    25.252 
 C                     16.743    23.662    25.542 
 C                     17.634    24.729    26.154 
 H                     16.354    24.034    24.594 
 H                     15.925    23.305    26.211 
 H                     17.044    25.685    26.291 
 H                     18.477    25.009    25.446 
 C                     18.291    24.459    27.474 
 C                     19.134    23.239    27.479 
 H                     19.036    25.195    27.664 
 H                     19.965    23.362    26.779 
 H                     18.558    22.364    27.141 
 O                     17.275    24.477    28.583 
 C                     17.176    25.487    29.461 
 O                     17.887    26.513    29.449 
 C                     16.029    25.214    30.418 
 H                     15.672    24.205    30.362 
 H                     16.422    25.39     31.432 
 H                     15.186    25.875    30.339 
 C                     19.731    23.077    28.898 
 H                     20.315    22.144    29.068 
 H                     18.861    23.08     29.613 
 H                     20.373    23.964    29.053 
 
 Add virtual bond connecting atoms H29        and H11        Dist= 4.16D+00.
 ITRead=  0  0  0  0  0  0  0  0  0  0  0  0  0  0  0  0  0  0  0  0
 ITRead=  0  0  0  0  0  0  0  0  0  0  0  0  0  0  0  0  0  0  0  0
 ITRead=  0
 MicOpt= -1 -1 -1 -1 -1 -1 -1 -1 -1 -1 -1 -1 -1 -1 -1 -1 -1 -1 -1 -1
 MicOpt= -1 -1 -1 -1 -1 -1 -1 -1 -1 -1 -1 -1 -1 -1 -1 -1 -1 -1 -1 -1
 MicOpt= -1
 NAtoms=     41 NQM=       41 NQMF=       0 NMMI=      0 NMMIF=      0
                NMic=       0 NMicF=      0.
                    Isotopes and Nuclear Properties:
 (Nuclear quadrupole moments (NQMom) in fm**2, nuclear magnetic moments (NMagM)
  in nuclear magnetons)

  Atom         1           2           3           4           5           6           7           8           9          10
 IAtWgt=           1          12          12           1           1           1           1          12          12           1
 AtmWgt=   1.0078250  12.0000000  12.0000000   1.0078250   1.0078250   1.0078250   1.0078250  12.0000000  12.0000000   1.0078250
 NucSpn=           1           0           0           1           1           1           1           0           0           1
 AtZEff=  -0.0000000  -0.0000000  -0.0000000  -0.0000000  -0.0000000  -0.0000000  -0.0000000  -0.0000000  -0.0000000  -0.0000000
 NQMom=    0.0000000   0.0000000   0.0000000   0.0000000   0.0000000   0.0000000   0.0000000   0.0000000   0.0000000   0.0000000
 NMagM=    2.7928460   0.0000000   0.0000000   2.7928460   2.7928460   2.7928460   2.7928460   0.0000000   0.0000000   2.7928460
 AtZNuc=   1.0000000   6.0000000   6.0000000   1.0000000   1.0000000   1.0000000   1.0000000   6.0000000   6.0000000   1.0000000

  Atom        11          12          13          14          15          16          17          18          19          20
 IAtWgt=           1           1          16           1          12           1           1           1           1          12
 AtmWgt=   1.0078250   1.0078250  15.9949146   1.0078250  12.0000000   1.0078250   1.0078250   1.0078250   1.0078250  12.0000000
 NucSpn=           1           1           0           1           0           1           1           1           1           0
 AtZEff=  -0.0000000  -0.0000000  -0.0000000  -0.0000000  -0.0000000  -0.0000000  -0.0000000  -0.0000000  -0.0000000  -0.0000000
 NQMom=    0.0000000   0.0000000   0.0000000   0.0000000   0.0000000   0.0000000   0.0000000   0.0000000   0.0000000   0.0000000
 NMagM=    2.7928460   2.7928460   0.0000000   2.7928460   0.0000000   2.7928460   2.7928460   2.7928460   2.7928460   0.0000000
 AtZNuc=   1.0000000   1.0000000   8.0000000   1.0000000   6.0000000   1.0000000   1.0000000   1.0000000   1.0000000   6.0000000

  Atom        21          22          23          24          25          26          27          28          29          30
 IAtWgt=          12           1           1           1           1          12          12           1           1           1
 AtmWgt=  12.0000000   1.0078250   1.0078250   1.0078250   1.0078250  12.0000000  12.0000000   1.0078250   1.0078250   1.0078250
 NucSpn=           0           1           1           1           1           0           0           1           1           1
 AtZEff=  -0.0000000  -0.0000000  -0.0000000  -0.0000000  -0.0000000  -0.0000000  -0.0000000  -0.0000000  -0.0000000  -0.0000000
 NQMom=    0.0000000   0.0000000   0.0000000   0.0000000   0.0000000   0.0000000   0.0000000   0.0000000   0.0000000   0.0000000
 NMagM=    0.0000000   2.7928460   2.7928460   2.7928460   2.7928460   0.0000000   0.0000000   2.7928460   2.7928460   2.7928460
 AtZNuc=   6.0000000   1.0000000   1.0000000   1.0000000   1.0000000   6.0000000   6.0000000   1.0000000   1.0000000   1.0000000

  Atom        31          32          33          34          35          36          37          38          39          40
 IAtWgt=          16          12          16          12           1           1           1          12           1           1
 AtmWgt=  15.9949146  12.0000000  15.9949146  12.0000000   1.0078250   1.0078250   1.0078250  12.0000000   1.0078250   1.0078250
 NucSpn=           0           0           0           0           1           1           1           0           1           1
 AtZEff=  -0.0000000  -0.0000000  -0.0000000  -0.0000000  -0.0000000  -0.0000000  -0.0000000  -0.0000000  -0.0000000  -0.0000000
 NQMom=    0.0000000   0.0000000   0.0000000   0.0000000   0.0000000   0.0000000   0.0000000   0.0000000   0.0000000   0.0000000
 NMagM=    0.0000000   0.0000000   0.0000000   0.0000000   2.7928460   2.7928460   2.7928460   0.0000000   2.7928460   2.7928460
 AtZNuc=   8.0000000   6.0000000   8.0000000   6.0000000   1.0000000   1.0000000   1.0000000   6.0000000   1.0000000   1.0000000

  Atom        41
 IAtWgt=           1
 AtmWgt=   1.0078250
 NucSpn=           1
 AtZEff=  -0.0000000
 NQMom=    0.0000000
 NMagM=    2.7928460
 AtZNuc=   1.0000000
 Leave Link  101 at Tue Jan 24 02:02:20 2023, MaxMem=   131072000 cpu:               0.9 elap:               0.2
 (Enter /dragofs/sw/campus/0.2/software/gaussian/16.gaussian/gaussian/g16_legacy/l103.exe)

 GradGradGradGradGradGradGradGradGradGradGradGradGradGradGradGradGradGrad
 Berny optimization.
 Initialization pass.
                           ----------------------------
                           !    Initial Parameters    !
                           ! (Angstroms and Degrees)  !
 --------------------------                            --------------------------
 ! Name  Definition              Value          Derivative Info.                !
 --------------------------------------------------------------------------------
 ! R1    R(1,2)                  1.1217         estimate D2E/DX2                !
 ! R2    R(2,3)                  1.5258         estimate D2E/DX2                !
 ! R3    R(2,4)                  1.0944         estimate D2E/DX2                !
 ! R4    R(2,5)                  1.1022         estimate D2E/DX2                !
 ! R5    R(3,6)                  1.1327         estimate D2E/DX2                !
 ! R6    R(3,7)                  1.1453         estimate D2E/DX2                !
 ! R7    R(3,8)                  1.4862         estimate D2E/DX2                !
 ! R8    R(8,9)                  1.4227         estimate D2E/DX2                !
 ! R9    R(8,10)                 1.0761         estimate D2E/DX2                !
 ! R10   R(8,13)                 1.4268         estimate D2E/DX2                !
 ! R11   R(9,11)                 1.1183         estimate D2E/DX2                !
 ! R12   R(9,12)                 1.1329         estimate D2E/DX2                !
 ! R13   R(9,15)                 1.5018         estimate D2E/DX2                !
 ! R14   R(11,29)                2.2028         estimate D2E/DX2                !
 ! R15   R(13,14)                0.956          estimate D2E/DX2                !
 ! R16   R(15,16)                1.0511         estimate D2E/DX2                !
 ! R17   R(15,17)                1.0992         estimate D2E/DX2                !
 ! R18   R(15,18)                1.0967         estimate D2E/DX2                !
 ! R19   R(19,20)                1.0625         estimate D2E/DX2                !
 ! R20   R(20,21)                1.5189         estimate D2E/DX2                !
 ! R21   R(20,22)                1.0901         estimate D2E/DX2                !
 ! R22   R(20,23)                1.1154         estimate D2E/DX2                !
 ! R23   R(21,24)                1.1317         estimate D2E/DX2                !
 ! R24   R(21,25)                1.1359         estimate D2E/DX2                !
 ! R25   R(21,26)                1.499          estimate D2E/DX2                !
 ! R26   R(26,27)                1.4829         estimate D2E/DX2                !
 ! R27   R(26,28)                1.0643         estimate D2E/DX2                !
 ! R28   R(26,31)                1.5041         estimate D2E/DX2                !
 ! R29   R(27,29)                1.0935         estimate D2E/DX2                !
 ! R30   R(27,30)                1.1007         estimate D2E/DX2                !
 ! R31   R(27,38)                1.548          estimate D2E/DX2                !
 ! R32   R(31,32)                1.3419         estimate D2E/DX2                !
 ! R33   R(32,33)                1.2483         estimate D2E/DX2                !
 ! R34   R(32,34)                1.5185         estimate D2E/DX2                !
 ! R35   R(34,35)                1.0718         estimate D2E/DX2                !
 ! R36   R(34,36)                1.1016         estimate D2E/DX2                !
 ! R37   R(34,37)                1.0742         estimate D2E/DX2                !
 ! R38   R(38,39)                1.1138         estimate D2E/DX2                !
 ! R39   R(38,40)                1.1261         estimate D2E/DX2                !
 ! R40   R(38,41)                1.1059         estimate D2E/DX2                !
 ! A1    A(1,2,3)              113.9122         estimate D2E/DX2                !
 ! A2    A(1,2,4)              106.5012         estimate D2E/DX2                !
 ! A3    A(1,2,5)              110.998          estimate D2E/DX2                !
 ! A4    A(3,2,4)              110.5793         estimate D2E/DX2                !
 ! A5    A(3,2,5)              111.9754         estimate D2E/DX2                !
 ! A6    A(4,2,5)              102.0872         estimate D2E/DX2                !
 ! A7    A(2,3,6)              103.0009         estimate D2E/DX2                !
 ! A8    A(2,3,7)              108.2572         estimate D2E/DX2                !
 ! A9    A(2,3,8)              116.7125         estimate D2E/DX2                !
 ! A10   A(6,3,7)              106.3859         estimate D2E/DX2                !
 ! A11   A(6,3,8)              109.0034         estimate D2E/DX2                !
 ! A12   A(7,3,8)              112.5973         estimate D2E/DX2                !
 ! A13   A(3,8,9)              111.3615         estimate D2E/DX2                !
 ! A14   A(3,8,10)             106.993          estimate D2E/DX2                !
 ! A15   A(3,8,13)             111.1258         estimate D2E/DX2                !
 ! A16   A(9,8,10)             105.7731         estimate D2E/DX2                !
 ! A17   A(9,8,13)             113.5721         estimate D2E/DX2                !
 ! A18   A(10,8,13)            107.5793         estimate D2E/DX2                !
 ! A19   A(8,9,11)             104.1863         estimate D2E/DX2                !
 ! A20   A(8,9,12)             109.9792         estimate D2E/DX2                !
 ! A21   A(8,9,15)             120.4673         estimate D2E/DX2                !
 ! A22   A(11,9,12)            110.4904         estimate D2E/DX2                !
 ! A23   A(11,9,15)            103.4333         estimate D2E/DX2                !
 ! A24   A(12,9,15)            107.8443         estimate D2E/DX2                !
 ! A25   A(9,11,29)            137.4324         estimate D2E/DX2                !
 ! A26   A(8,13,14)            106.7325         estimate D2E/DX2                !
 ! A27   A(9,15,16)            111.9971         estimate D2E/DX2                !
 ! A28   A(9,15,17)            109.9146         estimate D2E/DX2                !
 ! A29   A(9,15,18)            108.5364         estimate D2E/DX2                !
 ! A30   A(16,15,17)           107.2453         estimate D2E/DX2                !
 ! A31   A(16,15,18)           114.7842         estimate D2E/DX2                !
 ! A32   A(17,15,18)           104.0042         estimate D2E/DX2                !
 ! A33   A(19,20,21)           112.5047         estimate D2E/DX2                !
 ! A34   A(19,20,22)           102.8936         estimate D2E/DX2                !
 ! A35   A(19,20,23)           106.1187         estimate D2E/DX2                !
 ! A36   A(21,20,22)           108.6632         estimate D2E/DX2                !
 ! A37   A(21,20,23)           114.4175         estimate D2E/DX2                !
 ! A38   A(22,20,23)           111.6604         estimate D2E/DX2                !
 ! A39   A(20,21,24)           109.6563         estimate D2E/DX2                !
 ! A40   A(20,21,25)           110.9391         estimate D2E/DX2                !
 ! A41   A(20,21,26)           119.039          estimate D2E/DX2                !
 ! A42   A(24,21,25)           104.7215         estimate D2E/DX2                !
 ! A43   A(24,21,26)           105.9054         estimate D2E/DX2                !
 ! A44   A(25,21,26)           105.5446         estimate D2E/DX2                !
 ! A45   A(21,26,27)           113.5978         estimate D2E/DX2                !
 ! A46   A(21,26,28)           109.8425         estimate D2E/DX2                !
 ! A47   A(21,26,31)           110.5515         estimate D2E/DX2                !
 ! A48   A(27,26,28)            99.8106         estimate D2E/DX2                !
 ! A49   A(27,26,31)           113.038          estimate D2E/DX2                !
 ! A50   A(28,26,31)           109.4454         estimate D2E/DX2                !
 ! A51   A(26,27,29)           109.7134         estimate D2E/DX2                !
 ! A52   A(26,27,30)           110.8222         estimate D2E/DX2                !
 ! A53   A(26,27,38)           107.9645         estimate D2E/DX2                !
 ! A54   A(29,27,30)           106.8891         estimate D2E/DX2                !
 ! A55   A(29,27,38)           107.7886         estimate D2E/DX2                !
 ! A56   A(30,27,38)           113.5846         estimate D2E/DX2                !
 ! A57   A(11,29,27)           116.7648         estimate D2E/DX2                !
 ! A58   A(26,31,32)           122.7678         estimate D2E/DX2                !
 ! A59   A(31,32,33)           124.7702         estimate D2E/DX2                !
 ! A60   A(31,32,34)           109.4356         estimate D2E/DX2                !
 ! A61   A(33,32,34)           125.7337         estimate D2E/DX2                !
 ! A62   A(32,34,35)           112.8251         estimate D2E/DX2                !
 ! A63   A(32,34,36)           106.3732         estimate D2E/DX2                !
 ! A64   A(32,34,37)           115.8365         estimate D2E/DX2                !
 ! A65   A(35,34,36)           108.5015         estimate D2E/DX2                !
 ! A66   A(35,34,37)           108.305          estimate D2E/DX2                !
 ! A67   A(36,34,37)           104.4392         estimate D2E/DX2                !
 ! A68   A(27,38,39)           115.4558         estimate D2E/DX2                !
 ! A69   A(27,38,40)           106.4868         estimate D2E/DX2                !
 ! A70   A(27,38,41)           105.5712         estimate D2E/DX2                !
 ! A71   A(39,38,40)           108.0844         estimate D2E/DX2                !
 ! A72   A(39,38,41)           110.2495         estimate D2E/DX2                !
 ! A73   A(40,38,41)           110.9391         estimate D2E/DX2                !
 ! D1    D(1,2,3,6)            170.3913         estimate D2E/DX2                !
 ! D2    D(1,2,3,7)             57.9931         estimate D2E/DX2                !
 ! D3    D(1,2,3,8)            -70.248          estimate D2E/DX2                !
 ! D4    D(4,2,3,6)             50.4997         estimate D2E/DX2                !
 ! D5    D(4,2,3,7)            -61.8985         estimate D2E/DX2                !
 ! D6    D(4,2,3,8)            169.8604         estimate D2E/DX2                !
 ! D7    D(5,2,3,6)            -62.6233         estimate D2E/DX2                !
 ! D8    D(5,2,3,7)           -175.0215         estimate D2E/DX2                !
 ! D9    D(5,2,3,8)             56.7374         estimate D2E/DX2                !
 ! D10   D(2,3,8,9)            116.1613         estimate D2E/DX2                !
 ! D11   D(2,3,8,10)          -128.7051         estimate D2E/DX2                !
 ! D12   D(2,3,8,13)           -11.5342         estimate D2E/DX2                !
 ! D13   D(6,3,8,9)           -127.7559         estimate D2E/DX2                !
 ! D14   D(6,3,8,10)           -12.6224         estimate D2E/DX2                !
 ! D15   D(6,3,8,13)           104.5486         estimate D2E/DX2                !
 ! D16   D(7,3,8,9)             -9.9476         estimate D2E/DX2                !
 ! D17   D(7,3,8,10)           105.186          estimate D2E/DX2                !
 ! D18   D(7,3,8,13)          -137.643          estimate D2E/DX2                !
 ! D19   D(3,8,9,11)           170.3012         estimate D2E/DX2                !
 ! D20   D(3,8,9,12)            51.8711         estimate D2E/DX2                !
 ! D21   D(3,8,9,15)           -74.4395         estimate D2E/DX2                !
 ! D22   D(10,8,9,11)           54.4159         estimate D2E/DX2                !
 ! D23   D(10,8,9,12)          -64.0141         estimate D2E/DX2                !
 ! D24   D(10,8,9,15)          169.6753         estimate D2E/DX2                !
 ! D25   D(13,8,9,11)          -63.3368         estimate D2E/DX2                !
 ! D26   D(13,8,9,12)          178.2331         estimate D2E/DX2                !
 ! D27   D(13,8,9,15)           51.9226         estimate D2E/DX2                !
 ! D28   D(3,8,13,14)          -27.1393         estimate D2E/DX2                !
 ! D29   D(9,8,13,14)         -153.6255         estimate D2E/DX2                !
 ! D30   D(10,8,13,14)          89.6735         estimate D2E/DX2                !
 ! D31   D(8,9,11,29)          163.4805         estimate D2E/DX2                !
 ! D32   D(12,9,11,29)         -78.4401         estimate D2E/DX2                !
 ! D33   D(15,9,11,29)          36.7477         estimate D2E/DX2                !
 ! D34   D(8,9,15,16)           76.7259         estimate D2E/DX2                !
 ! D35   D(8,9,15,17)          -42.38           estimate D2E/DX2                !
 ! D36   D(8,9,15,18)         -155.5177         estimate D2E/DX2                !
 ! D37   D(11,9,15,16)        -167.6258         estimate D2E/DX2                !
 ! D38   D(11,9,15,17)          73.2682         estimate D2E/DX2                !
 ! D39   D(11,9,15,18)         -39.8695         estimate D2E/DX2                !
 ! D40   D(12,9,15,16)         -50.5625         estimate D2E/DX2                !
 ! D41   D(12,9,15,17)        -169.6684         estimate D2E/DX2                !
 ! D42   D(12,9,15,18)          77.1938         estimate D2E/DX2                !
 ! D43   D(9,11,29,27)          79.9781         estimate D2E/DX2                !
 ! D44   D(19,20,21,24)        170.966          estimate D2E/DX2                !
 ! D45   D(19,20,21,25)         55.7772         estimate D2E/DX2                !
 ! D46   D(19,20,21,26)        -66.9499         estimate D2E/DX2                !
 ! D47   D(22,20,21,24)         57.7076         estimate D2E/DX2                !
 ! D48   D(22,20,21,25)        -57.4813         estimate D2E/DX2                !
 ! D49   D(22,20,21,26)        179.7916         estimate D2E/DX2                !
 ! D50   D(23,20,21,24)        -67.8275         estimate D2E/DX2                !
 ! D51   D(23,20,21,25)        176.9836         estimate D2E/DX2                !
 ! D52   D(23,20,21,26)         54.2565         estimate D2E/DX2                !
 ! D53   D(20,21,26,27)         56.9087         estimate D2E/DX2                !
 ! D54   D(20,21,26,28)        167.7215         estimate D2E/DX2                !
 ! D55   D(20,21,26,31)        -71.3968         estimate D2E/DX2                !
 ! D56   D(24,21,26,27)       -179.1552         estimate D2E/DX2                !
 ! D57   D(24,21,26,28)        -68.3424         estimate D2E/DX2                !
 ! D58   D(24,21,26,31)         52.5393         estimate D2E/DX2                !
 ! D59   D(25,21,26,27)        -68.4515         estimate D2E/DX2                !
 ! D60   D(25,21,26,28)         42.3613         estimate D2E/DX2                !
 ! D61   D(25,21,26,31)        163.243          estimate D2E/DX2                !
 ! D62   D(21,26,27,29)         63.4253         estimate D2E/DX2                !
 ! D63   D(21,26,27,30)        -54.3782         estimate D2E/DX2                !
 ! D64   D(21,26,27,38)       -179.3593         estimate D2E/DX2                !
 ! D65   D(28,26,27,29)        -53.4112         estimate D2E/DX2                !
 ! D66   D(28,26,27,30)       -171.2147         estimate D2E/DX2                !
 ! D67   D(28,26,27,38)         63.8042         estimate D2E/DX2                !
 ! D68   D(31,26,27,29)       -169.5575         estimate D2E/DX2                !
 ! D69   D(31,26,27,30)         72.639          estimate D2E/DX2                !
 ! D70   D(31,26,27,38)        -52.3421         estimate D2E/DX2                !
 ! D71   D(21,26,31,32)       -106.0931         estimate D2E/DX2                !
 ! D72   D(27,26,31,32)        125.2975         estimate D2E/DX2                !
 ! D73   D(28,26,31,32)         15.0245         estimate D2E/DX2                !
 ! D74   D(26,27,29,11)        166.3499         estimate D2E/DX2                !
 ! D75   D(30,27,29,11)        -73.4242         estimate D2E/DX2                !
 ! D76   D(38,27,29,11)         49.0245         estimate D2E/DX2                !
 ! D77   D(26,27,38,39)        174.6865         estimate D2E/DX2                !
 ! D78   D(26,27,38,40)         54.7248         estimate D2E/DX2                !
 ! D79   D(26,27,38,41)        -63.2688         estimate D2E/DX2                !
 ! D80   D(29,27,38,39)        -66.8605         estimate D2E/DX2                !
 ! D81   D(29,27,38,40)        173.1778         estimate D2E/DX2                !
 ! D82   D(29,27,38,41)         55.1842         estimate D2E/DX2                !
 ! D83   D(30,27,38,39)         51.3677         estimate D2E/DX2                !
 ! D84   D(30,27,38,40)        -68.594          estimate D2E/DX2                !
 ! D85   D(30,27,38,41)        173.4124         estimate D2E/DX2                !
 ! D86   D(26,31,32,33)          0.9791         estimate D2E/DX2                !
 ! D87   D(26,31,32,34)        178.2852         estimate D2E/DX2                !
 ! D88   D(31,32,34,35)         12.8912         estimate D2E/DX2                !
 ! D89   D(31,32,34,36)        131.7399         estimate D2E/DX2                !
 ! D90   D(31,32,34,37)       -112.7278         estimate D2E/DX2                !
 ! D91   D(33,32,34,35)       -169.8349         estimate D2E/DX2                !
 ! D92   D(33,32,34,36)        -50.9862         estimate D2E/DX2                !
 ! D93   D(33,32,34,37)         64.5461         estimate D2E/DX2                !
 --------------------------------------------------------------------------------
 Trust Radius=3.00D-01 FncErr=1.00D-07 GrdErr=1.00D-06 EigMax=2.50D+02 EigMin=1.00D-04
 Number of steps in this run=    216 maximum allowed number of steps=    246.
 GradGradGradGradGradGradGradGradGradGradGradGradGradGradGradGradGradGrad

 Leave Link  103 at Tue Jan 24 02:02:20 2023, MaxMem=   131072000 cpu:               0.1 elap:               0.0
 (Enter /dragofs/sw/campus/0.2/software/gaussian/16.gaussian/gaussian/g16_legacy/l202.exe)
                          Input orientation:                          
 ---------------------------------------------------------------------
 Center     Atomic      Atomic             Coordinates (Angstroms)
 Number     Number       Type             X           Y           Z
 ---------------------------------------------------------------------
      1          1           0       24.028000   19.102000   24.346000
      2          6           0       24.553000   19.022000   25.334000
      3          6           0       23.659000   19.316000   26.535000
      4          1           0       24.953000   18.005000   25.392000
      5          1           0       25.471000   19.632000   25.344000
      6          1           0       24.304000   19.009000   27.414000
      7          1           0       22.776000   18.587000   26.512000
      8          6           0       23.230000   20.727000   26.719000
      9          6           0       21.819000   20.860000   26.595000
     10          1           0       23.461000   20.996000   27.735000
     11          1           0       21.612000   21.907000   26.929000
     12          1           0       21.299000   20.117000   27.274000
     13          8           0       23.963000   21.603000   25.864000
     14          1           0       24.807000   21.185000   25.700000
     15          6           0       21.163000   20.788000   25.246000
     16          1           0       21.094000   19.800000   24.894000
     17          1           0       21.753000   21.355000   24.512000
     18          1           0       20.209000   21.327000   25.293000
     19          1           0       17.286000   22.796000   25.252000
     20          6           0       16.743000   23.662000   25.542000
     21          6           0       17.634000   24.729000   26.154000
     22          1           0       16.354000   24.034000   24.594000
     23          1           0       15.925000   23.305000   26.211000
     24          1           0       17.044000   25.685000   26.291000
     25          1           0       18.477000   25.009000   25.446000
     26          6           0       18.291000   24.459000   27.474000
     27          6           0       19.134000   23.239000   27.479000
     28          1           0       19.036000   25.195000   27.664000
     29          1           0       19.965000   23.362000   26.779000
     30          1           0       18.558000   22.364000   27.141000
     31          8           0       17.275000   24.477000   28.583000
     32          6           0       17.176000   25.487000   29.461000
     33          8           0       17.887000   26.513000   29.449000
     34          6           0       16.029000   25.214000   30.418000
     35          1           0       15.672000   24.205000   30.362000
     36          1           0       16.422000   25.390000   31.432000
     37          1           0       15.186000   25.875000   30.339000
     38          6           0       19.731000   23.077000   28.898000
     39          1           0       20.315000   22.144000   29.068000
     40          1           0       18.861000   23.080000   29.613000
     41          1           0       20.373000   23.964000   29.053000
 ---------------------------------------------------------------------
                    Distance matrix (angstroms):
                    1          2          3          4          5
     1  H    0.000000
     2  C    1.121681   0.000000
     3  C    2.230174   1.525802   0.000000
     4  H    1.775711   1.094373   2.167857   0.000000
     5  H    1.832799   1.102236   2.191274   1.708144   0.000000
     6  H    3.081793   2.094891   1.132658   2.348979   2.456607
     7  H    2.554268   2.175922   1.145277   2.516437   3.117575
     8  C    2.984721   2.564289   1.486209   3.484098   2.848110
     9  C    3.609466   3.527481   2.402735   4.406834   4.050937
    10  H    3.923525   3.294532   2.074031   4.081886   3.408442
    11  H    4.514086   4.417774   3.325466   5.361926   4.751813
    12  H    4.129267   3.943494   2.599485   4.621059   4.622306
    13  O    2.926354   2.700104   2.402712   3.761448   2.535607
    14  H    2.603660   2.208402   2.346975   3.198215   1.726106
    15  C    3.443954   3.823428   3.171486   4.704307   4.461480
    16  H    3.065267   3.572613   3.083239   4.285080   4.403278
    17  H    3.206118   3.736117   3.447156   4.715602   4.181444
    18  H    4.520199   4.917829   4.182007   5.792324   5.528496
    19  H    7.740868   8.188961   7.373711   9.041912   8.775738
    20  C    8.677283   9.086747   8.228294   9.971371   9.615513
    21  C    8.707194   9.006376   8.108413   9.967978   9.383713
    22  H    9.125591   9.638016   8.910108  10.532257  10.151837
    23  H    9.316761   9.672414   8.708149  10.500740  10.264927
    24  H    9.792608  10.084468   9.185963  11.060872  10.418731
    25  H    8.180235   8.530797   7.774914   9.539261   8.822617
    26  C    8.449556   8.564649   7.493170   9.506371   8.910063
    27  C    7.133141   7.193725   6.062730   8.100067   7.597779
    28  H    8.547154   8.600705   7.563690   9.584830   8.816949
    29  H    6.369855   6.478686   5.484094   7.449924   6.803540
    30  H    6.955111   7.097481   5.973085   7.934476   7.647392
    31  O    9.614874   9.658277   8.460832  10.536648  10.056817
    32  C   10.671521  10.641827   9.416581  11.533378  10.956174
    33  O   10.893824  10.838997   9.674926  11.780224  11.032508
    34  C   11.756263  11.698141  10.396201  12.524701  12.085345
    35  H   11.491545  11.446241  10.116344  12.217932  11.921118
    36  H   12.149139  11.993756  10.641816  12.798351  12.332993
    37  H   12.647946  12.639396  11.370252  13.483471  13.027137
    38  C    7.415223   7.238564   5.929424   8.080006   7.579350
    39  H    6.733307   6.453703   5.059250   7.221865   6.838323
    40  H    8.382342   8.196101   6.831002   8.982479   8.590993
    41  H    7.691158   7.465033   6.224309   8.359964   7.649347
                    6          7          8          9         10
     6  H    0.000000
     7  H    1.823862   0.000000
     8  C    2.141968   2.197400   0.000000
     9  C    3.205025   2.467644   1.422669   0.000000
    10  H    2.182168   2.787155   1.076094   2.003562   0.000000
    11  H    3.985034   3.542765   2.013560   1.118309   2.213223
    12  H    3.205821   2.258998   2.099735   1.132912   2.378951
    13  O    3.040989   3.305318   1.426776   2.383935   2.030048
    14  H    2.815276   3.396161   1.932629   3.136048   2.447174
    15  C    4.210813   3.008143   2.538885   1.501773   3.393993
    16  H    4.156944   2.630288   2.958454   2.131344   3.886436
    17  H    4.520279   3.564878   2.728876   2.142025   3.665225
    18  H    5.161472   3.947537   3.394100   2.122591   4.080249
    19  H    8.262441   7.031599   6.462506   5.108800   6.894629
    20  C    9.073231   7.943149   7.216698   5.892859   7.553034
    21  C    8.876649   8.018260   6.902930   5.716456   7.098505
    22  H    9.818632   8.636586   7.920306   6.629065   8.342948
    23  H    9.492653   8.323841   7.763193   6.392552   8.027786
    24  H    9.926616   9.126131   7.939241   6.795121   8.077731
    25  H    8.592261   7.801272   6.522811   5.450079   6.795877
    26  C    8.115557   7.451245   6.236311   5.115880   6.228113
    27  C    6.680271   5.986682   4.864664   3.694634   4.880524
    28  H    8.129017   7.679868   6.200458   5.261186   6.100596
    29  H    6.178896   5.547399   4.196076   3.119483   4.328268
    30  H    6.659360   5.696744   4.968444   3.632389   5.124809
    31  O    8.981783   8.321186   7.280043   6.138629   7.148641
    32  C    9.846983   9.363044   8.174783   7.154057   7.915136
    33  O   10.081127   9.764720   8.335367   7.454016   8.027737
    34  C   10.770407  10.232105   9.255818   8.191260   8.956821
    35  H   10.497645   9.841303   9.082472   7.947636   8.824247
    36  H   10.908135  10.529032   9.502884   8.546641   9.084193
    37  H   11.782848  11.196829  10.213336   9.119454   9.952943
    38  C    6.297873   5.926645   4.744844   3.818199   4.426740
    39  H    5.336297   5.024132   4.002863   3.166449   3.604457
    40  H    7.143871   6.717922   5.744563   4.773519   5.387944
    41  H    6.533843   6.414298   4.907970   4.215151   4.481282
                   11         12         13         14         15
    11  H    0.000000
    12  H    1.849620   0.000000
    13  O    2.598815   3.360534   0.000000
    14  H    3.498535   3.990509   0.956010   0.000000
    15  C    2.070326   2.140449   2.980964   3.693570   0.000000
    16  H    2.974727   2.409754   3.524609   4.044036   1.051099
    17  H    2.483239   3.060622   2.602596   3.281335   1.099247
    18  H    2.231884   2.564481   3.807195   4.618162   1.096743
    19  H    4.724079   5.231605   6.810295   7.704639   4.366146
    20  C    5.358260   6.026938   7.514756   8.437333   5.280520
    21  C    4.938501   5.996430   7.064858   8.013612   5.367475
    22  H    6.133752   6.854073   8.088235   8.988506   5.838502
    23  H    5.900161   6.338232   8.223543   9.145788   5.890939
    24  H    5.962126   7.076294   8.044726   8.992411   6.483733
    25  H    4.652947   5.936070   6.470839   7.399756   5.007139
    26  C    4.223597   5.285927   6.551368   7.504959   5.166102
    27  C    2.866567   3.804752   5.348267   6.290206   3.887227
    28  H    4.241102   5.573092   6.357499   7.296700   5.458251
    29  H    2.202756   3.543248   4.462657   5.417429   3.226572
    30  H    3.095272   3.546798   5.605700   6.520470   3.586199
    31  O    5.305675   6.075826   7.770597   8.710911   6.313544
    32  C    6.237429   7.114703   8.607394   9.533336   7.466123
    33  O    6.437489   7.568433   8.595237   9.504156   7.821318
    34  C    7.367446   7.977283   9.834968  10.749216   8.526255
    35  H    7.235323   7.609903   9.784840  10.691252   8.246237
    36  H    7.703532   8.299315  10.109929  10.993001   9.051082
    37  H    8.286531   8.939662  10.738312  11.665336   9.356321
    38  C    2.963785   3.722580   5.411807   6.290679   4.541723
    39  H    2.512708   2.880177   4.885305   5.695715   4.143130
    40  H    4.018431   4.493788   6.501302   7.365970   5.442716
    41  H    3.205892   4.338401   5.350901   6.214966   5.020391
                   16         17         18         19         20
    16  H    0.000000
    17  H    1.731540   0.000000
    18  H    1.809463   1.730515   0.000000
    19  H    4.858502   4.751649   3.271631   0.000000
    20  C    5.853729   5.610994   4.186572   1.062499   0.000000
    21  C    6.152580   5.571912   4.352649   2.161295   1.518853
    22  H    6.362732   6.027683   4.762087   1.683518   1.090142
    23  H    6.382639   6.376103   4.807064   1.741001   1.115408
    24  H    7.279240   6.639911   5.477718   3.079676   2.178103
    25  H    5.855517   4.995623   4.071898   2.520612   2.197813
    26  C    6.018263   5.513049   4.271406   2.951758   2.600795
    27  C    4.727636   4.383116   3.096767   2.927607   3.106087
    28  H    6.404240   5.662402   4.686042   3.825630   3.480061
    29  H    4.185177   3.516288   2.531592   3.135144   3.464311
    30  H    4.249047   4.258843   2.686312   2.317958   2.745147
    31  O    7.075861   6.809729   5.418021   3.731145   3.192950
    32  C    8.279504   7.906640   6.623965   4.996925   4.344730
    33  O    8.723373   8.119414   7.039788   5.638448   4.970069
    34  C    9.245550   9.084982   7.671166   5.840747   5.166612
    35  H    8.871366   8.906378   7.386610   5.540973   4.967322
    36  H    9.788827   9.622224   8.278687   6.757790   6.146635
    37  H   10.072642   9.874706   8.448488   6.306172   5.507525
    38  C    5.350562   5.127452   4.035717   4.398898   4.531347
    39  H    4.850098   4.842262   3.863852   4.915465   5.243680
    40  H    6.165521   6.112241   4.853093   4.645385   4.625764
    41  H    5.929251   5.415899   4.595461   5.034024   5.059172
                   21         22         23         24         25
    21  C    0.000000
    22  H    2.134250   0.000000
    23  H    2.225243   1.824876   0.000000
    24  H    1.131727   2.466112   2.631152   0.000000
    25  H    1.135919   2.486696   3.162522   1.795686   0.000000
    26  C    1.498983   3.496712   2.919733   2.111297   2.109474
    27  C    2.495140   4.084562   3.451067   3.429630   2.774462
    28  H    2.112548   4.238625   3.919392   2.468460   2.294908
    29  H    2.773603   4.273772   4.080131   3.763870   2.589139
    30  H    2.724182   3.759485   2.946705   3.747497   3.142548
    31  O    2.468284   4.117841   2.970264   2.601132   3.401264
    32  C    3.423533   5.145346   4.109577   3.178919   4.247506
    33  O    3.755488   5.662734   4.962394   3.371824   4.316726
    34  C    4.581806   5.951218   4.621033   4.276002   5.545765
    35  H    4.672396   5.810696   4.254975   4.543768   5.716773
    36  H    5.455561   6.971485   5.643853   5.186886   6.340377
    37  H    4.981992   6.144797   4.918476   4.458090   5.960041
    38  C    3.828322   5.553773   4.664503   4.562684   4.149873
    39  H    4.728782   6.267240   5.364930   5.563259   4.970448
    40  H    4.023607   5.690828   4.499369   4.595998   4.607861
    41  H    4.060979   6.003328   5.319394   4.655398   4.206815
                   26         27         28         29         30
    26  C    0.000000
    27  C    1.482928   0.000000
    28  H    1.064341   1.967172   0.000000
    29  H    2.118658   1.093476   2.237444   0.000000
    30  H    2.138037   1.100747   2.918317   1.762582   0.000000
    31  O    1.504148   2.491454   2.112157   3.425455   2.861856
    32  C    2.499636   3.579887   2.602705   4.414439   4.128614
    33  O    2.877978   4.019326   2.498710   4.623395   4.794925
    34  C    3.788642   4.709498   4.077613   5.671360   5.025641
    35  H    3.906945   4.607634   4.424455   5.654944   4.700332
    36  H    4.475007   5.254327   4.590081   6.189995   5.668497
    37  H    4.455817   5.542093   4.737143   6.467427   5.824492
    38  C    2.451795   1.547971   2.547882   2.150847   2.229652
    39  H    3.463616   2.262456   3.593836   2.616399   2.617017
    40  H    2.608038   2.157259   2.881397   3.054488   2.591380
    41  H    2.659509   2.130310   2.287411   2.387456   3.083824
                   31         32         33         34         35
    31  O    0.000000
    32  C    1.341933   0.000000
    33  O    2.295604   1.248335   0.000000
    34  C    2.337287   1.518548   2.465467   0.000000
    35  H    2.410069   2.171944   3.326659   1.071758   0.000000
    36  H    3.110945   2.112526   2.709178   1.101645   1.763980
    37  H    3.066245   2.209418   2.914540   1.074156   1.739432
    38  C    2.844497   3.557119   3.938278   4.536736   4.459951
    39  H    3.862605   4.602545   5.012834   5.442168   5.242099
    40  H    2.351150   2.942104   3.572263   3.636235   3.463574
    41  H    3.175165   3.564660   3.582515   4.721870   4.885792
                   36         37         38         39         40
    36  H    0.000000
    37  H    1.719759   0.000000
    38  C    4.766614   5.528319   0.000000
    39  H    5.592894   6.468573   1.113753   0.000000
    40  H    3.820155   4.673834   1.126115   1.813074   0.000000
    41  H    4.827372   5.675446   1.105874   1.820986   1.838804
                   41
    41  H    0.000000
 Stoichiometry    C12H26O3
 Framework group  C1[X(C12H26O3)]
 Deg. of freedom   117
 Full point group                 C1      NOp   1
 Largest Abelian subgroup         C1      NOp   1
 Largest concise Abelian subgroup C1      NOp   1
                         Standard orientation:                         
 ---------------------------------------------------------------------
 Center     Atomic      Atomic             Coordinates (Angstroms)
 Number     Number       Type             X           Y           Z
 ---------------------------------------------------------------------
      1          1           0        6.143396    1.076289   -0.045801
      2          6           0        6.264084   -0.033954   -0.150518
      3          6           0        5.040174   -0.737196   -0.729801
      4          1           0        7.137664   -0.192692   -0.790294
      5          1           0        6.588828   -0.487363    0.800211
      6          1           0        5.417920   -1.787113   -0.924475
      7          1           0        4.815206   -0.279451   -1.755236
      8          6           0        3.837096   -0.809205    0.139817
      9          6           0        2.747489   -0.087491   -0.422207
     10          1           0        3.525785   -1.839059    0.161337
     11          1           0        1.874325   -0.366716    0.218286
     12          1           0        2.575774   -0.417101   -1.492423
     13          8           0        4.146428   -0.424470    1.478467
     14          1           0        5.072385   -0.619878    1.614019
     15          6           0        2.733904    1.413979   -0.395308
     16          1           0        3.372658    1.826538   -1.120978
     17          1           0        3.078270    1.774042    0.584545
     18          1           0        1.692858    1.754314   -0.452241
     19          1           0       -1.330836    2.975175   -0.717466
     20          6           0       -2.334592    2.895180   -0.378380
     21          6           0       -2.490297    1.883368    0.743631
     22          1           0       -2.537320    3.890087    0.018445
     23          1           0       -2.950694    2.679251   -1.282773
     24          1           0       -3.532510    1.954984    1.178911
     25          1           0       -1.798055    2.128472    1.610255
     26          6           0       -2.266881    0.430602    0.449515
     27          6           0       -0.927489    0.138551   -0.116003
     28          1           0       -2.202511   -0.116623    1.360131
     29          1           0       -0.155054    0.392391    0.615160
     30          1           0       -0.737153    0.753562   -1.008851
     31          8           0       -3.390958   -0.117952   -0.385950
     32          6           0       -4.336755   -0.929447    0.111775
     33          8           0       -4.402235   -1.300419    1.301915
     34          6           0       -5.339671   -1.264593   -0.978098
     35          1           0       -4.998408   -0.989312   -1.956068
     36          1           0       -5.475263   -2.357499   -0.949937
     37          1           0       -6.328767   -0.868389   -0.842000
     38          6           0       -0.843684   -1.383871   -0.383250
     39          1           0        0.082005   -1.729438   -0.897185
     40          1           0       -1.723607   -1.642556   -1.036665
     41          1           0       -0.933049   -1.864736    0.608587
 ---------------------------------------------------------------------
 Rotational constants (GHZ):           1.0731157           0.1572548           0.1474455
 Leave Link  202 at Tue Jan 24 02:02:20 2023, MaxMem=   131072000 cpu:               0.2 elap:               0.1
 (Enter /dragofs/sw/campus/0.2/software/gaussian/16.gaussian/gaussian/g16_legacy/l301.exe)
 Standard basis: 6-31G(d,p) (6D, 7F)
 Ernie: Thresh=  0.10000D-02 Tol=  0.10000D-05 Strict=F.
 There are   355 symmetry adapted cartesian basis functions of A   symmetry.
 There are   355 symmetry adapted basis functions of A   symmetry.
   355 basis functions,   602 primitive gaussians,   355 cartesian basis functions
    61 alpha electrons       61 beta electrons
       nuclear repulsion energy      1030.7992324521 Hartrees.
 IExCor=  402 DFT=T Ex=B Corr=LYP ExCW=0 ScaHFX=  0.000000
 ScaDFX=  1.000000  1.000000  1.000000  1.000000 ScalE2=  1.000000  1.000000
 IRadAn=      5 IRanWt=     -1 IRanGd=            0 ICorTp=0 IEmpDi=131
 NAtoms=   41 NActive=   41 NUniq=   41 SFac= 1.00D+00 NAtFMM=   60 NAOKFM=F Big=F
 Integral buffers will be    131072 words long.
 Raffenetti 2 integral format.
 Two-electron integral symmetry is turned on.
 R6Disp:  Grimme-D3 Dispersion energy=       -0.0445751354 Hartrees.
 Nuclear repulsion after empirical dispersion term =     1030.7546573167 Hartrees.
 Leave Link  301 at Tue Jan 24 02:02:20 2023, MaxMem=   131072000 cpu:               0.4 elap:               0.1
 (Enter /dragofs/sw/campus/0.2/software/gaussian/16.gaussian/gaussian/g16_legacy/l302.exe)
 NPDir=0 NMtPBC=     1 NCelOv=     1 NCel=       1 NClECP=     1 NCelD=      1
         NCelK=      1 NCelE2=     1 NClLst=     1 CellRange=     0.0.
 One-electron integrals computed using PRISM.
 One-electron integral symmetry used in STVInt
 NBasis=   355 RedAO= T EigKep=  2.57D-03  NBF=   355
 NBsUse=   355 1.00D-06 EigRej= -1.00D+00 NBFU=   355
 Precomputing XC quadrature grid using
 IXCGrd= 4 IRadAn=           5 IRanWt=          -1 IRanGd=           0 AccXCQ= 0.00D+00.
 Generated NRdTot=       0 NPtTot=           0 NUsed=           0 NTot=          32
 NSgBfM=   350   350   350   350   350 MxSgAt=    41 MxSgA2=    41.
 Leave Link  302 at Tue Jan 24 02:02:20 2023, MaxMem=   131072000 cpu:               3.9 elap:               0.5
 (Enter /dragofs/sw/campus/0.2/software/gaussian/16.gaussian/gaussian/g16_legacy/l303.exe)
 DipDrv:  MaxL=1.
 Leave Link  303 at Tue Jan 24 02:02:20 2023, MaxMem=   131072000 cpu:               0.4 elap:               0.1
 (Enter /dragofs/sw/campus/0.2/software/gaussian/16.gaussian/gaussian/g16_legacy/l401.exe)
 ExpMin= 1.61D-01 ExpMax= 5.48D+03 ExpMxC= 8.25D+02 IAcc=3 IRadAn=         5 AccDes= 0.00D+00
 Harris functional with IExCor=  402 and IRadAn=       5 diagonalized for initial guess.
 HarFok:  IExCor=  402 AccDes= 0.00D+00 IRadAn=         5 IDoV= 1 UseB2=F ITyADJ=14
 ICtDFT=  3500011 ScaDFX=  1.000000  1.000000  1.000000  1.000000
 FoFCou: FMM=F IPFlag=           0 FMFlag=      100000 FMFlg1=           0
         NFxFlg=           0 DoJE=T BraDBF=F KetDBF=T FulRan=T
         wScrn=  0.000000 ICntrl=       500 IOpCl=  0 I1Cent=   200000004 NGrid=           0
         NMat0=    1 NMatS0=      1 NMatT0=    0 NMatD0=    1 NMtDS0=    0 NMtDT0=    0
 Petite list used in FoFCou.
 Harris En= -698.801827366846    
 JPrj=0 DoOrth=F DoCkMO=F.
 Leave Link  401 at Tue Jan 24 02:02:23 2023, MaxMem=   131072000 cpu:              18.9 elap:               2.4
 (Enter /dragofs/sw/campus/0.2/software/gaussian/16.gaussian/gaussian/g16_legacy/l502.exe)
 Integral symmetry usage will be decided dynamically.
 Closed shell SCF:
 Using DIIS extrapolation, IDIIS=  1040.
 NGot=   131072000 LenX=   130813044 LenY=   130686578
 Requested convergence on RMS density matrix=1.00D-08 within 128 cycles.
 Requested convergence on MAX density matrix=1.00D-06.
 Requested convergence on             energy=1.00D-06.
 No special actions if energy rises.
 Fock matrices will be formed incrementally for  20 cycles.
 Integral accuracy reduced to 1.0D-05 until final iterations.

 Cycle   1  Pass 0  IDiag  1:
 FoFJK:  IHMeth= 1 ICntrl=     500 DoSepK=F KAlg= 0 I1Cent=           0 FoldK=F
 IRaf= 700000000 NMat=       1 IRICut=       1 DoRegI=T DoRafI=F ISym2E= 0 IDoP0=0 IntGTp=1.
 FoFCou: FMM=F IPFlag=           0 FMFlag=      100000 FMFlg1=           0
         NFxFlg=           0 DoJE=T BraDBF=F KetDBF=F FulRan=T
         wScrn=  0.000000 ICntrl=       500 IOpCl=  0 I1Cent=           0 NGrid=           0
         NMat0=    1 NMatS0=      1 NMatT0=    0 NMatD0=    1 NMtDS0=    0 NMtDT0=    0
 Symmetry not used in FoFCou.
 E= -697.696739942826    
 DIIS: error= 2.54D-02 at cycle   1 NSaved=   1.
 NSaved= 1 IEnMin= 1 EnMin= -697.696739942826     IErMin= 1 ErrMin= 2.54D-02
 ErrMax= 2.54D-02  0.00D+00 EMaxC= 1.00D-01 BMatC= 5.75D-01 BMatP= 5.75D-01
 IDIUse=3 WtCom= 7.46D-01 WtEn= 2.54D-01
 Coeff-Com:  0.100D+01
 Coeff-En:   0.100D+01
 Coeff:      0.100D+01
 Gap=     0.054 Goal=   None    Shift=    0.000
 GapD=    0.054 DampG=0.500 DampE=0.500 DampFc=0.2500 IDamp=-1.
 Damping current iteration by 2.50D-01
 RMSDP=6.21D-03 MaxDP=2.45D-01              OVMax= 3.01D-01

 Cycle   2  Pass 0  IDiag  1:
 RMSU=  1.54D-03    CP:  9.89D-01
 E= -697.909093601104     Delta-E=       -0.212353658279 Rises=F Damp=T
 DIIS: error= 1.13D-02 at cycle   2 NSaved=   2.
 NSaved= 2 IEnMin= 2 EnMin= -697.909093601104     IErMin= 2 ErrMin= 1.13D-02
 ErrMax= 1.13D-02  0.00D+00 EMaxC= 1.00D-01 BMatC= 8.25D-02 BMatP= 5.75D-01
 IDIUse=3 WtCom= 8.87D-01 WtEn= 1.13D-01
 Coeff-Com: -0.401D+00 0.140D+01
 Coeff-En:   0.000D+00 0.100D+01
 Coeff:     -0.355D+00 0.136D+01
 Gap=     0.144 Goal=   None    Shift=    0.000
 RMSDP=1.69D-03 MaxDP=6.53D-02 DE=-2.12D-01 OVMax= 2.31D-01

 Cycle   3  Pass 0  IDiag  1:
 RMSU=  1.55D-03    CP:  9.77D-01  1.41D+00
 E= -698.136642787962     Delta-E=       -0.227549186857 Rises=F Damp=F
 DIIS: error= 2.61D-02 at cycle   3 NSaved=   3.
 NSaved= 3 IEnMin= 3 EnMin= -698.136642787962     IErMin= 2 ErrMin= 1.13D-02
 ErrMax= 2.61D-02  0.00D+00 EMaxC= 1.00D-01 BMatC= 1.79D-01 BMatP= 8.25D-02
 IDIUse=2 WtCom= 0.00D+00 WtEn= 1.00D+00
 Coeff-En:   0.390D-01 0.000D+00 0.961D+00
 Coeff:      0.390D-01 0.000D+00 0.961D+00
 Gap=     0.141 Goal=   None    Shift=    0.000
 RMSDP=4.89D-03 MaxDP=3.47D-01 DE=-2.28D-01 OVMax= 6.46D-01

 Cycle   4  Pass 0  IDiag  1:
 RMSU=  2.86D-03    CP:  9.88D-01  2.15D+00 -1.44D+00
 E= -696.456193791261     Delta-E=        1.680448996701 Rises=F Damp=F
 DIIS: error= 1.04D-01 at cycle   4 NSaved=   4.
 NSaved= 4 IEnMin= 3 EnMin= -698.136642787962     IErMin= 2 ErrMin= 1.13D-02
 ErrMax= 1.04D-01  0.00D+00 EMaxC= 1.00D-01 BMatC= 2.11D+00 BMatP= 8.25D-02
 IDIUse=2 WtCom= 0.00D+00 WtEn= 1.00D+00
 Coeff-En:   0.000D+00 0.000D+00 0.860D+00 0.140D+00
 Coeff:      0.000D+00 0.000D+00 0.860D+00 0.140D+00
 Gap=     0.155 Goal=   None    Shift=    0.000
 RMSDP=3.28D-03 MaxDP=2.99D-01 DE= 1.68D+00 OVMax= 3.48D-01

 Cycle   5  Pass 0  IDiag  1:
 RMSU=  7.53D-04    CP:  9.87D-01  1.43D+00 -2.29D-01  1.88D-01
 E= -698.082650910761     Delta-E=       -1.626457119500 Rises=F Damp=F
 DIIS: error= 3.05D-02 at cycle   5 NSaved=   5.
 NSaved= 5 IEnMin= 3 EnMin= -698.136642787962     IErMin= 2 ErrMin= 1.13D-02
 ErrMax= 3.05D-02  0.00D+00 EMaxC= 1.00D-01 BMatC= 2.57D-01 BMatP= 8.25D-02
 IDIUse=2 WtCom= 0.00D+00 WtEn= 1.00D+00
 Coeff-En:   0.000D+00 0.000D+00 0.550D+00 0.000D+00 0.450D+00
 Coeff:      0.000D+00 0.000D+00 0.550D+00 0.000D+00 0.450D+00
 Gap=     0.179 Goal=   None    Shift=    0.000
 RMSDP=1.09D-03 MaxDP=7.88D-02 DE=-1.63D+00 OVMax= 1.79D-01

 Cycle   6  Pass 0  IDiag  1:
 RMSU=  1.71D-04    CP:  9.83D-01  1.37D+00  3.77D-01  5.12D-02  5.42D-01
 E= -698.289329052620     Delta-E=       -0.206678141859 Rises=F Damp=F
 DIIS: error= 1.77D-03 at cycle   6 NSaved=   6.
 NSaved= 6 IEnMin= 6 EnMin= -698.289329052620     IErMin= 6 ErrMin= 1.77D-03
 ErrMax= 1.77D-03  0.00D+00 EMaxC= 1.00D-01 BMatC= 9.80D-04 BMatP= 8.25D-02
 IDIUse=3 WtCom= 9.82D-01 WtEn= 1.77D-02
 Coeff-Com: -0.138D-01 0.151D-01 0.168D+00-0.216D-01 0.170D+00 0.682D+00
 Coeff-En:   0.000D+00 0.000D+00 0.000D+00 0.000D+00 0.000D+00 0.100D+01
 Coeff:     -0.136D-01 0.149D-01 0.165D+00-0.213D-01 0.167D+00 0.688D+00
 Gap=     0.187 Goal=   None    Shift=    0.000
 RMSDP=1.15D-04 MaxDP=6.47D-03 DE=-2.07D-01 OVMax= 6.06D-03

 Cycle   7  Pass 0  IDiag  1:
 RMSU=  8.22D-05    CP:  9.82D-01  1.40D+00  3.92D-01  5.86D-02  5.66D-01
                    CP:  6.56D-01
 E= -698.289598464263     Delta-E=       -0.000269411643 Rises=F Damp=F
 DIIS: error= 1.90D-03 at cycle   7 NSaved=   7.
 NSaved= 7 IEnMin= 7 EnMin= -698.289598464263     IErMin= 6 ErrMin= 1.77D-03
 ErrMax= 1.90D-03  0.00D+00 EMaxC= 1.00D-01 BMatC= 7.89D-04 BMatP= 9.80D-04
 IDIUse=3 WtCom= 9.82D-01 WtEn= 1.77D-02
 Coeff-Com:  0.276D-02-0.139D-01 0.372D-01-0.236D-02 0.828D-02 0.480D+00
 Coeff-Com:  0.488D+00
 Coeff-En:   0.000D+00 0.000D+00 0.000D+00 0.000D+00 0.000D+00 0.392D+00
 Coeff-En:   0.608D+00
 Coeff:      0.271D-02-0.136D-01 0.366D-01-0.232D-02 0.813D-02 0.478D+00
 Coeff:      0.491D+00
 Gap=     0.187 Goal=   None    Shift=    0.000
 RMSDP=6.55D-05 MaxDP=5.28D-03 DE=-2.69D-04 OVMax= 7.87D-03

 Cycle   8  Pass 0  IDiag  1:
 RMSU=  2.82D-05    CP:  9.83D-01  1.39D+00  4.07D-01  5.31D-02  5.45D-01
                    CP:  7.78D-01  4.63D-01
 E= -698.290188689543     Delta-E=       -0.000590225280 Rises=F Damp=F
 DIIS: error= 2.13D-04 at cycle   8 NSaved=   8.
 NSaved= 8 IEnMin= 8 EnMin= -698.290188689543     IErMin= 8 ErrMin= 2.13D-04
 ErrMax= 2.13D-04  0.00D+00 EMaxC= 1.00D-01 BMatC= 2.74D-05 BMatP= 7.89D-04
 IDIUse=3 WtCom= 9.98D-01 WtEn= 2.13D-03
 Coeff-Com:  0.295D-02-0.792D-02 0.119D-01 0.431D-03-0.832D-02 0.228D+00
 Coeff-Com:  0.283D+00 0.490D+00
 Coeff-En:   0.000D+00 0.000D+00 0.000D+00 0.000D+00 0.000D+00 0.000D+00
 Coeff-En:   0.000D+00 0.100D+01
 Coeff:      0.294D-02-0.790D-02 0.119D-01 0.430D-03-0.830D-02 0.227D+00
 Coeff:      0.282D+00 0.491D+00
 Gap=     0.187 Goal=   None    Shift=    0.000
 RMSDP=1.66D-05 MaxDP=7.45D-04 DE=-5.90D-04 OVMax= 7.17D-04

 Cycle   9  Pass 0  IDiag  1:
 RMSU=  6.73D-06    CP:  9.83D-01  1.39D+00  4.08D-01  5.33D-02  5.42D-01
                    CP:  7.89D-01  4.98D-01  5.08D-01
 E= -698.290210731195     Delta-E=       -0.000022041652 Rises=F Damp=F
 DIIS: error= 6.31D-05 at cycle   9 NSaved=   9.
 NSaved= 9 IEnMin= 9 EnMin= -698.290210731195     IErMin= 9 ErrMin= 6.31D-05
 ErrMax= 6.31D-05  0.00D+00 EMaxC= 1.00D-01 BMatC= 1.72D-06 BMatP= 2.74D-05
 IDIUse=1 WtCom= 1.00D+00 WtEn= 0.00D+00
 Coeff-Com:  0.118D-02-0.217D-02 0.501D-02 0.204D-03-0.487D-02 0.920D-01
 Coeff-Com:  0.128D+00 0.274D+00 0.507D+00
 Coeff:      0.118D-02-0.217D-02 0.501D-02 0.204D-03-0.487D-02 0.920D-01
 Coeff:      0.128D+00 0.274D+00 0.507D+00
 Gap=     0.188 Goal=   None    Shift=    0.000
 RMSDP=4.06D-06 MaxDP=1.76D-04 DE=-2.20D-05 OVMax= 3.05D-04

 Initial convergence to 1.0D-05 achieved.  Increase integral accuracy.
 Cycle  10  Pass 1  IDiag  1:
 E= -698.290225768522     Delta-E=       -0.000015037327 Rises=F Damp=F
 DIIS: error= 2.03D-05 at cycle   1 NSaved=   1.
 NSaved= 1 IEnMin= 1 EnMin= -698.290225768522     IErMin= 1 ErrMin= 2.03D-05
 ErrMax= 2.03D-05  0.00D+00 EMaxC= 1.00D-01 BMatC= 2.01D-07 BMatP= 2.01D-07
 IDIUse=1 WtCom= 1.00D+00 WtEn= 0.00D+00
 Coeff-Com:  0.100D+01
 Coeff:      0.100D+01
 Gap=     0.188 Goal=   None    Shift=    0.000
 RMSDP=4.06D-06 MaxDP=1.76D-04 DE=-1.50D-05 OVMax= 1.50D-04

 Cycle  11  Pass 1  IDiag  1:
 RMSU=  5.79D-06    CP:  1.00D+00
 E= -698.290225621003     Delta-E=        0.000000147518 Rises=F Damp=F
 DIIS: error= 3.21D-05 at cycle   2 NSaved=   2.
 NSaved= 2 IEnMin= 1 EnMin= -698.290225768522     IErMin= 1 ErrMin= 2.03D-05
 ErrMax= 3.21D-05  0.00D+00 EMaxC= 1.00D-01 BMatC= 4.26D-07 BMatP= 2.01D-07
 IDIUse=1 WtCom= 1.00D+00 WtEn= 0.00D+00
 Coeff-Com:  0.611D+00 0.389D+00
 Coeff:      0.611D+00 0.389D+00
 Gap=     0.188 Goal=   None    Shift=    0.000
 RMSDP=2.15D-06 MaxDP=1.12D-04 DE= 1.48D-07 OVMax= 2.11D-04

 Cycle  12  Pass 1  IDiag  1:
 RMSU=  1.97D-06    CP:  1.00D+00  8.53D-01
 E= -698.290225908355     Delta-E=       -0.000000287351 Rises=F Damp=F
 DIIS: error= 1.67D-05 at cycle   3 NSaved=   3.
 NSaved= 3 IEnMin= 3 EnMin= -698.290225908355     IErMin= 3 ErrMin= 1.67D-05
 ErrMax= 1.67D-05  0.00D+00 EMaxC= 1.00D-01 BMatC= 7.53D-08 BMatP= 2.01D-07
 IDIUse=1 WtCom= 1.00D+00 WtEn= 0.00D+00
 Coeff-Com:  0.208D+00 0.281D+00 0.511D+00
 Coeff:      0.208D+00 0.281D+00 0.511D+00
 Gap=     0.188 Goal=   None    Shift=    0.000
 RMSDP=1.01D-06 MaxDP=8.68D-05 DE=-2.87D-07 OVMax= 1.75D-04

 Cycle  13  Pass 1  IDiag  1:
 RMSU=  8.66D-07    CP:  1.00D+00  8.64D-01  7.36D-01
 E= -698.290225933647     Delta-E=       -0.000000025292 Rises=F Damp=F
 DIIS: error= 1.28D-05 at cycle   4 NSaved=   4.
 NSaved= 4 IEnMin= 4 EnMin= -698.290225933647     IErMin= 4 ErrMin= 1.28D-05
 ErrMax= 1.28D-05  0.00D+00 EMaxC= 1.00D-01 BMatC= 4.15D-08 BMatP= 7.53D-08
 IDIUse=1 WtCom= 1.00D+00 WtEn= 0.00D+00
 Coeff-Com:  0.218D-01 0.143D+00 0.448D+00 0.387D+00
 Coeff:      0.218D-01 0.143D+00 0.448D+00 0.387D+00
 Gap=     0.188 Goal=   None    Shift=    0.000
 RMSDP=5.23D-07 MaxDP=3.56D-05 DE=-2.53D-08 OVMax= 7.97D-05

 Cycle  14  Pass 1  IDiag  1:
 RMSU=  1.85D-07    CP:  1.00D+00  8.74D-01  7.61D-01  4.42D-01
 E= -698.290225966462     Delta-E=       -0.000000032815 Rises=F Damp=F
 DIIS: error= 1.47D-06 at cycle   5 NSaved=   5.
 NSaved= 5 IEnMin= 5 EnMin= -698.290225966462     IErMin= 5 ErrMin= 1.47D-06
 ErrMax= 1.47D-06  0.00D+00 EMaxC= 1.00D-01 BMatC= 9.96D-10 BMatP= 4.15D-08
 IDIUse=1 WtCom= 1.00D+00 WtEn= 0.00D+00
 Coeff-Com:  0.118D-02 0.718D-01 0.245D+00 0.235D+00 0.447D+00
 Coeff:      0.118D-02 0.718D-01 0.245D+00 0.235D+00 0.447D+00
 Gap=     0.188 Goal=   None    Shift=    0.000
 RMSDP=1.04D-07 MaxDP=4.34D-06 DE=-3.28D-08 OVMax= 4.86D-06

 Cycle  15  Pass 1  IDiag  1:
 RMSU=  3.39D-08    CP:  1.00D+00  8.75D-01  7.62D-01  4.38D-01  4.69D-01
 E= -698.290225967318     Delta-E=       -0.000000000857 Rises=F Damp=F
 DIIS: error= 2.01D-07 at cycle   6 NSaved=   6.
 NSaved= 6 IEnMin= 6 EnMin= -698.290225967318     IErMin= 6 ErrMin= 2.01D-07
 ErrMax= 2.01D-07  0.00D+00 EMaxC= 1.00D-01 BMatC= 2.70D-11 BMatP= 9.96D-10
 IDIUse=1 WtCom= 1.00D+00 WtEn= 0.00D+00
 Coeff-Com: -0.498D-04 0.351D-01 0.121D+00 0.117D+00 0.251D+00 0.476D+00
 Coeff:     -0.498D-04 0.351D-01 0.121D+00 0.117D+00 0.251D+00 0.476D+00
 Gap=     0.188 Goal=   None    Shift=    0.000
 RMSDP=1.86D-08 MaxDP=6.77D-07 DE=-8.57D-10 OVMax= 7.18D-07

 Cycle  16  Pass 1  IDiag  1:
 RMSU=  7.21D-09    CP:  1.00D+00  8.75D-01  7.61D-01  4.37D-01  4.68D-01
                    CP:  4.99D-01
 E= -698.290225967342     Delta-E=       -0.000000000024 Rises=F Damp=F
 DIIS: error= 6.42D-08 at cycle   7 NSaved=   7.
 NSaved= 7 IEnMin= 7 EnMin= -698.290225967342     IErMin= 7 ErrMin= 6.42D-08
 ErrMax= 6.42D-08  0.00D+00 EMaxC= 1.00D-01 BMatC= 1.77D-12 BMatP= 2.70D-11
 IDIUse=1 WtCom= 1.00D+00 WtEn= 0.00D+00
 Coeff-Com: -0.872D-04 0.157D-01 0.544D-01 0.524D-01 0.117D+00 0.274D+00
 Coeff-Com:  0.486D+00
 Coeff:     -0.872D-04 0.157D-01 0.544D-01 0.524D-01 0.117D+00 0.274D+00
 Coeff:      0.486D+00
 Gap=     0.188 Goal=   None    Shift=    0.000
 RMSDP=3.74D-09 MaxDP=2.50D-07 DE=-2.39D-11 OVMax= 2.57D-07

 SCF Done:  E(RB-LYP) =  -698.290225967     A.U. after   16 cycles
            NFock= 16  Conv=0.37D-08     -V/T= 2.0086
 KE= 6.923162140440D+02 PE=-3.686599136715D+03 EE= 1.265238039387D+03
 Leave Link  502 at Tue Jan 24 02:03:03 2023, MaxMem=   131072000 cpu:             321.6 elap:              40.4
 (Enter /dragofs/sw/campus/0.2/software/gaussian/16.gaussian/gaussian/g16_legacy/l601.exe)
 Copying SCF densities to generalized density rwf, IOpCl= 0 IROHF=0.

 **********************************************************************

            Population analysis using the SCF density.

 **********************************************************************

 Orbital symmetries:
       Occupied  (A) (A) (A) (A) (A) (A) (A) (A) (A) (A) (A) (A)
                 (A) (A) (A) (A) (A) (A) (A) (A) (A) (A) (A) (A)
                 (A) (A) (A) (A) (A) (A) (A) (A) (A) (A) (A) (A)
                 (A) (A) (A) (A) (A) (A) (A) (A) (A) (A) (A) (A)
                 (A) (A) (A) (A) (A) (A) (A) (A) (A) (A) (A) (A)
                 (A)
       Virtual   (A) (A) (A) (A) (A) (A) (A) (A) (A) (A) (A) (A)
                 (A) (A) (A) (A) (A) (A) (A) (A) (A) (A) (A) (A)
                 (A) (A) (A) (A) (A) (A) (A) (A) (A) (A) (A) (A)
                 (A) (A) (A) (A) (A) (A) (A) (A) (A) (A) (A) (A)
                 (A) (A) (A) (A) (A) (A) (A) (A) (A) (A) (A) (A)
                 (A) (A) (A) (A) (A) (A) (A) (A) (A) (A) (A) (A)
                 (A) (A) (A) (A) (A) (A) (A) (A) (A) (A) (A) (A)
                 (A) (A) (A) (A) (A) (A) (A) (A) (A) (A) (A) (A)
                 (A) (A) (A) (A) (A) (A) (A) (A) (A) (A) (A) (A)
                 (A) (A) (A) (A) (A) (A) (A) (A) (A) (A) (A) (A)
                 (A) (A) (A) (A) (A) (A) (A) (A) (A) (A) (A) (A)
                 (A) (A) (A) (A) (A) (A) (A) (A) (A) (A) (A) (A)
                 (A) (A) (A) (A) (A) (A) (A) (A) (A) (A) (A) (A)
                 (A) (A) (A) (A) (A) (A) (A) (A) (A) (A) (A) (A)
                 (A) (A) (A) (A) (A) (A) (A) (A) (A) (A) (A) (A)
                 (A) (A) (A) (A) (A) (A) (A) (A) (A) (A) (A) (A)
                 (A) (A) (A) (A) (A) (A) (A) (A) (A) (A) (A) (A)
                 (A) (A) (A) (A) (A) (A) (A) (A) (A) (A) (A) (A)
                 (A) (A) (A) (A) (A) (A) (A) (A) (A) (A) (A) (A)
                 (A) (A) (A) (A) (A) (A) (A) (A) (A) (A) (A) (A)
                 (A) (A) (A) (A) (A) (A) (A) (A) (A) (A) (A) (A)
                 (A) (A) (A) (A) (A) (A) (A) (A) (A) (A) (A) (A)
                 (A) (A) (A) (A) (A) (A) (A) (A) (A) (A) (A) (A)
                 (A) (A) (A) (A) (A) (A) (A) (A) (A) (A) (A) (A)
                 (A) (A) (A) (A) (A) (A)
 The electronic state is 1-A.
 Alpha  occ. eigenvalues --  -18.82949 -18.77930 -18.76641 -10.03955  -9.96982
 Alpha  occ. eigenvalues --   -9.95131  -9.92879  -9.92659  -9.92503  -9.92444
 Alpha  occ. eigenvalues --   -9.92040  -9.91490  -9.91333  -9.90981  -9.90024
 Alpha  occ. eigenvalues --   -0.97460  -0.91641  -0.88492  -0.73726  -0.72259
 Alpha  occ. eigenvalues --   -0.67815  -0.67338  -0.66225  -0.61595  -0.60796
 Alpha  occ. eigenvalues --   -0.54384  -0.54273  -0.53832  -0.49052  -0.47584
 Alpha  occ. eigenvalues --   -0.44192  -0.42984  -0.42488  -0.40942  -0.39993
 Alpha  occ. eigenvalues --   -0.39666  -0.38523  -0.37910  -0.37725  -0.37322
 Alpha  occ. eigenvalues --   -0.36720  -0.35948  -0.34422  -0.33188  -0.32626
 Alpha  occ. eigenvalues --   -0.32260  -0.31847  -0.31538  -0.31077  -0.30523
 Alpha  occ. eigenvalues --   -0.29524  -0.29263  -0.28676  -0.28365  -0.27497
 Alpha  occ. eigenvalues --   -0.27274  -0.26162  -0.25033  -0.23441  -0.20215
 Alpha  occ. eigenvalues --   -0.19997
 Alpha virt. eigenvalues --   -0.01237   0.03029   0.04711   0.07067   0.07415
 Alpha virt. eigenvalues --    0.08101   0.08561   0.09111   0.09483   0.10200
 Alpha virt. eigenvalues --    0.11489   0.11712   0.12546   0.13309   0.13515
 Alpha virt. eigenvalues --    0.13844   0.13887   0.14448   0.14895   0.15197
 Alpha virt. eigenvalues --    0.15655   0.16159   0.16576   0.17636   0.18291
 Alpha virt. eigenvalues --    0.18722   0.19674   0.20048   0.20088   0.20496
 Alpha virt. eigenvalues --    0.21340   0.21896   0.22604   0.22937   0.25653
 Alpha virt. eigenvalues --    0.27167   0.27723   0.29142   0.31309   0.33699
 Alpha virt. eigenvalues --    0.43954   0.45280   0.46034   0.47293   0.48640
 Alpha virt. eigenvalues --    0.48809   0.49550   0.50332   0.50915   0.51838
 Alpha virt. eigenvalues --    0.52569   0.52910   0.53554   0.53994   0.54976
 Alpha virt. eigenvalues --    0.56248   0.56591   0.59048   0.59333   0.60722
 Alpha virt. eigenvalues --    0.60978   0.62449   0.63662   0.64434   0.64668
 Alpha virt. eigenvalues --    0.65371   0.66709   0.67483   0.69256   0.72220
 Alpha virt. eigenvalues --    0.72602   0.73090   0.74001   0.75473   0.75623
 Alpha virt. eigenvalues --    0.76327   0.77128   0.78397   0.78973   0.79071
 Alpha virt. eigenvalues --    0.79597   0.80056   0.80310   0.81295   0.82054
 Alpha virt. eigenvalues --    0.83345   0.83703   0.85049   0.85797   0.86042
 Alpha virt. eigenvalues --    0.86059   0.86932   0.87282   0.87971   0.88532
 Alpha virt. eigenvalues --    0.89451   0.90044   0.90763   0.91978   0.92724
 Alpha virt. eigenvalues --    0.93828   0.94293   0.95397   0.97377   0.97749
 Alpha virt. eigenvalues --    0.99732   0.99819   1.04078   1.05149   1.06245
 Alpha virt. eigenvalues --    1.07497   1.08961   1.10031   1.14353   1.18605
 Alpha virt. eigenvalues --    1.20723   1.21768   1.23029   1.25838   1.27167
 Alpha virt. eigenvalues --    1.31886   1.33868   1.36918   1.38323   1.39510
 Alpha virt. eigenvalues --    1.42354   1.43656   1.44221   1.47208   1.48548
 Alpha virt. eigenvalues --    1.49423   1.50484   1.52869   1.56945   1.57837
 Alpha virt. eigenvalues --    1.59759   1.60716   1.61324   1.64393   1.64793
 Alpha virt. eigenvalues --    1.65458   1.65864   1.67054   1.69451   1.72299
 Alpha virt. eigenvalues --    1.73421   1.73817   1.74505   1.76144   1.77518
 Alpha virt. eigenvalues --    1.77774   1.80385   1.80996   1.81350   1.83886
 Alpha virt. eigenvalues --    1.84772   1.86184   1.87641   1.89354   1.91173
 Alpha virt. eigenvalues --    1.91766   1.94483   1.94704   1.95459   1.96397
 Alpha virt. eigenvalues --    1.96892   1.97514   1.97792   1.98307   1.99089
 Alpha virt. eigenvalues --    1.99849   2.01179   2.01844   2.02212   2.02790
 Alpha virt. eigenvalues --    2.03066   2.03421   2.04749   2.05548   2.05939
 Alpha virt. eigenvalues --    2.06938   2.08347   2.09928   2.11191   2.11606
 Alpha virt. eigenvalues --    2.12722   2.13492   2.14710   2.15804   2.17265
 Alpha virt. eigenvalues --    2.17531   2.19050   2.21189   2.21834   2.22840
 Alpha virt. eigenvalues --    2.23437   2.26649   2.26906   2.27999   2.28745
 Alpha virt. eigenvalues --    2.29868   2.31757   2.33280   2.34481   2.35841
 Alpha virt. eigenvalues --    2.36604   2.39493   2.39841   2.40288   2.44683
 Alpha virt. eigenvalues --    2.46466   2.47875   2.50125   2.52915   2.53097
 Alpha virt. eigenvalues --    2.54228   2.56778   2.57208   2.58467   2.59254
 Alpha virt. eigenvalues --    2.59730   2.61696   2.62266   2.63230   2.64033
 Alpha virt. eigenvalues --    2.64172   2.65810   2.66020   2.68816   2.69240
 Alpha virt. eigenvalues --    2.71257   2.71691   2.74288   2.74897   2.76669
 Alpha virt. eigenvalues --    2.76943   2.78274   2.78822   2.79310   2.80586
 Alpha virt. eigenvalues --    2.82225   2.83186   2.83911   2.85055   2.85374
 Alpha virt. eigenvalues --    2.86435   2.87574   2.89799   2.92282   2.93544
 Alpha virt. eigenvalues --    2.98741   2.98976   3.04825   3.05523   3.09518
 Alpha virt. eigenvalues --    3.13183   3.15020   3.16760   3.19075   3.19165
 Alpha virt. eigenvalues --    3.22043   3.24037   3.27509   3.28651   3.33159
 Alpha virt. eigenvalues --    3.33983   3.35983   3.36243   3.36541   3.37944
 Alpha virt. eigenvalues --    3.38895   3.40309   3.41163   3.42167   3.44564
 Alpha virt. eigenvalues --    3.46844   3.48891   3.50334   3.51932   3.92710
 Alpha virt. eigenvalues --    3.92864   4.05135   4.11619   4.22886   4.26065
 Alpha virt. eigenvalues --    4.30699   4.33210   4.45025   4.49604   4.50275
 Alpha virt. eigenvalues --    4.54495   4.57836   4.65723   4.67041
          Condensed to atoms (all electrons):
               1          2          3          4          5          6
     1  H    0.608549   0.380608  -0.031082  -0.034194  -0.032105   0.006223
     2  C    0.380608   4.939925   0.355334   0.356901   0.367176  -0.042979
     3  C   -0.031082   0.355334   5.073450  -0.025585  -0.038092   0.356460
     4  H   -0.034194   0.356901  -0.025585   0.647992  -0.034693  -0.007065
     5  H   -0.032105   0.367176  -0.038092  -0.034693   0.652422  -0.005475
     6  H    0.006223  -0.042979   0.356460  -0.007065  -0.005475   0.686356
     7  H   -0.006285  -0.032373   0.355966  -0.000977   0.005948  -0.035259
     8  C   -0.002337  -0.036808   0.322880   0.005591  -0.006957  -0.027165
     9  C    0.000666  -0.004217  -0.031786  -0.000312   0.000137   0.005894
    10  H   -0.000206   0.006929  -0.077656  -0.000034   0.000427  -0.016439
    11  H   -0.000036  -0.000378   0.010862   0.000004   0.000015  -0.000491
    12  H    0.000046   0.000539  -0.010955  -0.000002  -0.000003   0.000612
    13  O   -0.000536   0.000171  -0.058927   0.001189  -0.004859   0.002212
    14  H    0.000236   0.005750  -0.009850  -0.001354   0.016753   0.001165
    15  C    0.000814   0.001492  -0.013369   0.000005  -0.000010   0.000024
    16  H    0.000259  -0.000746   0.005151   0.000029   0.000018  -0.000079
    17  H    0.000222   0.000725  -0.001094   0.000009  -0.000020  -0.000024
    18  H   -0.000004   0.000029  -0.000190  -0.000000  -0.000001   0.000002
    19  H   -0.000000   0.000000  -0.000000  -0.000000  -0.000000   0.000000
    20  C   -0.000000  -0.000000   0.000000   0.000000   0.000000  -0.000000
    21  C    0.000000   0.000000  -0.000000  -0.000000  -0.000000   0.000000
    22  H    0.000000  -0.000000   0.000000  -0.000000  -0.000000  -0.000000
    23  H    0.000000  -0.000000   0.000000  -0.000000  -0.000000   0.000000
    24  H   -0.000000  -0.000000   0.000000   0.000000  -0.000000  -0.000000
    25  H    0.000000   0.000000   0.000000  -0.000000  -0.000000   0.000000
    26  C   -0.000000  -0.000000   0.000000   0.000000   0.000000  -0.000000
    27  C    0.000000   0.000000  -0.000001   0.000000  -0.000000   0.000000
    28  H    0.000000  -0.000000   0.000000  -0.000000   0.000000   0.000000
    29  H   -0.000000  -0.000000   0.000001   0.000000  -0.000000  -0.000000
    30  H   -0.000000  -0.000000   0.000000  -0.000000   0.000000  -0.000000
    31  O    0.000000   0.000000  -0.000000  -0.000000  -0.000000   0.000000
    32  C    0.000000   0.000000  -0.000000  -0.000000  -0.000000   0.000000
    33  O   -0.000000   0.000000  -0.000000   0.000000   0.000000  -0.000000
    34  C    0.000000   0.000000  -0.000000   0.000000  -0.000000   0.000000
    35  H    0.000000  -0.000000   0.000000  -0.000000  -0.000000   0.000000
    36  H   -0.000000  -0.000000   0.000000   0.000000   0.000000  -0.000000
    37  H    0.000000   0.000000   0.000000   0.000000   0.000000   0.000000
    38  C    0.000000  -0.000000  -0.000001  -0.000000   0.000000   0.000000
    39  H   -0.000000   0.000000  -0.000002   0.000000  -0.000000  -0.000001
    40  H   -0.000000   0.000000   0.000000   0.000000  -0.000000  -0.000000
    41  H   -0.000000   0.000000   0.000000   0.000000   0.000000  -0.000000
               7          8          9         10         11         12
     1  H   -0.006285  -0.002337   0.000666  -0.000206  -0.000036   0.000046
     2  C   -0.032373  -0.036808  -0.004217   0.006929  -0.000378   0.000539
     3  C    0.355966   0.322880  -0.031786  -0.077656   0.010862  -0.010955
     4  H   -0.000977   0.005591  -0.000312  -0.000034   0.000004  -0.000002
     5  H    0.005948  -0.006957   0.000137   0.000427   0.000015  -0.000003
     6  H   -0.035259  -0.027165   0.005894  -0.016439  -0.000491   0.000612
     7  H    0.665075  -0.031975  -0.015643   0.006728   0.000508   0.002930
     8  C   -0.031975   4.652228   0.364186   0.395605  -0.036793  -0.031983
     9  C   -0.015643   0.364186   4.974138  -0.075710   0.362214   0.363200
    10  H    0.006728   0.395605  -0.075710   0.756334  -0.015232   0.000498
    11  H    0.000508  -0.036793   0.362214  -0.015232   0.679273  -0.031496
    12  H    0.002930  -0.031983   0.363200   0.000498  -0.031496   0.671958
    13  O    0.002911   0.282747  -0.060586  -0.050393   0.001556   0.003627
    14  H    0.000171  -0.036467   0.008822  -0.000061  -0.000319  -0.000402
    15  C    0.001798  -0.032803   0.367256   0.009588  -0.050169  -0.040395
    16  H    0.002187  -0.002375  -0.036436  -0.000206   0.007762  -0.009008
    17  H    0.000058  -0.010368  -0.040547   0.000710  -0.002703   0.006566
    18  H   -0.000141   0.005640  -0.028190  -0.000255  -0.014014  -0.001081
    19  H   -0.000000   0.000000  -0.000004  -0.000000  -0.000004  -0.000000
    20  C    0.000000  -0.000000   0.000001   0.000000   0.000003   0.000000
    21  C   -0.000000   0.000000  -0.000001  -0.000000  -0.000001  -0.000000
    22  H    0.000000   0.000000   0.000000  -0.000000  -0.000000  -0.000000
    23  H   -0.000000  -0.000000   0.000000  -0.000000  -0.000000   0.000000
    24  H   -0.000000  -0.000000  -0.000000   0.000000  -0.000000   0.000000
    25  H   -0.000000  -0.000000   0.000000  -0.000000  -0.000012   0.000000
    26  C    0.000000  -0.000001   0.000058  -0.000000   0.000048   0.000004
    27  C    0.000000   0.000025  -0.001193   0.000003  -0.000963   0.000256
    28  H    0.000000   0.000000   0.000004  -0.000000  -0.000008   0.000000
    29  H   -0.000000  -0.000077  -0.000428  -0.000009   0.004901  -0.000047
    30  H    0.000000   0.000012   0.000465  -0.000000  -0.000276   0.000063
    31  O   -0.000000   0.000000  -0.000000   0.000000  -0.000000   0.000000
    32  C    0.000000  -0.000000  -0.000000   0.000000   0.000000  -0.000000
    33  O   -0.000000  -0.000000  -0.000000   0.000000   0.000000  -0.000000
    34  C   -0.000000   0.000000  -0.000000   0.000000   0.000000   0.000000
    35  H    0.000000   0.000000   0.000000  -0.000000  -0.000000   0.000000
    36  H    0.000000  -0.000000   0.000000  -0.000000  -0.000000  -0.000000
    37  H    0.000000  -0.000000   0.000000   0.000000   0.000000   0.000000
    38  C   -0.000000   0.000021  -0.001352   0.000048   0.000618  -0.000447
    39  H    0.000000  -0.000212   0.001393   0.000269   0.001256   0.001775
    40  H    0.000000   0.000000   0.000037  -0.000001   0.000009   0.000006
    41  H    0.000000  -0.000002  -0.000009  -0.000001   0.000369  -0.000006
              13         14         15         16         17         18
     1  H   -0.000536   0.000236   0.000814   0.000259   0.000222  -0.000004
     2  C    0.000171   0.005750   0.001492  -0.000746   0.000725   0.000029
     3  C   -0.058927  -0.009850  -0.013369   0.005151  -0.001094  -0.000190
     4  H    0.001189  -0.001354   0.000005   0.000029   0.000009  -0.000000
     5  H   -0.004859   0.016753  -0.000010   0.000018  -0.000020  -0.000001
     6  H    0.002212   0.001165   0.000024  -0.000079  -0.000024   0.000002
     7  H    0.002911   0.000171   0.001798   0.002187   0.000058  -0.000141
[...]
    20  C   -0.000000   0.000000  -0.000657  -0.000090   0.000023  -0.000517
    21  C    0.000000  -0.000000  -0.000006  -0.000002  -0.000001   0.000271
    22  H   -0.000000   0.000000   0.000009  -0.000002  -0.000000  -0.000003
    23  H    0.000000   0.000000   0.000016  -0.000001  -0.000000  -0.000017
    24  H    0.000000   0.000000   0.000000   0.000000   0.000000  -0.000001
    25  H   -0.000000   0.000000  -0.000010  -0.000001  -0.000000   0.000296
    26  C    0.000000  -0.000000   0.000033   0.000002   0.000000  -0.000334
    27  C   -0.000000   0.000000  -0.001402   0.000014   0.000026   0.001015
    28  H   -0.000000   0.000000  -0.000002   0.000000   0.000000   0.000003
    29  H   -0.000001   0.000000  -0.000996  -0.000006   0.000007   0.003013
    30  H    0.000000  -0.000000  -0.000059   0.000084   0.000017   0.000261
    31  O    0.000000   0.000000  -0.000000   0.000000   0.000000   0.000002
    32  C    0.000000  -0.000000  -0.000000   0.000000  -0.000000  -0.000000
    33  O    0.000000  -0.000000  -0.000000  -0.000000  -0.000000   0.000000
    34  C   -0.000000   0.000000  -0.000000   0.000000   0.000000   0.000000
    35  H   -0.000000   0.000000  -0.000000   0.000000   0.000000   0.000000
    36  H   -0.000000  -0.000000   0.000000  -0.000000  -0.000000  -0.000000
    37  H   -0.000000   0.000000   0.000000   0.000000  -0.000000  -0.000000
    38  C    0.000000   0.000000   0.000151  -0.000007  -0.000004  -0.000029
    39  H   -0.000000  -0.000000  -0.000028   0.000003   0.000002  -0.000023
    40  H    0.000000  -0.000000  -0.000006   0.000000   0.000000   0.000003
    41  H    0.000000  -0.000000  -0.000003   0.000000   0.000000  -0.000000
              19         20         21         22         23         24
     1  H   -0.000001  -0.000000   0.000000   0.000000   0.000000  -0.000000
     2  C   -0.000000   0.000000  -0.000000  -0.000000   0.000000   0.000000
     3  C   -0.000000  -0.000000  -0.000000   0.000000  -0.000000  -0.000000
     4  H    0.000000  -0.000000  -0.000000  -0.000000  -0.000000  -0.000000
     5  H    0.000000  -0.000000   0.000000   0.000000  -0.000000  -0.000000
     6  H    0.000000  -0.000000   0.000000   0.000000   0.000000   0.000000
     7  H    0.000000   0.000000  -0.000000  -0.000000  -0.000000   0.000000
     8  C    0.000002  -0.000000   0.000000   0.000000   0.000000  -0.000000
     9  C   -0.000103   0.000014  -0.000000   0.000000  -0.000001  -0.000000
    10  H   -0.000000   0.000000  -0.000000  -0.000000  -0.000000   0.000000
    11  H    0.000010  -0.000001  -0.000002  -0.000000  -0.000000  -0.000000
    12  H   -0.000038   0.000008   0.000000   0.000000  -0.000001  -0.000000
    13  O    0.000000  -0.000000   0.000000  -0.000000   0.000000   0.000000
    14  H    0.000000   0.000000  -0.000000   0.000000   0.000000   0.000000
    15  C    0.000873  -0.000657  -0.000006   0.000009   0.000016   0.000000
    16  H    0.000845  -0.000090  -0.000002  -0.000002  -0.000001   0.000000
    17  H   -0.000065   0.000023  -0.000001  -0.000000  -0.000000   0.000000
    18  H    0.004191  -0.000517   0.000271  -0.000003  -0.000017  -0.000001
    19  H    0.614383   0.378176  -0.033453  -0.032008  -0.032504   0.005050
    20  C    0.378176   4.908625   0.373577   0.371576   0.379518  -0.037464
    21  C   -0.033453   0.373577   4.933032  -0.025612  -0.036202   0.364593
    22  H   -0.032008   0.371576  -0.025612   0.630830  -0.031990  -0.003961
    23  H   -0.032504   0.379518  -0.036202  -0.031990   0.616041  -0.003789
    24  H    0.005050  -0.037464   0.364593  -0.003961  -0.003789   0.624539
    25  H   -0.005803  -0.035240   0.357388  -0.002379   0.005620  -0.034110
    26  C   -0.004215  -0.036642   0.367236   0.004062  -0.008289  -0.025612
    27  C    0.002665  -0.008379  -0.043943   0.000215  -0.001032   0.004962
    28  H   -0.000050   0.005189  -0.044771  -0.000138   0.000374  -0.005960
    29  H   -0.000161  -0.000395  -0.000269  -0.000028   0.000089   0.000076
    30  H    0.001677   0.004402  -0.008166  -0.000125   0.001189  -0.000107
    31  O   -0.000103  -0.006041  -0.032834   0.000112   0.009889  -0.005798
    32  C   -0.000040   0.000387  -0.005626  -0.000035   0.000788   0.003795
    33  O   -0.000003   0.000054  -0.005802   0.000002  -0.000031   0.009196
    34  C   -0.000001  -0.000011  -0.000505   0.000000  -0.000000   0.000095
    35  H   -0.000000   0.000001   0.000007  -0.000000  -0.000003  -0.000001
    36  H    0.000000   0.000001   0.000012   0.000000  -0.000003   0.000002
    37  H    0.000001   0.000008   0.000076  -0.000001   0.000281  -0.000059
    38  C   -0.000079   0.000089   0.004537  -0.000002  -0.000023  -0.000164
    39  H    0.000008   0.000003  -0.000146  -0.000000  -0.000000   0.000003
    40  H   -0.000000  -0.000006   0.000297   0.000000  -0.000003   0.000004
    41  H   -0.000001   0.000006  -0.000013   0.000000   0.000000  -0.000006
              25         26         27         28         29         30
     1  H    0.000000   0.000000   0.000000   0.000000  -0.000000   0.000000
     2  C   -0.000000  -0.000000  -0.000000  -0.000000  -0.000000   0.000000
     3  C   -0.000000   0.000000   0.000000  -0.000000   0.000000  -0.000001
     4  H   -0.000000   0.000000   0.000000   0.000000   0.000000  -0.000000
     5  H   -0.000000  -0.000000  -0.000000   0.000000   0.000000  -0.000000
     6  H    0.000000  -0.000000  -0.000000   0.000000  -0.000000   0.000000
     7  H   -0.000000   0.000000  -0.000000  -0.000000   0.000000  -0.000002
     8  C    0.000000  -0.000001   0.000042   0.000000   0.000021   0.000013
     9  C   -0.000002   0.000062  -0.000555  -0.000000   0.000782   0.000158
    10  H   -0.000000   0.000000  -0.000001  -0.000000  -0.000001   0.000002
    11  H   -0.000003   0.000046   0.000469   0.000000   0.001720  -0.000403
    12  H    0.000000   0.000040   0.000261  -0.000000  -0.000429   0.002703
    13  O   -0.000000   0.000000  -0.000000  -0.000000  -0.000001   0.000000
    14  H    0.000000  -0.000000   0.000000   0.000000   0.000000  -0.000000
    15  C   -0.000010   0.000033  -0.001402  -0.000002  -0.000996  -0.000059
    16  H   -0.000001   0.000002   0.000014   0.000000  -0.000006   0.000084
    17  H   -0.000000   0.000000   0.000026   0.000000   0.000007   0.000017
    18  H    0.000296  -0.000334   0.001015   0.000003   0.003013   0.000261
    19  H   -0.005803  -0.004215   0.002665  -0.000050  -0.000161   0.001677
    20  C   -0.035240  -0.036642  -0.008379   0.005189  -0.000395   0.004402
    21  C    0.357388   0.367236  -0.043943  -0.044771  -0.000269  -0.008166
    22  H   -0.002379   0.004062   0.000215  -0.000138  -0.000028  -0.000125
    23  H    0.005620  -0.008289  -0.001032   0.000374   0.000089   0.001189
    24  H   -0.034110  -0.025612   0.004962  -0.005960   0.000076  -0.000107
    25  H    0.659319  -0.030410  -0.003394   0.000419   0.003223   0.000077
    26  C   -0.030410   4.780734   0.367348   0.357729  -0.035679  -0.028416
    27  C   -0.003394   0.367348   4.916274  -0.047017   0.366345   0.367763
    28  H    0.000419   0.357729  -0.047017   0.660156  -0.000982   0.006157
    29  H    0.003223  -0.035679   0.366345  -0.000982   0.646523  -0.039392
    30  H    0.000077  -0.028416   0.367763   0.006157  -0.039392   0.635374
    31  O    0.003125   0.163862  -0.043586  -0.036525   0.003127  -0.001473
    32  C    0.000116  -0.002535   0.004290  -0.004783  -0.000036  -0.000188
    33  O    0.000036  -0.002806   0.000768   0.016723   0.000012  -0.000009
    34  C    0.000006   0.005559  -0.000248   0.000951   0.000007  -0.000007
    35  H    0.000000  -0.000170  -0.000014  -0.000054   0.000000   0.000006
    36  H   -0.000000  -0.000190   0.000003   0.000014  -0.000000   0.000000
    37  H   -0.000001  -0.000153  -0.000016  -0.000008  -0.000000   0.000002
    38  C   -0.000040  -0.029554   0.369615  -0.006968  -0.033796  -0.037610
    39  H   -0.000004   0.003690  -0.026066  -0.000019  -0.003343  -0.003683
    40  H   -0.000007  -0.008388  -0.033985  -0.000043   0.005545  -0.004456
    41  H   -0.000005  -0.003922  -0.034160   0.005789  -0.005029   0.005449
              31         32         33         34         35         36
     1  H   -0.000000   0.000000   0.000000   0.000000  -0.000000  -0.000000
     2  C    0.000000   0.000000   0.000000  -0.000000  -0.000000   0.000000
     3  C   -0.000000   0.000000  -0.000000  -0.000000   0.000000   0.000000
     4  H   -0.000000  -0.000000  -0.000000   0.000000   0.000000   0.000000
     5  H    0.000000  -0.000000   0.000000   0.000000   0.000000  -0.000000
     6  H    0.000000  -0.000000   0.000000   0.000000  -0.000000  -0.000000
     7  H    0.000000   0.000000   0.000000  -0.000000  -0.000000  -0.000000
     8  C    0.000000  -0.000000  -0.000000   0.000000   0.000000  -0.000000
     9  C    0.000000   0.000000   0.000000   0.000000  -0.000000  -0.000000
    10  H    0.000000  -0.000000   0.000000   0.000000  -0.000000   0.000000
    11  H   -0.000000   0.000000   0.000000   0.000000  -0.000000  -0.000000
    12  H   -0.000001  -0.000000  -0.000000  -0.000000   0.000000   0.000000
    13  O    0.000000   0.000000   0.000000  -0.000000  -0.000000  -0.000000
    14  H    0.000000  -0.000000  -0.000000   0.000000   0.000000  -0.000000
    15  C   -0.000000  -0.000000  -0.000000  -0.000000  -0.000000   0.000000
    16  H    0.000000   0.000000  -0.000000   0.000000   0.000000  -0.000000
    17  H    0.000000  -0.000000  -0.000000   0.000000   0.000000  -0.000000
    18  H    0.000002  -0.000000   0.000000   0.000000   0.000000  -0.000000
    19  H   -0.000103  -0.000040  -0.000003  -0.000001  -0.000000   0.000000
    20  C   -0.006041   0.000387   0.000054  -0.000011   0.000001   0.000001
    21  C   -0.032834  -0.005626  -0.005802  -0.000505   0.000007   0.000012
    22  H    0.000112  -0.000035   0.000002   0.000000  -0.000000   0.000000
    23  H    0.009889   0.000788  -0.000031  -0.000000  -0.000003  -0.000003
    24  H   -0.005798   0.003795   0.009196   0.000095  -0.000001   0.000002
    25  H    0.003125   0.000116   0.000036   0.000006   0.000000  -0.000000
    26  C    0.163862  -0.002535  -0.002806   0.005559  -0.000170  -0.000190
    27  C   -0.043586   0.004290   0.000768  -0.000248  -0.000014   0.000003
    28  H   -0.036525  -0.004783   0.016723   0.000951  -0.000054   0.000014
    29  H    0.003127  -0.000036   0.000012   0.000007   0.000000  -0.000000
    30  H   -0.001473  -0.000188  -0.000009  -0.000007   0.000006   0.000000
    31  O    8.312485   0.218095  -0.071797  -0.093307   0.002787   0.003560
    32  C    0.218095   4.405679   0.538701   0.351777  -0.018703  -0.020815
    33  O   -0.071797   0.538701   8.021433  -0.068743   0.001417   0.003581
    34  C   -0.093307   0.351777  -0.068743   5.074702   0.357655   0.359219
    35  H    0.002787  -0.018703   0.001417   0.357655   0.582451  -0.025000
    36  H    0.003560  -0.020815   0.003581   0.359219  -0.025000   0.579804
    37  H    0.002367  -0.020495   0.001035   0.360794  -0.025966  -0.024745
    38  C   -0.003671   0.000269  -0.000064  -0.000062   0.000005   0.000000
    39  H    0.000129  -0.000004  -0.000000  -0.000000  -0.000001   0.000000
    40  H    0.009961   0.000212   0.000005   0.000037   0.000324  -0.000002
    41  H   -0.000279  -0.000003  -0.000008  -0.000002   0.000001   0.000000
              37         38         39         40         41
     1  H    0.000000   0.000000  -0.000000  -0.000000  -0.000000
     2  C    0.000000  -0.000000   0.000000  -0.000000   0.000000
     3  C    0.000000  -0.000000  -0.000002   0.000000   0.000000
     4  H    0.000000  -0.000000   0.000000   0.000000   0.000000
     5  H   -0.000000  -0.000000   0.000000   0.000000  -0.000000
     6  H    0.000000   0.000000  -0.000000  -0.000000  -0.000000
     7  H   -0.000000  -0.000001   0.000001   0.000000   0.000000
     8  C   -0.000000   0.000010  -0.000149   0.000000   0.000000
     9  C   -0.000000  -0.001102   0.001170   0.000016   0.000014
    10  H   -0.000000   0.000000   0.000137  -0.000000  -0.000000
    11  H   -0.000000  -0.000371   0.001618   0.000004   0.000008
    12  H   -0.000000  -0.000315   0.001781   0.000020  -0.000001
    13  O   -0.000000   0.000000  -0.000000   0.000000   0.000000
    14  H    0.000000   0.000000  -0.000000  -0.000000  -0.000000
    15  C    0.000000   0.000151  -0.000028  -0.000006  -0.000003
    16  H    0.000000  -0.000007   0.000003   0.000000   0.000000
    17  H   -0.000000  -0.000004   0.000002   0.000000   0.000000
    18  H   -0.000000  -0.000029  -0.000023   0.000003  -0.000000
    19  H    0.000001  -0.000079   0.000008  -0.000000  -0.000001
    20  C    0.000008   0.000089   0.000003  -0.000006   0.000006
    21  C    0.000076   0.004537  -0.000146   0.000297  -0.000013
    22  H   -0.000001  -0.000002  -0.000000   0.000000   0.000000
    23  H    0.000281  -0.000023  -0.000000  -0.000003   0.000000
    24  H   -0.000059  -0.000164   0.000003   0.000004  -0.000006
    25  H   -0.000001  -0.000040  -0.000004  -0.000007  -0.000005
    26  C   -0.000153  -0.029554   0.003690  -0.008388  -0.003922
    27  C   -0.000016   0.369615  -0.026066  -0.033985  -0.034160
    28  H   -0.000008  -0.006968  -0.000019  -0.000043   0.005789
    29  H   -0.000000  -0.033796  -0.003343   0.005545  -0.005029
    30  H    0.000002  -0.037610  -0.003683  -0.004456   0.005449
    31  O    0.002367  -0.003671   0.000129   0.009961  -0.000279
    32  C   -0.020495   0.000269  -0.000004   0.000212  -0.000003
    33  O    0.001035  -0.000064  -0.000000   0.000005  -0.000008
    34  C    0.360794  -0.000062  -0.000000   0.000037  -0.000002
    35  H   -0.025966   0.000005  -0.000001   0.000324   0.000001
    36  H   -0.024745   0.000000   0.000000  -0.000002   0.000000
    37  H    0.580347   0.000002  -0.000000  -0.000004   0.000000
    38  C    0.000002   4.910450   0.369568   0.378813   0.377497
    39  H   -0.000000   0.369568   0.627564  -0.031349  -0.032153
    40  H   -0.000004   0.378813  -0.031349   0.612475  -0.032559
    41  H    0.000000   0.377497  -0.032153  -0.032559   0.627087
 Mulliken charges:
               1
     1  H    0.098344
     2  C   -0.279948
     3  C   -0.165307
     4  H    0.082673
     5  H    0.098171
     6  H    0.068065
     7  H    0.077552
     8  C    0.172825
     9  C   -0.146250
    10  H    0.051123
    11  H    0.091427
    12  H    0.079023
    13  O   -0.507665
    14  H    0.286158
    15  C   -0.301102
    16  H    0.091153
    17  H    0.116915
    18  H    0.089320
    19  H    0.100753
    20  C   -0.296213
    21  C   -0.163674
    22  H    0.089476
    23  H    0.100084
    24  H    0.104716
    25  H    0.081785
    26  C    0.166911
    27  C   -0.158275
    28  H    0.093816
    29  H    0.090053
    30  H    0.098760
    31  O   -0.434089
    32  C    0.549152
    33  O   -0.443699
    34  C   -0.347915
    35  H    0.125258
    36  H    0.124558
    37  H    0.126535
    38  C   -0.297147
    39  H    0.091295
    40  H    0.103093
    41  H    0.092291
 Sum of Mulliken charges =  -0.00000
 Mulliken charges with hydrogens summed into heavy atoms:
               1
     2  C   -0.000760
     3  C   -0.019690
     8  C    0.223949
     9  C    0.024199
    13  O   -0.221508
    15  C   -0.003713
    20  C   -0.005900
    21  C    0.022827
    26  C    0.260728
    27  C    0.030538
    31  O   -0.434089
    32  C    0.549152
    33  O   -0.443699
    34  C    0.028435
    38  C   -0.010468
 Electronic spatial extent (au):  <R**2>=           7001.0148
 Charge=              0.0000 electrons
 Dipole moment (field-independent basis, Debye):
    X=              2.2407    Y=             -0.9374    Z=             -1.9172  Tot=              3.0943
 Quadrupole moment (field-independent basis, Debye-Ang):
   XX=            -99.3528   YY=            -94.3070   ZZ=            -96.2213
   XY=             -3.6943   XZ=              5.3828   YZ=              0.5966
 Traceless Quadrupole moment (field-independent basis, Debye-Ang):
   XX=             -2.7258   YY=              2.3201   ZZ=              0.4057
   XY=             -3.6943   XZ=              5.3828   YZ=              0.5966
 Octapole moment (field-independent basis, Debye-Ang**2):
  XXX=            133.5452  YYY=             -4.7015  ZZZ=              0.1759  XYY=             -7.4640
  XXY=            -37.2100  XXZ=            -54.6736  XZZ=            -18.8237  YZZ=             -2.1800
  YYZ=              2.2296  XYZ=             -6.7071
 Hexadecapole moment (field-independent basis, Debye-Ang**3):
 XXXX=          -7320.5945 YYYY=           -959.2489 ZZZZ=           -671.8228 XXXY=           -128.9736
 XXXZ=            325.1664 YYYX=             -8.3748 YYYZ=              4.1613 ZZZX=             26.2278
 ZZZY=             -0.2315 XXYY=          -1363.7732 XXZZ=          -1362.3756 YYZZ=           -269.6741
 XXYZ=              1.9502 YYXZ=             19.1130 ZZXY=              4.2072
 N-N= 1.034242601988D+03 E-N=-3.693308170557D+03  KE= 6.915667456646D+02
 No NMR shielding tensors so no spin-rotation constants.
 Leave Link  601 at Tue Jan 24 02:46:24 2023, MaxMem=   131072000 cpu:               1.1 elap:               0.2
 (Enter /dragofs/sw/campus/0.2/software/gaussian/16.gaussian/gaussian/g16_legacy/l9999.exe)
 1\1\GINC-DRAGO31070240\FOpt\RBLYP\6-31G(d,p)\C12H26O3\JRAMOS\24-Jan-20
 23\0\\#p opt blyp/6-31G** EmpiricalDispersion=GD3\\Conformer number 06
 6. Energy MM = 0.000 kcal/mol\\0,1\H,21.779115315,18.8866246626,24.838
 0171573\C,22.7878057251,18.5892762569,25.156415988\C,23.1194257813,19.
 0802108358,26.582622476\H,22.8448491381,17.4906115103,25.0993119457\H,
 23.5017743811,19.0119636358,24.4334477315\H,24.0231281068,18.545286725
 4,26.9343171408\H,22.3168310652,18.8013728477,27.2889025788\C,23.40790
 56436,20.6008837163,26.7368188532\C,22.1987411078,21.5599081769,26.634
 303759\H,23.8196351817,20.7365985242,27.7614596339\H,22.5641162982,22.
 555326005,26.9406269733\H,21.4575539354,21.2560311038,27.393580581\O,2
 4.3781076325,21.0620434686,25.7628688828\H,25.1587128853,20.4790781372
 ,25.8377909364\C,21.5316076966,21.6871724679,25.2468399144\H,20.920554
 6897,20.807815427,24.9961100777\H,22.2940163397,21.8080608258,24.46400
 12202\H,20.8686002886,22.5660554054,25.2190191395\H,18.4190919885,22.7
 838215357,25.4309094417\C,17.5505084591,23.4400714893,25.598025155\C,1
 7.9546762913,24.7833567083,26.2419310734\H,17.067608156,23.6058943193,
 24.6223952459\H,16.8403782943,22.8999832608,26.2433044305\H,17.0870192
 01,25.4610976748,26.2796776107\H,18.721238925,25.2872798,25.6260821636
 \C,18.5111907452,24.6680465101,27.6778356713\C,19.7753414111,23.807743
 4833,27.8189576888\H,18.6916907205,25.6817498115,28.0726788379\H,20.51
 96361267,24.1834323541,27.0957164844\H,19.5417610929,22.7742679027,27.
 5172431697\O,17.4949891248,24.0315471399,28.5508341571\C,16.5081521918
 ,24.844084919,29.0490639778\O,16.412485408,26.0432825841,28.8193355178
 \C,15.5577916492,24.0332998599,29.9207460214\H,16.114704996,23.5364985
 656,30.7299002954\H,14.792971089,24.6967817993,30.341181616\H,15.07962
 11871,23.2440800508,29.3198654292\C,20.3669339846,23.8159350053,29.242
 0921905\H,21.2634208459,23.1791916249,29.2998729647\H,19.6297410873,23
 .4416436868,29.9686068495\H,20.654565813,24.8355901817,29.5482890181\\
 Version=EM64L-G16RevA.03\State=1-A\HF=-698.3520577\RMSD=4.820e-09\RMSF
 =1.207e-06\Dipole=0.4275444,-1.116136,0.2313524\Quadrupole=3.7590216,-
 4.1919856,0.4329641,1.6494358,1.157587,-2.7087385\PG=C01 [X(C12H26O3)]
 \\@


 There are more things in heaven and earth, Horatio,
 than are dreamt of in your philosophy.
                   -- Hamlet, Act I, Scene 5
 Job cpu time:       0 days  5 hours 45 minutes 33.1 seconds.
 Elapsed time:       0 days  0 hours 44 minutes  1.9 seconds.
 File lengths (MBytes):  RWF=     84 Int=      0 D2E=      0 Chk=     11 Scr=      1
 Normal termination of Gaussian 16 at Tue Jan 24 02:46:24 2023.
