 Entering Gaussian System, Link 0=/dragofs/sw/campus/0.2/software/gaussian/16.gaussian/gaussian/g16_legacy/g16
 Input=C12H26O3_pair_058_089.com
 Output=C12H26O3_pair_058_089.log
 Initial command:
 /dragofs/sw/campus/0.2/software/gaussian/16.gaussian/gaussian/g16_legacy/l1.exe "/tmp/jramos/38805/Gau-2837129.inp" -scrdir="/tmp/jramos/38805/"
 Entering Link 1 = /dragofs/sw/campus/0.2/software/gaussian/16.gaussian/gaussian/g16_legacy/l1.exe PID=   2837130.
  
 Copyright (c) 1988,1990,1992,1993,1995,1998,2003,2009,2016,
            Gaussian, Inc.  All Rights Reserved.
  
 This is part of the Gaussian(R) 16 program.  It is based on
 the Gaussian(R) 09 system (copyright 2009, Gaussian, Inc.),
 the Gaussian(R) 03 system (copyright 2003, Gaussian, Inc.),
 the Gaussian(R) 98 system (copyright 1998, Gaussian, Inc.),
 the Gaussian(R) 94 system (copyright 1995, Gaussian, Inc.),
 the Gaussian 92(TM) system (copyright 1992, Gaussian, Inc.),
 the Gaussian 90(TM) system (copyright 1990, Gaussian, Inc.),
 the Gaussian 88(TM) system (copyright 1988, Gaussian, Inc.),
 the Gaussian 86(TM) system (copyright 1986, Carnegie Mellon
 University), and the Gaussian 82(TM) system (copyright 1983,
 Carnegie Mellon University). Gaussian is a federally registered
 trademark of Gaussian, Inc.
  
 This software contains proprietary and confidential information,
 including trade secrets, belonging to Gaussian, Inc.
  
 This software is provided under written license and may be
 used, copied, transmitted, or stored only in accord with that
 written license.
  
 The following legend is applicable only to US Government
 contracts under FAR:
  
                    RESTRICTED RIGHTS LEGEND
  
 Use, reproduction and disclosure by the US Government is
 subject to restrictions as set forth in subparagraphs (a)
 and (c) of the Commercial Computer Software - Restricted
 Rights clause in FAR 52.227-19.
  
 Gaussian, Inc.
 340 Quinnipiac St., Bldg. 40, Wallingford CT 06492
  
  
 ---------------------------------------------------------------
 Warning -- This program may not be used in any manner that
 competes with the business of Gaussian, Inc. or will provide
 assistance to any competitor of Gaussian, Inc.  The licensee
 of this program is prohibited from giving any competitor of
 Gaussian, Inc. access to this program.  By using this program,
 the user acknowledges that Gaussian, Inc. is engaged in the
 business of creating and licensing software in the field of
 computational chemistry and represents and warrants to the
 licensee that it is not a competitor of Gaussian, Inc. and that
 it will not use this program in any manner prohibited above.
 ---------------------------------------------------------------
  

 Cite this work as:
 Gaussian 16, Revision A.03,
 M. J. Frisch, G. W. Trucks, H. B. Schlegel, G. E. Scuseria, 
 M. A. Robb, J. R. Cheeseman, G. Scalmani, V. Barone, 
 G. A. Petersson, H. Nakatsuji, X. Li, M. Caricato, A. V. Marenich, 
 J. Bloino, B. G. Janesko, R. Gomperts, B. Mennucci, H. P. Hratchian, 
 J. V. Ortiz, A. F. Izmaylov, J. L. Sonnenberg, D. Williams-Young, 
 F. Ding, F. Lipparini, F. Egidi, J. Goings, B. Peng, A. Petrone, 
 T. Henderson, D. Ranasinghe, V. G. Zakrzewski, J. Gao, N. Rega, 
 G. Zheng, W. Liang, M. Hada, M. Ehara, K. Toyota, R. Fukuda, 
 J. Hasegawa, M. Ishida, T. Nakajima, Y. Honda, O. Kitao, H. Nakai, 
 T. Vreven, K. Throssell, J. A. Montgomery, Jr., J. E. Peralta, 
 F. Ogliaro, M. J. Bearpark, J. J. Heyd, E. N. Brothers, K. N. Kudin, 
 V. N. Staroverov, T. A. Keith, R. Kobayashi, J. Normand, 
 K. Raghavachari, A. P. Rendell, J. C. Burant, S. S. Iyengar, 
 J. Tomasi, M. Cossi, J. M. Millam, M. Klene, C. Adamo, R. Cammi, 
 J. W. Ochterski, R. L. Martin, K. Morokuma, O. Farkas, 
 J. B. Foresman, and D. J. Fox, Gaussian, Inc., Wallingford CT, 2016.
 
 ******************************************
 Gaussian 16:  EM64L-G16RevA.03 25-Dec-2016
                24-Jan-2023 
 ******************************************
 %chk=C12H26O3_pair_058_089.chk
 %nproc=8
 Will use up to    8 processors via shared memory.
 %mem=1000Mb
 -------------------------------------------
 #p opt blyp/6-31G** EmpiricalDispersion=GD3
 -------------------------------------------
 1/18=20,19=15,26=3,38=1/1,3;
 2/9=110,12=2,17=6,18=5,40=1/2;
 3/5=1,6=6,7=101,11=2,25=1,30=1,71=1,74=402,124=31/1,2,3;
 4//1;
 5/5=2,38=5/2;
 6/7=2,8=2,9=2,10=2,28=1/1;
 7//1,2,3,16;
 1/18=20,19=15,26=3/3(2);
 2/9=110/2;
 99//99;
 2/9=110/2;
 3/5=1,6=6,7=101,11=2,25=1,30=1,71=1,74=402,124=31/1,2,3;
 4/5=5,16=3,69=1/1;
 5/5=2,38=5/2;
 7//1,2,3,16;
 1/18=20,19=15,26=3/3(-5);
 2/9=110/2;
 6/7=2,8=2,9=2,10=2,19=2,28=1/1;
 99/9=1/99;
 Leave Link    1 at Tue Jan 24 08:14:56 2023, MaxMem=   131072000 cpu:               0.2 elap:               0.0
 (Enter /dragofs/sw/campus/0.2/software/gaussian/16.gaussian/gaussian/g16_legacy/l101.exe)
 ------------------------------------------------
 Conformer number 239. Energy MM = 0.000 kcal/mol
 ------------------------------------------------
 Symbolic Z-matrix:
 Charge =  0 Multiplicity = 1
 H                     6.116     21.259    5.569 
 C                     5.467     22.132    5.492 
 C                     4.108     21.734    6.085 
 H                     5.993     22.934    5.997 
 H                     5.43      22.296    4.371 
 H                     4.247     21.43     7.153 
 H                     3.85      20.721    5.616 
 C                     3.036     22.79     6.012 
 C                     1.66      22.368    6.469 
 H                     3.292     23.592    6.68 
 H                     1.728     22.132    7.554 
 H                     1.463     21.344    5.93 
 O                     3.137     23.325    4.703 
 H                     3.935     23.868    4.652 
 C                     0.582     23.448    6.135 
 H                     0.805     24.417    6.558 
 H                    -0.538     23.287    6.38 
 H                     0.561     23.666    5.011 
 H                     3.641     21.586    10.646 
 C                     3.432     22.511    10.078 
 C                     3.593     23.665    11.089 
 H                     4.13      22.73     9.211 
 H                     2.365     22.484    9.711 
 H                     2.823     23.651    11.883 
 H                     3.463     24.524    10.458 
 C                     4.882     23.795    11.704 
 C                     5.11      24.855    12.654 
 H                     5.065     22.885    12.261 
 H                     4.272     25.038    13.344 
 H                     5.197     25.726    11.992 
 O                     5.795     23.991    10.602 
 C                     6.647     23.029    10.174 
 O                     6.705     21.899    10.577 
 C                     7.484     23.697    9.08 
 H                     6.873     24.528    8.708 
 H                     8.389     23.933    9.604 
 H                     7.598     23.121    8.151 
 C                     6.426     24.803    13.471 
 H                     6.499     25.665    14.092 
 H                     7.379     24.729    12.851 
 H                     6.366     23.899    14.186 
 
 Add virtual bond connecting atoms H23        and H11        Dist= 4.30D+00.
 ITRead=  0  0  0  0  0  0  0  0  0  0  0  0  0  0  0  0  0  0  0  0
 ITRead=  0  0  0  0  0  0  0  0  0  0  0  0  0  0  0  0  0  0  0  0
 ITRead=  0
 MicOpt= -1 -1 -1 -1 -1 -1 -1 -1 -1 -1 -1 -1 -1 -1 -1 -1 -1 -1 -1 -1
 MicOpt= -1 -1 -1 -1 -1 -1 -1 -1 -1 -1 -1 -1 -1 -1 -1 -1 -1 -1 -1 -1
 MicOpt= -1
 NAtoms=     41 NQM=       41 NQMF=       0 NMMI=      0 NMMIF=      0
                NMic=       0 NMicF=      0.
                    Isotopes and Nuclear Properties:
 (Nuclear quadrupole moments (NQMom) in fm**2, nuclear magnetic moments (NMagM)
  in nuclear magnetons)

  Atom         1           2           3           4           5           6           7           8           9          10
 IAtWgt=           1          12          12           1           1           1           1          12          12           1
 AtmWgt=   1.0078250  12.0000000  12.0000000   1.0078250   1.0078250   1.0078250   1.0078250  12.0000000  12.0000000   1.0078250
 NucSpn=           1           0           0           1           1           1           1           0           0           1
 AtZEff=  -0.0000000  -0.0000000  -0.0000000  -0.0000000  -0.0000000  -0.0000000  -0.0000000  -0.0000000  -0.0000000  -0.0000000
 NQMom=    0.0000000   0.0000000   0.0000000   0.0000000   0.0000000   0.0000000   0.0000000   0.0000000   0.0000000   0.0000000
 NMagM=    2.7928460   0.0000000   0.0000000   2.7928460   2.7928460   2.7928460   2.7928460   0.0000000   0.0000000   2.7928460
 AtZNuc=   1.0000000   6.0000000   6.0000000   1.0000000   1.0000000   1.0000000   1.0000000   6.0000000   6.0000000   1.0000000

  Atom        11          12          13          14          15          16          17          18          19          20
 IAtWgt=           1           1          16           1          12           1           1           1           1          12
 AtmWgt=   1.0078250   1.0078250  15.9949146   1.0078250  12.0000000   1.0078250   1.0078250   1.0078250   1.0078250  12.0000000
 NucSpn=           1           1           0           1           0           1           1           1           1           0
 AtZEff=  -0.0000000  -0.0000000  -0.0000000  -0.0000000  -0.0000000  -0.0000000  -0.0000000  -0.0000000  -0.0000000  -0.0000000
 NQMom=    0.0000000   0.0000000   0.0000000   0.0000000   0.0000000   0.0000000   0.0000000   0.0000000   0.0000000   0.0000000
 NMagM=    2.7928460   2.7928460   0.0000000   2.7928460   0.0000000   2.7928460   2.7928460   2.7928460   2.7928460   0.0000000
 AtZNuc=   1.0000000   1.0000000   8.0000000   1.0000000   6.0000000   1.0000000   1.0000000   1.0000000   1.0000000   6.0000000

  Atom        21          22          23          24          25          26          27          28          29          30
 IAtWgt=          12           1           1           1           1          12          12           1           1           1
 AtmWgt=  12.0000000   1.0078250   1.0078250   1.0078250   1.0078250  12.0000000  12.0000000   1.0078250   1.0078250   1.0078250
 NucSpn=           0           1           1           1           1           0           0           1           1           1
 AtZEff=  -0.0000000  -0.0000000  -0.0000000  -0.0000000  -0.0000000  -0.0000000  -0.0000000  -0.0000000  -0.0000000  -0.0000000
 NQMom=    0.0000000   0.0000000   0.0000000   0.0000000   0.0000000   0.0000000   0.0000000   0.0000000   0.0000000   0.0000000
 NMagM=    0.0000000   2.7928460   2.7928460   2.7928460   2.7928460   0.0000000   0.0000000   2.7928460   2.7928460   2.7928460
 AtZNuc=   6.0000000   1.0000000   1.0000000   1.0000000   1.0000000   6.0000000   6.0000000   1.0000000   1.0000000   1.0000000

  Atom        31          32          33          34          35          36          37          38          39          40
 IAtWgt=          16          12          16          12           1           1           1          12           1           1
 AtmWgt=  15.9949146  12.0000000  15.9949146  12.0000000   1.0078250   1.0078250   1.0078250  12.0000000   1.0078250   1.0078250
 NucSpn=           0           0           0           0           1           1           1           0           1           1
 AtZEff=  -0.0000000  -0.0000000  -0.0000000  -0.0000000  -0.0000000  -0.0000000  -0.0000000  -0.0000000  -0.0000000  -0.0000000
 NQMom=    0.0000000   0.0000000   0.0000000   0.0000000   0.0000000   0.0000000   0.0000000   0.0000000   0.0000000   0.0000000
 NMagM=    0.0000000   0.0000000   0.0000000   0.0000000   2.7928460   2.7928460   2.7928460   0.0000000   2.7928460   2.7928460
 AtZNuc=   8.0000000   6.0000000   8.0000000   6.0000000   1.0000000   1.0000000   1.0000000   6.0000000   1.0000000   1.0000000

  Atom        41
 IAtWgt=           1
 AtmWgt=   1.0078250
 NucSpn=           1
 AtZEff=  -0.0000000
 NQMom=    0.0000000
 NMagM=    2.7928460
 AtZNuc=   1.0000000
 Leave Link  101 at Tue Jan 24 08:14:56 2023, MaxMem=   131072000 cpu:               0.9 elap:               0.1
 (Enter /dragofs/sw/campus/0.2/software/gaussian/16.gaussian/gaussian/g16_legacy/l103.exe)

 GradGradGradGradGradGradGradGradGradGradGradGradGradGradGradGradGradGrad
 Berny optimization.
 Initialization pass.
                           ----------------------------
                           !    Initial Parameters    !
                           ! (Angstroms and Degrees)  !
 --------------------------                            --------------------------
 ! Name  Definition              Value          Derivative Info.                !
 --------------------------------------------------------------------------------
 ! R1    R(1,2)                  1.0905         estimate D2E/DX2                !
 ! R2    R(2,3)                  1.5352         estimate D2E/DX2                !
 ! R3    R(2,4)                  1.0839         estimate D2E/DX2                !
 ! R4    R(2,5)                  1.1335         estimate D2E/DX2                !
 ! R5    R(3,6)                  1.1191         estimate D2E/DX2                !
 ! R6    R(3,7)                  1.1457         estimate D2E/DX2                !
 ! R7    R(3,8)                  1.5065         estimate D2E/DX2                !
 ! R8    R(8,9)                  1.5101         estimate D2E/DX2                !
 ! R9    R(8,10)                 1.0747         estimate D2E/DX2                !
 ! R10   R(8,13)                 1.4177         estimate D2E/DX2                !
 ! R11   R(9,11)                 1.1124         estimate D2E/DX2                !
 ! R12   R(9,12)                 1.1738         estimate D2E/DX2                !
 ! R13   R(9,15)                 1.5621         estimate D2E/DX2                !
 ! R14   R(11,23)                2.2765         estimate D2E/DX2                !
 ! R15   R(13,14)                0.9666         estimate D2E/DX2                !
 ! R16   R(15,16)                1.0806         estimate D2E/DX2                !
 ! R17   R(15,17)                1.1577         estimate D2E/DX2                !
 ! R18   R(15,18)                1.1451         estimate D2E/DX2                !
 ! R19   R(19,20)                1.1054         estimate D2E/DX2                !
 ! R20   R(20,21)                1.5426         estimate D2E/DX2                !
 ! R21   R(20,22)                1.1344         estimate D2E/DX2                !
 ! R22   R(20,23)                1.1287         estimate D2E/DX2                !
 ! R23   R(21,24)                1.1061         estimate D2E/DX2                !
 ! R24   R(21,25)                1.0738         estimate D2E/DX2                !
 ! R25   R(21,26)                1.4341         estimate D2E/DX2                !
 ! R26   R(26,27)                1.4416         estimate D2E/DX2                !
 ! R27   R(26,28)                1.0825         estimate D2E/DX2                !
 ! R28   R(26,31)                1.4444         estimate D2E/DX2                !
 ! R29   R(27,29)                1.1008         estimate D2E/DX2                !
 ! R30   R(27,30)                1.0975         estimate D2E/DX2                !
 ! R31   R(27,38)                1.5499         estimate D2E/DX2                !
 ! R32   R(31,32)                1.3544         estimate D2E/DX2                !
 ! R33   R(32,33)                1.2011         estimate D2E/DX2                !
 ! R34   R(32,34)                1.5309         estimate D2E/DX2                !
 ! R35   R(34,35)                1.0965         estimate D2E/DX2                !
 ! R36   R(34,36)                1.0721         estimate D2E/DX2                !
 ! R37   R(34,37)                1.099          estimate D2E/DX2                !
 ! R38   R(38,39)                1.0649         estimate D2E/DX2                !
 ! R39   R(38,40)                1.1393         estimate D2E/DX2                !
 ! R40   R(38,41)                1.1541         estimate D2E/DX2                !
 ! A1    A(1,2,3)              106.9779         estimate D2E/DX2                !
 ! A2    A(1,2,4)              105.7011         estimate D2E/DX2                !
 ! A3    A(1,2,5)              101.8337         estimate D2E/DX2                !
 ! A4    A(3,2,4)              116.1947         estimate D2E/DX2                !
 ! A5    A(3,2,5)              112.992          estimate D2E/DX2                !
 ! A6    A(4,2,5)              111.687          estimate D2E/DX2                !
 ! A7    A(2,3,6)              109.2142         estimate D2E/DX2                !
 ! A8    A(2,3,7)              105.69           estimate D2E/DX2                !
 ! A9    A(2,3,8)              115.4328         estimate D2E/DX2                !
 ! A10   A(6,3,7)              100.2794         estimate D2E/DX2                !
 ! A11   A(6,3,8)              108.9678         estimate D2E/DX2                !
 ! A12   A(7,3,8)              116.0832         estimate D2E/DX2                !
 ! A13   A(3,8,9)              115.9663         estimate D2E/DX2                !
 ! A14   A(3,8,10)             108.8728         estimate D2E/DX2                !
 ! A15   A(3,8,13)             104.9847         estimate D2E/DX2                !
 ! A16   A(9,8,10)             103.7388         estimate D2E/DX2                !
 ! A17   A(9,8,13)             116.7311         estimate D2E/DX2                !
 ! A18   A(10,8,13)            105.9814         estimate D2E/DX2                !
 ! A19   A(8,9,11)             107.3828         estimate D2E/DX2                !
 ! A20   A(8,9,12)             104.9364         estimate D2E/DX2                !
 ! A21   A(8,9,15)             111.7722         estimate D2E/DX2                !
 ! A22   A(11,9,12)            105.8453         estimate D2E/DX2                !
 ! A23   A(11,9,15)            113.4159         estimate D2E/DX2                !
 ! A24   A(12,9,15)            112.9008         estimate D2E/DX2                !
 ! A25   A(9,11,23)            155.2907         estimate D2E/DX2                !
 ! A26   A(8,13,14)            108.6347         estimate D2E/DX2                !
 ! A27   A(9,15,16)            113.1965         estimate D2E/DX2                !
 ! A28   A(9,15,17)            121.7507         estimate D2E/DX2                !
 ! A29   A(9,15,18)            110.7413         estimate D2E/DX2                !
 ! A30   A(16,15,17)           103.9759         estimate D2E/DX2                !
 ! A31   A(16,15,18)           102.5508         estimate D2E/DX2                !
 ! A32   A(17,15,18)           102.5004         estimate D2E/DX2                !
 ! A33   A(19,20,21)           105.634          estimate D2E/DX2                !
 ! A34   A(19,20,22)           115.9717         estimate D2E/DX2                !
 ! A35   A(19,20,23)           109.0141         estimate D2E/DX2                !
 ! A36   A(21,20,22)           106.9928         estimate D2E/DX2                !
 ! A37   A(21,20,23)           109.248          estimate D2E/DX2                !
 ! A38   A(22,20,23)           109.7421         estimate D2E/DX2                !
 ! A39   A(20,21,24)           112.8496         estimate D2E/DX2                !
 ! A40   A(20,21,25)           101.5769         estimate D2E/DX2                !
 ! A41   A(20,21,26)           116.2741         estimate D2E/DX2                !
 ! A42   A(24,21,25)           110.3453         estimate D2E/DX2                !
 ! A43   A(24,21,26)           108.6028         estimate D2E/DX2                !
 ! A44   A(25,21,26)           106.757          estimate D2E/DX2                !
 ! A45   A(11,23,20)           125.1923         estimate D2E/DX2                !
 ! A46   A(21,26,27)           119.4343         estimate D2E/DX2                !
 ! A47   A(21,26,28)           107.2415         estimate D2E/DX2                !
 ! A48   A(21,26,31)           104.6702         estimate D2E/DX2                !
 ! A49   A(27,26,28)           104.6141         estimate D2E/DX2                !
 ! A50   A(27,26,31)           107.6396         estimate D2E/DX2                !
 ! A51   A(28,26,31)           113.5641         estimate D2E/DX2                !
 ! A52   A(26,27,29)           114.5133         estimate D2E/DX2                !
 ! A53   A(26,27,30)           101.455          estimate D2E/DX2                !
 ! A54   A(26,27,38)           117.1951         estimate D2E/DX2                !
 ! A55   A(29,27,30)           107.8484         estimate D2E/DX2                !
 ! A56   A(29,27,38)           108.7563         estimate D2E/DX2                !
 ! A57   A(30,27,38)           106.0987         estimate D2E/DX2                !
 ! A58   A(26,31,32)           122.841          estimate D2E/DX2                !
 ! A59   A(31,32,33)           126.3384         estimate D2E/DX2                !
 ! A60   A(31,32,34)           105.0594         estimate D2E/DX2                !
 ! A61   A(33,32,34)           128.6001         estimate D2E/DX2                !
 ! A62   A(32,34,35)           105.5739         estimate D2E/DX2                !
 ! A63   A(32,34,36)           102.0233         estimate D2E/DX2                !
 ! A64   A(32,34,37)           115.6004         estimate D2E/DX2                !
 ! A65   A(35,34,36)           117.9951         estimate D2E/DX2                !
 ! A66   A(35,34,37)            99.6849         estimate D2E/DX2                !
 ! A67   A(36,34,37)           116.1666         estimate D2E/DX2                !
 ! A68   A(27,38,39)           109.7828         estimate D2E/DX2                !
 ! A69   A(27,38,40)           115.1861         estimate D2E/DX2                !
 ! A70   A(27,38,41)           107.9814         estimate D2E/DX2                !
 ! A71   A(39,38,40)           108.2144         estimate D2E/DX2                !
 ! A72   A(39,38,41)           106.0408         estimate D2E/DX2                !
 ! A73   A(40,38,41)           109.2526         estimate D2E/DX2                !
 ! D1    D(1,2,3,6)             59.7584         estimate D2E/DX2                !
 ! D2    D(1,2,3,7)            -47.3504         estimate D2E/DX2                !
 ! D3    D(1,2,3,8)           -177.0884         estimate D2E/DX2                !
 ! D4    D(4,2,3,6)            -57.9862         estimate D2E/DX2                !
 ! D5    D(4,2,3,7)           -165.095          estimate D2E/DX2                !
 ! D6    D(4,2,3,8)             65.1671         estimate D2E/DX2                !
 ! D7    D(5,2,3,6)            171.0101         estimate D2E/DX2                !
 ! D8    D(5,2,3,7)             63.9013         estimate D2E/DX2                !
 ! D9    D(5,2,3,8)            -65.8366         estimate D2E/DX2                !
 ! D10   D(2,3,8,9)            174.3133         estimate D2E/DX2                !
 ! D11   D(2,3,8,10)           -69.2216         estimate D2E/DX2                !
 ! D12   D(2,3,8,13)            43.9017         estimate D2E/DX2                !
 ! D13   D(6,3,8,9)            -62.4032         estimate D2E/DX2                !
 ! D14   D(6,3,8,10)            54.0619         estimate D2E/DX2                !
 ! D15   D(6,3,8,13)           167.1852         estimate D2E/DX2                !
 ! D16   D(7,3,8,9)             49.8278         estimate D2E/DX2                !
 ! D17   D(7,3,8,10)           166.293          estimate D2E/DX2                !
 ! D18   D(7,3,8,13)           -80.5838         estimate D2E/DX2                !
 ! D19   D(3,8,9,11)            64.4342         estimate D2E/DX2                !
 ! D20   D(3,8,9,12)           -47.876          estimate D2E/DX2                !
 ! D21   D(3,8,9,15)          -170.5751         estimate D2E/DX2                !
 ! D22   D(10,8,9,11)          -54.8705         estimate D2E/DX2                !
 ! D23   D(10,8,9,12)         -167.1807         estimate D2E/DX2                !
 ! D24   D(10,8,9,15)           70.1202         estimate D2E/DX2                !
 ! D25   D(13,8,9,11)         -171.0052         estimate D2E/DX2                !
 ! D26   D(13,8,9,12)           76.6846         estimate D2E/DX2                !
 ! D27   D(13,8,9,15)          -46.0146         estimate D2E/DX2                !
 ! D28   D(3,8,13,14)          -72.5983         estimate D2E/DX2                !
 ! D29   D(9,8,13,14)          157.4386         estimate D2E/DX2                !
 ! D30   D(10,8,13,14)          42.5508         estimate D2E/DX2                !
 ! D31   D(8,9,11,23)           44.8471         estimate D2E/DX2                !
 ! D32   D(12,9,11,23)         156.538          estimate D2E/DX2                !
 ! D33   D(15,9,11,23)         -79.1481         estimate D2E/DX2                !
 ! D34   D(8,9,15,16)          -56.889          estimate D2E/DX2                !
 ! D35   D(8,9,15,17)          178.0684         estimate D2E/DX2                !
 ! D36   D(8,9,15,18)           57.6355         estimate D2E/DX2                !
 ! D37   D(11,9,15,16)          64.6814         estimate D2E/DX2                !
 ! D38   D(11,9,15,17)         -60.3612         estimate D2E/DX2                !
 ! D39   D(11,9,15,18)         179.2059         estimate D2E/DX2                !
 ! D40   D(12,9,15,16)        -174.9244         estimate D2E/DX2                !
 ! D41   D(12,9,15,17)          60.033          estimate D2E/DX2                !
 ! D42   D(12,9,15,18)         -60.3999         estimate D2E/DX2                !
 ! D43   D(9,11,23,20)         -63.2597         estimate D2E/DX2                !
 ! D44   D(19,20,21,24)        -66.5985         estimate D2E/DX2                !
 ! D45   D(19,20,21,25)        175.2738         estimate D2E/DX2                !
 ! D46   D(19,20,21,26)         59.8483         estimate D2E/DX2                !
 ! D47   D(22,20,21,24)        169.2743         estimate D2E/DX2                !
 ! D48   D(22,20,21,25)         51.1466         estimate D2E/DX2                !
 ! D49   D(22,20,21,26)        -64.2789         estimate D2E/DX2                !
 ! D50   D(23,20,21,24)         50.5349         estimate D2E/DX2                !
 ! D51   D(23,20,21,25)        -67.5928         estimate D2E/DX2                !
 ! D52   D(23,20,21,26)        176.9817         estimate D2E/DX2                !
 ! D53   D(19,20,23,11)       -106.7461         estimate D2E/DX2                !
 ! D54   D(21,20,23,11)        138.2772         estimate D2E/DX2                !
 ! D55   D(22,20,23,11)         21.2638         estimate D2E/DX2                !
 ! D56   D(20,21,26,27)        179.6546         estimate D2E/DX2                !
 ! D57   D(20,21,26,28)        -61.7613         estimate D2E/DX2                !
 ! D58   D(20,21,26,31)         59.1649         estimate D2E/DX2                !
 ! D59   D(24,21,26,27)        -51.8032         estimate D2E/DX2                !
 ! D60   D(24,21,26,28)         66.7809         estimate D2E/DX2                !
 ! D61   D(24,21,26,31)       -172.2929         estimate D2E/DX2                !
 ! D62   D(25,21,26,27)         67.1738         estimate D2E/DX2                !
 ! D63   D(25,21,26,28)       -174.2421         estimate D2E/DX2                !
 ! D64   D(25,21,26,31)        -53.3159         estimate D2E/DX2                !
 ! D65   D(21,26,27,29)         40.3117         estimate D2E/DX2                !
 ! D66   D(21,26,27,30)        -75.5443         estimate D2E/DX2                !
 ! D67   D(21,26,27,38)        169.4816         estimate D2E/DX2                !
 ! D68   D(28,26,27,29)        -79.6113         estimate D2E/DX2                !
 ! D69   D(28,26,27,30)        164.5327         estimate D2E/DX2                !
 ! D70   D(28,26,27,38)         49.5586         estimate D2E/DX2                !
 ! D71   D(31,26,27,29)        159.2953         estimate D2E/DX2                !
 ! D72   D(31,26,27,30)         43.4393         estimate D2E/DX2                !
 ! D73   D(31,26,27,38)        -71.5348         estimate D2E/DX2                !
 ! D74   D(21,26,31,32)       -106.3024         estimate D2E/DX2                !
 ! D75   D(27,26,31,32)        125.6517         estimate D2E/DX2                !
 ! D76   D(28,26,31,32)         10.3412         estimate D2E/DX2                !
 ! D77   D(26,27,38,39)        176.8248         estimate D2E/DX2                !
 ! D78   D(26,27,38,40)         54.3979         estimate D2E/DX2                !
 ! D79   D(26,27,38,41)        -67.9946         estimate D2E/DX2                !
 ! D80   D(29,27,38,39)        -51.3306         estimate D2E/DX2                !
 ! D81   D(29,27,38,40)       -173.7575         estimate D2E/DX2                !
 ! D82   D(29,27,38,41)         63.8499         estimate D2E/DX2                !
 ! D83   D(30,27,38,39)         64.4486         estimate D2E/DX2                !
 ! D84   D(30,27,38,40)        -57.9783         estimate D2E/DX2                !
 ! D85   D(30,27,38,41)        179.6292         estimate D2E/DX2                !
 ! D86   D(26,31,32,33)          4.7534         estimate D2E/DX2                !
 ! D87   D(26,31,32,34)       -175.7486         estimate D2E/DX2                !
 ! D88   D(31,32,34,35)        -23.7601         estimate D2E/DX2                !
 ! D89   D(31,32,34,36)        100.1283         estimate D2E/DX2                !
 ! D90   D(31,32,34,37)       -132.8585         estimate D2E/DX2                !
 ! D91   D(33,32,34,35)        155.7225         estimate D2E/DX2                !
 ! D92   D(33,32,34,36)        -80.3892         estimate D2E/DX2                !
 ! D93   D(33,32,34,37)         46.6241         estimate D2E/DX2                !
 --------------------------------------------------------------------------------
 Trust Radius=3.00D-01 FncErr=1.00D-07 GrdErr=1.00D-06 EigMax=2.50D+02 EigMin=1.00D-04
 Number of steps in this run=    216 maximum allowed number of steps=    246.
 GradGradGradGradGradGradGradGradGradGradGradGradGradGradGradGradGradGrad

 Leave Link  103 at Tue Jan 24 08:14:56 2023, MaxMem=   131072000 cpu:               0.1 elap:               0.0
 (Enter /dragofs/sw/campus/0.2/software/gaussian/16.gaussian/gaussian/g16_legacy/l202.exe)
                          Input orientation:                          
 ---------------------------------------------------------------------
 Center     Atomic      Atomic             Coordinates (Angstroms)
 Number     Number       Type             X           Y           Z
 ---------------------------------------------------------------------
      1          1           0        6.116000   21.259000    5.569000
      2          6           0        5.467000   22.132000    5.492000
      3          6           0        4.108000   21.734000    6.085000
      4          1           0        5.993000   22.934000    5.997000
      5          1           0        5.430000   22.296000    4.371000
      6          1           0        4.247000   21.430000    7.153000
      7          1           0        3.850000   20.721000    5.616000
      8          6           0        3.036000   22.790000    6.012000
      9          6           0        1.660000   22.368000    6.469000
     10          1           0        3.292000   23.592000    6.680000
     11          1           0        1.728000   22.132000    7.554000
     12          1           0        1.463000   21.344000    5.930000
     13          8           0        3.137000   23.325000    4.703000
     14          1           0        3.935000   23.868000    4.652000
     15          6           0        0.582000   23.448000    6.135000
     16          1           0        0.805000   24.417000    6.558000
     17          1           0       -0.538000   23.287000    6.380000
     18          1           0        0.561000   23.666000    5.011000
     19          1           0        3.641000   21.586000   10.646000
     20          6           0        3.432000   22.511000   10.078000
     21          6           0        3.593000   23.665000   11.089000
     22          1           0        4.130000   22.730000    9.211000
     23          1           0        2.365000   22.484000    9.711000
     24          1           0        2.823000   23.651000   11.883000
     25          1           0        3.463000   24.524000   10.458000
     26          6           0        4.882000   23.795000   11.704000
     27          6           0        5.110000   24.855000   12.654000
     28          1           0        5.065000   22.885000   12.261000
     29          1           0        4.272000   25.038000   13.344000
     30          1           0        5.197000   25.726000   11.992000
     31          8           0        5.795000   23.991000   10.602000
     32          6           0        6.647000   23.029000   10.174000
     33          8           0        6.705000   21.899000   10.577000
     34          6           0        7.484000   23.697000    9.080000
     35          1           0        6.873000   24.528000    8.708000
     36          1           0        8.389000   23.933000    9.604000
     37          1           0        7.598000   23.121000    8.151000
     38          6           0        6.426000   24.803000   13.471000
     39          1           0        6.499000   25.665000   14.092000
     40          1           0        7.379000   24.729000   12.851000
     41          1           0        6.366000   23.899000   14.186000
 ---------------------------------------------------------------------
                    Distance matrix (angstroms):
                    1          2          3          4          5
     1  H    0.000000
     2  C    1.090532   0.000000
     3  C    2.126957   1.535231   0.000000
     4  H    1.733187   1.083930   2.236285   0.000000
     5  H    1.726606   1.133537   2.236364   1.835181   0.000000
     6  H    2.455903   2.177183   1.119089   2.578152   3.144673
     7  H    2.329465   2.149648   1.145729   3.104026   2.554809
     8  C    3.467940   2.571600   1.506535   2.960542   2.944173
     9  C    4.679297   3.937445   2.557756   4.395228   4.315054
    10  H    3.827817   2.876381   2.114721   2.862666   3.403254
    11  H    4.894578   4.269891   2.825025   4.610605   4.884996
    12  H    4.667757   4.104242   2.678087   4.801405   4.367365
    13  O    3.727298   2.733984   2.320355   3.159755   2.535136
    14  H    3.522007   2.462990   2.576310   2.629971   2.187503
    15  C    5.978063   5.099856   3.920838   5.437110   5.286010
    16  H    6.257620   5.300172   4.281592   5.424883   5.538252
    17  H    7.003301   6.179207   4.907560   6.551737   6.374573
    18  H    6.079724   5.162689   4.179391   5.569079   5.098398
    19  H    5.657604   5.495099   4.587234   5.381655   6.563554
    20  C    5.394668   5.031527   4.123682   4.836549   6.050461
    21  C    6.528764   6.098227   5.388321   5.676515   7.097905
    22  H    4.401386   3.997016   3.280911   3.720508   5.030304
    23  H    5.720733   5.248454   4.092484   5.211399   6.159965
    24  H    7.512131   7.081171   6.240426   6.723688   8.066140
    25  H    6.449880   5.865052   5.227165   5.369313   6.773820
    26  C    6.752205   6.457301   6.034895   5.877541   7.504678
    27  C    8.008775   7.670490   7.341417   6.984667   8.675193
    28  H    6.966444   6.822608   6.354811   6.332557   7.920369
    29  H    8.839220   8.457350   7.977242   7.833713   9.453796
    30  H    7.877409   7.432344   7.212117   6.660999   8.360552
    31  O    5.735674   5.447528   5.323843   4.728898   6.467736
    32  C    4.961944   4.911022   4.984322   4.228956   5.974378
    33  O    5.082970   5.238717   5.191310   4.749165   6.348045
    34  C    4.488027   4.403551   4.921460   3.508581   5.325073
    35  H    4.594859   4.249742   4.725652   3.265694   5.086614
    36  H    5.347713   5.356326   5.962040   4.444015   6.230549
    37  H    3.511423   3.548177   4.286283   2.692714   4.435003
    38  C    8.665889   8.468669   8.327357   7.716303   9.491421
    39  H    9.602138   9.354524   9.234809   8.558237  10.343634
    40  H    8.164778   8.034615   8.090008   7.219442   9.034849
    41  H    9.015808   8.917182   8.684008   8.254094   9.988990
                    6          7          8          9         10
     6  H    0.000000
     7  H    1.738580   0.000000
     8  C    2.148954   2.258356   0.000000
     9  C    2.835537   2.869899   1.510069   0.000000
    10  H    2.410394   3.112250   1.074693   2.050883   0.000000
    11  H    2.645556   3.201507   2.126404   1.112450   2.311184
    12  H    3.042003   2.486864   2.138216   1.173842   2.993534
    13  O    3.290232   2.850045   1.417712   2.493218   2.000961
    14  H    3.506592   3.292435   1.954453   3.275227   2.145323
    15  C    4.305911   4.287857   2.543661   1.562063   2.768007
    16  H    4.596037   4.880554   2.814712   2.222014   2.623105
    17  H    5.190588   5.140291   3.627108   2.384048   3.853820
    18  H    4.813985   4.456071   2.809805   2.240172   3.201468
    19  H    3.548608   5.108112   4.825930   4.688626   4.458138
    20  C    3.223106   4.825792   4.094754   4.023098   3.568552
    21  C    4.573296   6.219881   5.181873   5.173306   4.419865
    22  H    2.437017   4.127773   3.381425   3.708168   2.802008
    23  H    3.346073   4.699193   3.771800   3.319796   3.357671
    24  H    5.416043   6.993920   5.937620   5.684193   5.224428
    25  H    4.594618   6.169080   4.791242   4.879679   3.895016
    26  C    5.167983   6.897698   6.067669   6.310534   5.273508
    27  C    6.537308   8.258995   7.258227   7.506124   6.370947
    28  H    5.373808   7.093317   6.570835   6.738589   5.898384
    29  H    7.165666   8.862085   7.767846   7.824134   6.889137
    30  H    6.540186   8.216922   7.003600   7.368179   6.033268
    31  O    4.566249   6.271851   5.488404   6.067458   4.669721
    32  C    4.176511   5.824555   5.515314   6.247729   4.876580
    33  O    4.240932   5.843820   5.924075   6.522856   5.449902
    34  C    4.396679   5.836251   5.479049   6.519397   4.831551
    35  H    4.348736   5.761271   5.001163   6.070757   4.220479
    36  H    5.424811   6.842778   6.547024   7.586626   5.886040
    37  H    3.883901   5.121887   5.049428   6.217393   4.574639
    38  C    7.486140   9.219519   8.436880   8.813171   7.576685
    39  H    8.435428  10.163804   9.249021   9.612297   8.337861
    40  H    7.291092   8.992393   8.330264   8.888825   7.488496
    41  H    7.749143   9.480234   8.895676   9.167469   8.116881
                   11         12         13         14         15
    11  H    0.000000
    12  H    1.824430   0.000000
    13  O    3.396576   2.869175   0.000000
    14  H    4.038087   3.756946   0.966568   0.000000
    15  C    2.249163   2.290197   2.931515   3.690298   0.000000
    16  H    2.658039   3.204790   3.173596   3.705555   1.080564
    17  H    2.801260   2.825199   4.039727   4.830246   1.157733
    18  H    3.190908   2.655155   2.616662   3.399053   1.145138
    19  H    3.676704   5.200279   6.212679   6.420436   5.759657
    20  C    3.068849   4.737589   5.444286   5.615686   4.954565
    21  C    4.280717   6.044768   6.411282   6.449275   5.801321
    22  H    2.978734   4.449589   4.654260   4.702930   4.750327
    23  H    2.276471   4.050823   5.136470   5.474837   4.110494
    24  H    4.716633   6.527638   7.194253   7.319221   6.172746
    25  H    4.143079   5.883467   5.887606   5.861975   5.305305
    26  C    5.471360   7.143951   7.230486   7.115676   7.044442
    27  C    6.697959   8.416645   8.333788   8.147809   8.061005
    28  H    5.818799   7.445176   7.812435   7.755003   7.611973
    29  H    6.959948   8.746629   8.881975   8.776864   8.253113
    30  H    6.681814   8.360175   7.945937   7.675963   7.796920
    31  O    5.411716   6.899306   6.504362   6.235161   6.886531
    32  C    5.644960   6.908301   6.506885   6.208973   7.298857
    33  O    5.827808   7.027176   7.019115   6.830482   7.721521
    34  C    6.157064   7.191074   6.180042   5.677308   7.508171
    35  H    5.791680   6.864637   5.607578   5.051592   6.882108
    36  H    7.198265   8.256553   7.209228   6.660679   8.556777
    37  H    5.982594   6.762307   5.641883   5.120408   7.307218
    38  C    8.013509   9.667612   9.480497   9.211627   9.476564
    39  H    8.831193  10.519058  10.243630   9.945698  10.160700
    40  H    8.169236   9.713780   9.292776   8.934543   9.640790
    41  H    8.283523   9.936245  10.034102   9.839099   9.923541
                   16         17         18         19         20
    16  H    0.000000
    17  H    1.764152   0.000000
    18  H    1.736878   1.795996   0.000000
    19  H    5.724439   6.209364   6.750261   0.000000
    20  C    4.787940   5.480719   5.937268   1.105409   0.000000
    21  C    5.372933   6.275566   6.792283   2.126216   1.542646
    22  H    4.576025   5.487717   5.590515   1.899232   1.134396
    23  H    4.013913   4.490855   5.171222   1.819012   1.128675
    24  H    5.745842   6.458469   7.234725   2.542345   2.220024
    25  H    4.720849   5.845362   6.231178   2.949385   2.048787
    26  C    6.594705   7.614423   7.967680   2.745747   2.528840
    27  C    7.475700   8.586129   8.973437   4.108088   3.865979
    28  H    7.281403   8.132735   8.570792   2.514638   2.751737
    29  H    7.645621   8.642881   9.224576   4.426474   4.214034
    30  H    7.108551   8.386506   8.629627   4.623035   4.137009
    31  O    6.437042   7.643807   7.665485   3.228882   2.837031
    32  C    7.009348   8.129282   8.006356   3.367650   3.257877
    33  O    7.569854   8.485423   8.476519   3.080718   3.366909
    34  C    7.175509   8.474113   8.030296   4.655892   4.338353
    35  H    6.438590   7.866549   7.365609   4.780903   4.217306
    36  H    8.187150   9.513297   9.079897   5.397933   5.178669
    37  H    7.096627   8.328175   7.725024   4.923322   4.630441
    38  C    8.918195  10.053747  10.356766   5.107440   5.072450
    39  H    9.525770  10.707437  11.032697   6.056511   5.955367
    40  H    9.105859  10.326282  10.444170   5.358462   5.309224
    41  H    9.454069  10.439032  10.859693   5.030626   5.235510
                   21         22         23         24         25
    21  C    0.000000
    22  H    2.165520   0.000000
    23  H    2.191262   1.850876   0.000000
    24  H    1.106134   3.113852   2.507835   0.000000
    25  H    1.073751   2.284367   2.434176   1.789512   0.000000
    26  C    1.434101   2.813322   3.467861   2.071777   2.024233
    27  C    2.483267   4.162965   4.670965   2.697114   2.764884
    28  H    2.036852   3.193861   3.735412   2.399209   2.916082
    29  H    2.726022   4.735897   4.833038   2.481510   3.040999
    30  H    2.763322   4.224744   4.871730   3.154898   2.608585
    31  O    2.278651   2.509428   3.850952   3.254127   2.396466
    32  C    3.250944   2.711468   4.341304   4.234447   3.528957
    33  O    3.614615   3.031030   4.464054   4.454780   4.173170
    34  C    4.379154   3.493074   5.298461   5.439103   4.330272
    35  H    4.143951   3.318111   5.050347   5.220369   3.832834
    36  H    5.027789   4.443055   6.196743   6.021106   5.034290
    37  H    4.996779   3.647397   5.497605   6.083531   4.938510
    38  C    3.872319   5.264651   6.000590   4.102494   4.235018
    39  H    4.632801   6.168513   6.811892   4.738022   4.870845
    40  H    4.309354   5.272722   6.327703   4.780820   4.593858
    41  H    4.163615   5.578251   6.167321   4.232985   4.766132
                   26         27         28         29         30
    26  C    0.000000
    27  C    1.441556   0.000000
    28  H    1.082515   2.009322   0.000000
    29  H    2.146334   1.100833   2.537153   0.000000
    30  H    1.977607   1.097476   2.856758   1.776759   0.000000
    31  O    1.444434   2.329469   2.123303   3.306706   2.302157
    32  C    2.458227   3.441954   2.622790   4.441352   3.561100
    33  O    2.861516   3.949163   2.549049   4.840361   4.349968
    34  C    3.696672   4.444133   4.077949   5.504264   4.222198
    35  H    3.671156   4.334284   4.311858   5.340206   3.876704
    36  H    4.089999   4.572136   4.382571   5.670830   4.371070
    37  H    4.522692   5.428988   4.833620   6.457895   5.225333
    38  C    2.553877   1.549855   2.644834   2.170500   2.133029
    39  H    3.437169   2.157143   3.624544   2.431494   2.471624
    40  H    2.902236   2.281019   3.017123   3.161009   2.548139
    41  H    2.893682   2.199658   2.535039   2.528067   3.085146
                   31         32         33         34         35
    31  O    0.000000
    32  C    1.354449   0.000000
    33  O    2.281488   1.201113   0.000000
    34  C    2.292518   1.530892   2.465898   0.000000
    35  H    2.244480   2.108846   3.230020   1.096479   0.000000
    36  H    2.779965   2.043693   2.814203   1.072053   1.858789
    37  H    3.164666   2.237274   2.859407   1.099005   1.677952
    38  C    3.047731   3.750483   4.109293   4.650105   4.791827
    39  H    3.934208   4.724524   5.155620   5.473883   5.515442
    40  H    2.848105   3.254559   3.692459   3.911073   4.178623
    41  H    3.630367   4.114852   4.140024   5.230866   5.537253
                   36         37         38         39         40
    36  H    0.000000
    37  H    1.842887   0.000000
    38  C    4.423116   5.701325   0.000000
    39  H    5.168565   6.555549   1.064901   0.000000
    40  H    3.492381   4.972286   1.139335   1.786219   0.000000
    41  H    5.008833   6.208408   1.154141   1.773494   1.870105
                   41
    41  H    0.000000
 Stoichiometry    C12H26O3
 Framework group  C1[X(C12H26O3)]
 Deg. of freedom   117
 Full point group                 C1      NOp   1
 Largest Abelian subgroup         C1      NOp   1
 Largest concise Abelian subgroup C1      NOp   1
                         Standard orientation:                         
 ---------------------------------------------------------------------
 Center     Atomic      Atomic             Coordinates (Angstroms)
 Number     Number       Type             X           Y           Z
 ---------------------------------------------------------------------
      1          1           0        2.579492    3.198288    0.794354
      2          6           0        2.773519    2.455529    0.019808
      3          6           0        2.926190    1.100894    0.725916
      4          1           0        1.950442    2.540034   -0.680412
      5          1           0        3.744157    2.833780   -0.427063
      6          1           0        1.982739    0.866034    1.280085
      7          1           0        3.638005    1.287698    1.604049
      8          6           0        3.269964   -0.060554   -0.169912
      9          6           0        3.553980   -1.370512    0.525541
     10          1           0        2.423021   -0.281083   -0.793625
     11          1           0        2.614480   -1.690587    1.027972
     12          1           0        4.302339   -1.099049    1.388196
     13          8           0        4.276616    0.431755   -1.038354
     14          1           0        3.869187    1.038605   -1.670800
     15          6           0        4.125195   -2.438369   -0.461086
     16          1           0        3.477315   -2.627953   -1.304844
     17          1           0        4.434369   -3.495025   -0.102984
     18          1           0        5.081486   -2.056887   -0.962405
     19          1           0       -0.845577   -1.103878    2.124296
     20          6           0       -0.424297   -1.271182    1.116099
     21          6           0       -1.595108   -1.792639    0.257586
     22          1           0       -0.011493   -0.353883    0.591686
     23          1           0        0.374288   -2.066334    1.178563
     24          1           0       -1.949640   -2.790972    0.575659
     25          1           0       -1.141285   -1.849684   -0.713873
     26          6           0       -2.728455   -0.922632    0.134058
     27          6           0       -3.858037   -1.338973   -0.658904
     28          1           0       -3.131343   -0.777413    1.128256
     29          1           0       -4.127372   -2.400588   -0.548162
     30          1           0       -3.475054   -1.193544   -1.677054
     31          8           0       -2.200039    0.284810   -0.456916
     32          6           0       -2.023934    1.429872    0.244761
     33          8           0       -2.195976    1.575232    1.424568
     34          6           0       -1.555632    2.460111   -0.786224
     35          1           0       -1.111627    1.878514   -1.602845
     36          1           0       -2.458897    3.001426   -0.987191
     37          1           0       -0.684435    3.062708   -0.493469
     38          6           0       -5.147280   -0.484668   -0.558588
     39          1           0       -5.883126   -0.862528   -1.229235
     40          1           0       -5.010229    0.626543   -0.769566
     41          1           0       -5.582673   -0.619852    0.501695
 ---------------------------------------------------------------------
 Rotational constants (GHZ):           0.7777272           0.2251105           0.1919284
 Leave Link  202 at Tue Jan 24 08:14:56 2023, MaxMem=   131072000 cpu:               0.0 elap:               0.0
 (Enter /dragofs/sw/campus/0.2/software/gaussian/16.gaussian/gaussian/g16_legacy/l301.exe)
 Standard basis: 6-31G(d,p) (6D, 7F)
 Ernie: Thresh=  0.10000D-02 Tol=  0.10000D-05 Strict=F.
 There are   355 symmetry adapted cartesian basis functions of A   symmetry.
 There are   355 symmetry adapted basis functions of A   symmetry.
   355 basis functions,   602 primitive gaussians,   355 cartesian basis functions
    61 alpha electrons       61 beta electrons
       nuclear repulsion energy      1063.2862773101 Hartrees.
 IExCor=  402 DFT=T Ex=B Corr=LYP ExCW=0 ScaHFX=  0.000000
 ScaDFX=  1.000000  1.000000  1.000000  1.000000 ScalE2=  1.000000  1.000000
 IRadAn=      5 IRanWt=     -1 IRanGd=            0 ICorTp=0 IEmpDi=131
 NAtoms=   41 NActive=   41 NUniq=   41 SFac= 1.00D+00 NAtFMM=   60 NAOKFM=F Big=F
 Integral buffers will be    131072 words long.
 Raffenetti 2 integral format.
 Two-electron integral symmetry is turned on.
 R6Disp:  Grimme-D3 Dispersion energy=       -0.0454302017 Hartrees.
 Nuclear repulsion after empirical dispersion term =     1063.2408471084 Hartrees.
 Leave Link  301 at Tue Jan 24 08:14:56 2023, MaxMem=   131072000 cpu:               0.4 elap:               0.1
 (Enter /dragofs/sw/campus/0.2/software/gaussian/16.gaussian/gaussian/g16_legacy/l302.exe)
 NPDir=0 NMtPBC=     1 NCelOv=     1 NCel=       1 NClECP=     1 NCelD=      1
         NCelK=      1 NCelE2=     1 NClLst=     1 CellRange=     0.0.
 One-electron integrals computed using PRISM.
 One-electron integral symmetry used in STVInt
 NBasis=   355 RedAO= T EigKep=  2.43D-03  NBF=   355
 NBsUse=   355 1.00D-06 EigRej= -1.00D+00 NBFU=   355
 Precomputing XC quadrature grid using
 IXCGrd= 4 IRadAn=           5 IRanWt=          -1 IRanGd=           0 AccXCQ= 0.00D+00.
 Generated NRdTot=       0 NPtTot=           0 NUsed=           0 NTot=          32
 NSgBfM=   353   353   353   353   353 MxSgAt=    41 MxSgA2=    41.
 Leave Link  302 at Tue Jan 24 08:14:57 2023, MaxMem=   131072000 cpu:               3.9 elap:               0.5
 (Enter /dragofs/sw/campus/0.2/software/gaussian/16.gaussian/gaussian/g16_legacy/l303.exe)
 DipDrv:  MaxL=1.
 Leave Link  303 at Tue Jan 24 08:14:57 2023, MaxMem=   131072000 cpu:               0.3 elap:               0.1
 (Enter /dragofs/sw/campus/0.2/software/gaussian/16.gaussian/gaussian/g16_legacy/l401.exe)
 ExpMin= 1.61D-01 ExpMax= 5.48D+03 ExpMxC= 8.25D+02 IAcc=3 IRadAn=         5 AccDes= 0.00D+00
 Harris functional with IExCor=  402 and IRadAn=       5 diagonalized for initial guess.
 HarFok:  IExCor=  402 AccDes= 0.00D+00 IRadAn=         5 IDoV= 1 UseB2=F ITyADJ=14
 ICtDFT=  3500011 ScaDFX=  1.000000  1.000000  1.000000  1.000000
 FoFCou: FMM=F IPFlag=           0 FMFlag=      100000 FMFlg1=           0
         NFxFlg=           0 DoJE=T BraDBF=F KetDBF=T FulRan=T
         wScrn=  0.000000 ICntrl=       500 IOpCl=  0 I1Cent=   200000004 NGrid=           0
         NMat0=    1 NMatS0=      1 NMatT0=    0 NMatD0=    1 NMtDS0=    0 NMtDT0=    0
 Petite list used in FoFCou.
 Harris En= -698.774007229329    
 JPrj=0 DoOrth=F DoCkMO=F.
 Leave Link  401 at Tue Jan 24 08:15:00 2023, MaxMem=   131072000 cpu:              19.4 elap:               2.5
 (Enter /dragofs/sw/campus/0.2/software/gaussian/16.gaussian/gaussian/g16_legacy/l502.exe)
 Integral symmetry usage will be decided dynamically.
 Closed shell SCF:
 Using DIIS extrapolation, IDIIS=  1040.
 NGot=   131072000 LenX=   130813044 LenY=   130686578
 Requested convergence on RMS density matrix=1.00D-08 within 128 cycles.
 Requested convergence on MAX density matrix=1.00D-06.
 Requested convergence on             energy=1.00D-06.
 No special actions if energy rises.
 Fock matrices will be formed incrementally for  20 cycles.
 Integral accuracy reduced to 1.0D-05 until final iterations.

 Cycle   1  Pass 0  IDiag  1:
 FoFJK:  IHMeth= 1 ICntrl=     500 DoSepK=F KAlg= 0 I1Cent=           0 FoldK=F
 IRaf= 750000000 NMat=       1 IRICut=       1 DoRegI=T DoRafI=F ISym2E= 0 IDoP0=0 IntGTp=1.
 FoFCou: FMM=F IPFlag=           0 FMFlag=      100000 FMFlg1=           0
         NFxFlg=           0 DoJE=T BraDBF=F KetDBF=F FulRan=T
         wScrn=  0.000000 ICntrl=       500 IOpCl=  0 I1Cent=           0 NGrid=           0
         NMat0=    1 NMatS0=      1 NMatT0=    0 NMatD0=    1 NMtDS0=    0 NMtDT0=    0
 Symmetry not used in FoFCou.
 E= -697.717366447361    
 DIIS: error= 2.35D-02 at cycle   1 NSaved=   1.
 NSaved= 1 IEnMin= 1 EnMin= -697.717366447361     IErMin= 1 ErrMin= 2.35D-02
 ErrMax= 2.35D-02  0.00D+00 EMaxC= 1.00D-01 BMatC= 5.46D-01 BMatP= 5.46D-01
 IDIUse=3 WtCom= 7.65D-01 WtEn= 2.35D-01
 Coeff-Com:  0.100D+01
 Coeff-En:   0.100D+01
 Coeff:      0.100D+01
 Gap=     0.066 Goal=   None    Shift=    0.000
 GapD=    0.066 DampG=0.500 DampE=0.500 DampFc=0.2500 IDamp=-1.
 Damping current iteration by 2.50D-01
 RMSDP=5.97D-03 MaxDP=2.35D-01              OVMax= 2.35D-01

 Cycle   2  Pass 0  IDiag  1:
 RMSU=  1.48D-03    CP:  9.90D-01
 E= -697.924798237045     Delta-E=       -0.207431789684 Rises=F Damp=T
 DIIS: error= 1.07D-02 at cycle   2 NSaved=   2.
 NSaved= 2 IEnMin= 2 EnMin= -697.924798237045     IErMin= 2 ErrMin= 1.07D-02
 ErrMax= 1.07D-02  0.00D+00 EMaxC= 1.00D-01 BMatC= 7.84D-02 BMatP= 5.46D-01
 IDIUse=3 WtCom= 8.93D-01 WtEn= 1.07D-01
 Coeff-Com: -0.446D+00 0.145D+01
 Coeff-En:   0.000D+00 0.100D+01
 Coeff:     -0.398D+00 0.140D+01
 Gap=     0.168 Goal=   None    Shift=    0.000
 RMSDP=1.46D-03 MaxDP=5.87D-02 DE=-2.07D-01 OVMax= 2.58D-01

 Cycle   3  Pass 0  IDiag  1:
 RMSU=  1.27D-03    CP:  9.80D-01  1.49D+00
 E= -698.194408305571     Delta-E=       -0.269610068527 Rises=F Damp=F
 DIIS: error= 1.76D-02 at cycle   3 NSaved=   3.
 NSaved= 3 IEnMin= 3 EnMin= -698.194408305571     IErMin= 2 ErrMin= 1.07D-02
 ErrMax= 1.76D-02  0.00D+00 EMaxC= 1.00D-01 BMatC= 1.04D-01 BMatP= 7.84D-02
 IDIUse=2 WtCom= 0.00D+00 WtEn= 1.00D+00
 Coeff-En:   0.000D+00 0.000D+00 0.100D+01
 Coeff:      0.000D+00 0.000D+00 0.100D+01
 Gap=     0.157 Goal=   None    Shift=    0.000
 RMSDP=3.24D-03 MaxDP=2.50D-01 DE=-2.70D-01 OVMax= 4.02D-01

 Cycle   4  Pass 0  IDiag  1:
 RMSU=  1.83D-03    CP:  9.89D-01  1.73D+00 -1.08D+00
 E= -697.377045534623     Delta-E=        0.817362770948 Rises=F Damp=F
 DIIS: error= 6.36D-02 at cycle   4 NSaved=   4.
 NSaved= 4 IEnMin= 3 EnMin= -698.194408305571     IErMin= 2 ErrMin= 1.07D-02
 ErrMax= 6.36D-02  0.00D+00 EMaxC= 1.00D-01 BMatC= 1.11D+00 BMatP= 7.84D-02
 IDIUse=2 WtCom= 0.00D+00 WtEn= 1.00D+00
 Coeff-En:   0.000D+00 0.000D+00 0.849D+00 0.151D+00
 Coeff:      0.000D+00 0.000D+00 0.849D+00 0.151D+00
 Gap=     0.206 Goal=   None    Shift=    0.000
 RMSDP=1.85D-03 MaxDP=1.25D-01 DE= 8.17D-01 OVMax= 2.58D-01

 Cycle   5  Pass 0  IDiag  1:
 RMSU=  4.09D-04    CP:  9.87D-01  1.42D+00 -5.41D-02  3.64D-01
 E= -698.189559942906     Delta-E=       -0.812514408282 Rises=F Damp=F
 DIIS: error= 1.97D-02 at cycle   5 NSaved=   5.
 NSaved= 5 IEnMin= 3 EnMin= -698.194408305571     IErMin= 2 ErrMin= 1.07D-02
 ErrMax= 1.97D-02  0.00D+00 EMaxC= 1.00D-01 BMatC= 1.16D-01 BMatP= 7.84D-02
 IDIUse=2 WtCom= 0.00D+00 WtEn= 1.00D+00
 Coeff-En:   0.000D+00 0.000D+00 0.509D+00 0.000D+00 0.491D+00
 Coeff:      0.000D+00 0.000D+00 0.509D+00 0.000D+00 0.491D+00
 Gap=     0.202 Goal=   None    Shift=    0.000
 RMSDP=8.02D-04 MaxDP=6.53D-02 DE=-8.13D-01 OVMax= 1.14D-01

 Cycle   6  Pass 0  IDiag  1:
 RMSU=  1.09D-04    CP:  9.84D-01  1.42D+00  4.69D-01  1.41D-01  6.14D-01
 E= -698.282700018310     Delta-E=       -0.093140075404 Rises=F Damp=F
 DIIS: error= 1.69D-03 at cycle   6 NSaved=   6.
 NSaved= 6 IEnMin= 6 EnMin= -698.282700018310     IErMin= 6 ErrMin= 1.69D-03
 ErrMax= 1.69D-03  0.00D+00 EMaxC= 1.00D-01 BMatC= 7.36D-04 BMatP= 7.84D-02
 IDIUse=3 WtCom= 9.83D-01 WtEn= 1.69D-02
 Coeff-Com: -0.228D-01 0.408D-01 0.218D+00-0.386D-01 0.326D+00 0.477D+00
 Coeff-En:   0.000D+00 0.000D+00 0.000D+00 0.000D+00 0.000D+00 0.100D+01
 Coeff:     -0.224D-01 0.401D-01 0.214D+00-0.380D-01 0.321D+00 0.485D+00
 Gap=     0.194 Goal=   None    Shift=    0.000
 RMSDP=1.00D-04 MaxDP=7.32D-03 DE=-9.31D-02 OVMax= 1.11D-02

 Cycle   7  Pass 0  IDiag  1:
 RMSU=  5.66D-05    CP:  9.84D-01  1.44D+00  4.50D-01  1.68D-01  6.37D-01
                    CP:  5.11D-01
 E= -698.283077898986     Delta-E=       -0.000377880676 Rises=F Damp=F
 DIIS: error= 9.95D-04 at cycle   7 NSaved=   7.
 NSaved= 7 IEnMin= 7 EnMin= -698.283077898986     IErMin= 7 ErrMin= 9.95D-04
 ErrMax= 9.95D-04  0.00D+00 EMaxC= 1.00D-01 BMatC= 2.91D-04 BMatP= 7.36D-04
 IDIUse=3 WtCom= 9.90D-01 WtEn= 9.95D-03
 Coeff-Com: -0.102D-01 0.150D-01 0.907D-01-0.212D-01 0.143D+00 0.341D+00
 Coeff-Com:  0.441D+00
 Coeff-En:   0.000D+00 0.000D+00 0.000D+00 0.000D+00 0.000D+00 0.306D+00
 Coeff-En:   0.694D+00
 Coeff:     -0.101D-01 0.149D-01 0.898D-01-0.210D-01 0.142D+00 0.341D+00
 Coeff:      0.444D+00
 Gap=     0.191 Goal=   None    Shift=    0.000
 RMSDP=4.37D-05 MaxDP=2.48D-03 DE=-3.78D-04 OVMax= 3.26D-03

 Cycle   8  Pass 0  IDiag  1:
 RMSU=  1.77D-05    CP:  9.84D-01  1.44D+00  4.56D-01  1.58D-01  6.43D-01
                    CP:  5.76D-01  3.99D-01
 E= -698.283290113448     Delta-E=       -0.000212214461 Rises=F Damp=F
 DIIS: error= 2.76D-04 at cycle   8 NSaved=   8.
 NSaved= 8 IEnMin= 8 EnMin= -698.283290113448     IErMin= 8 ErrMin= 2.76D-04
 ErrMax= 2.76D-04  0.00D+00 EMaxC= 1.00D-01 BMatC= 2.52D-05 BMatP= 2.91D-04
 IDIUse=3 WtCom= 9.97D-01 WtEn= 2.76D-03
 Coeff-Com:  0.136D-02-0.346D-02 0.118D-01-0.184D-02 0.839D-02 0.127D+00
 Coeff-Com:  0.221D+00 0.636D+00
 Coeff-En:   0.000D+00 0.000D+00 0.000D+00 0.000D+00 0.000D+00 0.000D+00
 Coeff-En:   0.000D+00 0.100D+01
 Coeff:      0.136D-02-0.345D-02 0.118D-01-0.184D-02 0.837D-02 0.127D+00
 Coeff:      0.220D+00 0.637D+00
 Gap=     0.192 Goal=   None    Shift=    0.000
 RMSDP=1.29D-05 MaxDP=8.15D-04 DE=-2.12D-04 OVMax= 9.89D-04

 Cycle   9  Pass 0  IDiag  1:
 RMSU=  4.19D-06    CP:  9.84D-01  1.44D+00  4.62D-01  1.57D-01  6.35D-01
                    CP:  6.06D-01  4.59D-01  6.16D-01
 E= -698.283308660288     Delta-E=       -0.000018546840 Rises=F Damp=F
 DIIS: error= 3.82D-05 at cycle   9 NSaved=   9.
 NSaved= 9 IEnMin= 9 EnMin= -698.283308660288     IErMin= 9 ErrMin= 3.82D-05
 ErrMax= 3.82D-05  0.00D+00 EMaxC= 1.00D-01 BMatC= 9.67D-07 BMatP= 2.52D-05
 IDIUse=1 WtCom= 1.00D+00 WtEn= 0.00D+00
 Coeff-Com:  0.120D-02-0.235D-02 0.378D-02-0.289D-03-0.711D-03 0.597D-01
 Coeff-Com:  0.110D+00 0.370D+00 0.459D+00
 Coeff:      0.120D-02-0.235D-02 0.378D-02-0.289D-03-0.711D-03 0.597D-01
 Coeff:      0.110D+00 0.370D+00 0.459D+00
 Gap=     0.192 Goal=   None    Shift=    0.000
 RMSDP=2.78D-06 MaxDP=1.30D-04 DE=-1.85D-05 OVMax= 1.33D-04

 Initial convergence to 1.0D-05 achieved.  Increase integral accuracy.
 Cycle  10  Pass 1  IDiag  1:
 E= -698.283355377736     Delta-E=       -0.000046717448 Rises=F Damp=F
 DIIS: error= 2.02D-05 at cycle   1 NSaved=   1.
 NSaved= 1 IEnMin= 1 EnMin= -698.283355377736     IErMin= 1 ErrMin= 2.02D-05
 ErrMax= 2.02D-05  0.00D+00 EMaxC= 1.00D-01 BMatC= 1.41D-07 BMatP= 1.41D-07
 IDIUse=1 WtCom= 1.00D+00 WtEn= 0.00D+00
 Coeff-Com:  0.100D+01
 Coeff:      0.100D+01
 Gap=     0.192 Goal=   None    Shift=    0.000
 RMSDP=2.78D-06 MaxDP=1.30D-04 DE=-4.67D-05 OVMax= 1.38D-04

 Cycle  11  Pass 1  IDiag  1:
 RMSU=  5.75D-06    CP:  1.00D+00
 E= -698.283355376290     Delta-E=        0.000000001446 Rises=F Damp=F
 DIIS: error= 2.30D-05 at cycle   2 NSaved=   2.
 NSaved= 2 IEnMin= 1 EnMin= -698.283355377736     IErMin= 1 ErrMin= 2.02D-05
 ErrMax= 2.30D-05  0.00D+00 EMaxC= 1.00D-01 BMatC= 1.83D-07 BMatP= 1.41D-07
 IDIUse=1 WtCom= 1.00D+00 WtEn= 0.00D+00
 Coeff-Com:  0.544D+00 0.456D+00
 Coeff:      0.544D+00 0.456D+00
 Gap=     0.192 Goal=   None    Shift=    0.000
 RMSDP=1.65D-06 MaxDP=1.42D-04 DE= 1.45D-09 OVMax= 1.78D-04

 Cycle  12  Pass 1  IDiag  1:
 RMSU=  1.60D-06    CP:  1.00D+00  9.28D-01
 E= -698.283355454872     Delta-E=       -0.000000078582 Rises=F Damp=F
 DIIS: error= 1.76D-05 at cycle   3 NSaved=   3.
 NSaved= 3 IEnMin= 3 EnMin= -698.283355454872     IErMin= 3 ErrMin= 1.76D-05
 ErrMax= 1.76D-05  0.00D+00 EMaxC= 1.00D-01 BMatC= 9.59D-08 BMatP= 1.41D-07
 IDIUse=1 WtCom= 1.00D+00 WtEn= 0.00D+00
 Coeff-Com:  0.116D+00 0.394D+00 0.490D+00
 Coeff:      0.116D+00 0.394D+00 0.490D+00
 Gap=     0.192 Goal=   None    Shift=    0.000
 RMSDP=8.96D-07 MaxDP=8.44D-05 DE=-7.86D-08 OVMax= 1.18D-04

 Cycle  13  Pass 1  IDiag  1:
 RMSU=  5.82D-07    CP:  1.00D+00  9.47D-01  5.79D-01
 E= -698.283355514645     Delta-E=       -0.000000059773 Rises=F Damp=F
 DIIS: error= 6.99D-06 at cycle   4 NSaved=   4.
 NSaved= 4 IEnMin= 4 EnMin= -698.283355514645     IErMin= 4 ErrMin= 6.99D-06
 ErrMax= 6.99D-06  0.00D+00 EMaxC= 1.00D-01 BMatC= 1.77D-08 BMatP= 9.59D-08
 IDIUse=1 WtCom= 1.00D+00 WtEn= 0.00D+00
 Coeff-Com:  0.723D-02 0.230D+00 0.370D+00 0.393D+00
 Coeff:      0.723D-02 0.230D+00 0.370D+00 0.393D+00
 Gap=     0.192 Goal=   None    Shift=    0.000
 RMSDP=3.38D-07 MaxDP=1.93D-05 DE=-5.98D-08 OVMax= 3.27D-05

 Cycle  14  Pass 1  IDiag  1:
 RMSU=  8.40D-08    CP:  1.00D+00  9.51D-01  6.08D-01  4.45D-01
 E= -698.283355529606     Delta-E=       -0.000000014961 Rises=F Damp=F
 DIIS: error= 8.63D-07 at cycle   5 NSaved=   5.
 NSaved= 5 IEnMin= 5 EnMin= -698.283355529606     IErMin= 5 ErrMin= 8.63D-07
 ErrMax= 8.63D-07  0.00D+00 EMaxC= 1.00D-01 BMatC= 2.89D-10 BMatP= 1.77D-08
 IDIUse=1 WtCom= 1.00D+00 WtEn= 0.00D+00
 Coeff-Com:  0.782D-03 0.124D+00 0.205D+00 0.230D+00 0.441D+00
 Coeff:      0.782D-03 0.124D+00 0.205D+00 0.230D+00 0.441D+00
 Gap=     0.192 Goal=   None    Shift=    0.000
 RMSDP=5.26D-08 MaxDP=2.90D-06 DE=-1.50D-08 OVMax= 2.78D-06

 Cycle  15  Pass 1  IDiag  1:
 RMSU=  2.61D-08    CP:  1.00D+00  9.52D-01  6.04D-01  4.32D-01  4.72D-01
 E= -698.283355529839     Delta-E=       -0.000000000233 Rises=F Damp=F
 DIIS: error= 2.49D-07 at cycle   6 NSaved=   6.
 NSaved= 6 IEnMin= 6 EnMin= -698.283355529839     IErMin= 6 ErrMin= 2.49D-07
 ErrMax= 2.49D-07  0.00D+00 EMaxC= 1.00D-01 BMatC= 2.01D-11 BMatP= 2.89D-10
 IDIUse=1 WtCom= 1.00D+00 WtEn= 0.00D+00
 Coeff-Com: -0.875D-04 0.546D-01 0.913D-01 0.103D+00 0.265D+00 0.486D+00
 Coeff:     -0.875D-04 0.546D-01 0.913D-01 0.103D+00 0.265D+00 0.486D+00
 Gap=     0.192 Goal=   None    Shift=    0.000
 RMSDP=1.46D-08 MaxDP=6.73D-07 DE=-2.33D-10 OVMax= 7.31D-07

 Cycle  16  Pass 1  IDiag  1:
 RMSU=  5.13D-09    CP:  1.00D+00  9.51D-01  6.06D-01  4.30D-01  4.82D-01
                    CP:  4.90D-01
 E= -698.283355529852     Delta-E=       -0.000000000013 Rises=F Damp=F
 DIIS: error= 2.98D-08 at cycle   7 NSaved=   7.
 NSaved= 7 IEnMin= 7 EnMin= -698.283355529852     IErMin= 7 ErrMin= 2.98D-08
 ErrMax= 2.98D-08  0.00D+00 EMaxC= 1.00D-01 BMatC= 7.63D-13 BMatP= 2.01D-11
 IDIUse=1 WtCom= 1.00D+00 WtEn= 0.00D+00
 Coeff-Com: -0.881D-04 0.233D-01 0.392D-01 0.442D-01 0.121D+00 0.259D+00
 Coeff-Com:  0.514D+00
 Coeff:     -0.881D-04 0.233D-01 0.392D-01 0.442D-01 0.121D+00 0.259D+00
 Coeff:      0.514D+00
 Gap=     0.192 Goal=   None    Shift=    0.000
 RMSDP=2.71D-09 MaxDP=1.90D-07 DE=-1.32D-11 OVMax= 1.98D-07

 SCF Done:  E(RB-LYP) =  -698.283355530     A.U. after   16 cycles
            NFock= 16  Conv=0.27D-08     -V/T= 2.0089
 KE= 6.921076185596D+02 PE=-3.751221524622D+03 EE= 1.297589703425D+03
 Leave Link  502 at Tue Jan 24 08:15:41 2023, MaxMem=   131072000 cpu:             333.7 elap:              41.9
 (Enter /dragofs/sw/campus/0.2/software/gaussian/16.gaussian/gaussian/g16_legacy/l601.exe)
 Copying SCF densities to generalized density rwf, IOpCl= 0 IROHF=0.

 **********************************************************************

            Population analysis using the SCF density.

 **********************************************************************

 Orbital symmetries:
       Occupied  (A) (A) (A) (A) (A) (A) (A) (A) (A) (A) (A) (A)
                 (A) (A) (A) (A) (A) (A) (A) (A) (A) (A) (A) (A)
                 (A) (A) (A) (A) (A) (A) (A) (A) (A) (A) (A) (A)
                 (A) (A) (A) (A) (A) (A) (A) (A) (A) (A) (A) (A)
                 (A) (A) (A) (A) (A) (A) (A) (A) (A) (A) (A) (A)
                 (A)
       Virtual   (A) (A) (A) (A) (A) (A) (A) (A) (A) (A) (A) (A)
                 (A) (A) (A) (A) (A) (A) (A) (A) (A) (A) (A) (A)
                 (A) (A) (A) (A) (A) (A) (A) (A) (A) (A) (A) (A)
                 (A) (A) (A) (A) (A) (A) (A) (A) (A) (A) (A) (A)
                 (A) (A) (A) (A) (A) (A) (A) (A) (A) (A) (A) (A)
                 (A) (A) (A) (A) (A) (A) (A) (A) (A) (A) (A) (A)
                 (A) (A) (A) (A) (A) (A) (A) (A) (A) (A) (A) (A)
                 (A) (A) (A) (A) (A) (A) (A) (A) (A) (A) (A) (A)
                 (A) (A) (A) (A) (A) (A) (A) (A) (A) (A) (A) (A)
                 (A) (A) (A) (A) (A) (A) (A) (A) (A) (A) (A) (A)
                 (A) (A) (A) (A) (A) (A) (A) (A) (A) (A) (A) (A)
                 (A) (A) (A) (A) (A) (A) (A) (A) (A) (A) (A) (A)
                 (A) (A) (A) (A) (A) (A) (A) (A) (A) (A) (A) (A)
                 (A) (A) (A) (A) (A) (A) (A) (A) (A) (A) (A) (A)
                 (A) (A) (A) (A) (A) (A) (A) (A) (A) (A) (A) (A)
                 (A) (A) (A) (A) (A) (A) (A) (A) (A) (A) (A) (A)
                 (A) (A) (A) (A) (A) (A) (A) (A) (A) (A) (A) (A)
                 (A) (A) (A) (A) (A) (A) (A) (A) (A) (A) (A) (A)
                 (A) (A) (A) (A) (A) (A) (A) (A) (A) (A) (A) (A)
                 (A) (A) (A) (A) (A) (A) (A) (A) (A) (A) (A) (A)
                 (A) (A) (A) (A) (A) (A) (A) (A) (A) (A) (A) (A)
                 (A) (A) (A) (A) (A) (A) (A) (A) (A) (A) (A) (A)
                 (A) (A) (A) (A) (A) (A) (A) (A) (A) (A) (A) (A)
                 (A) (A) (A) (A) (A) (A) (A) (A) (A) (A) (A) (A)
                 (A) (A) (A) (A) (A) (A)
 The electronic state is 1-A.
 Alpha  occ. eigenvalues --  -18.82982 -18.77809 -18.77762 -10.04084  -9.96476
 Alpha  occ. eigenvalues --   -9.95909  -9.92919  -9.92863  -9.92546  -9.92232
 Alpha  occ. eigenvalues --   -9.92216  -9.91806  -9.91656  -9.91653  -9.91569
 Alpha  occ. eigenvalues --   -0.99290  -0.91702  -0.91358  -0.74762  -0.70122
 Alpha  occ. eigenvalues --   -0.68160  -0.66604  -0.66500  -0.61214  -0.59698
 Alpha  occ. eigenvalues --   -0.54099  -0.53877  -0.53028  -0.50002  -0.49869
 Alpha  occ. eigenvalues --   -0.45627  -0.43398  -0.41974  -0.40325  -0.39733
 Alpha  occ. eigenvalues --   -0.39556  -0.38676  -0.37907  -0.37373  -0.36621
 Alpha  occ. eigenvalues --   -0.36003  -0.35100  -0.34216  -0.33811  -0.33688
 Alpha  occ. eigenvalues --   -0.32692  -0.31286  -0.31181  -0.30120  -0.29982
 Alpha  occ. eigenvalues --   -0.29611  -0.29270  -0.29105  -0.28872  -0.28375
 Alpha  occ. eigenvalues --   -0.27489  -0.26038  -0.24547  -0.24483  -0.21060
 Alpha  occ. eigenvalues --   -0.19875
 Alpha virt. eigenvalues --   -0.00704   0.03015   0.05794   0.06541   0.07038
 Alpha virt. eigenvalues --    0.07846   0.08587   0.09104   0.09811   0.10165
 Alpha virt. eigenvalues --    0.10796   0.11252   0.11710   0.12131   0.12768
 Alpha virt. eigenvalues --    0.13560   0.13833   0.14317   0.14630   0.15005
 Alpha virt. eigenvalues --    0.15461   0.16225   0.16460   0.16966   0.17490
 Alpha virt. eigenvalues --    0.17741   0.18390   0.18443   0.19996   0.20224
 Alpha virt. eigenvalues --    0.21050   0.22483   0.23161   0.24792   0.25227
 Alpha virt. eigenvalues --    0.25555   0.26625   0.27101   0.27675   0.32922
 Alpha virt. eigenvalues --    0.43331   0.45195   0.45949   0.47041   0.48838
 Alpha virt. eigenvalues --    0.49192   0.50004   0.50167   0.50931   0.52353
 Alpha virt. eigenvalues --    0.52980   0.53592   0.53916   0.54367   0.56334
 Alpha virt. eigenvalues --    0.56417   0.57052   0.58235   0.58979   0.60055
 Alpha virt. eigenvalues --    0.60680   0.61148   0.62236   0.63166   0.63744
 Alpha virt. eigenvalues --    0.64552   0.65683   0.68061   0.70027   0.71045
 Alpha virt. eigenvalues --    0.72195   0.72786   0.73354   0.73932   0.74630
 Alpha virt. eigenvalues --    0.76088   0.78365   0.78655   0.78832   0.79918
 Alpha virt. eigenvalues --    0.80502   0.81143   0.81304   0.81561   0.82521
 Alpha virt. eigenvalues --    0.83094   0.83297   0.83778   0.84751   0.85440
 Alpha virt. eigenvalues --    0.85537   0.86050   0.87173   0.87411   0.87849
 Alpha virt. eigenvalues --    0.88381   0.89314   0.90304   0.90363   0.91406
 Alpha virt. eigenvalues --    0.92586   0.94092   0.96219   0.96592   0.98214
 Alpha virt. eigenvalues --    0.99741   1.01078   1.04895   1.05699   1.06481
 Alpha virt. eigenvalues --    1.08662   1.09857   1.11186   1.15180   1.20438
 Alpha virt. eigenvalues --    1.22325   1.24069   1.25295   1.28446   1.28904
 Alpha virt. eigenvalues --    1.30841   1.31918   1.34338   1.34886   1.35848
 Alpha virt. eigenvalues --    1.38880   1.40474   1.41766   1.47790   1.50073
 Alpha virt. eigenvalues --    1.51196   1.52876   1.55552   1.56020   1.57505
 Alpha virt. eigenvalues --    1.58636   1.59143   1.60070   1.61027   1.62422
 Alpha virt. eigenvalues --    1.63870   1.66345   1.67429   1.69223   1.72030
 Alpha virt. eigenvalues --    1.72207   1.73336   1.73674   1.74536   1.75803
 Alpha virt. eigenvalues --    1.78120   1.79840   1.79904   1.81941   1.82898
 Alpha virt. eigenvalues --    1.84122   1.84304   1.87713   1.89038   1.91299
 Alpha virt. eigenvalues --    1.92536   1.93724   1.94451   1.94903   1.95115
 Alpha virt. eigenvalues --    1.95587   1.95814   1.96765   1.97877   1.98393
 Alpha virt. eigenvalues --    1.99071   2.00369   2.00632   2.02051   2.02731
 Alpha virt. eigenvalues --    2.03046   2.03681   2.03978   2.04738   2.05702
 Alpha virt. eigenvalues --    2.06402   2.07427   2.07699   2.08809   2.09468
 Alpha virt. eigenvalues --    2.12806   2.14494   2.15376   2.17083   2.17342
 Alpha virt. eigenvalues --    2.19772   2.20212   2.21981   2.22436   2.23610
 Alpha virt. eigenvalues --    2.25039   2.25604   2.27225   2.28481   2.29515
 Alpha virt. eigenvalues --    2.30250   2.31416   2.32884   2.33097   2.34438
 Alpha virt. eigenvalues --    2.35977   2.36126   2.39454   2.42333   2.44313
 Alpha virt. eigenvalues --    2.45849   2.46784   2.47713   2.50200   2.50794
 Alpha virt. eigenvalues --    2.53622   2.55334   2.56091   2.59469   2.60514
 Alpha virt. eigenvalues --    2.60891   2.61351   2.61682   2.62935   2.63516
 Alpha virt. eigenvalues --    2.65739   2.66327   2.67941   2.68546   2.69682
 Alpha virt. eigenvalues --    2.70341   2.71077   2.73110   2.73714   2.74341
 Alpha virt. eigenvalues --    2.75590   2.76295   2.76545   2.78045   2.79001
 Alpha virt. eigenvalues --    2.79569   2.81560   2.83029   2.83750   2.84630
 Alpha virt. eigenvalues --    2.86856   2.90769   2.92128   2.92609   2.93251
 Alpha virt. eigenvalues --    2.93467   3.00625   3.00772   3.04722   3.07790
 Alpha virt. eigenvalues --    3.08670   3.10168   3.13457   3.19321   3.20712
 Alpha virt. eigenvalues --    3.21014   3.22768   3.25868   3.26844   3.28079
 Alpha virt. eigenvalues --    3.30372   3.33483   3.34857   3.36140   3.36966
 Alpha virt. eigenvalues --    3.37866   3.38991   3.40206   3.41032   3.42194
 Alpha virt. eigenvalues --    3.43980   3.45304   3.47596   3.53350   3.86463
 Alpha virt. eigenvalues --    4.03169   4.04561   4.17907   4.21210   4.27926
 Alpha virt. eigenvalues --    4.29392   4.33646   4.40407   4.45591   4.51036
 Alpha virt. eigenvalues --    4.51860   4.54970   4.63824   4.71485
          Condensed to atoms (all electrons):
               1          2          3          4          5          6
     1  H    0.633950   0.363967  -0.025922  -0.035754  -0.031707  -0.001369
     2  C    0.363967   4.967095   0.357387   0.372824   0.362737  -0.034939
     3  C   -0.025922   0.357387   5.034274  -0.033210  -0.030718   0.326745
     4  H   -0.035754   0.372824  -0.033210   0.637630  -0.032971  -0.005665
     5  H   -0.031707   0.362737  -0.030718  -0.032971   0.630434   0.005901
     6  H   -0.001369  -0.034939   0.326745  -0.005665   0.005901   0.689284
     7  H   -0.005292  -0.041020   0.358450   0.006000  -0.003849  -0.041315
     8  C    0.004426  -0.027522   0.355557  -0.002096  -0.008820  -0.024497
     9  C   -0.000090   0.004418  -0.049227  -0.000017   0.000021   0.000635
    10  H   -0.000015  -0.005533  -0.061838   0.004319   0.000569  -0.003849
    11  H   -0.000003  -0.000016   0.000185  -0.000002  -0.000000   0.002059
    12  H   -0.000003   0.000096  -0.011929   0.000017   0.000038  -0.000035
    13  O    0.001020  -0.010710  -0.074238  -0.001128   0.012266   0.005436
    14  H   -0.000352   0.011871  -0.006637   0.000925   0.000088  -0.000343
    15  C    0.000001  -0.000177   0.005332   0.000001  -0.000004  -0.000167
    16  H   -0.000000   0.000002   0.000105  -0.000000   0.000000  -0.000004
    17  H   -0.000000   0.000001  -0.000080  -0.000000   0.000000  -0.000001
    18  H   -0.000000  -0.000003   0.000416   0.000000  -0.000002  -0.000013
    19  H    0.000000   0.000000  -0.000042  -0.000000   0.000000   0.000245
    20  C    0.000000  -0.000014  -0.000862   0.000003  -0.000000   0.001067
    21  C   -0.000000  -0.000000   0.000032  -0.000001   0.000000  -0.000016
    22  H   -0.000006   0.000059  -0.000470   0.000105   0.000001   0.004259
    23  H    0.000000   0.000001  -0.000018  -0.000000  -0.000000  -0.000111
    24  H   -0.000000   0.000000  -0.000000   0.000000  -0.000000   0.000000
    25  H    0.000000  -0.000000  -0.000005   0.000000   0.000000   0.000008
    26  C   -0.000000   0.000000   0.000000  -0.000000   0.000000   0.000003
    27  C   -0.000000   0.000000   0.000000   0.000000  -0.000000  -0.000000
    28  H    0.000000   0.000000  -0.000000  -0.000000   0.000000   0.000000
    29  H   -0.000000   0.000000  -0.000000  -0.000000  -0.000000   0.000000
    30  H    0.000000   0.000000  -0.000000  -0.000000  -0.000000   0.000000
    31  O    0.000000  -0.000000   0.000004  -0.000002   0.000000  -0.000028
    32  C    0.000003   0.000024  -0.000020   0.000000   0.000000   0.000095
    33  O   -0.000000   0.000001  -0.000006  -0.000004  -0.000000   0.000038
    34  C   -0.000060  -0.000378   0.000024   0.000250   0.000008   0.000041
    35  H   -0.000005  -0.000065   0.000003   0.000622  -0.000001  -0.000021
    36  H   -0.000000   0.000007   0.000000  -0.000008  -0.000000  -0.000000
    37  H    0.000356   0.000472  -0.000064   0.002088  -0.000021   0.000065
    38  C    0.000000  -0.000000  -0.000000   0.000000   0.000000   0.000000
    39  H   -0.000000  -0.000000   0.000000   0.000000   0.000000  -0.000000
    40  H    0.000000   0.000000  -0.000000  -0.000000  -0.000000   0.000000
    41  H    0.000000  -0.000000  -0.000000   0.000000  -0.000000   0.000000
               7          8          9         10         11         12
     1  H   -0.005292   0.004426  -0.000090  -0.000015  -0.000003  -0.000003
     2  C   -0.041020  -0.027522   0.004418  -0.005533  -0.000016   0.000096
     3  C    0.358450   0.355557  -0.049227  -0.061838   0.000185  -0.011929
     4  H    0.006000  -0.002096  -0.000017   0.004319  -0.000002   0.000017
     5  H   -0.003849  -0.008820   0.000021   0.000569  -0.000000   0.000038
     6  H   -0.041315  -0.024497   0.000635  -0.003849   0.002059  -0.000035
     7  H    0.671284  -0.027146  -0.008766   0.007188  -0.000248   0.009252
     8  C   -0.027146   4.683200   0.380575   0.359365  -0.028860  -0.044224
     9  C   -0.008766   0.380575   4.937221  -0.062502   0.363550   0.353080
    10  H    0.007188   0.359365  -0.062502   0.763127  -0.007546   0.009765
    11  H   -0.000248  -0.028860   0.363550  -0.007546   0.635613  -0.036037
    12  H    0.009252  -0.044224   0.353080   0.009765  -0.036037   0.680064
    13  O   -0.000200   0.234029  -0.045922  -0.043963   0.002706  -0.000086
    14  H   -0.000218  -0.017848   0.006612  -0.012395  -0.000285  -0.000216
    15  C    0.000079  -0.027775   0.358703  -0.006968  -0.031641  -0.029723
    16  H    0.000010  -0.004579  -0.034037   0.006344  -0.003872   0.004716
    17  H   -0.000003   0.002946  -0.015863  -0.000155  -0.001696  -0.002231
    18  H    0.000015  -0.007997  -0.029843   0.000009   0.004297  -0.003724
    19  H    0.000001   0.000009   0.000041  -0.000005  -0.000016  -0.000001
    20  C    0.000016  -0.000067  -0.001350   0.000485   0.001318   0.000015
    21  C   -0.000000  -0.000017   0.000039  -0.000088  -0.000090  -0.000000
    22  H   -0.000014   0.000066  -0.000448   0.002002   0.000188   0.000018
    23  H    0.000000   0.000014  -0.001357   0.000047   0.006808  -0.000015
    24  H    0.000000  -0.000000  -0.000000   0.000000  -0.000001  -0.000000
    25  H    0.000000  -0.000002   0.000006   0.000149   0.000008   0.000000
    26  C   -0.000000   0.000001  -0.000001   0.000000   0.000000   0.000000
    27  C   -0.000000   0.000000   0.000000  -0.000000  -0.000000  -0.000000
    28  H   -0.000000  -0.000000   0.000000   0.000000  -0.000000  -0.000000
    29  H    0.000000   0.000000  -0.000000   0.000000  -0.000000  -0.000000
    30  H   -0.000000  -0.000000  -0.000000   0.000000   0.000000  -0.000000
    31  O   -0.000000  -0.000001   0.000000  -0.000003  -0.000000  -0.000000
    32  C    0.000000  -0.000001   0.000000  -0.000003  -0.000001  -0.000000
    33  O    0.000000   0.000000  -0.000000   0.000000  -0.000000   0.000000
    34  C   -0.000000  -0.000005   0.000000  -0.000000  -0.000000   0.000000
    35  H    0.000000  -0.000004  -0.000000   0.000053  -0.000000   0.000000
    36  H    0.000000   0.000000   0.000000   0.000000  -0.000000   0.000000
    37  H    0.000001   0.000002  -0.000000  -0.000002   0.000000  -0.000000
    38  C    0.000000   0.000000  -0.000000   0.000000   0.000000   0.000000
    39  H   -0.000000  -0.000000   0.000000  -0.000000  -0.000000  -0.000000
    40  H    0.000000   0.000000  -0.000000   0.000000   0.000000   0.000000
    41  H    0.000000  -0.000000  -0.000000   0.000000   0.000000   0.000000
              13         14         15         16         17         18
     1  H    0.001020  -0.000352   0.000001  -0.000000  -0.000000  -0.000000
     2  C   -0.010710   0.011871  -0.000177   0.000002   0.000001  -0.000003
     3  C   -0.074238  -0.006637   0.005332   0.000105  -0.000080   0.000416
     4  H   -0.001128   0.000925   0.000001  -0.000000  -0.000000   0.000000
     5  H    0.012266   0.000088  -0.000004   0.000000   0.000000  -0.000002
     6  H    0.005436  -0.000343  -0.000167  -0.000004  -0.000001  -0.000013
     7  H   -0.000200  -0.000218   0.000079   0.000010  -0.000003   0.000015
     8  C    0.234029  -0.017848  -0.027775  -0.004579   0.002946  -0.007997
[...]
    20  C    0.000005   0.000009  -0.000011  -0.000029   0.000000   0.000000
    21  C    0.000000  -0.000000   0.000000  -0.000000  -0.000000  -0.000000
    22  H   -0.000001  -0.000018  -0.000007   0.000365  -0.000001  -0.000001
    23  H   -0.000000  -0.000000  -0.000000   0.000000  -0.000000   0.000000
    24  H    0.000000  -0.000000  -0.000000   0.000000   0.000000  -0.000000
    25  H    0.000000   0.000000   0.000000  -0.000000   0.000000  -0.000000
    26  C   -0.000002   0.000035   0.000000   0.000000  -0.000000   0.000000
    27  C   -0.000000  -0.000000   0.000000   0.000000  -0.000000   0.000000
    28  H    0.000009  -0.000101   0.000000  -0.000000  -0.000000  -0.000000
    29  H   -0.000000  -0.000000  -0.000000   0.000000  -0.000000  -0.000000
    30  H   -0.000000   0.000000  -0.000000  -0.000000  -0.000000   0.000000
    31  O   -0.000001   0.000427   0.000001  -0.000003   0.000000   0.000000
    32  C    0.002377  -0.002695   0.000010  -0.000010  -0.000000   0.000046
    33  O   -0.012512   0.043377  -0.000008  -0.000003  -0.000000   0.000003
    34  C   -0.009092  -0.000439  -0.000801   0.000467   0.000026  -0.000977
    35  H    0.025900  -0.002047   0.001611   0.000453  -0.000045   0.003825
    36  H    0.000086   0.000100  -0.000044   0.000479   0.000001   0.000003
    37  H    0.000048   0.000036   0.000019   0.000008  -0.000001   0.000013
    38  C    0.000000   0.000001  -0.000000   0.000000   0.000000  -0.000000
    39  H    0.000000  -0.000000   0.000000   0.000000   0.000000  -0.000000
    40  H    0.000000   0.000001  -0.000000  -0.000000  -0.000000  -0.000000
    41  H    0.000000  -0.000001   0.000000  -0.000000   0.000000  -0.000000
              19         20         21         22         23         24
     1  H   -0.000020   0.000010   0.000001  -0.000001  -0.000001  -0.000000
     2  C    0.000478  -0.000780  -0.000003  -0.000015   0.000018  -0.000001
     3  C    0.000352   0.000075  -0.000002  -0.000033  -0.000012   0.000000
     4  H    0.004425  -0.000374  -0.000032   0.000025  -0.000015   0.000003
     5  H   -0.000035   0.000021  -0.000000   0.000001  -0.000000  -0.000000
     6  H    0.000730   0.000088   0.000002   0.000022   0.000003  -0.000000
     7  H   -0.000002  -0.000001  -0.000000   0.000002   0.000000  -0.000000
     8  C   -0.000448  -0.000881   0.000042  -0.000901   0.000051  -0.000001
     9  C   -0.000004   0.000008   0.000000   0.000026  -0.000002   0.000000
    10  H    0.000917   0.000942  -0.000194   0.005217  -0.000053   0.000002
    11  H    0.000001   0.000018   0.000000   0.000023   0.000000  -0.000000
    12  H   -0.000000  -0.000001  -0.000000   0.000002   0.000000  -0.000000
    13  O    0.000005   0.000005   0.000000  -0.000001  -0.000000   0.000000
    14  H    0.000002   0.000009  -0.000000  -0.000018  -0.000000  -0.000000
    15  C    0.000000  -0.000011   0.000000  -0.000007  -0.000000  -0.000000
    16  H   -0.000004  -0.000029  -0.000000   0.000365   0.000000   0.000000
    17  H   -0.000000   0.000000  -0.000000  -0.000001  -0.000000   0.000000
    18  H   -0.000000   0.000000  -0.000000  -0.000001   0.000000  -0.000000
    19  H    0.603915   0.381521  -0.033831  -0.035398  -0.030037  -0.004720
    20  C    0.381521   4.921943   0.363528   0.380721   0.364434  -0.033096
    21  C   -0.033831   0.363528   4.905226  -0.032951  -0.022280   0.361712
    22  H   -0.035398   0.380721  -0.032951   0.601306  -0.030024   0.005466
    23  H   -0.030037   0.364434  -0.022280  -0.030024   0.629470  -0.003264
    24  H   -0.004720  -0.033096   0.361712   0.005466  -0.003264   0.654049
    25  H    0.005219  -0.037319   0.365978  -0.004643  -0.002964  -0.036590
    26  C   -0.004041  -0.031266   0.373397  -0.008467   0.003650  -0.033653
    27  C    0.000069   0.003967  -0.038176   0.000214  -0.000127  -0.001192
    28  H    0.003963  -0.005651  -0.045762  -0.000065   0.000061  -0.001242
    29  H   -0.000004  -0.000004  -0.001097  -0.000005  -0.000002   0.003013
    30  H    0.000008   0.000010  -0.007694   0.000005   0.000001  -0.000143
    31  O   -0.000230  -0.003507  -0.043901   0.008830   0.000138   0.003209
    32  C   -0.000069   0.001099   0.001229   0.000330  -0.000015  -0.000026
    33  O   -0.000159   0.000043   0.000515  -0.000221   0.000000   0.000007
    34  C   -0.000018  -0.000051  -0.000279   0.000168   0.000001   0.000008
    35  H   -0.000001   0.000000   0.000020  -0.000061  -0.000000  -0.000000
    36  H    0.000003  -0.000022  -0.000015   0.000250  -0.000001   0.000000
    37  H   -0.000000   0.000002  -0.000006   0.000003  -0.000000   0.000000
    38  C   -0.000000  -0.000149   0.004019   0.000001   0.000001   0.000022
    39  H    0.000000   0.000001  -0.000127   0.000000  -0.000000  -0.000000
    40  H    0.000000   0.000001   0.000157  -0.000001   0.000000  -0.000001
    41  H   -0.000001   0.000001   0.000054   0.000000   0.000000   0.000005
              25         26         27         28         29         30
     1  H    0.000000   0.000002  -0.000000  -0.000005   0.000000   0.000000
     2  C   -0.000001  -0.000199   0.000003  -0.000107  -0.000000  -0.000000
     3  C    0.000000   0.000013  -0.000000  -0.000047  -0.000000   0.000000
     4  H    0.000001  -0.000542  -0.000001   0.003737   0.000002   0.000000
     5  H    0.000000  -0.000005  -0.000000   0.000026  -0.000000   0.000000
     6  H    0.000000  -0.000001  -0.000000   0.000002  -0.000000   0.000000
     7  H    0.000000  -0.000000   0.000000   0.000001   0.000000  -0.000000
     8  C   -0.000001  -0.000008  -0.000000   0.000021   0.000000  -0.000000
     9  C   -0.000000  -0.000000   0.000000   0.000001   0.000000   0.000000
    10  H    0.000002   0.000092   0.000004   0.000000   0.000000  -0.000000
    11  H    0.000000   0.000000   0.000000  -0.000000   0.000000   0.000000
    12  H   -0.000000   0.000000   0.000000  -0.000000   0.000000  -0.000000
    13  O    0.000000  -0.000002  -0.000000   0.000009  -0.000000  -0.000000
    14  H    0.000000   0.000035  -0.000000  -0.000101  -0.000000   0.000000
    15  C    0.000000   0.000000   0.000000   0.000000  -0.000000  -0.000000
    16  H   -0.000000   0.000000   0.000000  -0.000000   0.000000  -0.000000
    17  H    0.000000  -0.000000  -0.000000  -0.000000  -0.000000  -0.000000
    18  H   -0.000000   0.000000   0.000000  -0.000000  -0.000000   0.000000
    19  H    0.005219  -0.004041   0.000069   0.003963  -0.000004   0.000008
    20  C   -0.037319  -0.031266   0.003967  -0.005651  -0.000004   0.000010
    21  C    0.365978   0.373397  -0.038176  -0.045762  -0.001097  -0.007694
    22  H   -0.004643  -0.008467   0.000214  -0.000065  -0.000005   0.000005
    23  H   -0.002964   0.003650  -0.000127   0.000061  -0.000002   0.000001
    24  H   -0.036590  -0.033653  -0.001192  -0.001242   0.003013  -0.000143
    25  H    0.648165  -0.031448  -0.007250   0.005888  -0.000134   0.006723
    26  C   -0.031448   4.807724   0.373099   0.363211  -0.033238  -0.033410
    27  C   -0.007250   0.373099   4.896743  -0.045335   0.360564   0.368202
    28  H    0.005888   0.363211  -0.045335   0.624792  -0.001516   0.005928
    29  H   -0.000134  -0.033238   0.360564  -0.001516   0.655525  -0.036916
    30  H    0.006723  -0.033410   0.368202   0.005928  -0.036916   0.650882
    31  O   -0.001304   0.163841  -0.039681  -0.035727   0.003229  -0.001055
    32  C   -0.000231  -0.005326  -0.002153  -0.006844   0.000016  -0.000244
    33  O   -0.000009  -0.010196  -0.000497   0.020665  -0.000010  -0.000018
    34  C   -0.000022   0.005618  -0.000423   0.001041   0.000008  -0.000013
    35  H    0.000001  -0.000159  -0.000004   0.000022   0.000000   0.000000
    36  H    0.000028  -0.000334   0.000007  -0.000019  -0.000000   0.000013
    37  H   -0.000000  -0.000165   0.000051  -0.000015  -0.000000  -0.000000
    38  C   -0.000025  -0.031114   0.368139  -0.005561  -0.033285  -0.038379
    39  H    0.000001   0.003875  -0.024029   0.000052  -0.004037  -0.002426
    40  H    0.000008  -0.008329  -0.032154  -0.000051   0.005576  -0.004972
    41  H    0.000009  -0.004850  -0.032991   0.005292  -0.004099   0.005205
              31         32         33         34         35         36
     1  H   -0.000000  -0.000002   0.000094   0.000000  -0.000000  -0.000000
     2  C    0.000009   0.000194  -0.000266  -0.000002  -0.000010  -0.000000
     3  C    0.000010  -0.000030  -0.000925  -0.000082   0.000359   0.000003
     4  H   -0.000125   0.000371   0.003122   0.000033  -0.000006  -0.000002
     5  H   -0.000000  -0.000161   0.000400   0.000020  -0.000045  -0.000000
     6  H    0.000000  -0.000010  -0.000008   0.000004  -0.000014  -0.000000
     7  H    0.000000   0.000001  -0.000009  -0.000000  -0.000003   0.000000
     8  C   -0.000140   0.001457   0.001010  -0.000670   0.001335   0.000033
     9  C   -0.000003  -0.000096   0.000066   0.000267  -0.001689  -0.000017
    10  H   -0.000335   0.003611   0.001530   0.000998  -0.003028  -0.000115
    11  H    0.000000   0.000006   0.000001  -0.000014   0.000039  -0.000000
    12  H   -0.000000  -0.000000  -0.000001   0.000004  -0.000033   0.000000
    13  O   -0.000001   0.002377  -0.012512  -0.009092   0.025900   0.000086
    14  H    0.000427  -0.002695   0.043377  -0.000439  -0.002047   0.000100
    15  C    0.000001   0.000010  -0.000008  -0.000801   0.001611  -0.000044
    16  H   -0.000003  -0.000010  -0.000003   0.000467   0.000453   0.000479
    17  H    0.000000  -0.000000  -0.000000   0.000026  -0.000045   0.000001
    18  H    0.000000   0.000046   0.000003  -0.000977   0.003825   0.000003
    19  H   -0.000230  -0.000069  -0.000159  -0.000018  -0.000001   0.000003
    20  C   -0.003507   0.001099   0.000043  -0.000051   0.000000  -0.000022
    21  C   -0.043901   0.001229   0.000515  -0.000279   0.000020  -0.000015
    22  H    0.008830   0.000330  -0.000221   0.000168  -0.000061   0.000250
    23  H    0.000138  -0.000015   0.000000   0.000001  -0.000000  -0.000001
    24  H    0.003209  -0.000026   0.000007   0.000008  -0.000000   0.000000
    25  H   -0.001304  -0.000231  -0.000009  -0.000022   0.000001   0.000028
    26  C    0.163841  -0.005326  -0.010196   0.005618  -0.000159  -0.000334
    27  C   -0.039681  -0.002153  -0.000497  -0.000423  -0.000004   0.000007
    28  H   -0.035727  -0.006844   0.020665   0.001041   0.000022  -0.000019
    29  H    0.003229   0.000016  -0.000010   0.000008   0.000000  -0.000000
    30  H   -0.001055  -0.000244  -0.000018  -0.000013   0.000000   0.000013
    31  O    8.259463   0.253734  -0.064342  -0.086594   0.002082   0.006347
    32  C    0.253734   4.416788   0.453714   0.360578  -0.021348  -0.020086
    33  O   -0.064342   0.453714   8.102418  -0.068988  -0.002664   0.003196
    34  C   -0.086594   0.360578  -0.068988   5.122320   0.341865   0.346017
    35  H    0.002082  -0.021348  -0.002664   0.341865   0.539391  -0.022435
    36  H    0.006347  -0.020086   0.003196   0.346017  -0.022435   0.595184
    37  H    0.000723  -0.021275  -0.000544   0.361958  -0.019994  -0.025515
    38  C   -0.003603   0.002841   0.000164  -0.000146   0.000003  -0.000004
    39  H    0.000076  -0.000025   0.000042   0.000003   0.000000  -0.000000
    40  H    0.006739   0.002441  -0.000836   0.000255   0.000008   0.000008
    41  H   -0.000794   0.000529   0.001673   0.000034   0.000000  -0.000001
              37         38         39         40         41
     1  H    0.000000   0.000000  -0.000000   0.000000   0.000000
     2  C    0.000000   0.000000   0.000000  -0.000000  -0.000000
     3  C   -0.000001  -0.000000   0.000000  -0.000000   0.000000
     4  H    0.000000  -0.000001  -0.000000   0.000000   0.000000
     5  H   -0.000000  -0.000000   0.000000  -0.000000   0.000001
     6  H   -0.000000   0.000000  -0.000000  -0.000000   0.000000
     7  H    0.000000   0.000000   0.000000   0.000000  -0.000000
     8  C    0.000014  -0.000000   0.000000   0.000000   0.000000
     9  C    0.000001  -0.000000  -0.000000  -0.000000  -0.000000
    10  H    0.000054   0.000000  -0.000000   0.000000  -0.000000
    11  H    0.000000  -0.000000  -0.000000   0.000000  -0.000000
    12  H    0.000000   0.000000   0.000000   0.000000   0.000000
    13  O    0.000048   0.000000   0.000000   0.000000   0.000000
    14  H    0.000036   0.000001  -0.000000   0.000001  -0.000001
    15  C    0.000019  -0.000000   0.000000  -0.000000   0.000000
    16  H    0.000008   0.000000   0.000000  -0.000000  -0.000000
    17  H   -0.000001   0.000000   0.000000  -0.000000   0.000000
    18  H    0.000013  -0.000000  -0.000000  -0.000000  -0.000000
    19  H   -0.000000  -0.000000   0.000000   0.000000  -0.000001
    20  C    0.000002  -0.000149   0.000001   0.000001   0.000001
    21  C   -0.000006   0.004019  -0.000127   0.000157   0.000054
    22  H    0.000003   0.000001   0.000000  -0.000001   0.000000
    23  H   -0.000000   0.000001  -0.000000   0.000000   0.000000
    24  H    0.000000   0.000022  -0.000000  -0.000001   0.000005
    25  H   -0.000000  -0.000025   0.000001   0.000008   0.000009
    26  C   -0.000165  -0.031114   0.003875  -0.008329  -0.004850
    27  C    0.000051   0.368139  -0.024029  -0.032154  -0.032991
    28  H   -0.000015  -0.005561   0.000052  -0.000051   0.005292
    29  H   -0.000000  -0.033285  -0.004037   0.005576  -0.004099
    30  H   -0.000000  -0.038379  -0.002426  -0.004972   0.005205
    31  O    0.000723  -0.003603   0.000076   0.006739  -0.000794
    32  C   -0.021275   0.002841  -0.000025   0.002441   0.000529
    33  O   -0.000544   0.000164   0.000042  -0.000836   0.001673
    34  C    0.361958  -0.000146   0.000003   0.000255   0.000034
    35  H   -0.019994   0.000003   0.000000   0.000008   0.000000
    36  H   -0.025515  -0.000004  -0.000000   0.000008  -0.000001
    37  H    0.572626   0.000010  -0.000002   0.000139  -0.000005
    38  C    0.000010   4.899860   0.368385   0.380083   0.382139
    39  H   -0.000002   0.368385   0.631371  -0.032318  -0.030903
    40  H    0.000139   0.380083  -0.032318   0.617284  -0.033121
    41  H   -0.000005   0.382139  -0.030903  -0.033121   0.603940
 Mulliken charges:
               1
     1  H    0.079358
     2  C   -0.306032
     3  C   -0.138118
     4  H    0.099062
     5  H    0.101071
     6  H    0.064413
     7  H    0.080533
     8  C    0.171584
     9  C   -0.137258
    10  H    0.047003
    11  H    0.069191
    12  H    0.084684
    13  O   -0.540252
    14  H    0.313545
    15  C   -0.290323
    16  H    0.077776
    17  H    0.079792
    18  H    0.113207
    19  H    0.107411
    20  C   -0.305306
    21  C   -0.149527
    22  H    0.109837
    23  H    0.090968
    24  H    0.086435
    25  H    0.089918
    26  C    0.142198
    27  C   -0.147047
    28  H    0.113337
    29  H    0.086416
    30  H    0.088292
    31  O   -0.427511
    32  C    0.579274
    33  O   -0.469824
    34  C   -0.373080
    35  H    0.156672
    36  H    0.116854
    37  H    0.131818
    38  C   -0.293399
    39  H    0.090062
    40  H    0.099083
    41  H    0.107886
 Sum of Mulliken charges =  -0.00000
 Mulliken charges with hydrogens summed into heavy atoms:
               1
     2  C   -0.026541
     3  C    0.006828
     8  C    0.218586
     9  C    0.016617
    13  O   -0.226708
    15  C   -0.019549
    20  C    0.002910
    21  C    0.026825
    26  C    0.255535
    27  C    0.027661
    31  O   -0.427511
    32  C    0.579274
    33  O   -0.469824
    34  C    0.032264
    38  C    0.003632
 Electronic spatial extent (au):  <R**2>=           4443.5682
 Charge=             -0.0000 electrons
 Dipole moment (field-independent basis, Debye):
    X=             -2.7102    Y=             -0.5935    Z=             -1.7612  Tot=              3.2862
 Quadrupole moment (field-independent basis, Debye-Ang):
   XX=            -95.7758   YY=            -92.4724   ZZ=            -99.1758
   XY=             -0.9973   XZ=             -2.4211   YZ=             -0.3275
 Traceless Quadrupole moment (field-independent basis, Debye-Ang):
   XX=              0.0322   YY=              3.3356   ZZ=             -3.3678
   XY=             -0.9973   XZ=             -2.4211   YZ=             -0.3275
 Octapole moment (field-independent basis, Debye-Ang**2):
  XXX=            -32.3803  YYY=             20.2755  ZZZ=              2.7967  XYY=             -8.1028
  XXY=             -9.3075  XXZ=             -3.8562  XZZ=             -4.3474  YZZ=             -0.5045
  YYZ=              1.5859  XYZ=             -4.8128
 Hexadecapole moment (field-independent basis, Debye-Ang**3):
 XXXX=          -3810.3633 YYYY=          -1174.2982 ZZZZ=           -930.0670 XXXY=             -5.0984
 XXXZ=            -15.4665 YYYX=             -1.0536 YYYZ=             14.8668 ZZZX=             20.5345
 ZZZY=              8.8237 XXYY=           -853.1646 XXZZ=           -812.1759 YYZZ=           -355.7135
 XXYZ=             -4.3933 YYXZ=              4.2378 ZZXY=             -2.1620
 N-N= 1.127079485686D+03 E-N=-3.878937143402D+03  KE= 6.915813029265D+02
 No NMR shielding tensors so no spin-rotation constants.
 Leave Link  601 at Tue Jan 24 09:13:44 2023, MaxMem=   131072000 cpu:               1.3 elap:               0.2
 (Enter /dragofs/sw/campus/0.2/software/gaussian/16.gaussian/gaussian/g16_legacy/l9999.exe)
 1\1\GINC-DRAGO31010012\FOpt\RBLYP\6-31G(d,p)\C12H26O3\JRAMOS\24-Jan-20
 23\0\\#p opt blyp/6-31G** EmpiricalDispersion=GD3\\Conformer number 23
 9. Energy MM = 0.000 kcal/mol\\0,1\H,4.7934075746,19.4389962602,7.7585
 824061\C,4.834768701,20.5363332966,7.6704486171\C,3.7347431407,21.0622
 115079,6.7258241015\H,4.7376932563,20.9673794573,8.6799547757\H,5.8341
 741802,20.8087665339,7.2985277688\H,2.7433716614,20.7233752192,7.08003
 26807\H,3.8768052057,20.6364304455,5.7164339865\C,3.7058607498,22.6048
 272057,6.6008504173\C,2.615441653,23.0908873413,5.6266790892\H,3.48803
 68354,23.0283184563,7.6058147726\H,1.6488557463,22.6568923834,5.938850
 5822\H,2.8410331425,22.6809529376,4.6259617922\O,4.9682453561,23.12211
 09625,6.1205882304\H,5.5926399263,23.0872527339,6.8794607211\C,2.50871
 62145,24.6268226878,5.5499823504\H,2.2918626444,25.0593129213,6.542313
 2898\H,1.7058374007,24.9417482514,4.8642088622\H,3.4561874519,25.05751
 41801,5.1945437954\H,2.8788963755,21.7978165569,10.0172770469\C,2.5063
 633418,22.697696592,10.5330650049\C,3.4263052622,23.0924575614,11.7066
 855525\H,2.4517328293,23.5091106071,9.7914056943\H,1.4836602225,22.488
 7657526,10.883460332\H,3.4556613655,22.2812796023,12.4555299564\H,3.02
 63011519,23.9838722055,12.2211720791\C,4.8750040256,23.3780206668,11.2
 776620735\C,5.815432635,23.7521673853,12.4358174149\H,5.2873089159,22.
 5240119834,10.7178078806\H,5.8138179589,22.9073500618,13.1474072117\H,
 5.3919096209,24.619223847,12.9729613279\O,4.8173767267,24.5337785359,1
 0.3456209931\C,5.4146759732,24.4108721427,9.1291061168\O,6.0432792319,
 23.4141697852,8.7614568229\C,5.2201928204,25.6514457168,8.2770579869\H
 ,4.9815477533,25.3252294975,7.2549287767\H,4.436194508,26.3059063761,8
 .677596799\H,6.1715460222,26.2063141926,8.2406720729\C,7.2573314733,24
 .0582992766,11.9812334723\H,7.9098443172,24.2573621726,12.8453955828\H
 ,7.2813522425,24.9450666509,11.3294330164\H,7.6825843856,23.216650049,
 11.4121885465\\Version=EM64L-G16RevA.03\State=1-A\HF=-698.3744112\RMSD
 =4.534e-09\RMSF=1.338e-06\Dipole=-0.3088478,0.2780723,1.2242773\Quadru
 pole=-0.3441748,1.5197043,-1.1755296,1.8967531,1.7933723,-1.1577398\PG
 =C01 [X(C12H26O3)]\\@


 THE REAL VOYAGE OF DISCOVERY CONSISTS NOT IN SEEKING NEW LANDSCAPES 
 BUT IN HAVING NEW EYES.
                                                    -- MARCEL PROUST
 Job cpu time:       0 days  7 hours 45 minutes 56.3 seconds.
 Elapsed time:       0 days  0 hours 58 minutes 43.3 seconds.
 File lengths (MBytes):  RWF=     84 Int=      0 D2E=      0 Chk=     11 Scr=      1
 Normal termination of Gaussian 16 at Tue Jan 24 09:13:44 2023.
