 Entering Gaussian System, Link 0=/dragofs/sw/campus/0.2/software/gaussian/16.gaussian/gaussian/g16_legacy/g16
 Input=C12H26O3_pair_004_088.com
 Output=C12H26O3_pair_004_088.log
 Initial command:
 /dragofs/sw/campus/0.2/software/gaussian/16.gaussian/gaussian/g16_legacy/l1.exe "/tmp/jramos/38583/Gau-492409.inp" -scrdir="/tmp/jramos/38583/"
 Entering Link 1 = /dragofs/sw/campus/0.2/software/gaussian/16.gaussian/gaussian/g16_legacy/l1.exe PID=    492410.
  
 Copyright (c) 1988,1990,1992,1993,1995,1998,2003,2009,2016,
            Gaussian, Inc.  All Rights Reserved.
  
 This is part of the Gaussian(R) 16 program.  It is based on
 the Gaussian(R) 09 system (copyright 2009, Gaussian, Inc.),
 the Gaussian(R) 03 system (copyright 2003, Gaussian, Inc.),
 the Gaussian(R) 98 system (copyright 1998, Gaussian, Inc.),
 the Gaussian(R) 94 system (copyright 1995, Gaussian, Inc.),
 the Gaussian 92(TM) system (copyright 1992, Gaussian, Inc.),
 the Gaussian 90(TM) system (copyright 1990, Gaussian, Inc.),
 the Gaussian 88(TM) system (copyright 1988, Gaussian, Inc.),
 the Gaussian 86(TM) system (copyright 1986, Carnegie Mellon
 University), and the Gaussian 82(TM) system (copyright 1983,
 Carnegie Mellon University). Gaussian is a federally registered
 trademark of Gaussian, Inc.
  
 This software contains proprietary and confidential information,
 including trade secrets, belonging to Gaussian, Inc.
  
 This software is provided under written license and may be
 used, copied, transmitted, or stored only in accord with that
 written license.
  
 The following legend is applicable only to US Government
 contracts under FAR:
  
                    RESTRICTED RIGHTS LEGEND
  
 Use, reproduction and disclosure by the US Government is
 subject to restrictions as set forth in subparagraphs (a)
 and (c) of the Commercial Computer Software - Restricted
 Rights clause in FAR 52.227-19.
  
 Gaussian, Inc.
 340 Quinnipiac St., Bldg. 40, Wallingford CT 06492
  
  
 ---------------------------------------------------------------
 Warning -- This program may not be used in any manner that
 competes with the business of Gaussian, Inc. or will provide
 assistance to any competitor of Gaussian, Inc.  The licensee
 of this program is prohibited from giving any competitor of
 Gaussian, Inc. access to this program.  By using this program,
 the user acknowledges that Gaussian, Inc. is engaged in the
 business of creating and licensing software in the field of
 computational chemistry and represents and warrants to the
 licensee that it is not a competitor of Gaussian, Inc. and that
 it will not use this program in any manner prohibited above.
 ---------------------------------------------------------------
  

 Cite this work as:
 Gaussian 16, Revision A.03,
 M. J. Frisch, G. W. Trucks, H. B. Schlegel, G. E. Scuseria, 
 M. A. Robb, J. R. Cheeseman, G. Scalmani, V. Barone, 
 G. A. Petersson, H. Nakatsuji, X. Li, M. Caricato, A. V. Marenich, 
 J. Bloino, B. G. Janesko, R. Gomperts, B. Mennucci, H. P. Hratchian, 
 J. V. Ortiz, A. F. Izmaylov, J. L. Sonnenberg, D. Williams-Young, 
 F. Ding, F. Lipparini, F. Egidi, J. Goings, B. Peng, A. Petrone, 
 T. Henderson, D. Ranasinghe, V. G. Zakrzewski, J. Gao, N. Rega, 
 G. Zheng, W. Liang, M. Hada, M. Ehara, K. Toyota, R. Fukuda, 
 J. Hasegawa, M. Ishida, T. Nakajima, Y. Honda, O. Kitao, H. Nakai, 
 T. Vreven, K. Throssell, J. A. Montgomery, Jr., J. E. Peralta, 
 F. Ogliaro, M. J. Bearpark, J. J. Heyd, E. N. Brothers, K. N. Kudin, 
 V. N. Staroverov, T. A. Keith, R. Kobayashi, J. Normand, 
 K. Raghavachari, A. P. Rendell, J. C. Burant, S. S. Iyengar, 
 J. Tomasi, M. Cossi, J. M. Millam, M. Klene, C. Adamo, R. Cammi, 
 J. W. Ochterski, R. L. Martin, K. Morokuma, O. Farkas, 
 J. B. Foresman, and D. J. Fox, Gaussian, Inc., Wallingford CT, 2016.
 
 ******************************************
 Gaussian 16:  EM64L-G16RevA.03 25-Dec-2016
                24-Jan-2023 
 ******************************************
 %chk=C12H26O3_pair_004_088.chk
 %nproc=8
 Will use up to    8 processors via shared memory.
 %mem=1000Mb
 -------------------------------------------
 #p opt blyp/6-31G** EmpiricalDispersion=GD3
 -------------------------------------------
 1/18=20,19=15,26=3,38=1/1,3;
 2/9=110,12=2,17=6,18=5,40=1/2;
 3/5=1,6=6,7=101,11=2,25=1,30=1,71=1,74=402,124=31/1,2,3;
 4//1;
 5/5=2,38=5/2;
 6/7=2,8=2,9=2,10=2,28=1/1;
 7//1,2,3,16;
 1/18=20,19=15,26=3/3(2);
 2/9=110/2;
 99//99;
 2/9=110/2;
 3/5=1,6=6,7=101,11=2,25=1,30=1,71=1,74=402,124=31/1,2,3;
 4/5=5,16=3,69=1/1;
 5/5=2,38=5/2;
 7//1,2,3,16;
 1/18=20,19=15,26=3/3(-5);
 2/9=110/2;
 6/7=2,8=2,9=2,10=2,19=2,28=1/1;
 99/9=1/99;
 Leave Link    1 at Tue Jan 24 00:27:19 2023, MaxMem=   131072000 cpu:               0.3 elap:               0.1
 (Enter /dragofs/sw/campus/0.2/software/gaussian/16.gaussian/gaussian/g16_legacy/l101.exe)
 ------------------------------------------------
 Conformer number 028. Energy MM = 0.000 kcal/mol
 ------------------------------------------------
 Symbolic Z-matrix:
 Charge =  0 Multiplicity = 1
 H                     16.94     6.719     5.687 
 C                     16.34     6.093     6.36 
 C                     17.2      5.801     7.66 
 H                     15.467    6.703     6.696 
 H                     15.976    5.189     5.74 
 H                     16.788    5.038     8.349 
 H                     17.436    6.829     8.086 
 C                     18.55     5.21      7.5 
 C                     19.201    5.493     8.727 
 H                     18.472    4.097     7.413 
 H                     18.511    5.354     9.591 
 H                     19.475    6.549     8.712 
 O                     19.269    5.768     6.397 
 H                     19.974    5.103     6.305 
 C                     20.526    4.798     9.013 
 H                     21.241    4.951     8.145 
 H                     20.428    3.646     9.121 
 H                     21.045    5.257     9.926 
 H                     23.585    1.411     4.934 
 C                     23.607    0.393     5.409 
 C                     22.144   -0.178     5.556 
 H                     24.175   -0.318     4.776 
 H                     24.056    0.5       6.378 
 H                     22.146   -0.889     6.37 
 H                     21.892   -0.695     4.616 
 C                     21.129    0.792     5.691 
 C                     19.866    0.297     6.019 
 H                     21.525    1.515     6.487 
 H                     20.023   -0.446     6.772 
 H                     19.391   -0.131     5.117 
 O                     21.057    1.542     4.472 
 C                     20.637    2.818     4.529 
 O                     20.32     3.418     5.499 
 C                     20.522    3.179     3.056 
 H                     19.757    2.516     2.607 
 H                     20.33     4.281     2.792 
 H                     21.503    2.848     2.703 
 C                     18.675    1.256     6.407 
 H                     17.799    0.696     6.361 
 H                     18.549    2.121     5.795 
 H                     18.899    1.508     7.437 
 
 Add virtual bond connecting atoms O33        and H14        Dist= 3.59D+00.
 ITRead=  0  0  0  0  0  0  0  0  0  0  0  0  0  0  0  0  0  0  0  0
 ITRead=  0  0  0  0  0  0  0  0  0  0  0  0  0  0  0  0  0  0  0  0
 ITRead=  0
 MicOpt= -1 -1 -1 -1 -1 -1 -1 -1 -1 -1 -1 -1 -1 -1 -1 -1 -1 -1 -1 -1
 MicOpt= -1 -1 -1 -1 -1 -1 -1 -1 -1 -1 -1 -1 -1 -1 -1 -1 -1 -1 -1 -1
 MicOpt= -1
 NAtoms=     41 NQM=       41 NQMF=       0 NMMI=      0 NMMIF=      0
                NMic=       0 NMicF=      0.
                    Isotopes and Nuclear Properties:
 (Nuclear quadrupole moments (NQMom) in fm**2, nuclear magnetic moments (NMagM)
  in nuclear magnetons)

  Atom         1           2           3           4           5           6           7           8           9          10
 IAtWgt=           1          12          12           1           1           1           1          12          12           1
 AtmWgt=   1.0078250  12.0000000  12.0000000   1.0078250   1.0078250   1.0078250   1.0078250  12.0000000  12.0000000   1.0078250
 NucSpn=           1           0           0           1           1           1           1           0           0           1
 AtZEff=  -0.0000000  -0.0000000  -0.0000000  -0.0000000  -0.0000000  -0.0000000  -0.0000000  -0.0000000  -0.0000000  -0.0000000
 NQMom=    0.0000000   0.0000000   0.0000000   0.0000000   0.0000000   0.0000000   0.0000000   0.0000000   0.0000000   0.0000000
 NMagM=    2.7928460   0.0000000   0.0000000   2.7928460   2.7928460   2.7928460   2.7928460   0.0000000   0.0000000   2.7928460
 AtZNuc=   1.0000000   6.0000000   6.0000000   1.0000000   1.0000000   1.0000000   1.0000000   6.0000000   6.0000000   1.0000000

  Atom        11          12          13          14          15          16          17          18          19          20
 IAtWgt=           1           1          16           1          12           1           1           1           1          12
 AtmWgt=   1.0078250   1.0078250  15.9949146   1.0078250  12.0000000   1.0078250   1.0078250   1.0078250   1.0078250  12.0000000
 NucSpn=           1           1           0           1           0           1           1           1           1           0
 AtZEff=  -0.0000000  -0.0000000  -0.0000000  -0.0000000  -0.0000000  -0.0000000  -0.0000000  -0.0000000  -0.0000000  -0.0000000
 NQMom=    0.0000000   0.0000000   0.0000000   0.0000000   0.0000000   0.0000000   0.0000000   0.0000000   0.0000000   0.0000000
 NMagM=    2.7928460   2.7928460   0.0000000   2.7928460   0.0000000   2.7928460   2.7928460   2.7928460   2.7928460   0.0000000
 AtZNuc=   1.0000000   1.0000000   8.0000000   1.0000000   6.0000000   1.0000000   1.0000000   1.0000000   1.0000000   6.0000000

  Atom        21          22          23          24          25          26          27          28          29          30
 IAtWgt=          12           1           1           1           1          12          12           1           1           1
 AtmWgt=  12.0000000   1.0078250   1.0078250   1.0078250   1.0078250  12.0000000  12.0000000   1.0078250   1.0078250   1.0078250
 NucSpn=           0           1           1           1           1           0           0           1           1           1
 AtZEff=  -0.0000000  -0.0000000  -0.0000000  -0.0000000  -0.0000000  -0.0000000  -0.0000000  -0.0000000  -0.0000000  -0.0000000
 NQMom=    0.0000000   0.0000000   0.0000000   0.0000000   0.0000000   0.0000000   0.0000000   0.0000000   0.0000000   0.0000000
 NMagM=    0.0000000   2.7928460   2.7928460   2.7928460   2.7928460   0.0000000   0.0000000   2.7928460   2.7928460   2.7928460
 AtZNuc=   6.0000000   1.0000000   1.0000000   1.0000000   1.0000000   6.0000000   6.0000000   1.0000000   1.0000000   1.0000000

  Atom        31          32          33          34          35          36          37          38          39          40
 IAtWgt=          16          12          16          12           1           1           1          12           1           1
 AtmWgt=  15.9949146  12.0000000  15.9949146  12.0000000   1.0078250   1.0078250   1.0078250  12.0000000   1.0078250   1.0078250
 NucSpn=           0           0           0           0           1           1           1           0           1           1
 AtZEff=  -0.0000000  -0.0000000  -0.0000000  -0.0000000  -0.0000000  -0.0000000  -0.0000000  -0.0000000  -0.0000000  -0.0000000
 NQMom=    0.0000000   0.0000000   0.0000000   0.0000000   0.0000000   0.0000000   0.0000000   0.0000000   0.0000000   0.0000000
 NMagM=    0.0000000   0.0000000   0.0000000   0.0000000   2.7928460   2.7928460   2.7928460   0.0000000   2.7928460   2.7928460
 AtZNuc=   8.0000000   6.0000000   8.0000000   6.0000000   1.0000000   1.0000000   1.0000000   6.0000000   1.0000000   1.0000000

  Atom        41
 IAtWgt=           1
 AtmWgt=   1.0078250
 NucSpn=           1
 AtZEff=  -0.0000000
 NQMom=    0.0000000
 NMagM=    2.7928460
 AtZNuc=   1.0000000
 Leave Link  101 at Tue Jan 24 00:27:19 2023, MaxMem=   131072000 cpu:               0.9 elap:               0.1
 (Enter /dragofs/sw/campus/0.2/software/gaussian/16.gaussian/gaussian/g16_legacy/l103.exe)

 GradGradGradGradGradGradGradGradGradGradGradGradGradGradGradGradGradGrad
 Berny optimization.
 Initialization pass.
                           ----------------------------
                           !    Initial Parameters    !
                           ! (Angstroms and Degrees)  !
 --------------------------                            --------------------------
 ! Name  Definition              Value          Derivative Info.                !
 --------------------------------------------------------------------------------
 ! R1    R(1,2)                  1.0976         estimate D2E/DX2                !
 ! R2    R(2,3)                  1.5858         estimate D2E/DX2                !
 ! R3    R(2,4)                  1.1167         estimate D2E/DX2                !
 ! R4    R(2,5)                  1.155          estimate D2E/DX2                !
 ! R5    R(3,6)                  1.1075         estimate D2E/DX2                !
 ! R6    R(3,7)                  1.1375         estimate D2E/DX2                !
 ! R7    R(3,8)                  1.4824         estimate D2E/DX2                !
 ! R8    R(8,9)                  1.4175         estimate D2E/DX2                !
 ! R9    R(8,10)                 1.1191         estimate D2E/DX2                !
 ! R10   R(8,13)                 1.43           estimate D2E/DX2                !
 ! R11   R(9,11)                 1.1144         estimate D2E/DX2                !
 ! R12   R(9,12)                 1.0911         estimate D2E/DX2                !
 ! R13   R(9,15)                 1.5233         estimate D2E/DX2                !
 ! R14   R(13,14)                0.9735         estimate D2E/DX2                !
 ! R15   R(14,33)                1.8996         estimate D2E/DX2                !
 ! R16   R(15,16)                1.1349         estimate D2E/DX2                !
 ! R17   R(15,17)                1.1612         estimate D2E/DX2                !
 ! R18   R(15,18)                1.1461         estimate D2E/DX2                !
 ! R19   R(19,20)                1.1236         estimate D2E/DX2                !
 ! R20   R(20,21)                1.5773         estimate D2E/DX2                !
 ! R21   R(20,22)                1.1085         estimate D2E/DX2                !
 ! R22   R(20,23)                1.0733         estimate D2E/DX2                !
 ! R23   R(21,24)                1.0808         estimate D2E/DX2                !
 ! R24   R(21,25)                1.102          estimate D2E/DX2                !
 ! R25   R(21,26)                1.4104         estimate D2E/DX2                !
 ! R26   R(26,27)                1.3956         estimate D2E/DX2                !
 ! R27   R(26,28)                1.1459         estimate D2E/DX2                !
 ! R28   R(26,31)                1.4331         estimate D2E/DX2                !
 ! R29   R(27,29)                1.0694         estimate D2E/DX2                !
 ! R30   R(27,30)                1.1056         estimate D2E/DX2                !
 ! R31   R(27,38)                1.5776         estimate D2E/DX2                !
 ! R32   R(31,32)                1.3446         estimate D2E/DX2                !
 ! R33   R(32,33)                1.1838         estimate D2E/DX2                !
 ! R34   R(32,34)                1.5209         estimate D2E/DX2                !
 ! R35   R(34,35)                1.1074         estimate D2E/DX2                !
 ! R36   R(34,36)                1.1493         estimate D2E/DX2                !
 ! R37   R(34,37)                1.0939         estimate D2E/DX2                !
 ! R38   R(38,39)                1.0407         estimate D2E/DX2                !
 ! R39   R(38,40)                1.0671         estimate D2E/DX2                !
 ! R40   R(38,41)                1.0838         estimate D2E/DX2                !
 ! A1    A(1,2,3)              108.1314         estimate D2E/DX2                !
 ! A2    A(1,2,4)              107.4739         estimate D2E/DX2                !
 ! A3    A(1,2,5)              106.8286         estimate D2E/DX2                !
 ! A4    A(3,2,4)              106.1331         estimate D2E/DX2                !
 ! A5    A(3,2,5)              117.8281         estimate D2E/DX2                !
 ! A6    A(4,2,5)              110.0388         estimate D2E/DX2                !
 ! A7    A(2,3,6)              115.791          estimate D2E/DX2                !
 ! A8    A(2,3,7)              104.6614         estimate D2E/DX2                !
 ! A9    A(2,3,8)              118.6077         estimate D2E/DX2                !
 ! A10   A(6,3,7)              117.8261         estimate D2E/DX2                !
 ! A11   A(6,3,8)               97.5427         estimate D2E/DX2                !
 ! A12   A(7,3,8)              102.2267         estimate D2E/DX2                !
 ! A13   A(3,8,9)              104.1947         estimate D2E/DX2                !
 ! A14   A(3,8,10)             109.9638         estimate D2E/DX2                !
 ! A15   A(3,8,13)             112.6799         estimate D2E/DX2                !
 ! A16   A(9,8,10)             107.3285         estimate D2E/DX2                !
 ! A17   A(9,8,13)             111.0288         estimate D2E/DX2                !
 ! A18   A(10,8,13)            111.2941         estimate D2E/DX2                !
 ! A19   A(8,9,11)             111.213          estimate D2E/DX2                !
 ! A20   A(8,9,12)             107.2568         estimate D2E/DX2                !
 ! A21   A(8,9,15)             118.0921         estimate D2E/DX2                !
 ! A22   A(11,9,12)            106.6705         estimate D2E/DX2                !
 ! A23   A(11,9,15)            109.6388         estimate D2E/DX2                !
 ! A24   A(12,9,15)            103.0455         estimate D2E/DX2                !
 ! A25   A(8,13,14)             99.8145         estimate D2E/DX2                !
 ! A26   A(13,14,33)           141.0706         estimate D2E/DX2                !
 ! A27   A(9,15,16)            110.0528         estimate D2E/DX2                !
 ! A28   A(9,15,17)            113.3712         estimate D2E/DX2                !
 ! A29   A(9,15,18)            111.1447         estimate D2E/DX2                !
 ! A30   A(16,15,17)           104.9541         estimate D2E/DX2                !
 ! A31   A(16,15,18)           105.6626         estimate D2E/DX2                !
 ! A32   A(17,15,18)           111.1884         estimate D2E/DX2                !
 ! A33   A(19,20,21)           110.4397         estimate D2E/DX2                !
 ! A34   A(19,20,22)           110.4719         estimate D2E/DX2                !
 ! A35   A(19,20,23)           107.4297         estimate D2E/DX2                !
 ! A36   A(21,20,22)           107.2343         estimate D2E/DX2                !
 ! A37   A(21,20,23)           109.8741         estimate D2E/DX2                !
 ! A38   A(22,20,23)           111.415          estimate D2E/DX2                !
 ! A39   A(20,21,24)           107.8553         estimate D2E/DX2                !
 ! A40   A(20,21,25)           107.604          estimate D2E/DX2                !
 ! A41   A(20,21,26)           115.3044         estimate D2E/DX2                !
 ! A42   A(24,21,25)           109.5256         estimate D2E/DX2                !
 ! A43   A(24,21,26)           112.4368         estimate D2E/DX2                !
 ! A44   A(25,21,26)           103.8705         estimate D2E/DX2                !
 ! A45   A(21,26,27)           115.4559         estimate D2E/DX2                !
 ! A46   A(21,26,28)           104.5787         estimate D2E/DX2                !
 ! A47   A(21,26,31)           108.3406         estimate D2E/DX2                !
 ! A48   A(27,26,28)           111.9165         estimate D2E/DX2                !
 ! A49   A(27,26,31)           109.8812         estimate D2E/DX2                !
 ! A50   A(28,26,31)           106.143          estimate D2E/DX2                !
 ! A51   A(26,27,29)           106.2029         estimate D2E/DX2                !
 ! A52   A(26,27,30)           109.5335         estimate D2E/DX2                !
 ! A53   A(26,27,38)           121.6959         estimate D2E/DX2                !
 ! A54   A(29,27,30)           111.6263         estimate D2E/DX2                !
 ! A55   A(29,27,38)           111.1002         estimate D2E/DX2                !
 ! A56   A(30,27,38)            96.4092         estimate D2E/DX2                !
 ! A57   A(26,31,32)           118.4445         estimate D2E/DX2                !
 ! A58   A(31,32,33)           126.8257         estimate D2E/DX2                !
 ! A59   A(31,32,34)           101.9942         estimate D2E/DX2                !
 ! A60   A(33,32,34)           130.7694         estimate D2E/DX2                !
 ! A61   A(14,33,32)           147.7808         estimate D2E/DX2                !
 ! A62   A(32,34,35)           107.6256         estimate D2E/DX2                !
 ! A63   A(32,34,36)           117.5593         estimate D2E/DX2                !
 ! A64   A(32,34,37)            99.9568         estimate D2E/DX2                !
 ! A65   A(35,34,36)           111.4384         estimate D2E/DX2                !
 ! A66   A(35,34,37)           107.9095         estimate D2E/DX2                !
 ! A67   A(36,34,37)           111.4585         estimate D2E/DX2                !
 ! A68   A(27,38,39)           107.3073         estimate D2E/DX2                !
 ! A69   A(27,38,40)           116.1592         estimate D2E/DX2                !
 ! A70   A(27,38,41)           102.6535         estimate D2E/DX2                !
 ! A71   A(39,38,40)           108.1466         estimate D2E/DX2                !
 ! A72   A(39,38,41)           109.9436         estimate D2E/DX2                !
 ! A73   A(40,38,41)           112.395          estimate D2E/DX2                !
 ! D1    D(1,2,3,6)           -169.8472         estimate D2E/DX2                !
 ! D2    D(1,2,3,7)             58.6769         estimate D2E/DX2                !
 ! D3    D(1,2,3,8)            -54.4045         estimate D2E/DX2                !
 ! D4    D(4,2,3,6)             75.0885         estimate D2E/DX2                !
 ! D5    D(4,2,3,7)            -56.3873         estimate D2E/DX2                !
 ! D6    D(4,2,3,8)           -169.4688         estimate D2E/DX2                !
 ! D7    D(5,2,3,6)            -48.694          estimate D2E/DX2                !
 ! D8    D(5,2,3,7)            179.8301         estimate D2E/DX2                !
 ! D9    D(5,2,3,8)             66.7487         estimate D2E/DX2                !
 ! D10   D(2,3,8,9)            160.9388         estimate D2E/DX2                !
 ! D11   D(2,3,8,10)           -84.3052         estimate D2E/DX2                !
 ! D12   D(2,3,8,13)            40.4838         estimate D2E/DX2                !
 ! D13   D(6,3,8,9)            -74.162          estimate D2E/DX2                !
 ! D14   D(6,3,8,10)            40.5939         estimate D2E/DX2                !
 ! D15   D(6,3,8,13)           165.383          estimate D2E/DX2                !
 ! D16   D(7,3,8,9)             46.5341         estimate D2E/DX2                !
 ! D17   D(7,3,8,10)           161.2901         estimate D2E/DX2                !
 ! D18   D(7,3,8,13)           -73.9209         estimate D2E/DX2                !
 ! D19   D(3,8,9,11)            40.5663         estimate D2E/DX2                !
 ! D20   D(3,8,9,12)           -75.7159         estimate D2E/DX2                !
 ! D21   D(3,8,9,15)           168.579          estimate D2E/DX2                !
 ! D22   D(10,8,9,11)          -76.0392         estimate D2E/DX2                !
 ! D23   D(10,8,9,12)          167.6786         estimate D2E/DX2                !
 ! D24   D(10,8,9,15)           51.9736         estimate D2E/DX2                !
 ! D25   D(13,8,9,11)          162.1231         estimate D2E/DX2                !
 ! D26   D(13,8,9,12)           45.8409         estimate D2E/DX2                !
 ! D27   D(13,8,9,15)          -69.8641         estimate D2E/DX2                !
 ! D28   D(3,8,13,14)         -164.5567         estimate D2E/DX2                !
 ! D29   D(9,8,13,14)           78.9951         estimate D2E/DX2                !
 ! D30   D(10,8,13,14)         -40.4984         estimate D2E/DX2                !
 ! D31   D(8,9,15,16)           52.2607         estimate D2E/DX2                !
 ! D32   D(8,9,15,17)          -64.9322         estimate D2E/DX2                !
 ! D33   D(8,9,15,18)          168.9604         estimate D2E/DX2                !
 ! D34   D(11,9,15,16)        -178.9864         estimate D2E/DX2                !
 ! D35   D(11,9,15,17)          63.8207         estimate D2E/DX2                !
 ! D36   D(11,9,15,18)         -62.2866         estimate D2E/DX2                !
 ! D37   D(12,9,15,16)         -65.6994         estimate D2E/DX2                !
 ! D38   D(12,9,15,17)         177.1077         estimate D2E/DX2                !
 ! D39   D(12,9,15,18)          51.0004         estimate D2E/DX2                !
 ! D40   D(8,13,14,33)          84.4505         estimate D2E/DX2                !
 ! D41   D(13,14,33,32)         83.0478         estimate D2E/DX2                !
 ! D42   D(19,20,21,24)       -154.8556         estimate D2E/DX2                !
 ! D43   D(19,20,21,25)         87.0709         estimate D2E/DX2                !
 ! D44   D(19,20,21,26)        -28.2834         estimate D2E/DX2                !
 ! D45   D(22,20,21,24)         84.7198         estimate D2E/DX2                !
 ! D46   D(22,20,21,25)        -33.3537         estimate D2E/DX2                !
 ! D47   D(22,20,21,26)       -148.708          estimate D2E/DX2                !
 ! D48   D(23,20,21,24)        -36.5206         estimate D2E/DX2                !
 ! D49   D(23,20,21,25)       -154.5942         estimate D2E/DX2                !
 ! D50   D(23,20,21,26)         90.0516         estimate D2E/DX2                !
 ! D51   D(20,21,26,27)       -170.8731         estimate D2E/DX2                !
 ! D52   D(20,21,26,28)        -47.441          estimate D2E/DX2                !
 ! D53   D(20,21,26,31)         65.4437         estimate D2E/DX2                !
 ! D54   D(24,21,26,27)        -46.6679         estimate D2E/DX2                !
 ! D55   D(24,21,26,28)         76.7642         estimate D2E/DX2                !
 ! D56   D(24,21,26,31)       -170.3511         estimate D2E/DX2                !
 ! D57   D(25,21,26,27)         71.654          estimate D2E/DX2                !
 ! D58   D(25,21,26,28)       -164.9139         estimate D2E/DX2                !
 ! D59   D(25,21,26,31)        -52.0292         estimate D2E/DX2                !
 ! D60   D(21,26,27,29)         42.8187         estimate D2E/DX2                !
 ! D61   D(21,26,27,30)        -77.8668         estimate D2E/DX2                !
 ! D62   D(21,26,27,38)        171.1381         estimate D2E/DX2                !
 ! D63   D(28,26,27,29)        -76.6543         estimate D2E/DX2                !
 ! D64   D(28,26,27,30)        162.6602         estimate D2E/DX2                !
 ! D65   D(28,26,27,38)         51.6651         estimate D2E/DX2                !
 ! D66   D(31,26,27,29)        165.6884         estimate D2E/DX2                !
 ! D67   D(31,26,27,30)         45.0029         estimate D2E/DX2                !
 ! D68   D(31,26,27,38)        -65.9922         estimate D2E/DX2                !
 ! D69   D(21,26,31,32)       -151.2367         estimate D2E/DX2                !
 ! D70   D(27,26,31,32)         81.7933         estimate D2E/DX2                !
 ! D71   D(28,26,31,32)        -39.3966         estimate D2E/DX2                !
 ! D72   D(26,27,38,39)        165.3432         estimate D2E/DX2                !
 ! D73   D(26,27,38,40)         44.2454         estimate D2E/DX2                !
 ! D74   D(26,27,38,41)        -78.8001         estimate D2E/DX2                !
 ! D75   D(29,27,38,39)        -68.5138         estimate D2E/DX2                !
 ! D76   D(29,27,38,40)        170.3884         estimate D2E/DX2                !
 ! D77   D(29,27,38,41)         47.3429         estimate D2E/DX2                !
 ! D78   D(30,27,38,39)         47.6455         estimate D2E/DX2                !
 ! D79   D(30,27,38,40)        -73.4523         estimate D2E/DX2                !
 ! D80   D(30,27,38,41)        163.5021         estimate D2E/DX2                !
 ! D81   D(26,31,32,33)          0.6944         estimate D2E/DX2                !
 ! D82   D(26,31,32,34)       -172.5652         estimate D2E/DX2                !
 ! D83   D(31,32,33,14)        163.6842         estimate D2E/DX2                !
 ! D84   D(34,32,33,14)        -25.0351         estimate D2E/DX2                !
 ! D85   D(31,32,34,35)         62.3596         estimate D2E/DX2                !
 ! D86   D(31,32,34,36)       -170.8853         estimate D2E/DX2                !
 ! D87   D(31,32,34,37)        -50.183          estimate D2E/DX2                !
 ! D88   D(33,32,34,35)       -110.5143         estimate D2E/DX2                !
 ! D89   D(33,32,34,36)         16.2408         estimate D2E/DX2                !
 ! D90   D(33,32,34,37)        136.9431         estimate D2E/DX2                !
 --------------------------------------------------------------------------------
 Trust Radius=3.00D-01 FncErr=1.00D-07 GrdErr=1.00D-06 EigMax=2.50D+02 EigMin=1.00D-04
 Number of steps in this run=    213 maximum allowed number of steps=    246.
 GradGradGradGradGradGradGradGradGradGradGradGradGradGradGradGradGradGrad

 Leave Link  103 at Tue Jan 24 00:27:19 2023, MaxMem=   131072000 cpu:               0.2 elap:               0.0
 (Enter /dragofs/sw/campus/0.2/software/gaussian/16.gaussian/gaussian/g16_legacy/l202.exe)
                          Input orientation:                          
 ---------------------------------------------------------------------
 Center     Atomic      Atomic             Coordinates (Angstroms)
 Number     Number       Type             X           Y           Z
 ---------------------------------------------------------------------
      1          1           0       16.940000    6.719000    5.687000
      2          6           0       16.340000    6.093000    6.360000
      3          6           0       17.200000    5.801000    7.660000
      4          1           0       15.467000    6.703000    6.696000
      5          1           0       15.976000    5.189000    5.740000
      6          1           0       16.788000    5.038000    8.349000
      7          1           0       17.436000    6.829000    8.086000
      8          6           0       18.550000    5.210000    7.500000
      9          6           0       19.201000    5.493000    8.727000
     10          1           0       18.472000    4.097000    7.413000
     11          1           0       18.511000    5.354000    9.591000
     12          1           0       19.475000    6.549000    8.712000
     13          8           0       19.269000    5.768000    6.397000
     14          1           0       19.974000    5.103000    6.305000
     15          6           0       20.526000    4.798000    9.013000
     16          1           0       21.241000    4.951000    8.145000
     17          1           0       20.428000    3.646000    9.121000
     18          1           0       21.045000    5.257000    9.926000
     19          1           0       23.585000    1.411000    4.934000
     20          6           0       23.607000    0.393000    5.409000
     21          6           0       22.144000   -0.178000    5.556000
     22          1           0       24.175000   -0.318000    4.776000
     23          1           0       24.056000    0.500000    6.378000
     24          1           0       22.146000   -0.889000    6.370000
     25          1           0       21.892000   -0.695000    4.616000
     26          6           0       21.129000    0.792000    5.691000
     27          6           0       19.866000    0.297000    6.019000
     28          1           0       21.525000    1.515000    6.487000
     29          1           0       20.023000   -0.446000    6.772000
     30          1           0       19.391000   -0.131000    5.117000
     31          8           0       21.057000    1.542000    4.472000
     32          6           0       20.637000    2.818000    4.529000
     33          8           0       20.320000    3.418000    5.499000
     34          6           0       20.522000    3.179000    3.056000
     35          1           0       19.757000    2.516000    2.607000
     36          1           0       20.330000    4.281000    2.792000
     37          1           0       21.503000    2.848000    2.703000
     38          6           0       18.675000    1.256000    6.407000
     39          1           0       17.799000    0.696000    6.361000
     40          1           0       18.549000    2.121000    5.795000
     41          1           0       18.899000    1.508000    7.437000
 ---------------------------------------------------------------------
                    Distance matrix (angstroms):
                    1          2          3          4          5
     1  H    0.000000
     2  C    1.097636   0.000000
     3  C    2.191587   1.585832   0.000000
     4  H    1.785516   1.116748   2.178575   0.000000
     5  H    1.809145   1.155038   2.357779   1.861508   0.000000
     6  H    3.152001   2.295615   1.107535   2.692522   2.736608
     7  H    2.452207   2.173014   1.137522   2.413491   3.213241
     8  C    2.855897   2.638823   1.482357   3.518573   3.118255
     9  C    3.982059   3.761384   2.288527   4.419482   4.406269
    10  H    3.492991   3.104553   2.140703   4.041701   3.197094
    11  H    4.424080   3.962161   2.376403   4.412115   4.613421
    12  H    3.950411   3.945639   2.615690   4.489102   4.788046
    13  O    2.613951   2.947208   2.424256   3.926682   3.407453
    14  H    3.492640   3.766840   3.165171   4.798534   4.038641
    15  C    5.254704   5.122307   3.728122   5.881411   5.618533
    16  H    5.259866   5.339493   4.157813   6.205496   5.793177
    17  H    5.779432   5.506603   4.147111   6.311687   5.799337
    18  H    6.079275   5.962573   4.496078   6.605899   6.574343
    19  H    8.538027   8.743262   8.214098   9.849458   8.533452
    20  C    9.194806   9.284594   8.681193  10.379406   9.019054
    21  C    8.641029   8.582440   8.038557   9.655573   8.178189
    22  H   10.133830  10.246814   9.716493  11.349454   9.923706
    23  H    9.475806   9.529881   8.760643  10.599493   9.363769
    24  H    9.243949   9.080642   8.419211  10.117005   8.683771
    25  H    8.979796   8.941095   8.571979  10.016857   8.419257
    26  C    7.257897   7.175143   6.663639   8.246708   6.774173
    27  C    7.064969   6.792832   6.332018   7.800408   6.256325
    28  H    6.981679   6.917979   6.200915   7.978621   6.696841
    29  H    7.875236   7.516166   6.912516   8.477683   7.014019
    30  H    7.297589   7.042146   6.815860   8.037075   6.352382
    31  O    6.725120   6.821014   6.571063   7.926550   6.381614
    32  C    5.497870   5.704594   5.523986   6.820412   5.367782
    33  O    4.728250   4.872099   4.481407   5.981274   4.697325
    34  C    5.681944   6.074285   6.253590   7.156899   5.648900
    35  H    5.923436   6.209334   6.546929   7.256376   5.590758
    36  H    5.081040   5.651024   5.983705   6.689998   5.335961
    37  H    6.686544   7.110573   7.197768   8.199901   6.726915
    38  C    5.776936   5.371313   4.939905   6.328080   4.816428
    39  H    6.121167   5.590733   5.301625   6.452480   4.888355
    40  H    4.872592   4.579922   4.340556   5.595109   4.004495
    41  H    5.835641   5.360097   4.622356   6.270226   4.997349
                    6          7          8          9         10
     6  H    0.000000
     7  H    1.922694   0.000000
     8  C    1.963423   2.050744   0.000000
     9  C    2.484447   2.304561   1.417540   0.000000
    10  H    2.144163   2.998341   1.119117   2.051061   0.000000
    11  H    2.147359   2.365645   2.096315   1.114413   2.515006
    12  H    3.104007   2.151232   2.029160   1.091071   2.950545
    13  O    3.240149   2.708935   1.430012   2.347158   2.111802
    14  H    3.785863   3.548589   1.862055   2.572103   2.120308
    15  C    3.804095   3.812137   2.522596   1.523301   2.696353
    16  H    4.458519   4.243629   2.779314   2.189541   2.988729
    17  H    3.972814   4.489407   2.932682   2.252149   2.635641
    18  H    4.544991   4.345304   3.480332   2.212156   3.779034
    19  H    8.427133   8.780662   6.809404   7.090066   6.285126
    20  C    8.758903   9.309654   7.290337   7.512121   6.641073
    21  C    7.980867   8.812730   6.762138   7.132793   5.933604
    22  H    9.799022  10.365801   8.343835   8.609227   7.679206
    23  H    8.792162   9.316539   7.332054   7.349753   6.722402
    24  H    8.231278   9.203058   7.169792   7.413393   6.280631
    25  H    8.535420   9.407838   7.372615   7.901465   6.517889
    26  C    6.628556   7.471254   5.426089   5.918943   4.576894
    27  C    6.113924   7.269416   5.297432   5.896940   4.280943
    28  H    6.190133   6.893136   4.850754   5.122798   4.104267
    29  H    6.559452   7.832291   5.889826   6.306301   4.843070
    30  H    6.628725   7.815279   5.908659   6.685625   4.898179
    31  O    6.743701   7.356970   5.376621   6.095914   4.675439
    32  C    5.859659   6.243939   4.347882   5.180823   3.826294
    33  O    4.818913   5.161874   3.216856   3.997220   2.745822
    34  C    6.739027   6.938789   5.269049   6.265770   4.901905
    35  H    6.938733   7.349044   5.714537   6.828328   5.220002
    36  H    6.633179   6.549349   5.118272   6.161802   4.983940
    37  H    7.674936   7.833616   6.108229   6.970208   5.738559
    38  C    4.651415   5.950840   4.104192   4.859140   3.020683
    39  H    4.881314   6.381307   4.715667   5.529446   3.623042
    40  H    4.258277   5.352823   3.528307   4.515763   2.555079
    41  H    4.212952   5.556493   3.718948   4.199468   2.624086
                   11         12         13         14         15
    11  H    0.000000
    12  H    1.769170   0.000000
    13  O    3.308715   2.451861   0.000000
    14  H    3.605713   2.851941   0.973506   0.000000
    15  C    2.168743   2.064268   3.060132   2.780466   0.000000
    16  H    3.115482   2.448234   2.758945   2.239195   1.134926
    17  H    2.610183   3.082677   3.642299   3.202939   1.161194
    18  H    2.557888   2.368113   3.983609   3.779206   1.146129
    19  H    7.936018   7.587123   6.304893   5.343204   6.121069
    20  C    8.250446   8.116623   6.977465   6.015447   6.471893
    21  C    7.751318   7.895342   6.657914   5.758373   6.271312
    22  H    9.350760   9.205313   7.983475   7.026627   7.578973
    23  H    8.039385   7.938735   7.118114   6.152696   6.154424
    24  H    7.909685   8.242757   7.252138   6.373843   6.477022
    25  H    8.530662   8.665716   7.198782   6.336265   7.167469
    26  C    6.547959   6.708592   5.358975   4.505080   5.239020
    27  C    6.337859   6.818551   5.516442   4.815713   5.445974
    28  H    5.784197   5.873183   4.815147   3.913115   4.261076
    29  H    6.623663   7.279693   6.270800   5.568832   5.724913
    30  H    7.132763   7.586401   6.037507   5.398703   6.384519
    31  O    6.871508   6.749102   4.976107   4.148915   5.612858
    32  C    6.047728   5.724342   3.750113   2.969002   4.902956
    33  O    4.874940   4.565146   2.726445   1.899625   3.780877
    34  C    7.175024   6.666592   4.408538   3.815505   6.173089
    35  H    7.640878   7.322270   5.017743   4.518281   6.843663
    36  H    7.119445   6.396972   4.041400   3.625409   6.245522
    37  H    7.916858   7.342906   5.211794   4.516334   6.676311
    38  C    5.192144   5.828282   4.550943   4.061676   4.771080
    39  H    5.712863   6.526391   5.280850   4.914815   5.594286
    40  H    4.986316   5.382708   3.765822   3.344107   4.629296
    41  H    4.425153   5.231547   4.400693   3.919321   3.994372
                   16         17         18         19         20
    16  H    0.000000
    17  H    1.821145   0.000000
    18  H    1.817694   1.903690   0.000000
    19  H    5.323200   5.700249   6.794364   0.000000
    20  C    5.818850   5.870860   7.115169   1.123580   0.000000
    21  C    5.815924   5.502441   7.060023   2.233447   1.577346
    22  H    6.908030   6.973688   8.209752   1.833713   1.108528
    23  H    5.554990   5.530258   6.654583   1.771129   1.073318
    24  H    6.170515   5.575460   7.185447   3.069661   2.168309
    25  H    6.689915   6.425154   8.021210   2.720774   2.180325
    26  C    4.830315   4.516815   6.154552   2.643510   2.525710
    27  C    5.298133   4.599353   6.423106   4.031027   3.791622
    28  H    3.825665   3.561253   5.104869   2.581903   2.599171
    29  H    5.700549   4.735640   6.596697   4.417526   3.925143
    30  H    6.198226   5.601171   7.408964   4.472235   4.258462
    31  O    5.014585   5.141562   6.599052   2.573206   2.949690
    32  C    4.241457   4.670731   5.936564   3.291562   3.933945
    33  O    3.193688   3.630776   4.848286   3.873951   4.468008
    34  C    5.436439   6.083679   7.196424   4.004332   4.776571
    35  H    6.229039   6.645249   7.920845   4.614059   5.213524
    36  H    5.471145   6.361530   7.235866   4.839431   5.718738
    37  H    5.840087   6.556154   7.627894   3.372989   4.216192
    38  C    4.822657   4.018819   5.831660   5.128533   5.105428
    39  H    5.756305   4.819932   6.636902   6.002112   5.893299
    40  H    4.558318   4.113216   5.755838   5.158170   5.358950
    41  H    4.223799   3.121657   4.985523   5.313475   5.246072
                   21         22         23         24         25
    21  C    0.000000
    22  H    2.180129   0.000000
    23  H    2.188861   1.802689   0.000000
    24  H    1.080796   2.642673   2.361670   0.000000
    25  H    1.101995   2.319443   3.035715   1.782882   0.000000
    26  C    1.410443   3.368596   3.020689   2.078723   1.987200
    27  C    2.372610   4.526672   4.210248   2.593877   2.656530
    28  H    2.028835   3.648275   2.729115   2.485668   2.918806
    29  H    2.459496   4.608634   4.161159   2.205670   2.864175
    30  H    2.788178   4.799782   4.873449   3.120032   2.612297
    31  O    2.305434   3.643342   3.703053   3.270793   2.392097
    32  C    3.507391   4.734232   4.525648   4.405475   3.731456
    33  O    4.032548   5.416775   4.821313   4.758484   4.490840
    34  C    4.488912   5.341518   5.540928   5.492595   4.395267
    35  H    4.653172   5.679335   6.063505   5.609057   4.347968
    36  H    5.550943   6.314355   6.406125   6.544375   5.525160
    37  H    4.207988   4.632545   5.053369   5.274989   4.045212
    38  C    3.848963   5.948751   5.433925   4.080470   4.166914
    39  H    4.504545   6.647842   6.260092   4.626955   4.661819
    40  H    4.273938   6.216024   5.770145   4.725371   4.527201
    41  H    4.112272   6.184769   5.360242   4.174579   4.665758
                   26         27         28         29         30
    26  C    0.000000
    27  C    1.395628   0.000000
    28  H    1.145932   2.110647   0.000000
    29  H    1.981020   1.069442   2.486514   0.000000
    30  H    2.049890   1.105628   3.023272   1.799354   0.000000
    31  O    1.433054   2.315538   2.068811   3.211121   2.447552
    32  C    2.386836   3.028198   2.513984   4.007710   3.254975
    33  O    2.754491   3.196429   2.459589   4.079122   3.688410
    34  C    3.606861   4.185168   3.942926   5.215197   4.059924
    35  H    3.790200   4.071558   4.379752   5.117756   3.666151
    36  H    4.606053   5.147920   4.767788   6.187017   5.074750
    37  H    3.646252   4.492575   4.011986   5.440367   4.377486
    38  C    2.598089   1.577563   2.862862   2.201621   2.024975
    39  H    3.398090   2.132757   3.817029   2.533626   2.183101
    40  H    2.904041   2.260894   3.114912   3.117161   2.498030
    41  H    2.921313   2.100556   2.792566   2.350259   2.882843
                   31         32         33         34         35
    31  O    0.000000
    32  C    1.344554   0.000000
    33  O    2.262139   1.183803   0.000000
    34  C    2.229585   1.520945   2.462960   0.000000
    35  H    2.473237   2.135343   3.081272   1.107427   0.000000
    36  H    3.294397   2.291678   2.841253   1.149332   1.864880
    37  H    2.243638   2.021171   3.089014   1.093861   1.779875
    38  C    3.082198   3.133077   2.864391   4.282352   4.147086
    39  H    3.859871   3.989154   3.808907   4.950055   4.608544
    40  H    2.894069   2.539352   2.215009   3.537543   3.432001
    41  H    3.667335   3.632246   3.069721   4.961807   5.008106
                   36         37         38         39         40
    36  H    0.000000
    37  H    1.854006   0.000000
    38  C    4.995786   4.924598   0.000000
    39  H    5.656496   5.633088   1.040717   0.000000
    40  H    4.105554   4.337639   1.067073   1.706892   0.000000
    41  H    5.595830   5.566612   1.083780   1.739862   1.787298
                   41
    41  H    0.000000
 Stoichiometry    C12H26O3
 Framework group  C1[X(C12H26O3)]
 Deg. of freedom   117
 Full point group                 C1      NOp   1
 Largest Abelian subgroup         C1      NOp   1
 Largest concise Abelian subgroup C1      NOp   1
                         Standard orientation:                         
 ---------------------------------------------------------------------
 Center     Atomic      Atomic             Coordinates (Angstroms)
 Number     Number       Type             X           Y           Z
 ---------------------------------------------------------------------
      1          1           0       -4.181763   -2.105783   -0.332897
      2          6           0       -4.284106   -1.690021    0.677782
      3          6           0       -4.049507   -0.123916    0.593259
      4          1           0       -5.347061   -1.828100    0.991126
      5          1           0       -3.586324   -2.303499    1.363972
      6          1           0       -3.950149    0.401493    1.563159
      7          1           0       -4.842550    0.247230   -0.132888
      8          6           0       -2.798475    0.373927   -0.026784
      9          6           0       -3.086126    1.722516   -0.355393
     10          1           0       -1.974411    0.383816    0.730344
     11          1           0       -3.672419    2.218146    0.452399
     12          1           0       -3.722176    1.711074   -1.241816
     13          8           0       -2.425911   -0.369468   -1.190182
     14          1           0       -1.501775   -0.078221   -1.284313
     15          6           0       -1.929529    2.621274   -0.773679
     16          1           0       -1.338445    2.131214   -1.609453
     17          1           0       -1.156654    2.801869    0.073919
     18          1           0       -2.311041    3.612459   -1.204505
     19          1           0        3.766660    0.637187   -1.814989
     20          6           0        4.374900    1.183835   -1.044500
     21          6           0        3.938982    0.752674    0.408804
     22          1           0        5.450010    0.936014   -1.152010
     23          1           0        4.199108    2.233723   -1.181774
     24          1           0        4.184767    1.561551    1.082175
     25          1           0        4.522014   -0.142299    0.679896
     26          6           0        2.598121    0.334274    0.536799
     27          6           0        2.151784    0.142754    1.845188
     28          1           0        1.991512    1.139110   -0.008569
     29          1           0        2.529429    0.966625    2.412927
     30          1           0        2.530528   -0.823131    2.227330
     31          8           0        2.428255   -0.872244   -0.217591
     32          6           0        1.215719   -1.139679   -0.733403
     33          8           0        0.243546   -0.470033   -0.644847
     34          6           0        1.404689   -2.550133   -1.270231
     35          1           0        1.637743   -3.207810   -0.410265
     36          1           0        0.563801   -2.989235   -1.919123
     37          1           0        2.324017   -2.411557   -1.846567
     38          6           0        0.631390   -0.122617    2.171819
     39          1           0        0.581972   -0.477289    3.148988
     40          1           0        0.129108   -0.819993    1.539345
     41          1           0        0.199930    0.870042    2.116580
 ---------------------------------------------------------------------
 Rotational constants (GHZ):           0.8109353           0.2563446           0.2404339
 Leave Link  202 at Tue Jan 24 00:27:19 2023, MaxMem=   131072000 cpu:               0.2 elap:               0.1
 (Enter /dragofs/sw/campus/0.2/software/gaussian/16.gaussian/gaussian/g16_legacy/l301.exe)
 Standard basis: 6-31G(d,p) (6D, 7F)
 Ernie: Thresh=  0.10000D-02 Tol=  0.10000D-05 Strict=F.
 There are   355 symmetry adapted cartesian basis functions of A   symmetry.
 There are   355 symmetry adapted basis functions of A   symmetry.
   355 basis functions,   602 primitive gaussians,   355 cartesian basis functions
    61 alpha electrons       61 beta electrons
       nuclear repulsion energy      1106.2894340362 Hartrees.
 IExCor=  402 DFT=T Ex=B Corr=LYP ExCW=0 ScaHFX=  0.000000
 ScaDFX=  1.000000  1.000000  1.000000  1.000000 ScalE2=  1.000000  1.000000
 IRadAn=      5 IRanWt=     -1 IRanGd=            0 ICorTp=0 IEmpDi=131
 NAtoms=   41 NActive=   41 NUniq=   41 SFac= 1.00D+00 NAtFMM=   60 NAOKFM=F Big=F
 Integral buffers will be    131072 words long.
 Raffenetti 2 integral format.
 Two-electron integral symmetry is turned on.
 R6Disp:  Grimme-D3 Dispersion energy=       -0.0462546114 Hartrees.
 Nuclear repulsion after empirical dispersion term =     1106.2431794248 Hartrees.
 Leave Link  301 at Tue Jan 24 00:27:19 2023, MaxMem=   131072000 cpu:               0.4 elap:               0.1
 (Enter /dragofs/sw/campus/0.2/software/gaussian/16.gaussian/gaussian/g16_legacy/l302.exe)
 NPDir=0 NMtPBC=     1 NCelOv=     1 NCel=       1 NClECP=     1 NCelD=      1
         NCelK=      1 NCelE2=     1 NClLst=     1 CellRange=     0.0.
 One-electron integrals computed using PRISM.
 One-electron integral symmetry used in STVInt
 NBasis=   355 RedAO= T EigKep=  2.18D-03  NBF=   355
 NBsUse=   355 1.00D-06 EigRej= -1.00D+00 NBFU=   355
 Precomputing XC quadrature grid using
 IXCGrd= 4 IRadAn=           5 IRanWt=          -1 IRanGd=           0 AccXCQ= 0.00D+00.
 Generated NRdTot=       0 NPtTot=           0 NUsed=           0 NTot=          32
 NSgBfM=   354   354   354   354   354 MxSgAt=    41 MxSgA2=    41.
 Leave Link  302 at Tue Jan 24 00:27:20 2023, MaxMem=   131072000 cpu:               5.1 elap:               0.7
 (Enter /dragofs/sw/campus/0.2/software/gaussian/16.gaussian/gaussian/g16_legacy/l303.exe)
 DipDrv:  MaxL=1.
 Leave Link  303 at Tue Jan 24 00:27:20 2023, MaxMem=   131072000 cpu:               0.7 elap:               0.1
 (Enter /dragofs/sw/campus/0.2/software/gaussian/16.gaussian/gaussian/g16_legacy/l401.exe)
 ExpMin= 1.61D-01 ExpMax= 5.48D+03 ExpMxC= 8.25D+02 IAcc=3 IRadAn=         5 AccDes= 0.00D+00
 Harris functional with IExCor=  402 and IRadAn=       5 diagonalized for initial guess.
 HarFok:  IExCor=  402 AccDes= 0.00D+00 IRadAn=         5 IDoV= 1 UseB2=F ITyADJ=14
 ICtDFT=  3500011 ScaDFX=  1.000000  1.000000  1.000000  1.000000
 FoFCou: FMM=F IPFlag=           0 FMFlag=      100000 FMFlg1=           0
         NFxFlg=           0 DoJE=T BraDBF=F KetDBF=T FulRan=T
         wScrn=  0.000000 ICntrl=       500 IOpCl=  0 I1Cent=   200000004 NGrid=           0
         NMat0=    1 NMatS0=      1 NMatT0=    0 NMatD0=    1 NMtDS0=    0 NMtDT0=    0
 Petite list used in FoFCou.
 Harris En= -698.758286802803    
 JPrj=0 DoOrth=F DoCkMO=F.
 Leave Link  401 at Tue Jan 24 00:27:23 2023, MaxMem=   131072000 cpu:              24.0 elap:               3.1
 (Enter /dragofs/sw/campus/0.2/software/gaussian/16.gaussian/gaussian/g16_legacy/l502.exe)
 Integral symmetry usage will be decided dynamically.
 Closed shell SCF:
 Using DIIS extrapolation, IDIIS=  1040.
 NGot=   131072000 LenX=   130813044 LenY=   130686578
 Requested convergence on RMS density matrix=1.00D-08 within 128 cycles.
 Requested convergence on MAX density matrix=1.00D-06.
 Requested convergence on             energy=1.00D-06.
 No special actions if energy rises.
 Fock matrices will be formed incrementally for  20 cycles.
 Integral accuracy reduced to 1.0D-05 until final iterations.

 Cycle   1  Pass 0  IDiag  1:
 FoFJK:  IHMeth= 1 ICntrl=     500 DoSepK=F KAlg= 0 I1Cent=           0 FoldK=F
 IRaf= 760000000 NMat=       1 IRICut=       1 DoRegI=T DoRafI=F ISym2E= 0 IDoP0=0 IntGTp=1.
 FoFCou: FMM=F IPFlag=           0 FMFlag=      100000 FMFlg1=           0
         NFxFlg=           0 DoJE=T BraDBF=F KetDBF=F FulRan=T
         wScrn=  0.000000 ICntrl=       500 IOpCl=  0 I1Cent=           0 NGrid=           0
         NMat0=    1 NMatS0=      1 NMatT0=    0 NMatD0=    1 NMtDS0=    0 NMtDT0=    0
 Symmetry not used in FoFCou.
 E= -697.685717611126    
 DIIS: error= 2.60D-02 at cycle   1 NSaved=   1.
 NSaved= 1 IEnMin= 1 EnMin= -697.685717611126     IErMin= 1 ErrMin= 2.60D-02
 ErrMax= 2.60D-02  0.00D+00 EMaxC= 1.00D-01 BMatC= 5.49D-01 BMatP= 5.49D-01
 IDIUse=3 WtCom= 7.40D-01 WtEn= 2.60D-01
 Coeff-Com:  0.100D+01
 Coeff-En:   0.100D+01
 Coeff:      0.100D+01
 Gap=     0.043 Goal=   None    Shift=    0.000
 GapD=    0.043 DampG=0.250 DampE=0.500 DampFc=0.2500 IDamp=-1.
 Damping current iteration by 2.50D-01
 RMSDP=6.19D-03 MaxDP=2.72D-01              OVMax= 2.38D-01

 Cycle   2  Pass 0  IDiag  1:
 RMSU=  1.54D-03    CP:  9.89D-01
 E= -697.898422920236     Delta-E=       -0.212705309110 Rises=F Damp=T
 DIIS: error= 1.20D-02 at cycle   2 NSaved=   2.
 NSaved= 2 IEnMin= 2 EnMin= -697.898422920236     IErMin= 2 ErrMin= 1.20D-02
 ErrMax= 1.20D-02  0.00D+00 EMaxC= 1.00D-01 BMatC= 8.06D-02 BMatP= 5.49D-01
 IDIUse=3 WtCom= 8.80D-01 WtEn= 1.20D-01
 Coeff-Com: -0.491D+00 0.149D+01
 Coeff-En:   0.000D+00 0.100D+01
 Coeff:     -0.432D+00 0.143D+01
 Gap=     0.146 Goal=   None    Shift=    0.000
 RMSDP=1.37D-03 MaxDP=4.47D-02 DE=-2.13D-01 OVMax= 1.68D-01

 Cycle   3  Pass 0  IDiag  1:
 RMSU=  1.16D-03    CP:  9.79D-01  1.46D+00
 E= -698.201674939403     Delta-E=       -0.303252019166 Rises=F Damp=F
 DIIS: error= 1.04D-02 at cycle   3 NSaved=   3.
 NSaved= 3 IEnMin= 3 EnMin= -698.201674939403     IErMin= 3 ErrMin= 1.04D-02
 ErrMax= 1.04D-02  0.00D+00 EMaxC= 1.00D-01 BMatC= 6.78D-02 BMatP= 8.06D-02
 IDIUse=3 WtCom= 8.96D-01 WtEn= 1.04D-01
 Coeff-Com: -0.328D+00 0.977D+00 0.351D+00
 Coeff-En:   0.000D+00 0.000D+00 0.100D+01
 Coeff:     -0.294D+00 0.876D+00 0.418D+00
 Gap=     0.157 Goal=   None    Shift=    0.000
 RMSDP=9.41D-04 MaxDP=7.08D-02 DE=-3.03D-01 OVMax= 8.70D-02

 Cycle   4  Pass 0  IDiag  1:
 RMSU=  6.08D-04    CP:  9.83D-01  1.41D+00  3.87D-01
 E= -698.243723167411     Delta-E=       -0.042048228009 Rises=F Damp=F
 DIIS: error= 5.91D-03 at cycle   4 NSaved=   4.
 NSaved= 4 IEnMin= 4 EnMin= -698.243723167411     IErMin= 4 ErrMin= 5.91D-03
 ErrMax= 5.91D-03  0.00D+00 EMaxC= 1.00D-01 BMatC= 2.04D-02 BMatP= 6.78D-02
 IDIUse=3 WtCom= 9.41D-01 WtEn= 5.91D-02
 Coeff-Com: -0.905D-01 0.292D+00 0.327D+00 0.471D+00
 Coeff-En:   0.000D+00 0.000D+00 0.273D+00 0.727D+00
 Coeff:     -0.852D-01 0.275D+00 0.324D+00 0.487D+00
 Gap=     0.148 Goal=   None    Shift=    0.000
 RMSDP=3.91D-04 MaxDP=2.89D-02 DE=-4.20D-02 OVMax= 4.30D-02

 Cycle   5  Pass 0  IDiag  1:
 RMSU=  1.91D-04    CP:  9.83D-01  1.42D+00  5.48D-01  5.32D-01
 E= -698.258337853426     Delta-E=       -0.014614686015 Rises=F Damp=F
 DIIS: error= 1.45D-03 at cycle   5 NSaved=   5.
 NSaved= 5 IEnMin= 5 EnMin= -698.258337853426     IErMin= 5 ErrMin= 1.45D-03
 ErrMax= 1.45D-03  0.00D+00 EMaxC= 1.00D-01 BMatC= 1.54D-03 BMatP= 2.04D-02
 IDIUse=3 WtCom= 9.86D-01 WtEn= 1.45D-02
 Coeff-Com: -0.202D-01 0.760D-01 0.170D+00 0.327D+00 0.447D+00
 Coeff-En:   0.000D+00 0.000D+00 0.000D+00 0.449D-01 0.955D+00
 Coeff:     -0.199D-01 0.749D-01 0.168D+00 0.323D+00 0.454D+00
 Gap=     0.157 Goal=   None    Shift=    0.000
 RMSDP=1.14D-04 MaxDP=7.15D-03 DE=-1.46D-02 OVMax= 9.12D-03

 Cycle   6  Pass 0  IDiag  1:
 RMSU=  5.61D-05    CP:  9.82D-01  1.42D+00  5.48D-01  6.06D-01  5.35D-01
 E= -698.259495261554     Delta-E=       -0.001157408128 Rises=F Damp=F
 DIIS: error= 3.20D-04 at cycle   6 NSaved=   6.
 NSaved= 6 IEnMin= 6 EnMin= -698.259495261554     IErMin= 6 ErrMin= 3.20D-04
 ErrMax= 3.20D-04  0.00D+00 EMaxC= 1.00D-01 BMatC= 9.78D-05 BMatP= 1.54D-03
 IDIUse=3 WtCom= 9.97D-01 WtEn= 3.20D-03
 Coeff-Com:  0.427D-03 0.552D-02 0.518D-01 0.115D+00 0.260D+00 0.568D+00
 Coeff-En:   0.000D+00 0.000D+00 0.000D+00 0.000D+00 0.195D-01 0.981D+00
 Coeff:      0.425D-03 0.551D-02 0.516D-01 0.115D+00 0.259D+00 0.569D+00
 Gap=     0.157 Goal=   None    Shift=    0.000
 RMSDP=2.94D-05 MaxDP=1.64D-03 DE=-1.16D-03 OVMax= 1.61D-03

 Cycle   7  Pass 0  IDiag  1:
 RMSU=  1.59D-05    CP:  9.83D-01  1.42D+00  5.50D-01  6.02D-01  5.61D-01
                    CP:  5.74D-01
 E= -698.259567473017     Delta-E=       -0.000072211463 Rises=F Damp=F
 DIIS: error= 8.60D-05 at cycle   7 NSaved=   7.
 NSaved= 7 IEnMin= 7 EnMin= -698.259567473017     IErMin= 7 ErrMin= 8.60D-05
 ErrMax= 8.60D-05  0.00D+00 EMaxC= 1.00D-01 BMatC= 6.78D-06 BMatP= 9.78D-05
 IDIUse=1 WtCom= 1.00D+00 WtEn= 0.00D+00
 Coeff-Com:  0.168D-02-0.195D-02 0.163D-01 0.386D-01 0.111D+00 0.312D+00
 Coeff-Com:  0.523D+00
 Coeff:      0.168D-02-0.195D-02 0.163D-01 0.386D-01 0.111D+00 0.312D+00
 Coeff:      0.523D+00
 Gap=     0.156 Goal=   None    Shift=    0.000
 RMSDP=9.07D-06 MaxDP=3.66D-04 DE=-7.22D-05 OVMax= 3.90D-04

 Initial convergence to 1.0D-05 achieved.  Increase integral accuracy.
 Cycle   8  Pass 1  IDiag  1:
 E= -698.259597427106     Delta-E=       -0.000029954089 Rises=F Damp=F
 DIIS: error= 2.58D-05 at cycle   1 NSaved=   1.
 NSaved= 1 IEnMin= 1 EnMin= -698.259597427106     IErMin= 1 ErrMin= 2.58D-05
 ErrMax= 2.58D-05  0.00D+00 EMaxC= 1.00D-01 BMatC= 5.75D-07 BMatP= 5.75D-07
 IDIUse=1 WtCom= 1.00D+00 WtEn= 0.00D+00
 Coeff-Com:  0.100D+01
 Coeff:      0.100D+01
 Gap=     0.157 Goal=   None    Shift=    0.000
 RMSDP=9.07D-06 MaxDP=3.66D-04 DE=-3.00D-05 OVMax= 2.47D-04

 Cycle   9  Pass 1  IDiag  1:
 RMSU=  9.01D-06    CP:  1.00D+00
 E= -698.259596827535     Delta-E=        0.000000599571 Rises=F Damp=F
 DIIS: error= 4.58D-05 at cycle   2 NSaved=   2.
 NSaved= 2 IEnMin= 1 EnMin= -698.259597427106     IErMin= 1 ErrMin= 2.58D-05
 ErrMax= 4.58D-05  0.00D+00 EMaxC= 1.00D-01 BMatC= 1.33D-06 BMatP= 5.75D-07
 IDIUse=1 WtCom= 1.00D+00 WtEn= 0.00D+00
 Coeff-Com:  0.612D+00 0.388D+00
 Coeff:      0.612D+00 0.388D+00
 Gap=     0.156 Goal=   None    Shift=    0.000
 RMSDP=3.52D-06 MaxDP=2.06D-04 DE= 6.00D-07 OVMax= 2.12D-04

 Cycle  10  Pass 1  IDiag  1:
 RMSU=  2.88D-06    CP:  1.00D+00  7.75D-01
 E= -698.259597926608     Delta-E=       -0.000001099073 Rises=F Damp=F
 DIIS: error= 1.52D-05 at cycle   3 NSaved=   3.
 NSaved= 3 IEnMin= 3 EnMin= -698.259597926608     IErMin= 3 ErrMin= 1.52D-05
 ErrMax= 1.52D-05  0.00D+00 EMaxC= 1.00D-01 BMatC= 8.86D-08 BMatP= 5.75D-07
 IDIUse=1 WtCom= 1.00D+00 WtEn= 0.00D+00
 Coeff-Com:  0.266D+00 0.233D+00 0.501D+00
 Coeff:      0.266D+00 0.233D+00 0.501D+00
 Gap=     0.156 Goal=   None    Shift=    0.000
 RMSDP=1.15D-06 MaxDP=7.49D-05 DE=-1.10D-06 OVMax= 1.24D-04

 Cycle  11  Pass 1  IDiag  1:
 RMSU=  1.08D-06    CP:  1.00D+00  7.73D-01  8.63D-01
 E= -698.259597958345     Delta-E=       -0.000000031736 Rises=F Damp=F
 DIIS: error= 9.12D-06 at cycle   4 NSaved=   4.
 NSaved= 4 IEnMin= 4 EnMin= -698.259597958345     IErMin= 4 ErrMin= 9.12D-06
 ErrMax= 9.12D-06  0.00D+00 EMaxC= 1.00D-01 BMatC= 4.55D-08 BMatP= 8.86D-08
 IDIUse=1 WtCom= 1.00D+00 WtEn= 0.00D+00
 Coeff-Com:  0.571D-01 0.882D-01 0.418D+00 0.437D+00
 Coeff:      0.571D-01 0.882D-01 0.418D+00 0.437D+00
 Gap=     0.156 Goal=   None    Shift=    0.000
 RMSDP=5.88D-07 MaxDP=4.83D-05 DE=-3.17D-08 OVMax= 5.67D-05

 Cycle  12  Pass 1  IDiag  1:
 RMSU=  2.77D-07    CP:  1.00D+00  7.82D-01  8.79D-01  5.27D-01
 E= -698.259597992958     Delta-E=       -0.000000034614 Rises=F Damp=F
 DIIS: error= 2.20D-06 at cycle   5 NSaved=   5.
 NSaved= 5 IEnMin= 5 EnMin= -698.259597992958     IErMin= 5 ErrMin= 2.20D-06
 ErrMax= 2.20D-06  0.00D+00 EMaxC= 1.00D-01 BMatC= 2.75D-09 BMatP= 4.55D-08
 IDIUse=1 WtCom= 1.00D+00 WtEn= 0.00D+00
 Coeff-Com:  0.668D-02 0.306D-01 0.212D+00 0.277D+00 0.474D+00
 Coeff:      0.668D-02 0.306D-01 0.212D+00 0.277D+00 0.474D+00
 Gap=     0.156 Goal=   None    Shift=    0.000
 RMSDP=1.40D-07 MaxDP=1.09D-05 DE=-3.46D-08 OVMax= 8.93D-06

 Cycle  13  Pass 1  IDiag  1:
 RMSU=  6.55D-08    CP:  1.00D+00  7.84D-01  8.73D-01  5.37D-01  5.65D-01
 E= -698.259597994969     Delta-E=       -0.000000002010 Rises=F Damp=F
 DIIS: error= 5.51D-07 at cycle   6 NSaved=   6.
 NSaved= 6 IEnMin= 6 EnMin= -698.259597994969     IErMin= 6 ErrMin= 5.51D-07
 ErrMax= 5.51D-07  0.00D+00 EMaxC= 1.00D-01 BMatC= 2.41D-10 BMatP= 2.75D-09
 IDIUse=1 WtCom= 1.00D+00 WtEn= 0.00D+00
 Coeff-Com:  0.341D-03 0.135D-01 0.106D+00 0.148D+00 0.306D+00 0.427D+00
 Coeff:      0.341D-03 0.135D-01 0.106D+00 0.148D+00 0.306D+00 0.427D+00
 Gap=     0.156 Goal=   None    Shift=    0.000
 RMSDP=4.19D-08 MaxDP=2.30D-06 DE=-2.01D-09 OVMax= 2.93D-06

 Cycle  14  Pass 1  IDiag  1:
 RMSU=  1.44D-08    CP:  1.00D+00  7.84D-01  8.76D-01  5.37D-01  5.41D-01
                    CP:  4.19D-01
 E= -698.259597995148     Delta-E=       -0.000000000179 Rises=F Damp=F
 DIIS: error= 7.01D-08 at cycle   7 NSaved=   7.
 NSaved= 7 IEnMin= 7 EnMin= -698.259597995148     IErMin= 7 ErrMin= 7.01D-08
 ErrMax= 7.01D-08  0.00D+00 EMaxC= 1.00D-01 BMatC= 5.35D-12 BMatP= 2.41D-10
 IDIUse=1 WtCom= 1.00D+00 WtEn= 0.00D+00
 Coeff-Com: -0.212D-04 0.646D-02 0.514D-01 0.723D-01 0.152D+00 0.239D+00
 Coeff-Com:  0.479D+00
 Coeff:     -0.212D-04 0.646D-02 0.514D-01 0.723D-01 0.152D+00 0.239D+00
 Coeff:      0.479D+00
 Gap=     0.156 Goal=   None    Shift=    0.000
 RMSDP=7.79D-09 MaxDP=3.15D-07 DE=-1.79D-10 OVMax= 3.62D-07

 SCF Done:  E(RB-LYP) =  -698.259597995     A.U. after   14 cycles
            NFock= 14  Conv=0.78D-08     -V/T= 2.0080
 KE= 6.926999237063D+02 PE=-3.837945501119D+03 EE= 1.340742799993D+03
 Leave Link  502 at Tue Jan 24 00:28:13 2023, MaxMem=   131072000 cpu:             386.1 elap:              50.2
 (Enter /dragofs/sw/campus/0.2/software/gaussian/16.gaussian/gaussian/g16_legacy/l601.exe)
 Copying SCF densities to generalized density rwf, IOpCl= 0 IROHF=0.

 **********************************************************************

            Population analysis using the SCF density.

 **********************************************************************

 Orbital symmetries:
       Occupied  (A) (A) (A) (A) (A) (A) (A) (A) (A) (A) (A) (A)
                 (A) (A) (A) (A) (A) (A) (A) (A) (A) (A) (A) (A)
                 (A) (A) (A) (A) (A) (A) (A) (A) (A) (A) (A) (A)
                 (A) (A) (A) (A) (A) (A) (A) (A) (A) (A) (A) (A)
                 (A) (A) (A) (A) (A) (A) (A) (A) (A) (A) (A) (A)
                 (A)
       Virtual   (A) (A) (A) (A) (A) (A) (A) (A) (A) (A) (A) (A)
                 (A) (A) (A) (A) (A) (A) (A) (A) (A) (A) (A) (A)
                 (A) (A) (A) (A) (A) (A) (A) (A) (A) (A) (A) (A)
                 (A) (A) (A) (A) (A) (A) (A) (A) (A) (A) (A) (A)
                 (A) (A) (A) (A) (A) (A) (A) (A) (A) (A) (A) (A)
                 (A) (A) (A) (A) (A) (A) (A) (A) (A) (A) (A) (A)
                 (A) (A) (A) (A) (A) (A) (A) (A) (A) (A) (A) (A)
                 (A) (A) (A) (A) (A) (A) (A) (A) (A) (A) (A) (A)
                 (A) (A) (A) (A) (A) (A) (A) (A) (A) (A) (A) (A)
                 (A) (A) (A) (A) (A) (A) (A) (A) (A) (A) (A) (A)
                 (A) (A) (A) (A) (A) (A) (A) (A) (A) (A) (A) (A)
                 (A) (A) (A) (A) (A) (A) (A) (A) (A) (A) (A) (A)
                 (A) (A) (A) (A) (A) (A) (A) (A) (A) (A) (A) (A)
                 (A) (A) (A) (A) (A) (A) (A) (A) (A) (A) (A) (A)
                 (A) (A) (A) (A) (A) (A) (A) (A) (A) (A) (A) (A)
                 (A) (A) (A) (A) (A) (A) (A) (A) (A) (A) (A) (A)
                 (A) (A) (A) (A) (A) (A) (A) (A) (A) (A) (A) (A)
                 (A) (A) (A) (A) (A) (A) (A) (A) (A) (A) (A) (A)
                 (A) (A) (A) (A) (A) (A) (A) (A) (A) (A) (A) (A)
                 (A) (A) (A) (A) (A) (A) (A) (A) (A) (A) (A) (A)
                 (A) (A) (A) (A) (A) (A) (A) (A) (A) (A) (A) (A)
                 (A) (A) (A) (A) (A) (A) (A) (A) (A) (A) (A) (A)
                 (A) (A) (A) (A) (A) (A) (A) (A) (A) (A) (A) (A)
                 (A) (A) (A) (A) (A) (A) (A) (A) (A) (A) (A) (A)
                 (A) (A) (A) (A) (A) (A)
 The electronic state is 1-A.
 Alpha  occ. eigenvalues --  -18.83888 -18.80003 -18.75415 -10.05483  -9.97057
 Alpha  occ. eigenvalues --   -9.93968  -9.93118  -9.92292  -9.92243  -9.91767
 Alpha  occ. eigenvalues --   -9.91226  -9.90350  -9.90349  -9.90271  -9.89110
 Alpha  occ. eigenvalues --   -1.01735  -0.94389  -0.88782  -0.76112  -0.70685
 Alpha  occ. eigenvalues --   -0.68245  -0.67206  -0.64538  -0.61751  -0.58309
 Alpha  occ. eigenvalues --   -0.55418  -0.54558  -0.50606  -0.49740  -0.47390
 Alpha  occ. eigenvalues --   -0.45432  -0.44307  -0.42998  -0.41630  -0.39583
 Alpha  occ. eigenvalues --   -0.39297  -0.38887  -0.38205  -0.37100  -0.35982
 Alpha  occ. eigenvalues --   -0.35432  -0.34892  -0.34617  -0.33472  -0.33088
 Alpha  occ. eigenvalues --   -0.32622  -0.32234  -0.31525  -0.30866  -0.29660
 Alpha  occ. eigenvalues --   -0.29290  -0.29073  -0.28029  -0.27010  -0.26635
 Alpha  occ. eigenvalues --   -0.26107  -0.25742  -0.25458  -0.23903  -0.22880
 Alpha  occ. eigenvalues --   -0.17956
 Alpha virt. eigenvalues --   -0.02308   0.05189   0.06734   0.07127   0.07627
 Alpha virt. eigenvalues --    0.08126   0.08578   0.09778   0.10648   0.11039
 Alpha virt. eigenvalues --    0.11445   0.12135   0.12736   0.12917   0.13113
 Alpha virt. eigenvalues --    0.13778   0.14192   0.14435   0.15089   0.15781
 Alpha virt. eigenvalues --    0.16317   0.16512   0.17620   0.17994   0.18370
 Alpha virt. eigenvalues --    0.18852   0.19265   0.19420   0.20372   0.20782
 Alpha virt. eigenvalues --    0.21220   0.23037   0.25070   0.25460   0.26211
 Alpha virt. eigenvalues --    0.27167   0.27488   0.28393   0.30011   0.34700
 Alpha virt. eigenvalues --    0.44400   0.45778   0.47037   0.48474   0.48671
 Alpha virt. eigenvalues --    0.49088   0.49776   0.50429   0.50694   0.52426
 Alpha virt. eigenvalues --    0.53076   0.53952   0.54839   0.55182   0.56443
 Alpha virt. eigenvalues --    0.56947   0.57605   0.59075   0.59554   0.61177
 Alpha virt. eigenvalues --    0.61450   0.62889   0.63527   0.64278   0.66175
 Alpha virt. eigenvalues --    0.66875   0.68459   0.69077   0.70151   0.71760
 Alpha virt. eigenvalues --    0.72405   0.73675   0.73921   0.74811   0.75890
 Alpha virt. eigenvalues --    0.76841   0.77446   0.78690   0.78827   0.79991
 Alpha virt. eigenvalues --    0.80055   0.80488   0.81091   0.81718   0.82509
 Alpha virt. eigenvalues --    0.83059   0.83864   0.84391   0.84681   0.85399
 Alpha virt. eigenvalues --    0.86012   0.86457   0.87019   0.87994   0.88704
 Alpha virt. eigenvalues --    0.89814   0.90422   0.91154   0.93665   0.94054
 Alpha virt. eigenvalues --    0.94460   0.95438   0.95836   0.97473   0.98227
 Alpha virt. eigenvalues --    0.99178   1.00985   1.04795   1.08115   1.08937
 Alpha virt. eigenvalues --    1.10735   1.11841   1.14704   1.19080   1.20395
 Alpha virt. eigenvalues --    1.22359   1.24783   1.26918   1.28088   1.29825
 Alpha virt. eigenvalues --    1.30498   1.34050   1.34955   1.37429   1.39683
 Alpha virt. eigenvalues --    1.41422   1.44888   1.46834   1.48989   1.49668
 Alpha virt. eigenvalues --    1.53181   1.56420   1.57776   1.58529   1.58892
 Alpha virt. eigenvalues --    1.59248   1.60710   1.61950   1.64186   1.64406
 Alpha virt. eigenvalues --    1.66159   1.68557   1.69331   1.72274   1.72626
 Alpha virt. eigenvalues --    1.73510   1.74106   1.76645   1.76959   1.77402
 Alpha virt. eigenvalues --    1.78996   1.79640   1.81741   1.83522   1.84681
 Alpha virt. eigenvalues --    1.87396   1.89409   1.90260   1.91052   1.91602
 Alpha virt. eigenvalues --    1.93026   1.93897   1.94781   1.95648   1.95971
 Alpha virt. eigenvalues --    1.96326   1.96817   1.97554   1.99156   1.99730
 Alpha virt. eigenvalues --    2.00102   2.00354   2.00704   2.00977   2.01831
 Alpha virt. eigenvalues --    2.01994   2.02763   2.03710   2.05169   2.06065
 Alpha virt. eigenvalues --    2.07491   2.08676   2.09513   2.12488   2.13144
 Alpha virt. eigenvalues --    2.15485   2.16497   2.18015   2.18562   2.19144
 Alpha virt. eigenvalues --    2.19654   2.21782   2.22681   2.23223   2.24332
 Alpha virt. eigenvalues --    2.26184   2.27561   2.28815   2.30689   2.31228
 Alpha virt. eigenvalues --    2.32758   2.34486   2.36086   2.36967   2.38110
 Alpha virt. eigenvalues --    2.38697   2.40914   2.41202   2.42802   2.43738
 Alpha virt. eigenvalues --    2.45454   2.49341   2.49647   2.51547   2.53593
 Alpha virt. eigenvalues --    2.54447   2.56400   2.56818   2.57789   2.59884
 Alpha virt. eigenvalues --    2.62581   2.63097   2.63991   2.64897   2.65087
 Alpha virt. eigenvalues --    2.67521   2.68530   2.69826   2.70331   2.70880
 Alpha virt. eigenvalues --    2.71954   2.73580   2.74289   2.75354   2.76240
 Alpha virt. eigenvalues --    2.76930   2.77803   2.79086   2.79562   2.80931
 Alpha virt. eigenvalues --    2.81897   2.82801   2.85509   2.86915   2.87905
 Alpha virt. eigenvalues --    2.89285   2.92749   2.94374   2.95290   2.96858
 Alpha virt. eigenvalues --    2.99216   3.02479   3.05163   3.06773   3.07579
 Alpha virt. eigenvalues --    3.11596   3.14334   3.16861   3.18248   3.19717
 Alpha virt. eigenvalues --    3.23749   3.24331   3.26635   3.29842   3.30107
 Alpha virt. eigenvalues --    3.31066   3.31785   3.32086   3.33586   3.34238
 Alpha virt. eigenvalues --    3.37990   3.39916   3.40411   3.41653   3.46459
 Alpha virt. eigenvalues --    3.48145   3.49926   3.52029   3.53255   3.93137
 Alpha virt. eigenvalues --    4.03288   4.09322   4.23258   4.24447   4.28279
 Alpha virt. eigenvalues --    4.30903   4.31369   4.45956   4.47354   4.52274
 Alpha virt. eigenvalues --    4.54262   4.55237   4.70353   4.72393
          Condensed to atoms (all electrons):
               1          2          3          4          5          6
     1  H    0.598305   0.380900  -0.032536  -0.033197  -0.032218   0.004645
     2  C    0.380900   4.940130   0.342659   0.361891   0.363099  -0.029576
     3  C   -0.032536   0.342659   4.944550  -0.026743  -0.021474   0.361010
     4  H   -0.033197   0.361891  -0.026743   0.654335  -0.031620  -0.001782
     5  H   -0.032218   0.363099  -0.021474  -0.031620   0.652080  -0.003243
     6  H    0.004645  -0.029576   0.361010  -0.001782  -0.003243   0.669778
     7  H   -0.002576  -0.042692   0.364427  -0.005165   0.004421  -0.025305
     8  C   -0.008798  -0.026992   0.363955   0.004036  -0.002085  -0.042719
     9  C    0.000408   0.005812  -0.047018  -0.000101   0.000046  -0.006486
    10  H    0.000103  -0.002273  -0.057561  -0.000097   0.001862  -0.008016
    11  H   -0.000016   0.000442  -0.004924  -0.000052  -0.000005   0.005269
    12  H    0.000145  -0.000113  -0.019739  -0.000008   0.000005   0.000466
    13  O    0.010534  -0.001110  -0.054479   0.000234  -0.000246   0.004110
    14  H   -0.000375  -0.000069   0.009172  -0.000004  -0.000044  -0.000517
    15  C   -0.000006  -0.000280   0.007263   0.000003   0.000006  -0.000226
    16  H   -0.000003   0.000004   0.000436  -0.000000  -0.000000  -0.000023
    17  H    0.000000  -0.000001  -0.000072  -0.000000  -0.000000   0.000059
    18  H    0.000000   0.000003  -0.000188  -0.000000  -0.000000  -0.000001
    19  H   -0.000000   0.000000   0.000000  -0.000000  -0.000000  -0.000000
    20  C    0.000000  -0.000000  -0.000000   0.000000   0.000000   0.000000
    21  C   -0.000000   0.000000   0.000000  -0.000000   0.000000  -0.000000
    22  H    0.000000   0.000000  -0.000000   0.000000  -0.000000  -0.000000
    23  H   -0.000000  -0.000000   0.000000  -0.000000  -0.000000  -0.000000
    24  H   -0.000000   0.000000   0.000000   0.000000  -0.000000  -0.000000
    25  H   -0.000000   0.000000  -0.000000   0.000000   0.000000   0.000000
    26  C   -0.000000  -0.000000   0.000000  -0.000000  -0.000000  -0.000000
    27  C    0.000000  -0.000000  -0.000001  -0.000000   0.000000   0.000000
    28  H   -0.000000   0.000000   0.000000   0.000000  -0.000000  -0.000000
    29  H    0.000000   0.000000  -0.000000   0.000000   0.000000   0.000000
    30  H   -0.000000   0.000000   0.000000   0.000000  -0.000000   0.000000
    31  O    0.000000   0.000000  -0.000000  -0.000000   0.000000   0.000000
    32  C    0.000001   0.000002  -0.000015   0.000000  -0.000000  -0.000000
    33  O    0.000004   0.000000  -0.000078   0.000000   0.000001   0.000006
    34  C   -0.000000   0.000000   0.000001   0.000000  -0.000000  -0.000000
    35  H    0.000000   0.000000  -0.000000   0.000000   0.000000   0.000000
    36  H    0.000001   0.000000  -0.000001   0.000000   0.000000   0.000000
    37  H   -0.000000  -0.000000  -0.000000  -0.000000   0.000000  -0.000000
    38  C    0.000000  -0.000008   0.000015   0.000000  -0.000005   0.000009
    39  H    0.000000  -0.000000  -0.000000  -0.000000   0.000001  -0.000000
    40  H   -0.000002   0.000027  -0.000016  -0.000000   0.000093  -0.000007
    41  H    0.000000  -0.000001  -0.000002  -0.000000  -0.000001   0.000018
               7          8          9         10         11         12
     1  H   -0.002576  -0.008798   0.000408   0.000103  -0.000016   0.000145
     2  C   -0.042692  -0.026992   0.005812  -0.002273   0.000442  -0.000113
     3  C    0.364427   0.363955  -0.047018  -0.057561  -0.004924  -0.019739
     4  H   -0.005165   0.004036  -0.000101  -0.000097  -0.000052  -0.000008
     5  H    0.004421  -0.002085   0.000046   0.001862  -0.000005   0.000005
     6  H   -0.025305  -0.042719  -0.006486  -0.008016   0.005269   0.000466
     7  H    0.681035  -0.050455  -0.020998   0.009411   0.000277   0.014403
     8  C   -0.050455   4.758927   0.364186   0.369217  -0.036608  -0.031948
     9  C   -0.020998   0.364186   5.016802  -0.083053   0.331278   0.356890
    10  H    0.009411   0.369217  -0.083053   0.740467   0.003095   0.010702
    11  H    0.000277  -0.036608   0.331278   0.003095   0.706070  -0.031033
    12  H    0.014403  -0.031948   0.356890   0.010702  -0.031033   0.663026
    13  O    0.000742   0.248683  -0.058062  -0.038602   0.005678   0.001753
    14  H   -0.000271  -0.036720  -0.004314  -0.006744  -0.000081  -0.000530
    15  C    0.000800  -0.032541   0.353736  -0.010860  -0.041782  -0.048465
    16  H   -0.000007  -0.007737  -0.036226   0.000649   0.006921  -0.004418
    17  H    0.000036  -0.003703  -0.034319   0.006176  -0.004738   0.006132
    18  H   -0.000006   0.004154  -0.020689   0.000098  -0.002681  -0.005026
    19  H   -0.000000   0.000000  -0.000000   0.000000  -0.000000  -0.000000
    20  C    0.000000  -0.000000   0.000000   0.000000   0.000000  -0.000000
    21  C   -0.000000   0.000000  -0.000000  -0.000000  -0.000000   0.000000
    22  H    0.000000  -0.000000   0.000000   0.000000  -0.000000  -0.000000
    23  H   -0.000000   0.000000   0.000000  -0.000000   0.000000  -0.000000
    24  H   -0.000000   0.000000  -0.000000   0.000000  -0.000000  -0.000000
    25  H   -0.000000  -0.000000   0.000000  -0.000000  -0.000000  -0.000000
    26  C   -0.000000   0.000004   0.000001  -0.000001  -0.000000  -0.000000
    27  C    0.000000   0.000044  -0.000002  -0.000048   0.000000   0.000000
    28  H    0.000000  -0.000011  -0.000010   0.000063   0.000000   0.000000
    29  H   -0.000000  -0.000000   0.000000  -0.000002  -0.000000  -0.000000
    30  H   -0.000000  -0.000002   0.000000   0.000009  -0.000000  -0.000000
    31  O    0.000000  -0.000004   0.000000   0.000008   0.000000   0.000000
    32  C    0.000000   0.000199   0.000024  -0.000592  -0.000001  -0.000000
    33  O   -0.000001   0.001435  -0.000340   0.002422  -0.000003  -0.000005
    34  C   -0.000000   0.000017  -0.000001  -0.000006  -0.000000  -0.000000
    35  H    0.000000  -0.000001   0.000000  -0.000001   0.000000   0.000000
    36  H   -0.000000  -0.000002   0.000000  -0.000001  -0.000000   0.000000
    37  H   -0.000000   0.000000   0.000000  -0.000000   0.000000   0.000000
    38  C   -0.000000  -0.001031   0.000026   0.001443  -0.000000  -0.000001
    39  H    0.000000   0.000048  -0.000002   0.000008   0.000000   0.000000
    40  H    0.000000  -0.000275   0.000020   0.001434  -0.000001  -0.000000
    41  H    0.000000  -0.000771  -0.000018   0.003990   0.000005   0.000002
              13         14         15         16         17         18
     1  H    0.010534  -0.000375  -0.000006  -0.000003   0.000000   0.000000
     2  C   -0.001110  -0.000069  -0.000280   0.000004  -0.000001   0.000003
     3  C   -0.054479   0.009172   0.007263   0.000436  -0.000072  -0.000188
     4  H    0.000234  -0.000004   0.000003  -0.000000  -0.000000  -0.000000
     5  H   -0.000246  -0.000044   0.000006  -0.000000  -0.000000  -0.000000
     6  H    0.004110  -0.000517  -0.000226  -0.000023   0.000059  -0.000001
     7  H    0.000742  -0.000271   0.000800  -0.000007   0.000036  -0.000006
     8  C    0.248683  -0.036720  -0.032541  -0.007737  -0.003703   0.004154
     9  C   -0.058062  -0.004314   0.353736  -0.036226  -0.034319  -0.020689
    10  H   -0.038602  -0.006744  -0.010860   0.000649   0.006176   0.000098
    11  H    0.005678  -0.000081  -0.041782   0.006921  -0.004738  -0.002681
    12  H    0.001753  -0.000530  -0.048465  -0.004418   0.006132  -0.005026
    13  O    8.153062   0.272586  -0.006479   0.007366  -0.000100   0.000063
    14  H    0.272586   0.418494   0.002574   0.006170  -0.000067  -0.000222
    15  C   -0.006479   0.002574   4.994331   0.354393   0.362973   0.358118
    16  H    0.007366   0.006170   0.354393   0.660167  -0.035121  -0.032286
    17  H   -0.000100  -0.000067   0.362973  -0.035121   0.657829  -0.027655
    18  H    0.000063  -0.000222   0.358118  -0.032286  -0.027655   0.649207
    19  H    0.000000  -0.000001   0.000000   0.000000   0.000000  -0.000000
    20  C   -0.000000   0.000000  -0.000000  -0.000000  -0.000000   0.000000
    21  C    0.000000  -0.000000   0.000000  -0.000000  -0.000000  -0.000000
    22  H   -0.000000   0.000000  -0.000000  -0.000000   0.000000   0.000000
    23  H    0.000000  -0.000000  -0.000000   0.000000   0.000000  -0.000000
    24  H    0.000000  -0.000000  -0.000000   0.000000   0.000000   0.000000
    25  H    0.000000  -0.000000  -0.000000   0.000000   0.000000   0.000000
    26  C    0.000000  -0.000022  -0.000024  -0.000020  -0.000033   0.000000
    27  C   -0.000001   0.000006   0.000003  -0.000001  -0.000020  -0.000000
    28  H    0.000001  -0.000027   0.000045   0.000183   0.000514  -0.000001
    29  H   -0.000000   0.000000  -0.000000   0.000000  -0.000002   0.000000
    30  H    0.000000  -0.000000  -0.000000   0.000000   0.000001   0.000000
    31  O   -0.000003   0.000175   0.000000  -0.000003  -0.000001  -0.000000
    32  C    0.001117  -0.000964   0.000037  -0.000080  -0.000004   0.000000
    33  O   -0.012524   0.033075   0.000040   0.000613   0.000130   0.000008
[...]
    20  C    0.000000   0.000001   0.000000  -0.000000  -0.000001   0.000000
    21  C   -0.000000  -0.000000   0.000003  -0.000000  -0.000001  -0.000000
    22  H    0.000000  -0.000000   0.000000   0.000000  -0.000000  -0.000000
    23  H    0.000000  -0.000001  -0.000000   0.000001   0.000000   0.000000
    24  H   -0.000000  -0.000000  -0.000000  -0.000000   0.000002   0.000000
    25  H   -0.000000   0.000000  -0.000000   0.000000   0.000000   0.000000
    26  C   -0.000002   0.000035  -0.000198  -0.000005  -0.000542   0.000002
    27  C    0.000000  -0.000000  -0.000003  -0.000000  -0.000032   0.000001
    28  H    0.000009  -0.000101  -0.000108   0.000025   0.003734  -0.000005
    29  H    0.000000  -0.000000  -0.000001  -0.000000   0.000003  -0.000000
    30  H    0.000000   0.000000  -0.000001   0.000000   0.000001   0.000000
    31  O   -0.000001   0.000427   0.000009  -0.000000  -0.000125  -0.000000
    32  C    0.002376  -0.002689   0.000194  -0.000161   0.000371  -0.000002
    33  O   -0.012494   0.043344  -0.000268   0.000398   0.003127   0.000094
    34  C   -0.009101  -0.000439  -0.000002   0.000020   0.000033   0.000000
    35  H    0.000086   0.000100  -0.000000  -0.000000  -0.000002  -0.000000
    36  H    0.025919  -0.002048  -0.000010  -0.000045  -0.000006  -0.000000
    37  H    0.000048   0.000036   0.000000  -0.000000   0.000000   0.000000
    38  C    0.000005   0.000009  -0.000780   0.000021  -0.000374   0.000010
    39  H   -0.000000  -0.000000   0.000018  -0.000000  -0.000015  -0.000001
    40  H   -0.000001  -0.000018  -0.000015   0.000001   0.000025  -0.000001
    41  H    0.000005   0.000002   0.000479  -0.000035   0.004426  -0.000019
              19         20         21         22         23         24
     1  H   -0.000000  -0.000000   0.000000  -0.000000  -0.000000  -0.000000
     2  C   -0.000000  -0.000000   0.000000   0.000000   0.000000  -0.000000
     3  C   -0.000000  -0.000000   0.000000  -0.000000  -0.000000   0.000000
     4  H   -0.000000   0.000000  -0.000000   0.000000   0.000000  -0.000000
     5  H   -0.000000   0.000000   0.000000   0.000000  -0.000000   0.000000
     6  H    0.000000  -0.000000   0.000000  -0.000000  -0.000000   0.000000
     7  H    0.000000   0.000000   0.000000   0.000000   0.000000   0.000000
     8  C    0.000000  -0.000000  -0.000000   0.000000   0.000000   0.000000
     9  C   -0.000000  -0.000000  -0.000000   0.000000   0.000000  -0.000000
    10  H    0.000000   0.000000   0.000004  -0.000000  -0.000000   0.000000
    11  H   -0.000000   0.000000  -0.000000  -0.000000   0.000000  -0.000000
    12  H    0.000000   0.000000   0.000000   0.000000  -0.000000   0.000000
    13  O    0.000000   0.000000  -0.000000   0.000000   0.000000  -0.000000
    14  H    0.000001   0.000001  -0.000000  -0.000000  -0.000001  -0.000000
    15  C   -0.000000   0.000000   0.000003   0.000000  -0.000000  -0.000000
    16  H   -0.000000  -0.000000  -0.000000   0.000000   0.000001  -0.000000
    17  H    0.000000  -0.000001  -0.000001  -0.000000   0.000000   0.000002
    18  H    0.000000   0.000000  -0.000000  -0.000000   0.000000   0.000000
    19  H    0.617282   0.380083  -0.032154  -0.032316  -0.033122   0.005576
    20  C    0.380083   4.899871   0.368134   0.368385   0.382138  -0.033286
    21  C   -0.032154   0.368134   4.896746  -0.024029  -0.032992   0.360563
    22  H   -0.032316   0.368385  -0.024029   0.631371  -0.030903  -0.004037
    23  H   -0.033122   0.382138  -0.032992  -0.030903   0.603948  -0.004099
    24  H    0.005576  -0.033286   0.360563  -0.004037  -0.004099   0.655529
    25  H   -0.004972  -0.038380   0.368201  -0.002426   0.005205  -0.036917
    26  C   -0.008329  -0.031113   0.373106   0.003874  -0.004851  -0.033236
    27  C    0.000157   0.004020  -0.038178  -0.000127   0.000054  -0.001098
    28  H   -0.000051  -0.005563  -0.045340   0.000052   0.005293  -0.001516
    29  H   -0.000001   0.000022  -0.001193  -0.000000   0.000005   0.003013
    30  H    0.000008  -0.000025  -0.007249   0.000001   0.000009  -0.000134
    31  O    0.006740  -0.003604  -0.039682   0.000076  -0.000794   0.003229
    32  C    0.002441   0.002841  -0.002152  -0.000025   0.000529   0.000016
    33  O   -0.000836   0.000164  -0.000497   0.000042   0.001673  -0.000010
    34  C    0.000255  -0.000146  -0.000423   0.000003   0.000034   0.000008
    35  H    0.000008  -0.000004   0.000007  -0.000000  -0.000001  -0.000000
    36  H    0.000008   0.000003  -0.000004   0.000000   0.000000   0.000000
    37  H    0.000139   0.000010   0.000051  -0.000002  -0.000005  -0.000000
    38  C    0.000001  -0.000149   0.003967   0.000001   0.000001  -0.000004
    39  H    0.000000   0.000001  -0.000127  -0.000000   0.000000  -0.000002
    40  H   -0.000001   0.000001   0.000214   0.000000   0.000000  -0.000005
    41  H    0.000000  -0.000000   0.000069   0.000000  -0.000001  -0.000004
              25         26         27         28         29         30
     1  H    0.000000   0.000000  -0.000000  -0.000000  -0.000000  -0.000000
     2  C   -0.000000   0.000000   0.000000   0.000000  -0.000000   0.000000
     3  C    0.000000  -0.000000   0.000000   0.000001   0.000000  -0.000000
     4  H   -0.000000  -0.000000  -0.000000  -0.000000   0.000000   0.000000
     5  H   -0.000000   0.000000  -0.000000  -0.000000   0.000000  -0.000000
     6  H    0.000000   0.000000   0.000000  -0.000000  -0.000000   0.000000
     7  H   -0.000000   0.000000  -0.000000  -0.000000  -0.000000  -0.000000
     8  C   -0.000000  -0.000008   0.000042   0.000021  -0.000001  -0.000001
     9  C    0.000000   0.000013  -0.000002  -0.000047   0.000000   0.000000
    10  H   -0.000000   0.000092  -0.000194   0.000000   0.000002   0.000002
    11  H    0.000000  -0.000001   0.000002   0.000002  -0.000000   0.000000
    12  H   -0.000000  -0.000000  -0.000000   0.000001  -0.000000   0.000000
    13  O   -0.000000  -0.000002   0.000000   0.000009   0.000000   0.000000
    14  H    0.000000   0.000035  -0.000000  -0.000101  -0.000000   0.000000
    15  C   -0.000000  -0.000198  -0.000003  -0.000108  -0.000001  -0.000001
    16  H    0.000000  -0.000005  -0.000000   0.000025  -0.000000   0.000000
    17  H    0.000000  -0.000542  -0.000032   0.003734   0.000003   0.000001
    18  H    0.000000   0.000002   0.000001  -0.000005  -0.000000   0.000000
    19  H   -0.004972  -0.008329   0.000157  -0.000051  -0.000001   0.000008
    20  C   -0.038380  -0.031113   0.004020  -0.005563   0.000022  -0.000025
    21  C    0.368201   0.373106  -0.038178  -0.045340  -0.001193  -0.007249
    22  H   -0.002426   0.003874  -0.000127   0.000052  -0.000000   0.000001
    23  H    0.005205  -0.004851   0.000054   0.005293   0.000005   0.000009
    24  H   -0.036917  -0.033236  -0.001098  -0.001516   0.003013  -0.000134
    25  H    0.650887  -0.033410  -0.007692   0.005928  -0.000143   0.006721
    26  C   -0.033410   4.807689   0.373395   0.363207  -0.033654  -0.031447
    27  C   -0.007692   0.373395   4.905236  -0.045763   0.361709   0.365976
    28  H    0.005928   0.363207  -0.045763   0.624819  -0.001240   0.005888
    29  H   -0.000143  -0.033654   0.361709  -0.001240   0.654059  -0.036589
    30  H    0.006721  -0.031447   0.365976   0.005888  -0.036589   0.648164
    31  O   -0.001055   0.163845  -0.043901  -0.035728   0.003209  -0.001304
    32  C   -0.000244  -0.005322   0.001228  -0.006846  -0.000026  -0.000231
    33  O   -0.000018  -0.010198   0.000514   0.020668   0.000007  -0.000009
    34  C   -0.000013   0.005617  -0.000279   0.001041   0.000008  -0.000022
    35  H    0.000013  -0.000334  -0.000015  -0.000019   0.000000   0.000028
    36  H    0.000000  -0.000159   0.000020   0.000022  -0.000000   0.000001
    37  H   -0.000000  -0.000165  -0.000006  -0.000015   0.000000  -0.000000
    38  C    0.000010  -0.031264   0.363525  -0.005652  -0.033099  -0.037320
    39  H    0.000001   0.003650  -0.022283   0.000061  -0.003266  -0.002963
    40  H    0.000005  -0.008464  -0.032949  -0.000065   0.005466  -0.004644
    41  H    0.000008  -0.004042  -0.033832   0.003965  -0.004718   0.005220
              31         32         33         34         35         36
     1  H    0.000000   0.000046   0.000003  -0.000977   0.000003   0.003823
     2  C    0.000001   0.000010  -0.000008  -0.000801  -0.000044   0.001610
     3  C   -0.000003  -0.000096   0.000066   0.000267  -0.000017  -0.001690
     4  H    0.000000  -0.000000  -0.000000   0.000026   0.000001  -0.000045
     5  H   -0.000003  -0.000010  -0.000003   0.000468   0.000480   0.000452
     6  H    0.000000   0.000006   0.000001  -0.000014  -0.000000   0.000039
     7  H   -0.000000  -0.000000  -0.000001   0.000004   0.000000  -0.000033
     8  C   -0.000140   0.001456   0.001009  -0.000670   0.000033   0.001334
     9  C    0.000010  -0.000030  -0.000925  -0.000082   0.000003   0.000360
    10  H   -0.000336   0.003612   0.001528   0.001000  -0.000115  -0.003032
    11  H    0.000000  -0.000010  -0.000008   0.000004  -0.000000  -0.000015
    12  H    0.000000   0.000001  -0.000009  -0.000000   0.000000  -0.000003
    13  O   -0.000001   0.002376  -0.012494  -0.009101   0.000086   0.025919
    14  H    0.000427  -0.002689   0.043344  -0.000439   0.000100  -0.002048
    15  C    0.000009   0.000194  -0.000268  -0.000002  -0.000000  -0.000010
    16  H   -0.000000  -0.000161   0.000398   0.000020  -0.000000  -0.000045
    17  H   -0.000125   0.000371   0.003127   0.000033  -0.000002  -0.000006
    18  H   -0.000000  -0.000002   0.000094   0.000000  -0.000000  -0.000000
    19  H    0.006740   0.002441  -0.000836   0.000255   0.000008   0.000008
    20  C   -0.003604   0.002841   0.000164  -0.000146  -0.000004   0.000003
    21  C   -0.039682  -0.002152  -0.000497  -0.000423   0.000007  -0.000004
    22  H    0.000076  -0.000025   0.000042   0.000003  -0.000000   0.000000
    23  H   -0.000794   0.000529   0.001673   0.000034  -0.000001   0.000000
    24  H    0.003229   0.000016  -0.000010   0.000008  -0.000000   0.000000
    25  H   -0.001055  -0.000244  -0.000018  -0.000013   0.000013   0.000000
    26  C    0.163845  -0.005322  -0.010198   0.005617  -0.000334  -0.000159
    27  C   -0.043901   0.001228   0.000514  -0.000279  -0.000015   0.000020
    28  H   -0.035728  -0.006846   0.020668   0.001041  -0.000019   0.000022
    29  H    0.003209  -0.000026   0.000007   0.000008   0.000000  -0.000000
    30  H   -0.001304  -0.000231  -0.000009  -0.000022   0.000028   0.000001
    31  O    8.259533   0.253694  -0.064345  -0.086600   0.006348   0.002083
    32  C    0.253694   4.416789   0.453769   0.360568  -0.020088  -0.021349
    33  O   -0.064345   0.453769   8.102345  -0.068979   0.003195  -0.002663
    34  C   -0.086600   0.360568  -0.068979   5.122347   0.346027   0.341854
    35  H    0.006348  -0.020088   0.003195   0.346027   0.595171  -0.022439
    36  H    0.002083  -0.021349  -0.002663   0.341854  -0.022439   0.539397
    37  H    0.000722  -0.021273  -0.000544   0.361950  -0.025513  -0.019991
    38  C   -0.003503   0.001099   0.000044  -0.000051  -0.000022   0.000000
    39  H    0.000138  -0.000015   0.000000   0.000001  -0.000001  -0.000000
    40  H    0.008826   0.000330  -0.000221   0.000168   0.000250  -0.000061
    41  H   -0.000230  -0.000069  -0.000159  -0.000018   0.000003  -0.000001
              37         38         39         40         41
     1  H    0.000013   0.000000   0.000000  -0.000001  -0.000000
     2  C    0.000019  -0.000011  -0.000000  -0.000007   0.000000
     3  C    0.000001   0.000008  -0.000002   0.000026  -0.000004
     4  H   -0.000001   0.000000  -0.000000  -0.000001  -0.000000
     5  H    0.000008  -0.000029   0.000000   0.000365  -0.000004
     6  H    0.000000   0.000018   0.000000   0.000023   0.000001
     7  H    0.000000  -0.000001   0.000000   0.000002  -0.000000
     8  C    0.000014  -0.000880   0.000051  -0.000902  -0.000447
     9  C   -0.000001   0.000075  -0.000012  -0.000033   0.000352
    10  H    0.000054   0.000940  -0.000053   0.005220   0.000915
    11  H   -0.000000   0.000089   0.000003   0.000022   0.000730
    12  H    0.000000  -0.000001   0.000000   0.000002  -0.000002
    13  O    0.000048   0.000005  -0.000000  -0.000001   0.000005
    14  H    0.000036   0.000009  -0.000000  -0.000018   0.000002
    15  C    0.000000  -0.000780   0.000018  -0.000015   0.000479
    16  H   -0.000000   0.000021  -0.000000   0.000001  -0.000035
    17  H    0.000000  -0.000374  -0.000015   0.000025   0.004426
    18  H    0.000000   0.000010  -0.000001  -0.000001  -0.000019
    19  H    0.000139   0.000001   0.000000  -0.000001   0.000000
    20  C    0.000010  -0.000149   0.000001   0.000001  -0.000000
    21  C    0.000051   0.003967  -0.000127   0.000214   0.000069
    22  H   -0.000002   0.000001  -0.000000   0.000000   0.000000
    23  H   -0.000005   0.000001   0.000000   0.000000  -0.000001
    24  H   -0.000000  -0.000004  -0.000002  -0.000005  -0.000004
    25  H   -0.000000   0.000010   0.000001   0.000005   0.000008
    26  C   -0.000165  -0.031264   0.003650  -0.008464  -0.004042
    27  C   -0.000006   0.363525  -0.022283  -0.032949  -0.033832
    28  H   -0.000015  -0.005652   0.000061  -0.000065   0.003965
    29  H    0.000000  -0.033099  -0.003266   0.005466  -0.004718
    30  H   -0.000000  -0.037320  -0.002963  -0.004644   0.005220
    31  O    0.000722  -0.003503   0.000138   0.008826  -0.000230
    32  C   -0.021273   0.001099  -0.000015   0.000330  -0.000069
    33  O   -0.000544   0.000044   0.000000  -0.000221  -0.000159
    34  C    0.361950  -0.000051   0.000001   0.000168  -0.000018
    35  H   -0.025513  -0.000022  -0.000001   0.000250   0.000003
    36  H   -0.019991   0.000000  -0.000000  -0.000061  -0.000001
    37  H    0.572636   0.000002  -0.000000   0.000003  -0.000000
    38  C    0.000002   4.921944   0.364434   0.380720   0.381522
    39  H   -0.000000   0.364434   0.629474  -0.030022  -0.030038
    40  H    0.000003   0.380720  -0.030022   0.601303  -0.035399
    41  H   -0.000000   0.381522  -0.030038  -0.035399   0.603924
 Mulliken charges:
               1
     1  H    0.113209
     2  C   -0.290323
     3  C   -0.137261
     4  H    0.079796
     5  H    0.077782
     6  H    0.069198
     7  H    0.084690
     8  C    0.171580
     9  C   -0.138121
    10  H    0.047022
    11  H    0.064425
    12  H    0.080534
    13  O   -0.540238
    14  H    0.313523
    15  C   -0.306036
    16  H    0.101062
    17  H    0.099080
    18  H    0.079364
    19  H    0.099084
    20  C   -0.293401
    21  C   -0.147044
    22  H    0.090060
    23  H    0.107881
    24  H    0.086412
    25  H    0.088289
    26  C    0.142217
    27  C   -0.149525
    28  H    0.113319
    29  H    0.086428
    30  H    0.089918
    31  O   -0.427537
    32  C    0.579264
    33  O   -0.469800
    34  C   -0.373086
    35  H    0.116860
    36  H    0.156668
    37  H    0.131809
    38  C   -0.305305
    39  H    0.090966
    40  H    0.109837
    41  H    0.107403
 Sum of Mulliken charges =  -0.00000
 Mulliken charges with hydrogens summed into heavy atoms:
               1
     2  C   -0.019537
     3  C    0.016627
     8  C    0.218602
     9  C    0.006837
    13  O   -0.226715
    15  C   -0.026530
    20  C    0.003623
    21  C    0.027657
    26  C    0.255536
    27  C    0.026821
    31  O   -0.427537
    32  C    0.579264
    33  O   -0.469800
    34  C    0.032251
    38  C    0.002901
 Electronic spatial extent (au):  <R**2>=           4443.7398
 Charge=             -0.0000 electrons
 Dipole moment (field-independent basis, Debye):
    X=              2.7089    Y=              0.5940    Z=              1.7608  Tot=              3.2851
 Quadrupole moment (field-independent basis, Debye-Ang):
   XX=            -95.7748   YY=            -92.4733   ZZ=            -99.1754
   XY=             -0.9977   XZ=             -2.4204   YZ=             -0.3282
 Traceless Quadrupole moment (field-independent basis, Debye-Ang):
   XX=              0.0330   YY=              3.3345   ZZ=             -3.3676
   XY=             -0.9977   XZ=             -2.4204   YZ=             -0.3282
 Octapole moment (field-independent basis, Debye-Ang**2):
  XXX=             32.3762  YYY=            -20.2691  ZZZ=             -2.8000  XYY=              8.1010
  XXY=              9.3093  XXZ=              3.8580  XZZ=              4.3406  YZZ=              0.5043
  YYZ=             -1.5859  XYZ=              4.8126
 Hexadecapole moment (field-independent basis, Debye-Ang**3):
 XXXX=          -3810.6216 YYYY=          -1174.3578 ZZZZ=           -929.9537 XXXY=             -5.1076
 XXXZ=            -15.4763 YYYX=             -1.0530 YYYZ=             14.8619 ZZZX=             20.5396
 ZZZY=              8.8227 XXYY=           -853.2189 XXZZ=           -812.2059 YYZZ=           -355.7072
 XXYZ=             -4.3982 YYXZ=              4.2405 ZZXY=             -2.1565
 N-N= 1.127068216298D+03 E-N=-3.878914612837D+03  KE= 6.915811710686D+02
 No NMR shielding tensors so no spin-rotation constants.
 Leave Link  601 at Tue Jan 24 01:42:02 2023, MaxMem=   131072000 cpu:               8.4 elap:               1.3
 (Enter /dragofs/sw/campus/0.2/software/gaussian/16.gaussian/gaussian/g16_legacy/l9999.exe)
 1\1\GINC-DRAGO31050163\FOpt\RBLYP\6-31G(d,p)\C12H26O3\JRAMOS\24-Jan-20
 23\0\\#p opt blyp/6-31G** EmpiricalDispersion=GD3\\Conformer number 02
 8. Energy MM = 0.000 kcal/mol\\0,1\H,17.8213071523,6.4873215183,4.9848
 212394\C,17.0638450397,5.8730654277,5.4932248946\C,17.4016581335,5.739
 7589491,6.9913886992\H,16.0784343865,6.3423045643,5.3420321081\H,17.04
 43534927,4.8847684798,5.0016158422\H,16.6154582499,5.1620648523,7.5093
 162397\H,17.4242514723,6.7397216694,7.4603623839\C,18.7588807038,5.057
 8614561,7.2506144242\C,19.0351443835,4.8574395209,8.7604433705\H,18.74
 29102238,4.0566139973,6.7669109634\H,18.2224566919,4.2379846681,9.1834
 257051\H,18.9774981965,5.8430410285,9.2560287933\O,19.7744779544,5.879
 4789093,6.6297062796\H,20.567931717,5.3092006452,6.5194031709\C,20.399
 8756403,4.204566046,9.0607110425\H,21.2252301709,4.8393327099,8.704038
 0565\H,20.4998206964,3.2308339101,8.554570167\H,20.5368091568,4.046616
 608,10.1423493582\H,23.0396934162,1.5659962594,4.072064235\C,23.305306
 9201,0.8812056453,4.8919955149\C,22.0816077739,0.0497041127,5.32863847
 1\H,24.118886307,0.2298532382,4.5370308188\H,23.6885664307,1.492708437
 4,5.7239847261\H,22.3777720889,-0.6844846626,6.0989179878\H,21.6884232
 95,-0.5291481516,4.4742266224\C,20.9432936456,0.8993600794,5.918501451
 9\C,19.7037800244,0.0919026634,6.3380391133\H,21.3182427981,1.49793168
 19,6.7634250333\H,20.0342187929,-0.6683069622,7.0677859178\H,19.323831
 8716,-0.457455765,5.4587420395\O,20.4912151144,1.848199283,4.868207077
 4\C,20.7754219197,3.1694255225,5.0279270446\O,21.4257968974,3.63104936
 2,5.9700439514\C,20.2003434783,4.0102039408,3.9030957124\H,19.45741429
 3,3.456892358,3.3154619496\H,19.761652547,4.914671224,4.3476129222\H,2
 1.023934924,4.324529522,3.241913159\C,18.5841748445,0.9606006161,6.947
 4483639\H,17.7221878149,0.344288606,7.246620744\H,18.2311981775,1.7072
 191043,6.2198510056\H,18.9386931627,1.503678925,7.8385033996\\Version=
 EM64L-G16RevA.03\State=1-A\HF=-698.3744112\RMSD=5.001e-09\RMSF=6.702e-
 06\Dipole=-0.0279794,-1.2442778,-0.3484329\Quadrupole=0.0721073,-1.828
 956,1.7568487,-1.4923285,-1.4230804,-1.6078655\PG=C01 [X(C12H26O3)]\\@


 It is also a good rule not to put too much confidence in
 experimental results until they have been confirmed by
 Theory.
                             -- Sir Arthur Eddington
 Job cpu time:       0 days  9 hours 37 minutes 10.7 seconds.
 Elapsed time:       0 days  1 hours 14 minutes 39.7 seconds.
 File lengths (MBytes):  RWF=     84 Int=      0 D2E=      0 Chk=     11 Scr=      1
 Normal termination of Gaussian 16 at Tue Jan 24 01:42:02 2023.
