 Entering Gaussian System, Link 0=/dragofs/sw/campus/0.2/software/gaussian/16.gaussian/gaussian/g16_legacy/g16
 Input=C12H26O3_pair_026_087.com
 Output=C12H26O3_pair_026_087.log
 Initial command:
 /dragofs/sw/campus/0.2/software/gaussian/16.gaussian/gaussian/g16_legacy/l1.exe "/tmp/jramos/38704/Gau-1478538.inp" -scrdir="/tmp/jramos/38704/"
 Entering Link 1 = /dragofs/sw/campus/0.2/software/gaussian/16.gaussian/gaussian/g16_legacy/l1.exe PID=   1478539.
  
 Copyright (c) 1988,1990,1992,1993,1995,1998,2003,2009,2016,
            Gaussian, Inc.  All Rights Reserved.
  
 This is part of the Gaussian(R) 16 program.  It is based on
 the Gaussian(R) 09 system (copyright 2009, Gaussian, Inc.),
 the Gaussian(R) 03 system (copyright 2003, Gaussian, Inc.),
 the Gaussian(R) 98 system (copyright 1998, Gaussian, Inc.),
 the Gaussian(R) 94 system (copyright 1995, Gaussian, Inc.),
 the Gaussian 92(TM) system (copyright 1992, Gaussian, Inc.),
 the Gaussian 90(TM) system (copyright 1990, Gaussian, Inc.),
 the Gaussian 88(TM) system (copyright 1988, Gaussian, Inc.),
 the Gaussian 86(TM) system (copyright 1986, Carnegie Mellon
 University), and the Gaussian 82(TM) system (copyright 1983,
 Carnegie Mellon University). Gaussian is a federally registered
 trademark of Gaussian, Inc.
  
 This software contains proprietary and confidential information,
 including trade secrets, belonging to Gaussian, Inc.
  
 This software is provided under written license and may be
 used, copied, transmitted, or stored only in accord with that
 written license.
  
 The following legend is applicable only to US Government
 contracts under FAR:
  
                    RESTRICTED RIGHTS LEGEND
  
 Use, reproduction and disclosure by the US Government is
 subject to restrictions as set forth in subparagraphs (a)
 and (c) of the Commercial Computer Software - Restricted
 Rights clause in FAR 52.227-19.
  
 Gaussian, Inc.
 340 Quinnipiac St., Bldg. 40, Wallingford CT 06492
  
  
 ---------------------------------------------------------------
 Warning -- This program may not be used in any manner that
 competes with the business of Gaussian, Inc. or will provide
 assistance to any competitor of Gaussian, Inc.  The licensee
 of this program is prohibited from giving any competitor of
 Gaussian, Inc. access to this program.  By using this program,
 the user acknowledges that Gaussian, Inc. is engaged in the
 business of creating and licensing software in the field of
 computational chemistry and represents and warrants to the
 licensee that it is not a competitor of Gaussian, Inc. and that
 it will not use this program in any manner prohibited above.
 ---------------------------------------------------------------
  

 Cite this work as:
 Gaussian 16, Revision A.03,
 M. J. Frisch, G. W. Trucks, H. B. Schlegel, G. E. Scuseria, 
 M. A. Robb, J. R. Cheeseman, G. Scalmani, V. Barone, 
 G. A. Petersson, H. Nakatsuji, X. Li, M. Caricato, A. V. Marenich, 
 J. Bloino, B. G. Janesko, R. Gomperts, B. Mennucci, H. P. Hratchian, 
 J. V. Ortiz, A. F. Izmaylov, J. L. Sonnenberg, D. Williams-Young, 
 F. Ding, F. Lipparini, F. Egidi, J. Goings, B. Peng, A. Petrone, 
 T. Henderson, D. Ranasinghe, V. G. Zakrzewski, J. Gao, N. Rega, 
 G. Zheng, W. Liang, M. Hada, M. Ehara, K. Toyota, R. Fukuda, 
 J. Hasegawa, M. Ishida, T. Nakajima, Y. Honda, O. Kitao, H. Nakai, 
 T. Vreven, K. Throssell, J. A. Montgomery, Jr., J. E. Peralta, 
 F. Ogliaro, M. J. Bearpark, J. J. Heyd, E. N. Brothers, K. N. Kudin, 
 V. N. Staroverov, T. A. Keith, R. Kobayashi, J. Normand, 
 K. Raghavachari, A. P. Rendell, J. C. Burant, S. S. Iyengar, 
 J. Tomasi, M. Cossi, J. M. Millam, M. Klene, C. Adamo, R. Cammi, 
 J. W. Ochterski, R. L. Martin, K. Morokuma, O. Farkas, 
 J. B. Foresman, and D. J. Fox, Gaussian, Inc., Wallingford CT, 2016.
 
 ******************************************
 Gaussian 16:  EM64L-G16RevA.03 25-Dec-2016
                24-Jan-2023 
 ******************************************
 %chk=C12H26O3_pair_026_087.chk
 %nproc=8
 Will use up to    8 processors via shared memory.
 %mem=1000Mb
 -------------------------------------------
 #p opt blyp/6-31G** EmpiricalDispersion=GD3
 -------------------------------------------
 1/18=20,19=15,26=3,38=1/1,3;
 2/9=110,12=2,17=6,18=5,40=1/2;
 3/5=1,6=6,7=101,11=2,25=1,30=1,71=1,74=402,124=31/1,2,3;
 4//1;
 5/5=2,38=5/2;
 6/7=2,8=2,9=2,10=2,28=1/1;
 7//1,2,3,16;
 1/18=20,19=15,26=3/3(2);
 2/9=110/2;
 99//99;
 2/9=110/2;
 3/5=1,6=6,7=101,11=2,25=1,30=1,71=1,74=402,124=31/1,2,3;
 4/5=5,16=3,69=1/1;
 5/5=2,38=5/2;
 7//1,2,3,16;
 1/18=20,19=15,26=3/3(-5);
 2/9=110/2;
 6/7=2,8=2,9=2,10=2,19=2,28=1/1;
 99/9=1/99;
 Leave Link    1 at Tue Jan 24 04:35:22 2023, MaxMem=   131072000 cpu:               0.3 elap:               0.0
 (Enter /dragofs/sw/campus/0.2/software/gaussian/16.gaussian/gaussian/g16_legacy/l101.exe)
 ------------------------------------------------
 Conformer number 140. Energy MM = 0.000 kcal/mol
 ------------------------------------------------
 Symbolic Z-matrix:
 Charge =  0 Multiplicity = 1
 H                     20.111    3.32      12.478 
 C                     19.175    3.689     12.109 
 C                     17.959    4.018     13.162 
 H                     19.329    4.474     11.357 
 H                     18.907    2.821     11.528 
 H                     16.967    4.329     12.636 
 H                     18.173    4.924     13.787 
 C                     17.782    2.847     14.002 
 C                     16.791    3.056     15.085 
 H                     17.504    1.97      13.382 
 H                     15.878    3.493     14.68 
 H                     17.233    3.723     15.892 
 O                     19.017    2.554     14.743 
 H                     18.916    1.646     15.099 
 C                     16.273    1.812     15.833 
 H                     15.976    1.033     15.148 
 H                     15.478    2.129     16.482 
 H                     17.011    1.315     16.394 
 H                     13.265    0.555     13.535 
 C                     12.669    1.139     14.32 
 C                     11.688    2.037     13.592 
 H                     12.191    0.45      15.062 
 H                     13.31     1.811     14.993 
 H                     11.109    1.34      12.952 
 H                     12.225    2.83      13.023 
 C                     10.72     2.76      14.403 
 C                     11.24     3.976     14.935 
 H                     9.849     3.035     13.78 
 H                     11.81     4.507     14.192 
 H                     11.91     3.684     15.816 
 O                     10.08     1.986     15.502 
 C                     8.959     1.195     15.251 
 O                     8.471     1.011     14.154 
 C                     8.473     0.775     16.591 
 H                     7.863    -0.14      16.566 
 H                     9.336     0.627     17.275 
 H                     7.904     1.676     16.946 
 C                     10.093    4.886     15.329 
 H                     9.532     5.181     14.45 
 H                     10.365    5.879     15.718 
 H                     9.387     4.371     16.017 
 
 Add virtual bond connecting atoms H23        and H16        Dist= 5.26D+00.
 Add virtual bond connecting atoms H23        and H17        Dist= 5.01D+00.
 ITRead=  0  0  0  0  0  0  0  0  0  0  0  0  0  0  0  0  0  0  0  0
 ITRead=  0  0  0  0  0  0  0  0  0  0  0  0  0  0  0  0  0  0  0  0
 ITRead=  0
 MicOpt= -1 -1 -1 -1 -1 -1 -1 -1 -1 -1 -1 -1 -1 -1 -1 -1 -1 -1 -1 -1
 MicOpt= -1 -1 -1 -1 -1 -1 -1 -1 -1 -1 -1 -1 -1 -1 -1 -1 -1 -1 -1 -1
 MicOpt= -1
 NAtoms=     41 NQM=       41 NQMF=       0 NMMI=      0 NMMIF=      0
                NMic=       0 NMicF=      0.
                    Isotopes and Nuclear Properties:
 (Nuclear quadrupole moments (NQMom) in fm**2, nuclear magnetic moments (NMagM)
  in nuclear magnetons)

  Atom         1           2           3           4           5           6           7           8           9          10
 IAtWgt=           1          12          12           1           1           1           1          12          12           1
 AtmWgt=   1.0078250  12.0000000  12.0000000   1.0078250   1.0078250   1.0078250   1.0078250  12.0000000  12.0000000   1.0078250
 NucSpn=           1           0           0           1           1           1           1           0           0           1
 AtZEff=  -0.0000000  -0.0000000  -0.0000000  -0.0000000  -0.0000000  -0.0000000  -0.0000000  -0.0000000  -0.0000000  -0.0000000
 NQMom=    0.0000000   0.0000000   0.0000000   0.0000000   0.0000000   0.0000000   0.0000000   0.0000000   0.0000000   0.0000000
 NMagM=    2.7928460   0.0000000   0.0000000   2.7928460   2.7928460   2.7928460   2.7928460   0.0000000   0.0000000   2.7928460
 AtZNuc=   1.0000000   6.0000000   6.0000000   1.0000000   1.0000000   1.0000000   1.0000000   6.0000000   6.0000000   1.0000000

  Atom        11          12          13          14          15          16          17          18          19          20
 IAtWgt=           1           1          16           1          12           1           1           1           1          12
 AtmWgt=   1.0078250   1.0078250  15.9949146   1.0078250  12.0000000   1.0078250   1.0078250   1.0078250   1.0078250  12.0000000
 NucSpn=           1           1           0           1           0           1           1           1           1           0
 AtZEff=  -0.0000000  -0.0000000  -0.0000000  -0.0000000  -0.0000000  -0.0000000  -0.0000000  -0.0000000  -0.0000000  -0.0000000
 NQMom=    0.0000000   0.0000000   0.0000000   0.0000000   0.0000000   0.0000000   0.0000000   0.0000000   0.0000000   0.0000000
 NMagM=    2.7928460   2.7928460   0.0000000   2.7928460   0.0000000   2.7928460   2.7928460   2.7928460   2.7928460   0.0000000
 AtZNuc=   1.0000000   1.0000000   8.0000000   1.0000000   6.0000000   1.0000000   1.0000000   1.0000000   1.0000000   6.0000000

  Atom        21          22          23          24          25          26          27          28          29          30
 IAtWgt=          12           1           1           1           1          12          12           1           1           1
 AtmWgt=  12.0000000   1.0078250   1.0078250   1.0078250   1.0078250  12.0000000  12.0000000   1.0078250   1.0078250   1.0078250
 NucSpn=           0           1           1           1           1           0           0           1           1           1
 AtZEff=  -0.0000000  -0.0000000  -0.0000000  -0.0000000  -0.0000000  -0.0000000  -0.0000000  -0.0000000  -0.0000000  -0.0000000
 NQMom=    0.0000000   0.0000000   0.0000000   0.0000000   0.0000000   0.0000000   0.0000000   0.0000000   0.0000000   0.0000000
 NMagM=    0.0000000   2.7928460   2.7928460   2.7928460   2.7928460   0.0000000   0.0000000   2.7928460   2.7928460   2.7928460
 AtZNuc=   6.0000000   1.0000000   1.0000000   1.0000000   1.0000000   6.0000000   6.0000000   1.0000000   1.0000000   1.0000000

  Atom        31          32          33          34          35          36          37          38          39          40
 IAtWgt=          16          12          16          12           1           1           1          12           1           1
 AtmWgt=  15.9949146  12.0000000  15.9949146  12.0000000   1.0078250   1.0078250   1.0078250  12.0000000   1.0078250   1.0078250
 NucSpn=           0           0           0           0           1           1           1           0           1           1
 AtZEff=  -0.0000000  -0.0000000  -0.0000000  -0.0000000  -0.0000000  -0.0000000  -0.0000000  -0.0000000  -0.0000000  -0.0000000
 NQMom=    0.0000000   0.0000000   0.0000000   0.0000000   0.0000000   0.0000000   0.0000000   0.0000000   0.0000000   0.0000000
 NMagM=    0.0000000   0.0000000   0.0000000   0.0000000   2.7928460   2.7928460   2.7928460   0.0000000   2.7928460   2.7928460
 AtZNuc=   8.0000000   6.0000000   8.0000000   6.0000000   1.0000000   1.0000000   1.0000000   6.0000000   1.0000000   1.0000000

  Atom        41
 IAtWgt=           1
 AtmWgt=   1.0078250
 NucSpn=           1
 AtZEff=  -0.0000000
 NQMom=    0.0000000
 NMagM=    2.7928460
 AtZNuc=   1.0000000
 Leave Link  101 at Tue Jan 24 04:35:22 2023, MaxMem=   131072000 cpu:               0.8 elap:               0.1
 (Enter /dragofs/sw/campus/0.2/software/gaussian/16.gaussian/gaussian/g16_legacy/l103.exe)

 GradGradGradGradGradGradGradGradGradGradGradGradGradGradGradGradGradGrad
 Berny optimization.
 Initialization pass.
                           ----------------------------
                           !    Initial Parameters    !
                           ! (Angstroms and Degrees)  !
 --------------------------                            --------------------------
 ! Name  Definition              Value          Derivative Info.                !
 --------------------------------------------------------------------------------
 ! R1    R(1,2)                  1.0716         estimate D2E/DX2                !
 ! R2    R(2,3)                  1.6419         estimate D2E/DX2                !
 ! R3    R(2,4)                  1.0979         estimate D2E/DX2                !
 ! R4    R(2,5)                  1.0783         estimate D2E/DX2                !
 ! R5    R(3,6)                  1.1651         estimate D2E/DX2                !
 ! R6    R(3,7)                  1.1213         estimate D2E/DX2                !
 ! R7    R(3,8)                  1.452          estimate D2E/DX2                !
 ! R8    R(8,9)                  1.4828         estimate D2E/DX2                !
 ! R9    R(8,10)                 1.1094         estimate D2E/DX2                !
 ! R10   R(8,13)                 1.4697         estimate D2E/DX2                !
 ! R11   R(9,11)                 1.0902         estimate D2E/DX2                !
 ! R12   R(9,12)                 1.1364         estimate D2E/DX2                !
 ! R13   R(9,15)                 1.5412         estimate D2E/DX2                !
 ! R14   R(13,14)                0.9805         estimate D2E/DX2                !
 ! R15   R(15,16)                1.079          estimate D2E/DX2                !
 ! R16   R(15,17)                1.0741         estimate D2E/DX2                !
 ! R17   R(15,18)                1.0518         estimate D2E/DX2                !
 ! R18   R(16,23)                2.7815         estimate D2E/DX2                !
 ! R19   R(17,23)                2.6492         estimate D2E/DX2                !
 ! R20   R(19,20)                1.1456         estimate D2E/DX2                !
 ! R21   R(20,21)                1.5162         estimate D2E/DX2                !
 ! R22   R(20,22)                1.1197         estimate D2E/DX2                !
 ! R23   R(20,23)                1.1469         estimate D2E/DX2                !
 ! R24   R(21,24)                1.1093         estimate D2E/DX2                !
 ! R25   R(21,25)                1.114          estimate D2E/DX2                !
 ! R26   R(21,26)                1.4552         estimate D2E/DX2                !
 ! R27   R(26,27)                1.4255         estimate D2E/DX2                !
 ! R28   R(26,28)                1.1056         estimate D2E/DX2                !
 ! R29   R(26,31)                1.4888         estimate D2E/DX2                !
 ! R30   R(27,29)                1.0765         estimate D2E/DX2                !
 ! R31   R(27,30)                1.1447         estimate D2E/DX2                !
 ! R32   R(27,38)                1.5162         estimate D2E/DX2                !
 ! R33   R(31,32)                1.3947         estimate D2E/DX2                !
 ! R34   R(32,33)                1.2147         estimate D2E/DX2                !
 ! R35   R(32,34)                1.486          estimate D2E/DX2                !
 ! R36   R(34,35)                1.1            estimate D2E/DX2                !
 ! R37   R(34,36)                1.1111         estimate D2E/DX2                !
 ! R38   R(34,37)                1.1232         estimate D2E/DX2                !
 ! R39   R(38,39)                1.0837         estimate D2E/DX2                !
 ! R40   R(38,40)                1.1006         estimate D2E/DX2                !
 ! R41   R(38,41)                1.1122         estimate D2E/DX2                !
 ! A1    A(1,2,3)              119.6725         estimate D2E/DX2                !
 ! A2    A(1,2,4)              111.0709         estimate D2E/DX2                !
 ! A3    A(1,2,5)               97.2055         estimate D2E/DX2                !
 ! A4    A(3,2,4)              113.5712         estimate D2E/DX2                !
 ! A5    A(3,2,5)              108.8312         estimate D2E/DX2                !
 ! A6    A(4,2,5)              103.9661         estimate D2E/DX2                !
 ! A7    A(2,3,6)              113.2368         estimate D2E/DX2                !
 ! A8    A(2,3,7)              112.2127         estimate D2E/DX2                !
 ! A9    A(2,3,8)              107.4405         estimate D2E/DX2                !
 ! A10   A(6,3,7)              101.4471         estimate D2E/DX2                !
 ! A11   A(6,3,8)              111.8804         estimate D2E/DX2                !
 ! A12   A(7,3,8)              110.6373         estimate D2E/DX2                !
 ! A13   A(3,8,9)              112.976          estimate D2E/DX2                !
 ! A14   A(3,8,10)             110.1681         estimate D2E/DX2                !
 ! A15   A(3,8,13)             110.4886         estimate D2E/DX2                !
 ! A16   A(9,8,10)             110.6173         estimate D2E/DX2                !
 ! A17   A(9,8,13)             102.7945         estimate D2E/DX2                !
 ! A18   A(10,8,13)            109.5557         estimate D2E/DX2                !
 ! A19   A(8,9,11)             110.1739         estimate D2E/DX2                !
 ! A20   A(8,9,12)             109.9647         estimate D2E/DX2                !
 ! A21   A(8,9,15)             117.7318         estimate D2E/DX2                !
 ! A22   A(11,9,12)            110.7474         estimate D2E/DX2                !
 ! A23   A(11,9,15)            102.8481         estimate D2E/DX2                !
 ! A24   A(12,9,15)            105.0591         estimate D2E/DX2                !
 ! A25   A(8,13,14)            106.3263         estimate D2E/DX2                !
 ! A26   A(9,15,16)            111.5389         estimate D2E/DX2                !
 ! A27   A(9,15,17)            107.6856         estimate D2E/DX2                !
 ! A28   A(9,15,18)            113.8547         estimate D2E/DX2                !
 ! A29   A(16,15,17)           113.1366         estimate D2E/DX2                !
 ! A30   A(16,15,18)           100.9871         estimate D2E/DX2                !
 ! A31   A(17,15,18)           109.6634         estimate D2E/DX2                !
 ! A32   A(15,16,23)            95.5816         estimate D2E/DX2                !
 ! A33   A(15,17,23)           103.3366         estimate D2E/DX2                !
 ! A34   A(19,20,21)           108.0302         estimate D2E/DX2                !
 ! A35   A(19,20,22)           111.2523         estimate D2E/DX2                !
 ! A36   A(19,20,23)           114.2048         estimate D2E/DX2                !
 ! A37   A(21,20,22)           113.9805         estimate D2E/DX2                !
 ! A38   A(21,20,23)           107.2381         estimate D2E/DX2                !
 ! A39   A(22,20,23)           102.1386         estimate D2E/DX2                !
 ! A40   A(20,21,24)           104.0391         estimate D2E/DX2                !
 ! A41   A(20,21,25)           110.7919         estimate D2E/DX2                !
 ! A42   A(20,21,26)           117.1995         estimate D2E/DX2                !
 ! A43   A(24,21,25)           113.8396         estimate D2E/DX2                !
 ! A44   A(24,21,26)           106.6489         estimate D2E/DX2                !
 ! A45   A(25,21,26)           104.5753         estimate D2E/DX2                !
 ! A46   A(16,23,17)            38.5461         estimate D2E/DX2                !
 ! A47   A(16,23,20)           113.8596         estimate D2E/DX2                !
 ! A48   A(17,23,20)           149.0381         estimate D2E/DX2                !
 ! A49   A(21,26,27)           112.9026         estimate D2E/DX2                !
 ! A50   A(21,26,28)           109.487          estimate D2E/DX2                !
 ! A51   A(21,26,31)           116.0446         estimate D2E/DX2                !
 ! A52   A(27,26,28)           106.5883         estimate D2E/DX2                !
 ! A53   A(27,26,31)           108.9535         estimate D2E/DX2                !
 ! A54   A(28,26,31)           101.9238         estimate D2E/DX2                !
 ! A55   A(26,27,29)           110.8748         estimate D2E/DX2                !
 ! A56   A(26,27,30)           106.4477         estimate D2E/DX2                !
 ! A57   A(26,27,38)           109.4505         estimate D2E/DX2                !
 ! A58   A(29,27,30)           110.3103         estimate D2E/DX2                !
 ! A59   A(29,27,38)           106.4903         estimate D2E/DX2                !
 ! A60   A(30,27,38)           113.3209         estimate D2E/DX2                !
 ! A61   A(26,31,32)           120.4978         estimate D2E/DX2                !
 ! A62   A(31,32,33)           124.8438         estimate D2E/DX2                !
 ! A63   A(31,32,34)           105.1219         estimate D2E/DX2                !
 ! A64   A(33,32,34)           129.8058         estimate D2E/DX2                !
 ! A65   A(32,34,35)           113.3273         estimate D2E/DX2                !
 ! A66   A(32,34,36)           109.8006         estimate D2E/DX2                !
 ! A67   A(32,34,37)           102.942          estimate D2E/DX2                !
 ! A68   A(35,34,36)           109.5069         estimate D2E/DX2                !
 ! A69   A(35,34,37)           113.174          estimate D2E/DX2                !
 ! A70   A(36,34,37)           107.8035         estimate D2E/DX2                !
 ! A71   A(27,38,39)           110.134          estimate D2E/DX2                !
 ! A72   A(27,38,40)           116.5117         estimate D2E/DX2                !
 ! A73   A(27,38,41)           111.2866         estimate D2E/DX2                !
 ! A74   A(39,38,40)            99.7305         estimate D2E/DX2                !
 ! A75   A(39,38,41)           107.409          estimate D2E/DX2                !
 ! A76   A(40,38,41)           110.8553         estimate D2E/DX2                !
 ! D1    D(1,2,3,6)           -175.3091         estimate D2E/DX2                !
 ! D2    D(1,2,3,7)             70.5722         estimate D2E/DX2                !
 ! D3    D(1,2,3,8)            -51.2534         estimate D2E/DX2                !
 ! D4    D(4,2,3,6)             50.2617         estimate D2E/DX2                !
 ! D5    D(4,2,3,7)            -63.8569         estimate D2E/DX2                !
 ! D6    D(4,2,3,8)            174.3174         estimate D2E/DX2                !
 ! D7    D(5,2,3,6)            -65.0156         estimate D2E/DX2                !
 ! D8    D(5,2,3,7)           -179.1342         estimate D2E/DX2                !
 ! D9    D(5,2,3,8)             59.0401         estimate D2E/DX2                !
 ! D10   D(2,3,8,9)            174.754          estimate D2E/DX2                !
 ! D11   D(2,3,8,10)           -60.9704         estimate D2E/DX2                !
 ! D12   D(2,3,8,13)            60.2218         estimate D2E/DX2                !
 ! D13   D(6,3,8,9)            -60.3694         estimate D2E/DX2                !
 ! D14   D(6,3,8,10)            63.9062         estimate D2E/DX2                !
 ! D15   D(6,3,8,13)          -174.9015         estimate D2E/DX2                !
 ! D16   D(7,3,8,9)             51.951          estimate D2E/DX2                !
 ! D17   D(7,3,8,10)           176.2266         estimate D2E/DX2                !
 ! D18   D(7,3,8,13)           -62.5812         estimate D2E/DX2                !
 ! D19   D(3,8,9,11)            48.6683         estimate D2E/DX2                !
 ! D20   D(3,8,9,12)           -73.6759         estimate D2E/DX2                !
 ! D21   D(3,8,9,15)           166.107          estimate D2E/DX2                !
 ! D22   D(10,8,9,11)          -75.3611         estimate D2E/DX2                !
 ! D23   D(10,8,9,12)          162.2947         estimate D2E/DX2                !
 ! D24   D(10,8,9,15)           42.0776         estimate D2E/DX2                !
 ! D25   D(13,8,9,11)          167.7558         estimate D2E/DX2                !
 ! D26   D(13,8,9,12)           45.4116         estimate D2E/DX2                !
 ! D27   D(13,8,9,15)          -74.8055         estimate D2E/DX2                !
 ! D28   D(3,8,13,14)         -165.6888         estimate D2E/DX2                !
 ! D29   D(9,8,13,14)           73.5027         estimate D2E/DX2                !
 ! D30   D(10,8,13,14)         -44.1338         estimate D2E/DX2                !
 ! D31   D(8,9,15,16)          -47.8687         estimate D2E/DX2                !
 ! D32   D(8,9,15,17)         -172.5654         estimate D2E/DX2                !
 ! D33   D(8,9,15,18)           65.6198         estimate D2E/DX2                !
 ! D34   D(11,9,15,16)          73.4324         estimate D2E/DX2                !
 ! D35   D(11,9,15,17)         -51.2643         estimate D2E/DX2                !
 ! D36   D(11,9,15,18)        -173.0791         estimate D2E/DX2                !
 ! D37   D(12,9,15,16)        -170.6147         estimate D2E/DX2                !
 ! D38   D(12,9,15,17)          64.6887         estimate D2E/DX2                !
 ! D39   D(12,9,15,18)         -57.1262         estimate D2E/DX2                !
 ! D40   D(9,15,16,23)         -92.0814         estimate D2E/DX2                !
 ! D41   D(17,15,16,23)         29.5072         estimate D2E/DX2                !
 ! D42   D(18,15,16,23)        146.6182         estimate D2E/DX2                !
 ! D43   D(9,15,17,23)          91.7973         estimate D2E/DX2                !
 ! D44   D(16,15,17,23)        -31.9338         estimate D2E/DX2                !
 ! D45   D(18,15,17,23)       -143.8208         estimate D2E/DX2                !
 ! D46   D(15,16,23,17)        -17.1387         estimate D2E/DX2                !
 ! D47   D(15,16,23,20)       -178.8647         estimate D2E/DX2                !
 ! D48   D(15,17,23,16)         17.6255         estimate D2E/DX2                !
 ! D49   D(15,17,23,20)         51.5018         estimate D2E/DX2                !
 ! D50   D(19,20,21,24)         55.7528         estimate D2E/DX2                !
 ! D51   D(19,20,21,25)        -66.971          estimate D2E/DX2                !
 ! D52   D(19,20,21,26)        173.1755         estimate D2E/DX2                !
 ! D53   D(22,20,21,24)        -68.4412         estimate D2E/DX2                !
 ! D54   D(22,20,21,25)        168.835          estimate D2E/DX2                !
 ! D55   D(22,20,21,26)         48.9815         estimate D2E/DX2                !
 ! D56   D(23,20,21,24)        179.2879         estimate D2E/DX2                !
 ! D57   D(23,20,21,25)         56.5642         estimate D2E/DX2                !
 ! D58   D(23,20,21,26)        -63.2894         estimate D2E/DX2                !
 ! D59   D(19,20,23,16)        -22.8166         estimate D2E/DX2                !
 ! D60   D(19,20,23,17)        -45.1379         estimate D2E/DX2                !
 ! D61   D(21,20,23,16)       -142.4725         estimate D2E/DX2                !
 ! D62   D(21,20,23,17)       -164.7938         estimate D2E/DX2                !
 ! D63   D(22,20,23,16)         97.3945         estimate D2E/DX2                !
 ! D64   D(22,20,23,17)         75.0732         estimate D2E/DX2                !
 ! D65   D(20,21,26,27)         83.8434         estimate D2E/DX2                !
 ! D66   D(20,21,26,28)       -157.5853         estimate D2E/DX2                !
 ! D67   D(20,21,26,31)        -42.9483         estimate D2E/DX2                !
 ! D68   D(24,21,26,27)       -160.1572         estimate D2E/DX2                !
 ! D69   D(24,21,26,28)        -41.5859         estimate D2E/DX2                !
 ! D70   D(24,21,26,31)         73.0511         estimate D2E/DX2                !
 ! D71   D(25,21,26,27)        -39.2501         estimate D2E/DX2                !
 ! D72   D(25,21,26,28)         79.3212         estimate D2E/DX2                !
 ! D73   D(25,21,26,31)       -166.0418         estimate D2E/DX2                !
 ! D74   D(21,26,27,29)         42.9026         estimate D2E/DX2                !
 ! D75   D(21,26,27,30)        -77.0924         estimate D2E/DX2                !
 ! D76   D(21,26,27,38)        160.087          estimate D2E/DX2                !
 ! D77   D(28,26,27,29)        -77.3436         estimate D2E/DX2                !
 ! D78   D(28,26,27,30)        162.6614         estimate D2E/DX2                !
 ! D79   D(28,26,27,38)         39.8408         estimate D2E/DX2                !
 ! D80   D(31,26,27,29)        173.3729         estimate D2E/DX2                !
 ! D81   D(31,26,27,30)         53.3779         estimate D2E/DX2                !
 ! D82   D(31,26,27,38)        -69.4427         estimate D2E/DX2                !
 ! D83   D(21,26,31,32)        -84.7935         estimate D2E/DX2                !
 ! D84   D(27,26,31,32)        146.4649         estimate D2E/DX2                !
 ! D85   D(28,26,31,32)         34.0672         estimate D2E/DX2                !
 ! D86   D(26,27,38,39)        -65.0134         estimate D2E/DX2                !
 ! D87   D(26,27,38,40)       -177.5984         estimate D2E/DX2                !
 ! D88   D(26,27,38,41)         53.9884         estimate D2E/DX2                !
 ! D89   D(29,27,38,39)         54.897          estimate D2E/DX2                !
 ! D90   D(29,27,38,40)        -57.688          estimate D2E/DX2                !
 ! D91   D(29,27,38,41)        173.8988         estimate D2E/DX2                !
 ! D92   D(30,27,38,39)        176.3513         estimate D2E/DX2                !
 ! D93   D(30,27,38,40)         63.7663         estimate D2E/DX2                !
 ! D94   D(30,27,38,41)        -64.6469         estimate D2E/DX2                !
 ! D95   D(26,31,32,33)          4.2984         estimate D2E/DX2                !
 ! D96   D(26,31,32,34)       -170.6658         estimate D2E/DX2                !
 ! D97   D(31,32,34,35)       -157.3779         estimate D2E/DX2                !
 ! D98   D(31,32,34,36)        -34.5747         estimate D2E/DX2                !
 ! D99   D(31,32,34,37)         80.0184         estimate D2E/DX2                !
 ! D100  D(33,32,34,35)         28.003          estimate D2E/DX2                !
 ! D101  D(33,32,34,36)        150.8061         estimate D2E/DX2                !
 ! D102  D(33,32,34,37)        -94.6007         estimate D2E/DX2                !
 --------------------------------------------------------------------------------
 Trust Radius=3.00D-01 FncErr=1.00D-07 GrdErr=1.00D-06 EigMax=2.50D+02 EigMin=1.00D-04
 Number of steps in this run=    229 maximum allowed number of steps=    246.
 GradGradGradGradGradGradGradGradGradGradGradGradGradGradGradGradGradGrad

 Leave Link  103 at Tue Jan 24 04:35:22 2023, MaxMem=   131072000 cpu:               0.1 elap:               0.0
 (Enter /dragofs/sw/campus/0.2/software/gaussian/16.gaussian/gaussian/g16_legacy/l202.exe)
                          Input orientation:                          
 ---------------------------------------------------------------------
 Center     Atomic      Atomic             Coordinates (Angstroms)
 Number     Number       Type             X           Y           Z
 ---------------------------------------------------------------------
      1          1           0       20.111000    3.320000   12.478000
      2          6           0       19.175000    3.689000   12.109000
      3          6           0       17.959000    4.018000   13.162000
      4          1           0       19.329000    4.474000   11.357000
      5          1           0       18.907000    2.821000   11.528000
      6          1           0       16.967000    4.329000   12.636000
      7          1           0       18.173000    4.924000   13.787000
      8          6           0       17.782000    2.847000   14.002000
      9          6           0       16.791000    3.056000   15.085000
     10          1           0       17.504000    1.970000   13.382000
     11          1           0       15.878000    3.493000   14.680000
     12          1           0       17.233000    3.723000   15.892000
     13          8           0       19.017000    2.554000   14.743000
     14          1           0       18.916000    1.646000   15.099000
     15          6           0       16.273000    1.812000   15.833000
     16          1           0       15.976000    1.033000   15.148000
     17          1           0       15.478000    2.129000   16.482000
     18          1           0       17.011000    1.315000   16.394000
     19          1           0       13.265000    0.555000   13.535000
     20          6           0       12.669000    1.139000   14.320000
     21          6           0       11.688000    2.037000   13.592000
     22          1           0       12.191000    0.450000   15.062000
     23          1           0       13.310000    1.811000   14.993000
     24          1           0       11.109000    1.340000   12.952000
     25          1           0       12.225000    2.830000   13.023000
     26          6           0       10.720000    2.760000   14.403000
     27          6           0       11.240000    3.976000   14.935000
     28          1           0        9.849000    3.035000   13.780000
     29          1           0       11.810000    4.507000   14.192000
     30          1           0       11.910000    3.684000   15.816000
     31          8           0       10.080000    1.986000   15.502000
     32          6           0        8.959000    1.195000   15.251000
     33          8           0        8.471000    1.011000   14.154000
     34          6           0        8.473000    0.775000   16.591000
     35          1           0        7.863000   -0.140000   16.566000
     36          1           0        9.336000    0.627000   17.275000
     37          1           0        7.904000    1.676000   16.946000
     38          6           0       10.093000    4.886000   15.329000
     39          1           0        9.532000    5.181000   14.450000
     40          1           0       10.365000    5.879000   15.718000
     41          1           0        9.387000    4.371000   16.017000
 ---------------------------------------------------------------------
                    Distance matrix (angstroms):
                    1          2          3          4          5
     1  H    0.000000
     2  C    1.071643   0.000000
     3  C    2.363507   1.641861   0.000000
     4  H    1.788821   1.097928   2.311463   0.000000
     5  H    1.612798   1.078336   2.236396   1.714565   0.000000
     6  H    3.305719   2.358515   1.165101   2.689965   2.695427
     7  H    2.835867   2.311907   1.121275   2.728321   3.172451
     8  C    2.823216   2.496570   1.451954   3.469346   2.717899
     9  C    4.229485   3.865323   2.446957   4.727595   4.145471
    10  H    3.071834   2.714356   2.109438   3.701522   2.475869
    11  H    4.774623   4.185531   2.628785   4.890204   4.422842
    12  H    4.483379   4.252483   2.840247   5.052073   4.760292
    13  O    2.629414   2.872481   2.400463   3.904964   3.227943
    14  H    3.331658   3.630569   3.208458   4.708579   3.759355
    15  C    5.316045   5.080641   3.852697   6.038208   5.146753
    16  H    5.427476   5.150093   4.097159   6.120030   4.989199
    17  H    6.238204   5.935026   4.554787   6.826042   6.064571
    18  H    5.381922   5.355371   4.318650   6.381518   5.435146
    19  H    7.458565   6.839849   5.845095   7.541508   6.402731
    20  C    7.970765   7.329329   6.133001   8.016059   7.038255
    21  C    8.592672   7.809197   6.590501   8.325808   7.549087
    22  H    8.811377   8.245459   7.043468   8.992811   7.950815
    23  H    7.406477   6.800189   5.462290   7.519337   6.659785
    24  H    9.229360   8.443270   7.357872   8.940603   8.064114
    25  H    7.919982   7.062278   5.857424   7.479646   6.847206
    26  C    9.602609   8.809796   7.451561   9.291437   8.677345
    27  C    9.228317   8.428100   6.949119   8.859007   8.469036
    28  H   10.348192   9.497064   8.192699   9.889997   9.336202
    29  H    8.558818   7.697483   6.253817   8.035775   7.765752
    30  H    8.861780   8.156108   6.614051   8.691855   8.251650
    31  O   10.561491   9.855541   8.466597  10.436243   9.716266
    32  C   11.686413  10.975375   9.660914  11.552142  10.745572
    33  O   11.984576  11.221824  10.002413  11.735065  10.912473
    34  C   12.603049  11.962965  10.595248  12.606748  11.776606
    35  H   13.367754  12.747056  11.437019  13.412376  12.494755
    36  H   12.098102  11.526896  10.137642  12.234467  11.377420
    37  H   13.102542  12.429166  10.995756  13.022916  12.317945
    38  C   10.532848   9.709991   8.205076  10.062317   9.818270
    39  H   10.920959  10.034630   8.603827  10.297947  10.099421
    40  H   10.584451   9.769190   8.225892  10.067057   9.993659
    41  H   11.341662  10.561370   9.041837  10.980418  10.638798
                    6          7          8          9         10
     6  H    0.000000
     7  H    1.770102   0.000000
     8  C    2.174053   2.124391   0.000000
     9  C    2.765702   2.661607   1.482785   0.000000
    10  H    2.531752   3.055765   1.109420   2.141956   0.000000
    11  H    2.462266   2.848199   2.121843   1.090212   2.578412
    12  H    3.322579   2.599428   2.154269   1.136443   3.073524
    13  O    3.434032   2.691314   1.469747   2.307389   2.117202
    14  H    4.130794   3.608140   1.982868   2.550279   2.246510
    15  C    4.127679   4.180988   2.588603   1.541222   2.747313
    16  H    4.260967   4.671082   2.804558   2.181908   2.516249
    17  H    4.674274   4.726317   3.460396   2.129532   3.706745
    18  H    4.817540   4.601258   2.943319   2.189283   3.121573
    19  H    5.362470   6.575723   5.086712   4.592404   4.471550
    20  C    5.611128   6.701069   5.400107   4.609880   4.994760
    21  C    5.833956   7.101269   6.161253   5.413688   5.820176
    22  H    6.613796   7.578036   6.174827   5.286943   5.775878
    23  H    5.026870   5.898642   4.696186   3.698087   4.495580
    24  H    6.584082   7.965072   6.921162   6.307097   6.440328
    25  H    4.988320   6.351947   5.642604   5.015105   5.360627
    26  C    6.679001   7.785214   7.073911   6.116354   6.905737
    27  C    6.181306   7.091058   6.703946   5.628721   6.758220
    28  H    7.324554   8.535651   7.938332   7.063627   7.738970
    29  H    5.389570   6.389498   6.201329   5.264334   6.286025
    30  H    6.008467   6.699225   6.202544   4.975229   6.336796
    31  O    7.818847   8.778936   7.893803   6.808547   7.720779
    32  C    8.988228  10.047215   9.062805   8.051776   8.781276
    33  O    9.246376  10.467811   9.491508   8.618073   9.116510
    34  C   10.021027  10.916346   9.881983   8.755577   9.658399
    35  H   10.876565  11.817912  10.671590   9.597758  10.370093
    36  H    9.667331  10.427028   9.326084   8.140833   9.147422
    37  H   10.380389  11.224132  10.373681   9.184035  10.244439
    38  C    7.403673   8.225911   8.064687   6.947780   8.198584
    39  H    7.700372   8.670208   8.585497   7.590252   8.660481
    40  H    7.449002   8.099731   8.194484   7.047233   8.467733
    41  H    8.299959   9.081437   8.766917   7.577405   8.865310
                   11         12         13         14         15
    11  H    0.000000
    12  H    1.832449   0.000000
    13  O    3.277043   2.422688   0.000000
    14  H    3.580002   2.788417   0.980511   0.000000
    15  C    2.076342   2.139393   3.044372   2.748047   0.000000
    16  H    2.506038   3.060994   3.424200   3.003626   1.079016
    17  H    2.295147   2.443146   3.966014   3.737087   1.074111
    18  H    2.994189   2.469768   2.878360   2.327147   1.051843
    19  H    4.095197   5.597919   6.208121   5.964074   3.988598
    20  C    3.996073   5.475248   6.517535   6.315766   3.966222
    21  C    4.567251   6.235353   7.436823   7.393775   5.108320
    22  H    4.795805   6.068212   7.150025   6.830623   4.371751
    23  H    3.085728   4.455769   5.760590   5.609429   3.079768
    24  H    5.510422   7.199004   8.198655   8.102623   5.932103
    25  H    4.065664   5.840263   7.011836   7.105006   5.031772
    26  C    5.217181   6.750086   8.306518   8.300592   5.812006
    27  C    4.670049   6.074200   7.908266   8.023514   5.551611
    28  H    6.112987   7.710859   9.230978   9.267123   6.854073
    29  H    4.220778   5.737036   7.487233   7.713832   5.465736
    30  H    4.131828   5.323685   7.275828   7.331546   4.747678
    31  O    6.046779   7.371206   8.987139   8.851718   6.204280
    32  C    7.312962   8.675295  10.162102   9.968368   7.363016
    33  O    7.829473   9.335322  10.674544  10.506868   8.020714
    34  C    8.116247   9.269137  10.851538  10.584940   7.905057
    35  H    8.999773  10.157458  11.618635  11.292063   8.664623
    36  H    7.599062   8.594214  10.190491   9.876727   7.183701
    37  H    8.486514   9.608921  11.363224  11.165861   8.443780
    38  C    5.985639   7.255973   9.242261   9.401906   6.920686
    39  H    6.570689   7.969349   9.846431  10.048725   7.661849
    40  H    6.096196   7.200558   9.320051   9.561436   7.173436
    41  H    6.685173   7.873706   9.882382   9.953401   7.348424
                   16         17         18         19         20
    16  H    0.000000
    17  H    1.796880   0.000000
    18  H    1.644161   1.737938   0.000000
    19  H    3.190576   4.007450   4.773259   0.000000
    20  C    3.410729   3.680329   4.815124   1.145643   0.000000
    21  C    4.670770   4.767039   6.058615   2.164833   1.516163
    22  H    3.830602   3.954720   5.074924   1.869821   1.119718
    23  H    2.781522   2.649239   3.988260   1.924922   1.146906
    24  H    5.348304   5.672000   6.832393   2.367372   2.084568
    25  H    4.670635   4.799801   6.046872   2.553306   2.176884
    26  C    5.582391   5.230580   6.754908   3.477423   2.536362
    27  C    5.579992   4.874963   6.520279   4.214720   3.235558
    28  H    6.589352   6.309301   7.815730   4.228414   3.440758
    29  H    5.508009   4.934897   6.487532   4.262274   3.478173
    30  H    4.899631   3.948697   5.653888   4.102393   3.048134
    31  O    5.983004   5.488101   7.020304   4.007627   2.969420
    32  C    7.019625   6.699633   8.133606   4.679305   3.825441
    33  O    7.570571   7.467768   8.834117   4.855258   4.203230
    34  C    7.644856   7.135490   8.557327   5.687776   4.785013
    35  H    8.319100   7.946297   9.264584   6.233104   5.456922
    36  H    6.984165   6.372520   7.755974   5.424926   4.483643
    37  H    8.294784   7.601709   9.130853   6.452277   5.467126
    38  C    7.034775   6.158627   7.857798   5.660175   4.657667
    39  H    7.695339   6.985603   8.640633   6.014349   5.118147
    40  H    7.435855   6.386624   8.090512   6.443638   5.452561
    41  H    7.437226   6.507155   8.222326   5.980056   4.908886
                   21         22         23         24         25
    21  C    0.000000
    22  H    2.220918   0.000000
    23  H    2.155171   1.763305   0.000000
    24  H    1.109347   2.532770   3.038408   0.000000
    25  H    1.113992   3.134179   2.469106   1.862954   0.000000
    26  C    1.455154   2.816775   2.820780   2.067153   2.043116
    27  C    2.400849   3.654204   2.995912   3.301204   2.437065
    28  H    2.100778   3.716277   3.866273   2.268526   2.502089
    29  H    2.544756   4.166691   3.187478   3.472591   2.085933
    30  H    2.776341   3.332602   2.479003   3.786612   2.937582
    31  O    2.497272   2.647493   3.274539   2.824652   3.385085
    32  C    3.302830   3.322133   4.401956   3.151020   4.278313
    33  O    3.423099   3.870089   4.975926   2.917548   4.322087
    34  C    4.574152   4.033236   5.198410   4.528801   5.570561
    35  H    5.311745   4.619708   5.995877   5.078180   6.356162
    36  H    4.591785   3.616590   4.733081   4.726545   5.592766
    37  H    5.069348   4.840548   5.749545   5.131955   5.949175
    38  C    3.698377   4.914366   4.462915   4.388223   3.753691
    39  H    3.907587   5.461427   5.091663   4.414093   3.849127
    40  H    4.585975   5.765297   5.074177   5.367198   4.474263
    41  H    4.077105   4.914131   4.795008   4.641818   4.403744
                   26         27         28         29         30
    26  C    0.000000
    27  C    1.425510   0.000000
    28  H    1.105620   2.038231   0.000000
    29  H    2.069935   1.076527   2.486373   0.000000
    30  H    2.065537   1.144694   2.968875   1.823377   0.000000
    31  O    1.488784   2.372170   2.029543   3.326325   2.516088
    32  C    2.503887   3.610648   2.518242   4.496557   3.901634
    33  O    2.859896   4.131410   2.476961   4.834499   4.661962
    34  C    3.711681   4.543680   3.860401   5.551450   4.569012
    35  H    4.609883   5.568280   4.667614   6.542881   5.618157
    36  H    3.835822   4.507396   4.275121   5.538950   4.254340
    37  H    3.946107   4.523607   3.956446   5.554810   4.621363
    38  C    2.402183   1.516227   2.425930   2.093920   2.232367
    39  H    2.697183   2.145813   2.270398   2.389587   3.124396
    40  H    3.403441   2.236095   3.480005   2.509798   2.686011
    41  H    2.641440   2.181824   2.646225   3.036454   2.622575
                   31         32         33         34         35
    31  O    0.000000
    32  C    1.394748   0.000000
    33  O    2.314435   1.214664   0.000000
    34  C    2.287988   1.486000   2.448401   0.000000
    35  H    3.250702   2.170868   2.740841   1.099977   0.000000
    36  H    2.354559   2.135727   3.261337   1.111094   1.805741
    37  H    2.629869   2.053634   2.925573   1.123204   1.855785
    38  C    2.905185   3.862062   4.362010   4.595363   5.635933
    39  H    3.408083   4.105865   4.313031   5.011806   5.964567
    40  H    3.909390   4.912716   5.452592   5.512949   6.573239
    41  H    2.536474   3.294983   3.949611   3.754476   4.793026
                   36         37         38         39         40
    36  H    0.000000
    37  H    1.805344   0.000000
    38  C    4.743316   4.208386   0.000000
    39  H    5.362645   4.600590   1.083691   0.000000
    40  H    5.573741   5.022919   1.100615   1.670005   0.000000
    41  H    3.950025   3.213309   1.112207   1.769919   1.822073
                   41
    41  H    0.000000
 Stoichiometry    C12H26O3
 Framework group  C1[X(C12H26O3)]
 Deg. of freedom   117
 Full point group                 C1      NOp   1
 Largest Abelian subgroup         C1      NOp   1
 Largest concise Abelian subgroup C1      NOp   1
                         Standard orientation:                         
 ---------------------------------------------------------------------
 Center     Atomic      Atomic             Coordinates (Angstroms)
 Number     Number       Type             X           Y           Z
 ---------------------------------------------------------------------
      1          1           0       -7.018476    0.374047    0.996767
      2          6           0       -6.204562    1.023818    1.249275
      3          6           0       -4.892457    1.103061    0.265504
      4          1           0       -6.570293    2.006984    1.573422
      5          1           0       -5.921681    0.535470    2.168135
      6          1           0       -4.040490    1.775674    0.688831
      7          1           0       -5.120448    1.616965   -0.704641
      8          6           0       -4.441903   -0.257081    0.030590
      9          6           0       -3.330528   -0.337844   -0.947660
     10          1           0       -4.154085   -0.735627    0.989218
     11          1           0       -2.553279    0.383366   -0.694078
     12          1           0       -3.723779   -0.153360   -1.997812
     13          8           0       -5.501209   -1.045750   -0.614411
     14          1           0       -5.232800   -1.985403   -0.534344
     15          6           0       -2.550729   -1.664071   -1.039320
     16          1           0       -2.266666   -2.024890   -0.062902
     17          1           0       -1.711832   -1.504982   -1.690978
     18          1           0       -3.124905   -2.471629   -1.392231
     19          1           0        0.202341   -1.301046    1.823849
     20          6           0        0.833421   -0.995112    0.917958
     21          6           0        1.569406    0.283140    1.268881
     22          1           0        1.503008   -1.830152    0.589126
     23          1           0        0.223906   -0.786789   -0.030983
     24          1           0        2.126394    0.027757    2.193647
     25          1           0        0.855477    1.129318    1.392442
     26          6           0        2.551490    0.769436    0.311540
     27          6           0        1.970166    1.543602   -0.734792
     28          1           0        3.274502    1.428046    0.827175
     29          1           0        1.230218    2.221341   -0.344847
     30          1           0        1.485966    0.799767   -1.457693
     31          8           0        3.445487   -0.259333   -0.287528
     32          6           0        4.605342   -0.661355    0.374618
     33          8           0        4.938067   -0.286673    1.481106
     34          6           0        5.340787   -1.500658   -0.606650
     35          1           0        6.050289   -2.198313   -0.137784
     36          1           0        4.618959   -2.069453   -1.231123
     37          1           0        5.839229   -0.739397   -1.265151
     38          6           0        3.039908    2.400741   -1.382795
     39          1           0        3.417217    3.126843   -0.672301
     40          1           0        2.707787    3.079064   -2.183375
     41          1           0        3.902654    1.784373   -1.718599
 ---------------------------------------------------------------------
 Rotational constants (GHZ):           1.0044087           0.1354390           0.1315327
 Leave Link  202 at Tue Jan 24 04:35:22 2023, MaxMem=   131072000 cpu:               0.0 elap:               0.0
 (Enter /dragofs/sw/campus/0.2/software/gaussian/16.gaussian/gaussian/g16_legacy/l301.exe)
 Standard basis: 6-31G(d,p) (6D, 7F)
 Ernie: Thresh=  0.10000D-02 Tol=  0.10000D-05 Strict=F.
 There are   355 symmetry adapted cartesian basis functions of A   symmetry.
 There are   355 symmetry adapted basis functions of A   symmetry.
   355 basis functions,   602 primitive gaussians,   355 cartesian basis functions
    61 alpha electrons       61 beta electrons
       nuclear repulsion energy      1003.6836461420 Hartrees.
 IExCor=  402 DFT=T Ex=B Corr=LYP ExCW=0 ScaHFX=  0.000000
 ScaDFX=  1.000000  1.000000  1.000000  1.000000 ScalE2=  1.000000  1.000000
 IRadAn=      5 IRanWt=     -1 IRanGd=            0 ICorTp=0 IEmpDi=131
 NAtoms=   41 NActive=   41 NUniq=   41 SFac= 1.00D+00 NAtFMM=   60 NAOKFM=F Big=F
 Integral buffers will be    131072 words long.
 Raffenetti 2 integral format.
 Two-electron integral symmetry is turned on.
 R6Disp:  Grimme-D3 Dispersion energy=       -0.0421236072 Hartrees.
 Nuclear repulsion after empirical dispersion term =     1003.6415225348 Hartrees.
 Leave Link  301 at Tue Jan 24 04:35:22 2023, MaxMem=   131072000 cpu:               0.4 elap:               0.1
 (Enter /dragofs/sw/campus/0.2/software/gaussian/16.gaussian/gaussian/g16_legacy/l302.exe)
 NPDir=0 NMtPBC=     1 NCelOv=     1 NCel=       1 NClECP=     1 NCelD=      1
         NCelK=      1 NCelE2=     1 NClLst=     1 CellRange=     0.0.
 One-electron integrals computed using PRISM.
 One-electron integral symmetry used in STVInt
 NBasis=   355 RedAO= T EigKep=  2.71D-03  NBF=   355
 NBsUse=   355 1.00D-06 EigRej= -1.00D+00 NBFU=   355
 Precomputing XC quadrature grid using
 IXCGrd= 4 IRadAn=           5 IRanWt=          -1 IRanGd=           0 AccXCQ= 0.00D+00.
 Generated NRdTot=       0 NPtTot=           0 NUsed=           0 NTot=          32
 NSgBfM=   348   348   348   348   348 MxSgAt=    41 MxSgA2=    41.
 Leave Link  302 at Tue Jan 24 04:35:22 2023, MaxMem=   131072000 cpu:               3.7 elap:               0.5
 (Enter /dragofs/sw/campus/0.2/software/gaussian/16.gaussian/gaussian/g16_legacy/l303.exe)
 DipDrv:  MaxL=1.
 Leave Link  303 at Tue Jan 24 04:35:22 2023, MaxMem=   131072000 cpu:               0.3 elap:               0.1
 (Enter /dragofs/sw/campus/0.2/software/gaussian/16.gaussian/gaussian/g16_legacy/l401.exe)
 ExpMin= 1.61D-01 ExpMax= 5.48D+03 ExpMxC= 8.25D+02 IAcc=3 IRadAn=         5 AccDes= 0.00D+00
 Harris functional with IExCor=  402 and IRadAn=       5 diagonalized for initial guess.
 HarFok:  IExCor=  402 AccDes= 0.00D+00 IRadAn=         5 IDoV= 1 UseB2=F ITyADJ=14
 ICtDFT=  3500011 ScaDFX=  1.000000  1.000000  1.000000  1.000000
 FoFCou: FMM=F IPFlag=           0 FMFlag=      100000 FMFlg1=           0
         NFxFlg=           0 DoJE=T BraDBF=F KetDBF=T FulRan=T
         wScrn=  0.000000 ICntrl=       500 IOpCl=  0 I1Cent=   200000004 NGrid=           0
         NMat0=    1 NMatS0=      1 NMatT0=    0 NMatD0=    1 NMtDS0=    0 NMtDT0=    0
 Petite list used in FoFCou.
 Harris En= -698.785527059221    
 JPrj=0 DoOrth=F DoCkMO=F.
 Leave Link  401 at Tue Jan 24 04:35:24 2023, MaxMem=   131072000 cpu:              16.7 elap:               2.1
 (Enter /dragofs/sw/campus/0.2/software/gaussian/16.gaussian/gaussian/g16_legacy/l502.exe)
 Integral symmetry usage will be decided dynamically.
 Closed shell SCF:
 Using DIIS extrapolation, IDIIS=  1040.
 NGot=   131072000 LenX=   130813044 LenY=   130686578
 Requested convergence on RMS density matrix=1.00D-08 within 128 cycles.
 Requested convergence on MAX density matrix=1.00D-06.
 Requested convergence on             energy=1.00D-06.
 No special actions if energy rises.
 Fock matrices will be formed incrementally for  20 cycles.
 Integral accuracy reduced to 1.0D-05 until final iterations.

 Cycle   1  Pass 0  IDiag  1:
 FoFJK:  IHMeth= 1 ICntrl=     500 DoSepK=F KAlg= 0 I1Cent=           0 FoldK=F
 IRaf= 680000000 NMat=       1 IRICut=       1 DoRegI=T DoRafI=F ISym2E= 0 IDoP0=0 IntGTp=1.
 FoFCou: FMM=F IPFlag=           0 FMFlag=      100000 FMFlg1=           0
         NFxFlg=           0 DoJE=T BraDBF=F KetDBF=F FulRan=T
         wScrn=  0.000000 ICntrl=       500 IOpCl=  0 I1Cent=           0 NGrid=           0
         NMat0=    1 NMatS0=      1 NMatT0=    0 NMatD0=    1 NMtDS0=    0 NMtDT0=    0
 Symmetry not used in FoFCou.
 E= -697.698215633355    
 DIIS: error= 2.67D-02 at cycle   1 NSaved=   1.
 NSaved= 1 IEnMin= 1 EnMin= -697.698215633355     IErMin= 1 ErrMin= 2.67D-02
 ErrMax= 2.67D-02  0.00D+00 EMaxC= 1.00D-01 BMatC= 5.61D-01 BMatP= 5.61D-01
 IDIUse=3 WtCom= 7.33D-01 WtEn= 2.67D-01
 Coeff-Com:  0.100D+01
 Coeff-En:   0.100D+01
 Coeff:      0.100D+01
 Gap=     0.048 Goal=   None    Shift=    0.000
 GapD=    0.048 DampG=0.250 DampE=0.500 DampFc=0.2500 IDamp=-1.
 Damping current iteration by 2.50D-01
 RMSDP=6.10D-03 MaxDP=2.54D-01              OVMax= 2.51D-01

 Cycle   2  Pass 0  IDiag  1:
 RMSU=  1.51D-03    CP:  9.89D-01
 E= -697.911637317848     Delta-E=       -0.213421684493 Rises=F Damp=T
 DIIS: error= 1.13D-02 at cycle   2 NSaved=   2.
 NSaved= 2 IEnMin= 2 EnMin= -697.911637317848     IErMin= 2 ErrMin= 1.13D-02
 ErrMax= 1.13D-02  0.00D+00 EMaxC= 1.00D-01 BMatC= 7.97D-02 BMatP= 5.61D-01
 IDIUse=3 WtCom= 8.87D-01 WtEn= 1.13D-01
 Coeff-Com: -0.439D+00 0.144D+01
 Coeff-En:   0.000D+00 0.100D+01
 Coeff:     -0.390D+00 0.139D+01
 Gap=     0.159 Goal=   None    Shift=    0.000
 RMSDP=1.49D-03 MaxDP=4.76D-02 DE=-2.13D-01 OVMax= 2.40D-01

 Cycle   3  Pass 0  IDiag  1:
 RMSU=  1.31D-03    CP:  9.78D-01  1.46D+00
 E= -698.184346946568     Delta-E=       -0.272709628720 Rises=F Damp=F
 DIIS: error= 2.27D-02 at cycle   3 NSaved=   3.
 NSaved= 3 IEnMin= 3 EnMin= -698.184346946568     IErMin= 2 ErrMin= 1.13D-02
 ErrMax= 2.27D-02  0.00D+00 EMaxC= 1.00D-01 BMatC= 1.14D-01 BMatP= 7.97D-02
 IDIUse=2 WtCom= 0.00D+00 WtEn= 1.00D+00
 Coeff-En:   0.000D+00 0.000D+00 0.100D+01
 Coeff:      0.000D+00 0.000D+00 0.100D+01
 Gap=     0.145 Goal=   None    Shift=    0.000
 RMSDP=3.44D-03 MaxDP=2.32D-01 DE=-2.73D-01 OVMax= 5.20D-01

 Cycle   4  Pass 0  IDiag  1:
 RMSU=  1.99D-03    CP:  9.88D-01  1.74D+00 -1.12D+00
 E= -697.213075912631     Delta-E=        0.971271033937 Rises=F Damp=F
 DIIS: error= 8.45D-02 at cycle   4 NSaved=   4.
 NSaved= 4 IEnMin= 3 EnMin= -698.184346946568     IErMin= 2 ErrMin= 1.13D-02
 ErrMax= 8.45D-02  0.00D+00 EMaxC= 1.00D-01 BMatC= 1.30D+00 BMatP= 7.97D-02
 IDIUse=2 WtCom= 0.00D+00 WtEn= 1.00D+00
 Coeff-En:   0.000D+00 0.000D+00 0.856D+00 0.144D+00
 Coeff:      0.000D+00 0.000D+00 0.856D+00 0.144D+00
 Gap=     0.196 Goal=   None    Shift=    0.000
 RMSDP=2.01D-03 MaxDP=1.19D-01 DE= 9.71D-01 OVMax= 2.59D-01

 Cycle   5  Pass 0  IDiag  1:
 RMSU=  4.63D-04    CP:  9.86D-01  1.41D+00 -7.89D-02  3.37D-01
 E= -698.168612409481     Delta-E=       -0.955536496849 Rises=F Damp=F
 DIIS: error= 2.65D-02 at cycle   5 NSaved=   5.
 NSaved= 5 IEnMin= 3 EnMin= -698.184346946568     IErMin= 2 ErrMin= 1.13D-02
 ErrMax= 2.65D-02  0.00D+00 EMaxC= 1.00D-01 BMatC= 1.40D-01 BMatP= 7.97D-02
 IDIUse=2 WtCom= 0.00D+00 WtEn= 1.00D+00
 Coeff-En:   0.000D+00 0.000D+00 0.526D+00 0.000D+00 0.474D+00
 Coeff:      0.000D+00 0.000D+00 0.526D+00 0.000D+00 0.474D+00
 Gap=     0.195 Goal=   None    Shift=    0.000
 RMSDP=8.47D-04 MaxDP=6.04D-02 DE=-9.56D-01 OVMax= 1.14D-01

 Cycle   6  Pass 0  IDiag  1:
 RMSU=  1.13D-04    CP:  9.83D-01  1.39D+00  4.59D-01  1.28D-01  5.97D-01
 E= -698.281175694011     Delta-E=       -0.112563284530 Rises=F Damp=F
 DIIS: error= 1.25D-03 at cycle   6 NSaved=   6.
 NSaved= 6 IEnMin= 6 EnMin= -698.281175694011     IErMin= 6 ErrMin= 1.25D-03
 ErrMax= 1.25D-03  0.00D+00 EMaxC= 1.00D-01 BMatC= 6.75D-04 BMatP= 7.97D-02
 IDIUse=3 WtCom= 9.88D-01 WtEn= 1.25D-02
 Coeff-Com: -0.211D-01 0.371D-01 0.223D+00-0.334D-01 0.294D+00 0.501D+00
 Coeff-En:   0.000D+00 0.000D+00 0.000D+00 0.000D+00 0.000D+00 0.100D+01
 Coeff:     -0.208D-01 0.366D-01 0.220D+00-0.330D-01 0.290D+00 0.507D+00
 Gap=     0.185 Goal=   None    Shift=    0.000
 RMSDP=1.04D-04 MaxDP=6.17D-03 DE=-1.13D-01 OVMax= 1.27D-02

 Cycle   7  Pass 0  IDiag  1:
 RMSU=  6.43D-05    CP:  9.83D-01  1.42D+00  4.47D-01  1.50D-01  6.20D-01
                    CP:  5.20D-01
 E= -698.281420430736     Delta-E=       -0.000244736725 Rises=F Damp=F
 DIIS: error= 1.39D-03 at cycle   7 NSaved=   7.
 NSaved= 7 IEnMin= 7 EnMin= -698.281420430736     IErMin= 6 ErrMin= 1.25D-03
 ErrMax= 1.39D-03  0.00D+00 EMaxC= 1.00D-01 BMatC= 4.41D-04 BMatP= 6.75D-04
 IDIUse=3 WtCom= 9.88D-01 WtEn= 1.25D-02
 Coeff-Com: -0.109D-01 0.156D-01 0.900D-01-0.181D-01 0.120D+00 0.379D+00
 Coeff-Com:  0.425D+00
 Coeff-En:   0.000D+00 0.000D+00 0.000D+00 0.000D+00 0.000D+00 0.386D+00
 Coeff-En:   0.614D+00
 Coeff:     -0.108D-01 0.154D-01 0.889D-01-0.179D-01 0.119D+00 0.379D+00
 Coeff:      0.427D+00
 Gap=     0.182 Goal=   None    Shift=    0.000
 RMSDP=5.10D-05 MaxDP=2.85D-03 DE=-2.45D-04 OVMax= 5.58D-03

 Cycle   8  Pass 0  IDiag  1:
 RMSU=  1.99D-05    CP:  9.83D-01  1.42D+00  4.56D-01  1.40D-01  6.21D-01
                    CP:  6.06D-01  3.86D-01
 E= -698.281747729618     Delta-E=       -0.000327298881 Rises=F Damp=F
 DIIS: error= 3.18D-04 at cycle   8 NSaved=   8.
 NSaved= 8 IEnMin= 8 EnMin= -698.281747729618     IErMin= 8 ErrMin= 3.18D-04
 ErrMax= 3.18D-04  0.00D+00 EMaxC= 1.00D-01 BMatC= 3.42D-05 BMatP= 4.41D-04
 IDIUse=3 WtCom= 9.97D-01 WtEn= 3.18D-03
 Coeff-Com:  0.501D-03-0.298D-02 0.140D-01-0.148D-02 0.584D-02 0.164D+00
 Coeff-Com:  0.218D+00 0.602D+00
 Coeff-En:   0.000D+00 0.000D+00 0.000D+00 0.000D+00 0.000D+00 0.000D+00
 Coeff-En:   0.000D+00 0.100D+01
 Coeff:      0.499D-03-0.298D-02 0.140D-01-0.148D-02 0.583D-02 0.163D+00
 Coeff:      0.217D+00 0.604D+00
 Gap=     0.182 Goal=   None    Shift=    0.000
 RMSDP=1.53D-05 MaxDP=1.05D-03 DE=-3.27D-04 OVMax= 1.16D-03

 Cycle   9  Pass 0  IDiag  1:
 RMSU=  5.55D-06    CP:  9.83D-01  1.42D+00  4.62D-01  1.38D-01  6.12D-01
                    CP:  6.44D-01  4.39D-01  5.77D-01
 E= -698.281772761368     Delta-E=       -0.000025031750 Rises=F Damp=F
 DIIS: error= 5.40D-05 at cycle   9 NSaved=   9.
 NSaved= 9 IEnMin= 9 EnMin= -698.281772761368     IErMin= 9 ErrMin= 5.40D-05
 ErrMax= 5.40D-05  0.00D+00 EMaxC= 1.00D-01 BMatC= 1.72D-06 BMatP= 3.42D-05
 IDIUse=1 WtCom= 1.00D+00 WtEn= 0.00D+00
 Coeff-Com:  0.770D-03-0.201D-02 0.470D-02-0.106D-03-0.220D-02 0.780D-01
 Coeff-Com:  0.109D+00 0.368D+00 0.443D+00
 Coeff:      0.770D-03-0.201D-02 0.470D-02-0.106D-03-0.220D-02 0.780D-01
 Coeff:      0.109D+00 0.368D+00 0.443D+00
 Gap=     0.182 Goal=   None    Shift=    0.000
 RMSDP=3.59D-06 MaxDP=1.58D-04 DE=-2.50D-05 OVMax= 1.76D-04

 Initial convergence to 1.0D-05 achieved.  Increase integral accuracy.
 Cycle  10  Pass 1  IDiag  1:
 E= -698.281713359971     Delta-E=        0.000059401396 Rises=F Damp=F
 DIIS: error= 1.56D-05 at cycle   1 NSaved=   1.
 NSaved= 1 IEnMin= 1 EnMin= -698.281713359971     IErMin= 1 ErrMin= 1.56D-05
 ErrMax= 1.56D-05  0.00D+00 EMaxC= 1.00D-01 BMatC= 1.37D-07 BMatP= 1.37D-07
 IDIUse=1 WtCom= 1.00D+00 WtEn= 0.00D+00
 Coeff-Com:  0.100D+01
 Coeff:      0.100D+01
 Gap=     0.182 Goal=   None    Shift=    0.000
 RMSDP=3.59D-06 MaxDP=1.58D-04 DE= 5.94D-05 OVMax= 1.47D-04

 Cycle  11  Pass 1  IDiag  1:
 RMSU=  4.57D-06    CP:  1.00D+00
 E= -698.281713272681     Delta-E=        0.000000087290 Rises=F Damp=F
 DIIS: error= 2.99D-05 at cycle   2 NSaved=   2.
 NSaved= 2 IEnMin= 1 EnMin= -698.281713359971     IErMin= 1 ErrMin= 1.56D-05
 ErrMax= 2.99D-05  0.00D+00 EMaxC= 1.00D-01 BMatC= 2.69D-07 BMatP= 1.37D-07
 IDIUse=1 WtCom= 1.00D+00 WtEn= 0.00D+00
 Coeff-Com:  0.604D+00 0.396D+00
 Coeff:      0.604D+00 0.396D+00
 Gap=     0.182 Goal=   None    Shift=    0.000
 RMSDP=1.70D-06 MaxDP=1.38D-04 DE= 8.73D-08 OVMax= 1.92D-04

 Cycle  12  Pass 1  IDiag  1:
 RMSU=  1.58D-06    CP:  1.00D+00  8.63D-01
 E= -698.281713442293     Delta-E=       -0.000000169612 Rises=F Damp=F
 DIIS: error= 2.11D-05 at cycle   3 NSaved=   3.
 NSaved= 3 IEnMin= 3 EnMin= -698.281713442293     IErMin= 1 ErrMin= 1.56D-05
 ErrMax= 2.11D-05  0.00D+00 EMaxC= 1.00D-01 BMatC= 7.07D-08 BMatP= 1.37D-07
 IDIUse=1 WtCom= 1.00D+00 WtEn= 0.00D+00
 Coeff-Com:  0.171D+00 0.316D+00 0.514D+00
 Coeff:      0.171D+00 0.316D+00 0.514D+00
 Gap=     0.182 Goal=   None    Shift=    0.000
 RMSDP=8.57D-07 MaxDP=6.92D-05 DE=-1.70D-07 OVMax= 1.22D-04

 Cycle  13  Pass 1  IDiag  1:
 RMSU=  6.27D-07    CP:  1.00D+00  8.81D-01  6.34D-01
 E= -698.281713479495     Delta-E=       -0.000000037202 Rises=F Damp=F
 DIIS: error= 8.81D-06 at cycle   4 NSaved=   4.
 NSaved= 4 IEnMin= 4 EnMin= -698.281713479495     IErMin= 4 ErrMin= 8.81D-06
 ErrMax= 8.81D-06  0.00D+00 EMaxC= 1.00D-01 BMatC= 2.27D-08 BMatP= 7.07D-08
 IDIUse=1 WtCom= 1.00D+00 WtEn= 0.00D+00
 Coeff-Com:  0.160D-01 0.173D+00 0.412D+00 0.400D+00
 Coeff:      0.160D-01 0.173D+00 0.412D+00 0.400D+00
 Gap=     0.182 Goal=   None    Shift=    0.000
 RMSDP=3.61D-07 MaxDP=2.54D-05 DE=-3.72D-08 OVMax= 4.49D-05

 Cycle  14  Pass 1  IDiag  1:
 RMSU=  1.32D-07    CP:  1.00D+00  8.89D-01  6.88D-01  4.84D-01
 E= -698.281713497554     Delta-E=       -0.000000018059 Rises=F Damp=F
 DIIS: error= 1.38D-06 at cycle   5 NSaved=   5.
 NSaved= 5 IEnMin= 5 EnMin= -698.281713497554     IErMin= 5 ErrMin= 1.38D-06
 ErrMax= 1.38D-06  0.00D+00 EMaxC= 1.00D-01 BMatC= 7.13D-10 BMatP= 2.27D-08
 IDIUse=1 WtCom= 1.00D+00 WtEn= 0.00D+00
 Coeff-Com:  0.160D-02 0.939D-01 0.238D+00 0.252D+00 0.415D+00
 Coeff:      0.160D-02 0.939D-01 0.238D+00 0.252D+00 0.415D+00
 Gap=     0.182 Goal=   None    Shift=    0.000
 RMSDP=8.41D-08 MaxDP=5.16D-06 DE=-1.81D-08 OVMax= 6.15D-06

 Cycle  15  Pass 1  IDiag  1:
 RMSU=  3.35D-08    CP:  1.00D+00  8.91D-01  6.81D-01  4.63D-01  4.36D-01
 E= -698.281713498130     Delta-E=       -0.000000000576 Rises=F Damp=F
 DIIS: error= 2.82D-07 at cycle   6 NSaved=   6.
 NSaved= 6 IEnMin= 6 EnMin= -698.281713498130     IErMin= 6 ErrMin= 2.82D-07
 ErrMax= 2.82D-07  0.00D+00 EMaxC= 1.00D-01 BMatC= 3.93D-11 BMatP= 7.13D-10
 IDIUse=1 WtCom= 1.00D+00 WtEn= 0.00D+00
 Coeff-Com: -0.320D-03 0.404D-01 0.105D+00 0.112D+00 0.245D+00 0.498D+00
 Coeff:     -0.320D-03 0.404D-01 0.105D+00 0.112D+00 0.245D+00 0.498D+00
 Gap=     0.182 Goal=   None    Shift=    0.000
 RMSDP=1.92D-08 MaxDP=8.25D-07 DE=-5.76D-10 OVMax= 1.42D-06

 Cycle  16  Pass 1  IDiag  1:
 RMSU=  8.38D-09    CP:  1.00D+00  8.91D-01  6.85D-01  4.62D-01  4.46D-01
                    CP:  5.15D-01
 E= -698.281713498157     Delta-E=       -0.000000000028 Rises=F Damp=F
 DIIS: error= 6.98D-08 at cycle   7 NSaved=   7.
 NSaved= 7 IEnMin= 7 EnMin= -698.281713498157     IErMin= 7 ErrMin= 6.98D-08
 ErrMax= 6.98D-08  0.00D+00 EMaxC= 1.00D-01 BMatC= 2.40D-12 BMatP= 3.93D-11
 IDIUse=1 WtCom= 1.00D+00 WtEn= 0.00D+00
 Coeff-Com: -0.263D-03 0.182D-01 0.478D-01 0.512D-01 0.118D+00 0.289D+00
 Coeff-Com:  0.476D+00
 Coeff:     -0.263D-03 0.182D-01 0.478D-01 0.512D-01 0.118D+00 0.289D+00
 Coeff:      0.476D+00
 Gap=     0.182 Goal=   None    Shift=    0.000
 RMSDP=4.94D-09 MaxDP=2.91D-07 DE=-2.75D-11 OVMax= 3.00D-07

 SCF Done:  E(RB-LYP) =  -698.281713498     A.U. after   16 cycles
            NFock= 16  Conv=0.49D-08     -V/T= 2.0089
 KE= 6.921494091270D+02 PE=-3.632241916919D+03 EE= 1.238169271759D+03
 Leave Link  502 at Tue Jan 24 04:35:59 2023, MaxMem=   131072000 cpu:             273.2 elap:              34.3
 (Enter /dragofs/sw/campus/0.2/software/gaussian/16.gaussian/gaussian/g16_legacy/l601.exe)
 Copying SCF densities to generalized density rwf, IOpCl= 0 IROHF=0.

 **********************************************************************

            Population analysis using the SCF density.

 **********************************************************************

 Orbital symmetries:
       Occupied  (A) (A) (A) (A) (A) (A) (A) (A) (A) (A) (A) (A)
                 (A) (A) (A) (A) (A) (A) (A) (A) (A) (A) (A) (A)
                 (A) (A) (A) (A) (A) (A) (A) (A) (A) (A) (A) (A)
                 (A) (A) (A) (A) (A) (A) (A) (A) (A) (A) (A) (A)
                 (A) (A) (A) (A) (A) (A) (A) (A) (A) (A) (A) (A)
                 (A)
       Virtual   (A) (A) (A) (A) (A) (A) (A) (A) (A) (A) (A) (A)
                 (A) (A) (A) (A) (A) (A) (A) (A) (A) (A) (A) (A)
                 (A) (A) (A) (A) (A) (A) (A) (A) (A) (A) (A) (A)
                 (A) (A) (A) (A) (A) (A) (A) (A) (A) (A) (A) (A)
                 (A) (A) (A) (A) (A) (A) (A) (A) (A) (A) (A) (A)
                 (A) (A) (A) (A) (A) (A) (A) (A) (A) (A) (A) (A)
                 (A) (A) (A) (A) (A) (A) (A) (A) (A) (A) (A) (A)
                 (A) (A) (A) (A) (A) (A) (A) (A) (A) (A) (A) (A)
                 (A) (A) (A) (A) (A) (A) (A) (A) (A) (A) (A) (A)
                 (A) (A) (A) (A) (A) (A) (A) (A) (A) (A) (A) (A)
                 (A) (A) (A) (A) (A) (A) (A) (A) (A) (A) (A) (A)
                 (A) (A) (A) (A) (A) (A) (A) (A) (A) (A) (A) (A)
                 (A) (A) (A) (A) (A) (A) (A) (A) (A) (A) (A) (A)
                 (A) (A) (A) (A) (A) (A) (A) (A) (A) (A) (A) (A)
                 (A) (A) (A) (A) (A) (A) (A) (A) (A) (A) (A) (A)
                 (A) (A) (A) (A) (A) (A) (A) (A) (A) (A) (A) (A)
                 (A) (A) (A) (A) (A) (A) (A) (A) (A) (A) (A) (A)
                 (A) (A) (A) (A) (A) (A) (A) (A) (A) (A) (A) (A)
                 (A) (A) (A) (A) (A) (A) (A) (A) (A) (A) (A) (A)
                 (A) (A) (A) (A) (A) (A) (A) (A) (A) (A) (A) (A)
                 (A) (A) (A) (A) (A) (A) (A) (A) (A) (A) (A) (A)
                 (A) (A) (A) (A) (A) (A) (A) (A) (A) (A) (A) (A)
                 (A) (A) (A) (A) (A) (A) (A) (A) (A) (A) (A) (A)
                 (A) (A) (A) (A) (A) (A) (A) (A) (A) (A) (A) (A)
                 (A) (A) (A) (A) (A) (A)
 The electronic state is 1-A.
 Alpha  occ. eigenvalues --  -18.82229 -18.78372 -18.78054 -10.04313  -9.96290
 Alpha  occ. eigenvalues --   -9.95995  -9.93729  -9.92919  -9.92427  -9.92048
 Alpha  occ. eigenvalues --   -9.91835  -9.91243  -9.91181  -9.90641  -9.90564
 Alpha  occ. eigenvalues --   -0.97374  -0.90519  -0.90020  -0.74836  -0.70932
 Alpha  occ. eigenvalues --   -0.67867  -0.67120  -0.66577  -0.60447  -0.60083
 Alpha  occ. eigenvalues --   -0.54489  -0.53704  -0.53375  -0.50016  -0.46746
 Alpha  occ. eigenvalues --   -0.45104  -0.42763  -0.41858  -0.40916  -0.40408
 Alpha  occ. eigenvalues --   -0.39358  -0.39004  -0.38247  -0.37357  -0.36492
 Alpha  occ. eigenvalues --   -0.35120  -0.34424  -0.34393  -0.33731  -0.33436
 Alpha  occ. eigenvalues --   -0.32605  -0.32019  -0.31563  -0.30445  -0.30337
 Alpha  occ. eigenvalues --   -0.29959  -0.28896  -0.28646  -0.28161  -0.28031
 Alpha  occ. eigenvalues --   -0.27333  -0.26113  -0.25382  -0.24050  -0.21388
 Alpha  occ. eigenvalues --   -0.19906
 Alpha virt. eigenvalues --   -0.01669   0.03165   0.04757   0.06457   0.07192
 Alpha virt. eigenvalues --    0.08564   0.08697   0.08840   0.09509   0.09680
 Alpha virt. eigenvalues --    0.10958   0.11107   0.11663   0.12024   0.13028
 Alpha virt. eigenvalues --    0.13658   0.14050   0.14225   0.15048   0.15111
 Alpha virt. eigenvalues --    0.15425   0.16120   0.16431   0.16725   0.17743
 Alpha virt. eigenvalues --    0.17990   0.18541   0.18962   0.19545   0.19868
 Alpha virt. eigenvalues --    0.20695   0.22179   0.22806   0.23166   0.24706
 Alpha virt. eigenvalues --    0.25381   0.25725   0.26997   0.28288   0.31743
 Alpha virt. eigenvalues --    0.43957   0.46283   0.46550   0.47654   0.47860
 Alpha virt. eigenvalues --    0.48313   0.48760   0.50154   0.50584   0.51243
 Alpha virt. eigenvalues --    0.51563   0.52676   0.53516   0.54857   0.55262
 Alpha virt. eigenvalues --    0.57208   0.57468   0.58644   0.59294   0.60462
 Alpha virt. eigenvalues --    0.61361   0.61855   0.61996   0.63066   0.63754
 Alpha virt. eigenvalues --    0.65521   0.65964   0.69142   0.70126   0.71353
 Alpha virt. eigenvalues --    0.72042   0.72771   0.73376   0.74709   0.74818
 Alpha virt. eigenvalues --    0.76648   0.77435   0.77662   0.77994   0.78445
 Alpha virt. eigenvalues --    0.79131   0.80236   0.80690   0.81610   0.82291
 Alpha virt. eigenvalues --    0.83140   0.83297   0.84128   0.84719   0.85356
 Alpha virt. eigenvalues --    0.86558   0.86612   0.86700   0.87187   0.87974
 Alpha virt. eigenvalues --    0.88705   0.89383   0.90578   0.90881   0.91544
 Alpha virt. eigenvalues --    0.93313   0.93969   0.94337   0.95172   0.96811
 Alpha virt. eigenvalues --    0.98830   1.00154   1.01073   1.04783   1.06319
 Alpha virt. eigenvalues --    1.06529   1.07335   1.11503   1.12551   1.17669
 Alpha virt. eigenvalues --    1.19270   1.23263   1.24677   1.29373   1.29934
 Alpha virt. eigenvalues --    1.30294   1.31856   1.34465   1.37322   1.38189
 Alpha virt. eigenvalues --    1.41368   1.44596   1.47027   1.47756   1.47977
 Alpha virt. eigenvalues --    1.49529   1.51678   1.52101   1.53594   1.58360
 Alpha virt. eigenvalues --    1.59619   1.60027   1.61404   1.61871   1.63389
 Alpha virt. eigenvalues --    1.65337   1.67237   1.68580   1.68875   1.69215
 Alpha virt. eigenvalues --    1.72097   1.72712   1.73739   1.75428   1.76114
 Alpha virt. eigenvalues --    1.77808   1.79154   1.79470   1.81257   1.83251
 Alpha virt. eigenvalues --    1.84179   1.86392   1.88302   1.89102   1.90337
 Alpha virt. eigenvalues --    1.91205   1.91440   1.92112   1.93464   1.94121
 Alpha virt. eigenvalues --    1.95944   1.96205   1.96924   1.97474   1.98784
 Alpha virt. eigenvalues --    1.98968   1.99166   2.00310   2.00910   2.01636
 Alpha virt. eigenvalues --    2.02829   2.04104   2.05015   2.05296   2.06698
 Alpha virt. eigenvalues --    2.08248   2.09028   2.09511   2.09680   2.12523
 Alpha virt. eigenvalues --    2.12924   2.13877   2.16650   2.17648   2.18304
 Alpha virt. eigenvalues --    2.19466   2.20253   2.20738   2.22021   2.22403
 Alpha virt. eigenvalues --    2.22812   2.25408   2.27847   2.29085   2.29638
 Alpha virt. eigenvalues --    2.30637   2.30971   2.31945   2.35000   2.35296
 Alpha virt. eigenvalues --    2.36092   2.37735   2.40908   2.41523   2.42572
 Alpha virt. eigenvalues --    2.45429   2.46786   2.47934   2.49430   2.50627
 Alpha virt. eigenvalues --    2.52113   2.54093   2.54668   2.56011   2.57945
 Alpha virt. eigenvalues --    2.58778   2.60443   2.61051   2.64309   2.64609
 Alpha virt. eigenvalues --    2.66301   2.67438   2.68607   2.68890   2.69951
 Alpha virt. eigenvalues --    2.71494   2.72312   2.72585   2.73914   2.74054
 Alpha virt. eigenvalues --    2.76496   2.77569   2.78119   2.79125   2.79267
 Alpha virt. eigenvalues --    2.79796   2.81181   2.83617   2.83892   2.85390
 Alpha virt. eigenvalues --    2.86406   2.87529   2.88670   2.90424   2.93504
 Alpha virt. eigenvalues --    2.95119   2.99968   3.03740   3.07739   3.10756
 Alpha virt. eigenvalues --    3.12086   3.14530   3.15034   3.17057   3.17265
 Alpha virt. eigenvalues --    3.20949   3.23568   3.25055   3.26667   3.28819
 Alpha virt. eigenvalues --    3.29456   3.32186   3.34019   3.34702   3.37735
 Alpha virt. eigenvalues --    3.39280   3.40821   3.41273   3.41378   3.43774
 Alpha virt. eigenvalues --    3.43877   3.45026   3.49450   3.52139   3.84091
 Alpha virt. eigenvalues --    3.96859   4.00480   4.17543   4.24070   4.29230
 Alpha virt. eigenvalues --    4.29617   4.32321   4.42734   4.47818   4.50087
 Alpha virt. eigenvalues --    4.53734   4.56883   4.64558   4.67410
          Condensed to atoms (all electrons):
               1          2          3          4          5          6
     1  H    0.588695   0.388679  -0.021494  -0.031418  -0.048540   0.003039
     2  C    0.388679   4.915612   0.344095   0.367856   0.369506  -0.022604
     3  C   -0.021494   0.344095   4.910046  -0.021468  -0.032326   0.355323
     4  H   -0.031418   0.367856  -0.021468   0.641373  -0.036408  -0.001494
     5  H   -0.048540   0.369506  -0.032326  -0.036408   0.659461  -0.003818
     6  H    0.003039  -0.022604   0.355323  -0.001494  -0.003818   0.670332
     7  H   -0.002721  -0.030328   0.358356  -0.001124   0.004297  -0.044606
     8  C   -0.004959  -0.027051   0.395477   0.002573  -0.004744  -0.028093
     9  C    0.000400   0.006033  -0.046218  -0.000142   0.000134  -0.003170
    10  H   -0.000529  -0.009360  -0.056604   0.000045   0.007199  -0.003844
    11  H   -0.000019  -0.000094  -0.003710  -0.000010  -0.000008   0.004037
    12  H    0.000020  -0.000062  -0.008658   0.000004   0.000006   0.000024
    13  O    0.010381  -0.002956  -0.049303   0.000312  -0.000251   0.003009
    14  H   -0.000420   0.000377   0.007170  -0.000001  -0.000105  -0.000298
    15  C   -0.000004  -0.000212   0.005552   0.000002   0.000003  -0.000064
    16  H    0.000001  -0.000007   0.000105   0.000000  -0.000003   0.000011
    17  H    0.000000   0.000002  -0.000204  -0.000000   0.000000  -0.000010
    18  H   -0.000002  -0.000000   0.000136  -0.000000   0.000000  -0.000003
    19  H    0.000000  -0.000000  -0.000000  -0.000000   0.000000   0.000000
    20  C    0.000000  -0.000000  -0.000000   0.000000  -0.000000   0.000000
    21  C    0.000000   0.000000  -0.000000   0.000000  -0.000000  -0.000000
    22  H   -0.000000  -0.000000   0.000000  -0.000000   0.000000   0.000000
    23  H   -0.000000   0.000000  -0.000001  -0.000000  -0.000000  -0.000001
    24  H    0.000000  -0.000000   0.000000   0.000000   0.000000  -0.000000
    25  H   -0.000000  -0.000000  -0.000000  -0.000000  -0.000000   0.000002
    26  C    0.000000   0.000000   0.000000  -0.000000  -0.000000   0.000000
    27  C   -0.000000  -0.000000  -0.000000   0.000000  -0.000000  -0.000000
    28  H   -0.000000   0.000000  -0.000000   0.000000  -0.000000  -0.000000
    29  H   -0.000000  -0.000000  -0.000000  -0.000000  -0.000000   0.000000
    30  H   -0.000000   0.000000  -0.000000  -0.000000  -0.000000  -0.000000
    31  O    0.000000   0.000000  -0.000000  -0.000000  -0.000000   0.000000
    32  C    0.000000   0.000000   0.000000  -0.000000  -0.000000   0.000000
    33  O    0.000000  -0.000000  -0.000000   0.000000  -0.000000   0.000000
    34  C    0.000000   0.000000  -0.000000  -0.000000  -0.000000   0.000000
    35  H    0.000000   0.000000   0.000000   0.000000   0.000000  -0.000000
    36  H   -0.000000   0.000000   0.000000  -0.000000   0.000000  -0.000000
    37  H    0.000000   0.000000  -0.000000   0.000000  -0.000000  -0.000000
    38  C   -0.000000  -0.000000   0.000000  -0.000000   0.000000   0.000000
    39  H   -0.000000   0.000000  -0.000000   0.000000  -0.000000  -0.000000
    40  H   -0.000000   0.000000   0.000000  -0.000000   0.000000   0.000000
    41  H    0.000000   0.000000  -0.000000   0.000000  -0.000000  -0.000000
               7          8          9         10         11         12
     1  H   -0.002721  -0.004959   0.000400  -0.000529  -0.000019   0.000020
     2  C   -0.030328  -0.027051   0.006033  -0.009360  -0.000094  -0.000062
     3  C    0.358356   0.395477  -0.046218  -0.056604  -0.003710  -0.008658
     4  H   -0.001124   0.002573  -0.000142   0.000045  -0.000010   0.000004
     5  H    0.004297  -0.004744   0.000134   0.007199  -0.000008   0.000006
     6  H   -0.044606  -0.028093  -0.003170  -0.003844   0.004037   0.000024
     7  H    0.656643  -0.032363  -0.010630   0.008554   0.000799   0.006067
     8  C   -0.032363   4.673667   0.382542   0.360660  -0.036496  -0.027502
     9  C   -0.010630   0.382542   4.988199  -0.063760   0.322169   0.363713
    10  H    0.008554   0.360660  -0.063760   0.736939   0.003461   0.007569
    11  H    0.000799  -0.036496   0.322169   0.003461   0.719281  -0.030189
    12  H    0.006067  -0.027502   0.363713   0.007569  -0.030189   0.649719
    13  O   -0.000677   0.209191  -0.062389  -0.034845   0.006669  -0.000403
    14  H   -0.000104  -0.019299  -0.003046  -0.008875  -0.000226  -0.000979
    15  C    0.000031  -0.024274   0.358049  -0.009916  -0.046696  -0.044460
    16  H    0.000019  -0.005762  -0.035564   0.007724  -0.004092   0.006188
    17  H    0.000006   0.003749  -0.023486   0.000145  -0.007310  -0.001572
    18  H    0.000011  -0.005239  -0.033853   0.000337   0.008769  -0.007030
    19  H    0.000000  -0.000002  -0.000012   0.000011   0.000014   0.000000
    20  C   -0.000000  -0.000005  -0.000129  -0.000001   0.000324   0.000000
    21  C   -0.000000   0.000000  -0.000001  -0.000000  -0.000043   0.000000
    22  H    0.000000   0.000000   0.000005   0.000000  -0.000005  -0.000000
    23  H   -0.000000  -0.000003  -0.000407  -0.000001   0.001005  -0.000001
    24  H   -0.000000  -0.000000  -0.000000  -0.000000   0.000001  -0.000000
    25  H    0.000000   0.000000  -0.000000   0.000000   0.000063  -0.000000
    26  C   -0.000000  -0.000000   0.000000  -0.000000  -0.000005   0.000000
    27  C    0.000000   0.000000  -0.000002   0.000000   0.000022  -0.000000
    28  H    0.000000   0.000000  -0.000000   0.000000   0.000000   0.000000
    29  H    0.000000   0.000000  -0.000003   0.000000   0.000040  -0.000000
    30  H    0.000000   0.000000  -0.000001   0.000000   0.000037  -0.000000
    31  O   -0.000000  -0.000000  -0.000000   0.000000   0.000000   0.000000
    32  C    0.000000   0.000000   0.000000   0.000000  -0.000000   0.000000
    33  O    0.000000  -0.000000  -0.000000   0.000000   0.000000  -0.000000
    34  C   -0.000000   0.000000  -0.000000   0.000000   0.000000   0.000000
    35  H    0.000000   0.000000   0.000000   0.000000  -0.000000  -0.000000
[...]
    19  H   -0.000003  -0.000000  -0.000110   0.000684  -0.000001   0.000001
    20  C   -0.000001  -0.000000  -0.000992   0.000705   0.000004   0.000021
    21  C    0.000007   0.000002   0.000031  -0.000044  -0.000000  -0.000001
    22  H   -0.000000  -0.000000   0.000025  -0.000037  -0.000001   0.000000
    23  H    0.000008  -0.000003   0.000315   0.002534   0.000042  -0.000019
    24  H   -0.000000  -0.000000  -0.000001   0.000001   0.000000   0.000000
    25  H   -0.000020  -0.000003   0.000009  -0.000007  -0.000000   0.000000
    26  C   -0.000000  -0.000000  -0.000000   0.000004  -0.000000  -0.000000
    27  C   -0.000000   0.000000   0.000007  -0.000009  -0.000001  -0.000000
    28  H    0.000000  -0.000000   0.000000  -0.000000   0.000000  -0.000000
    29  H    0.000001   0.000000  -0.000009   0.000005  -0.000001  -0.000000
    30  H    0.000000  -0.000000   0.000041  -0.000026   0.000006  -0.000000
    31  O    0.000000   0.000000  -0.000000   0.000000  -0.000000  -0.000000
    32  C    0.000000  -0.000000   0.000000  -0.000000  -0.000000  -0.000000
    33  O    0.000000   0.000000  -0.000000   0.000000  -0.000000  -0.000000
    34  C    0.000000   0.000000   0.000000   0.000000   0.000000  -0.000000
    35  H   -0.000000  -0.000000  -0.000000   0.000000  -0.000000   0.000000
    36  H   -0.000000  -0.000000   0.000000   0.000000  -0.000000   0.000000
    37  H   -0.000000   0.000000   0.000000  -0.000000  -0.000000  -0.000000
    38  C    0.000000  -0.000000  -0.000000   0.000000  -0.000000   0.000000
    39  H   -0.000000  -0.000000   0.000000  -0.000000   0.000000  -0.000000
    40  H    0.000000  -0.000000  -0.000000  -0.000000  -0.000000   0.000000
    41  H   -0.000000   0.000000   0.000000   0.000000   0.000000  -0.000000
              19         20         21         22         23         24
     1  H   -0.000000  -0.000001   0.000014   0.000000  -0.000000   0.000000
     2  C    0.000001   0.000020  -0.000576  -0.000001  -0.000004  -0.000012
     3  C    0.000011  -0.000005  -0.000793  -0.000002   0.000027   0.000015
     4  H   -0.000000   0.000000   0.000014   0.000000  -0.000000  -0.000000
     5  H    0.000019  -0.000057   0.000138   0.000001  -0.000000   0.000071
     6  H   -0.000006   0.000009  -0.000370   0.000001   0.000007  -0.000000
     7  H    0.000000  -0.000001   0.000019   0.000000  -0.000002  -0.000000
     8  C   -0.000481  -0.001052  -0.000560   0.000048  -0.000475   0.000009
     9  C    0.000011  -0.000442   0.000112  -0.000003   0.000976   0.000001
    10  H    0.002648   0.002422  -0.000323  -0.000037  -0.000323  -0.000021
    11  H   -0.000024  -0.000435   0.000171   0.000005   0.002307   0.000002
    12  H    0.000001   0.000027  -0.000006  -0.000000  -0.000047   0.000000
    13  O   -0.000003  -0.000001   0.000007  -0.000000   0.000008  -0.000000
    14  H   -0.000000  -0.000000   0.000002  -0.000000  -0.000003  -0.000000
    15  C   -0.000110  -0.000992   0.000031   0.000025   0.000315  -0.000001
    16  H    0.000684   0.000705  -0.000044  -0.000037   0.002534   0.000001
    17  H   -0.000001   0.000004  -0.000000  -0.000001   0.000042   0.000000
    18  H    0.000001   0.000021  -0.000001   0.000000  -0.000019   0.000000
    19  H    0.631483   0.372256  -0.025754  -0.031605  -0.035383  -0.003633
    20  C    0.372256   4.912338   0.370194   0.374930   0.380101  -0.037473
    21  C   -0.025754   0.370194   4.958187  -0.035117  -0.033013   0.363764
    22  H   -0.031605   0.374930  -0.035117   0.619981  -0.031578  -0.004010
    23  H   -0.035383   0.380101  -0.033013  -0.031578   0.611062   0.005016
    24  H   -0.003633  -0.037473   0.363764  -0.004010   0.005016   0.622702
    25  H   -0.003128  -0.036989   0.358587   0.005711  -0.005586  -0.033177
    26  C    0.004038  -0.036299   0.364991  -0.007823  -0.004507  -0.025283
    27  C    0.000198  -0.008514  -0.042753  -0.000802   0.002739   0.004932
    28  H   -0.000138   0.005237  -0.045080   0.000357  -0.000033  -0.006265
    29  H   -0.000019  -0.000286  -0.000324   0.000053  -0.000155   0.000097
    30  H   -0.000114   0.003826  -0.008003   0.000905   0.002411  -0.000107
    31  O    0.000125  -0.005578  -0.033554   0.009566  -0.000160  -0.005694
    32  C   -0.000035   0.000339  -0.005620   0.000856  -0.000039   0.003657
    33  O    0.000001   0.000053  -0.005906  -0.000036  -0.000004   0.009390
    34  C    0.000000  -0.000010  -0.000527  -0.000008  -0.000001   0.000101
    35  H    0.000000   0.000001   0.000012  -0.000003   0.000000   0.000002
    36  H   -0.000001   0.000006   0.000072   0.000312   0.000001  -0.000058
    37  H   -0.000000   0.000001   0.000007  -0.000003  -0.000000  -0.000001
    38  C   -0.000002   0.000090   0.004493  -0.000022  -0.000102  -0.000162
    39  H    0.000000   0.000006  -0.000002   0.000000  -0.000000  -0.000006
    40  H   -0.000000   0.000002  -0.000142  -0.000000   0.000007   0.000003
    41  H    0.000000  -0.000004   0.000294  -0.000003  -0.000000   0.000003
              25         26         27         28         29         30
     1  H   -0.000050  -0.000000  -0.000000   0.000000   0.000002   0.000000
     2  C    0.000291   0.000014   0.000024   0.000003  -0.000060  -0.000000
     3  C    0.001442   0.000021  -0.000720  -0.000008  -0.000466   0.000025
     4  H   -0.000041  -0.000001   0.000001   0.000000  -0.000001  -0.000000
     5  H    0.003120  -0.000007   0.000003   0.000005  -0.000012   0.000000
     6  H    0.002101   0.000091  -0.000717   0.000030   0.007146  -0.000039
     7  H   -0.000024   0.000000   0.000012   0.000000  -0.000017  -0.000000
     8  C    0.000257  -0.000044   0.000125   0.000002   0.000021   0.000011
     9  C   -0.000272   0.000055  -0.000960  -0.000005  -0.000774  -0.000647
    10  H    0.001266   0.000037  -0.000001  -0.000001  -0.000038  -0.000010
    11  H    0.000099  -0.000300   0.001962   0.000013   0.002934   0.002493
    12  H    0.000003   0.000001  -0.000005   0.000000   0.000056   0.000000
    13  O   -0.000020  -0.000000  -0.000000   0.000000   0.000001   0.000000
    14  H   -0.000003  -0.000000   0.000000  -0.000000   0.000000  -0.000000
    15  C    0.000009  -0.000000   0.000007   0.000000  -0.000009   0.000041
    16  H   -0.000007   0.000004  -0.000009  -0.000000   0.000005  -0.000026
    17  H   -0.000000  -0.000000  -0.000001   0.000000  -0.000001   0.000006
    18  H    0.000000  -0.000000  -0.000000  -0.000000  -0.000000  -0.000000
    19  H   -0.003128   0.004038   0.000198  -0.000138  -0.000019  -0.000114
    20  C   -0.036989  -0.036299  -0.008514   0.005237  -0.000286   0.003826
    21  C    0.358587   0.364991  -0.042753  -0.045080  -0.000324  -0.008003
    22  H    0.005711  -0.007823  -0.000802   0.000357   0.000053   0.000905
    23  H   -0.005586  -0.004507   0.002739  -0.000033  -0.000155   0.002411
    24  H   -0.033177  -0.025283   0.004932  -0.006265   0.000097  -0.000107
    25  H    0.637635  -0.029605  -0.003368   0.000443   0.001621   0.000115
    26  C   -0.029605   4.766274   0.373225   0.359034  -0.034793  -0.027871
    27  C   -0.003368   0.373225   4.928760  -0.047397   0.363871   0.366475
    28  H    0.000443   0.359034  -0.047397   0.658967  -0.001377   0.006200
    29  H    0.001621  -0.034793   0.363871  -0.001377   0.636398  -0.039649
    30  H    0.000115  -0.027871   0.366475   0.006200  -0.039649   0.641176
    31  O    0.002938   0.165447  -0.044052  -0.036457   0.003112  -0.001539
    32  C    0.000119  -0.002549   0.004316  -0.004738  -0.000033  -0.000197
    33  O    0.000028  -0.002769   0.000772   0.016752   0.000013  -0.000010
    34  C    0.000005   0.005604  -0.000261   0.000957   0.000007  -0.000005
    35  H   -0.000000  -0.000191   0.000003   0.000013  -0.000000   0.000000
    36  H   -0.000000  -0.000149  -0.000016  -0.000008  -0.000000   0.000002
    37  H    0.000000  -0.000172  -0.000014  -0.000054   0.000000   0.000006
    38  C   -0.000004  -0.030253   0.365429  -0.007130  -0.031854  -0.037531
    39  H   -0.000005  -0.004154  -0.034055   0.005962  -0.005097   0.005346
    40  H   -0.000004   0.003575  -0.024888   0.000005  -0.002764  -0.002888
    41  H   -0.000010  -0.008509  -0.033764  -0.000034   0.005237  -0.004410
              31         32         33         34         35         36
     1  H    0.000000   0.000000  -0.000000   0.000000  -0.000000  -0.000000
     2  C   -0.000000  -0.000000  -0.000000  -0.000000   0.000000  -0.000000
     3  C   -0.000000  -0.000000   0.000000  -0.000000   0.000000   0.000000
     4  H    0.000000   0.000000   0.000000   0.000000  -0.000000  -0.000000
     5  H    0.000000   0.000000   0.000000   0.000000  -0.000000   0.000000
     6  H    0.000001   0.000000   0.000000   0.000000  -0.000000  -0.000000
     7  H    0.000000   0.000000   0.000000   0.000000  -0.000000   0.000000
     8  C   -0.000000  -0.000000  -0.000000  -0.000000   0.000000   0.000000
     9  C   -0.000000   0.000000   0.000000  -0.000000   0.000000   0.000000
    10  H    0.000000   0.000000   0.000000   0.000000  -0.000000  -0.000000
    11  H    0.000001  -0.000000  -0.000000   0.000000  -0.000000  -0.000000
    12  H   -0.000000   0.000000  -0.000000   0.000000   0.000000   0.000000
    13  O    0.000000   0.000000   0.000000   0.000000  -0.000000  -0.000000
    14  H    0.000000  -0.000000   0.000000   0.000000  -0.000000  -0.000000
    15  C   -0.000000   0.000000  -0.000000   0.000000  -0.000000   0.000000
    16  H    0.000000  -0.000000   0.000000   0.000000   0.000000   0.000000
    17  H   -0.000000  -0.000000  -0.000000   0.000000  -0.000000  -0.000000
    18  H   -0.000000  -0.000000  -0.000000  -0.000000   0.000000   0.000000
    19  H    0.000125  -0.000035   0.000001   0.000000   0.000000  -0.000001
    20  C   -0.005578   0.000339   0.000053  -0.000010   0.000001   0.000006
    21  C   -0.033554  -0.005620  -0.005906  -0.000527   0.000012   0.000072
    22  H    0.009566   0.000856  -0.000036  -0.000008  -0.000003   0.000312
    23  H   -0.000160  -0.000039  -0.000004  -0.000001   0.000000   0.000001
    24  H   -0.005694   0.003657   0.009390   0.000101   0.000002  -0.000058
    25  H    0.002938   0.000119   0.000028   0.000005  -0.000000  -0.000000
    26  C    0.165447  -0.002549  -0.002769   0.005604  -0.000191  -0.000149
    27  C   -0.044052   0.004316   0.000772  -0.000261   0.000003  -0.000016
    28  H   -0.036457  -0.004738   0.016752   0.000957   0.000013  -0.000008
    29  H    0.003112  -0.000033   0.000013   0.000007  -0.000000  -0.000000
    30  H   -0.001539  -0.000197  -0.000010  -0.000005   0.000000   0.000002
    31  O    8.313000   0.217101  -0.071896  -0.093175   0.003554   0.002384
    32  C    0.217101   4.406783   0.538974   0.351976  -0.020819  -0.020514
    33  O   -0.071896   0.538974   8.020082  -0.068651   0.003536   0.001063
    34  C   -0.093175   0.351976  -0.068651   5.073921   0.359452   0.360687
    35  H    0.003554  -0.020819   0.003536   0.359452   0.578737  -0.024744
    36  H    0.002384  -0.020514   0.001063   0.360687  -0.024744   0.580237
    37  H    0.002702  -0.018729   0.001385   0.358024  -0.024880  -0.025903
    38  C   -0.003710   0.000269  -0.000067  -0.000066   0.000000   0.000003
    39  H   -0.000300  -0.000001  -0.000009  -0.000002   0.000000   0.000000
    40  H    0.000152  -0.000005  -0.000000  -0.000000   0.000000  -0.000000
    41  H    0.010203   0.000211   0.000006   0.000041  -0.000002  -0.000005
              37         38         39         40         41
     1  H   -0.000000   0.000000   0.000000   0.000000  -0.000000
     2  C    0.000000  -0.000000  -0.000000  -0.000000   0.000000
     3  C   -0.000000   0.000013   0.000001   0.000000  -0.000000
     4  H   -0.000000  -0.000000  -0.000000  -0.000000   0.000000
     5  H   -0.000000  -0.000000   0.000000   0.000000  -0.000000
     6  H   -0.000000  -0.000046   0.000001  -0.000001   0.000001
     7  H   -0.000000  -0.000000  -0.000000   0.000000   0.000000
     8  C    0.000000  -0.000001   0.000000  -0.000000   0.000000
     9  C   -0.000000   0.000033  -0.000001   0.000002  -0.000001
    10  H   -0.000000   0.000000  -0.000000   0.000000  -0.000000
    11  H    0.000000  -0.000126   0.000006   0.000008   0.000003
    12  H    0.000000  -0.000001   0.000000  -0.000000   0.000000
    13  O   -0.000000   0.000000  -0.000000   0.000000  -0.000000
    14  H    0.000000  -0.000000  -0.000000  -0.000000   0.000000
    15  C    0.000000  -0.000000   0.000000  -0.000000   0.000000
    16  H   -0.000000   0.000000  -0.000000  -0.000000   0.000000
    17  H   -0.000000  -0.000000   0.000000  -0.000000   0.000000
    18  H   -0.000000   0.000000  -0.000000   0.000000  -0.000000
    19  H   -0.000000  -0.000002   0.000000  -0.000000   0.000000
    20  C    0.000001   0.000090   0.000006   0.000002  -0.000004
    21  C    0.000007   0.004493  -0.000002  -0.000142   0.000294
    22  H   -0.000003  -0.000022   0.000000  -0.000000  -0.000003
    23  H   -0.000000  -0.000102  -0.000000   0.000007  -0.000000
    24  H   -0.000001  -0.000162  -0.000006   0.000003   0.000003
    25  H    0.000000  -0.000004  -0.000005  -0.000004  -0.000010
    26  C   -0.000172  -0.030253  -0.004154   0.003575  -0.008509
    27  C   -0.000014   0.365429  -0.034055  -0.024888  -0.033764
    28  H   -0.000054  -0.007130   0.005962   0.000005  -0.000034
    29  H    0.000000  -0.031854  -0.005097  -0.002764   0.005237
    30  H    0.000006  -0.037531   0.005346  -0.002888  -0.004410
    31  O    0.002702  -0.003710  -0.000300   0.000152   0.010203
    32  C   -0.018729   0.000269  -0.000001  -0.000005   0.000211
    33  O    0.001385  -0.000067  -0.000009  -0.000000   0.000006
    34  C    0.358024  -0.000066  -0.000002  -0.000000   0.000041
    35  H   -0.024880   0.000000   0.000000   0.000000  -0.000002
    36  H   -0.025903   0.000003   0.000000  -0.000000  -0.000005
    37  H    0.581049   0.000005   0.000001  -0.000001   0.000340
    38  C    0.000005   4.903351   0.378191   0.370865   0.380036
    39  H    0.000001   0.378191   0.625544  -0.032653  -0.032219
    40  H   -0.000001   0.370865  -0.032653   0.630870  -0.031567
    41  H    0.000340   0.380036  -0.032219  -0.031567   0.608471
 Mulliken charges:
               1
     1  H    0.114799
     2  C   -0.295045
     3  C   -0.147415
     4  H    0.084395
     5  H    0.086978
     6  H    0.079455
     7  H    0.087384
     8  C    0.167990
     9  C   -0.144547
    10  H    0.058420
    11  H    0.078149
    12  H    0.084354
    13  O   -0.513962
    14  H    0.290091
    15  C   -0.309023
    16  H    0.091870
    17  H    0.093647
    18  H    0.088726
    19  H    0.088959
    20  C   -0.294447
    21  C   -0.182643
    22  H    0.098339
    23  H    0.103882
    24  H    0.106139
    25  H    0.096503
    26  C    0.172869
    27  C   -0.170552
    28  H    0.094745
    29  H    0.097155
    30  H    0.094007
    31  O   -0.434169
    32  C    0.548676
    33  O   -0.442706
    34  C   -0.348068
    35  H    0.125327
    36  H    0.126631
    37  H    0.126236
    38  C   -0.291702
    39  H    0.093447
    40  H    0.089423
    41  H    0.105681
 Sum of Mulliken charges =  -0.00000
 Mulliken charges with hydrogens summed into heavy atoms:
               1
     2  C   -0.008873
     3  C    0.019424
     8  C    0.226411
     9  C    0.017955
    13  O   -0.223871
    15  C   -0.034780
    20  C   -0.003266
    21  C    0.019999
    26  C    0.267614
    27  C    0.020610
    31  O   -0.434169
    32  C    0.548676
    33  O   -0.442706
    34  C    0.030126
    38  C   -0.003151
 Electronic spatial extent (au):  <R**2>=           5594.1472
 Charge=              0.0000 electrons
 Dipole moment (field-independent basis, Debye):
    X=              0.2894    Y=              2.4930    Z=             -0.5916  Tot=              2.5785
 Quadrupole moment (field-independent basis, Debye-Ang):
   XX=           -101.8004   YY=           -101.3204   ZZ=            -91.6003
   XY=              4.2829   XZ=              2.2936   YZ=             -1.5392
 Traceless Quadrupole moment (field-independent basis, Debye-Ang):
   XX=             -3.5600   YY=             -3.0801   ZZ=              6.6401
   XY=              4.2829   XZ=              2.2936   YZ=             -1.5392
 Octapole moment (field-independent basis, Debye-Ang**2):
  XXX=             76.8849  YYY=              5.2561  ZZZ=            -12.1228  XYY=            -13.2323
  XXY=             48.7021  XXZ=            -26.8910  XZZ=             -4.4007  YZZ=             -2.4467
  YYZ=              2.5295  XYZ=             -0.9318
 Hexadecapole moment (field-independent basis, Debye-Ang**3):
 XXXX=          -5323.6390 YYYY=          -1113.6099 ZZZZ=           -887.0901 XXXY=             44.5076
 XXXZ=             40.9210 YYYX=             19.5412 YYYZ=              2.6096 ZZZX=             20.3556
 ZZZY=              2.5572 XXYY=          -1143.4893 XXZZ=           -950.0819 YYZZ=           -331.2083
 XXYZ=            -28.2323 YYXZ=              2.4670 ZZXY=             -1.9793
 N-N= 1.071338385800D+03 E-N=-3.767280202619D+03  KE= 6.915875598631D+02
 No NMR shielding tensors so no spin-rotation constants.
 Leave Link  601 at Tue Jan 24 05:20:27 2023, MaxMem=   131072000 cpu:               1.0 elap:               0.2
 (Enter /dragofs/sw/campus/0.2/software/gaussian/16.gaussian/gaussian/g16_legacy/l9999.exe)
 1\1\GINC-DRAGO31030081\FOpt\RBLYP\6-31G(d,p)\C12H26O3\JRAMOS\24-Jan-20
 23\0\\#p opt blyp/6-31G** EmpiricalDispersion=GD3\\Conformer number 14
 0. Energy MM = 0.000 kcal/mol\\0,1\H,17.3190168121,2.8360411072,11.617
 0394185\C,16.3147960296,3.2364568829,11.8182982238\C,16.2419435426,3.7
 86691288,13.2564911027\H,16.0939867196,4.019756846,11.0760983683\H,15.
 5891559583,2.4184179626,11.6691777978\H,15.2270077051,4.1659560634,13.
 4699029595\H,16.9303093682,4.642758616,13.3711998016\C,16.6107112726,2
 .7396948653,14.3236288376\C,16.386912157,3.254811785,15.7647003105\H,1
 5.9809547218,1.8369270748,14.1701986964\H,15.3237124641,3.5304405897,1
 5.8788791254\H,16.9754574082,4.1795353089,15.8973611087\O,18.005025532
 2,2.4033958791,14.0954104868\H,18.183941338,1.5714923425,14.5724425958
 \C,16.7767848674,2.2270712631,16.8465474912\H,16.2083391732,1.28818129
 34,16.7302861692\H,16.5809188418,2.6126605912,17.8590861773\H,17.85087
 41478,1.9852878489,16.7896961099\H,14.0119055417,0.0752000531,14.68548
 851\C,13.3473369372,0.8817533266,15.0330117753\C,12.8486834206,1.72844
 98821,13.843520137\H,12.4996836937,0.421452626,15.5635036526\H,13.9108
 461149,1.4846550698,15.7610840554\H,12.3702926045,1.0785992999,13.0937
 453005\H,13.6986420498,2.2185742554,13.3384289005\C,11.8300686884,2.82
 66654534,14.2173183087\C,12.3436425842,3.900399344,15.1898273953\H,11.
 4641645855,3.3004047763,13.2911219473\H,13.2724254478,4.3189090713,14.
 7644573775\H,12.6196495918,3.4241413906,16.1454982117\O,10.6606957698,
 2.2070312542,14.8854030782\C,9.7022765464,1.6557756972,14.0719517258\O
 ,9.754911687,1.6401992298,12.8485771524\C,8.5772199673,1.0714086131,14
 .9159030925\H,7.8050043487,0.656960338,14.2572741752\H,8.9727625161,0.
 2815115578,15.5732375716\H,8.1447504535,1.8497058815,15.5631872791\C,1
 1.3210313614,5.0273619883,15.4408103785\H,11.064009514,5.545887621,14.
 5020605565\H,11.7174377431,5.77667437,16.1436091096\H,10.3917107726,4.
 6167012923,15.863535528\\Version=EM64L-G16RevA.03\State=1-A\HF=-698.35
 93103\RMSD=8.358e-09\RMSF=3.722e-06\Dipole=-0.091927,-0.1763006,0.9948
 018\Quadrupole=-2.1251039,4.2092191,-2.0841152,-2.7175065,-2.8512406,-
 1.9658187\PG=C01 [X(C12H26O3)]\\@


 A MAN IS NEVER SO BRILLIANT AS WHEN HE TAKES THE WORDS RIGHT OUT
 OF YOUR MOUTH. -- ARNOT SHEPPARD, JR.
 Job cpu time:       0 days  5 hours 57 minutes  9.6 seconds.
 Elapsed time:       0 days  0 hours 45 minutes  2.6 seconds.
 File lengths (MBytes):  RWF=     84 Int=      0 D2E=      0 Chk=     11 Scr=      1
 Normal termination of Gaussian 16 at Tue Jan 24 05:20:27 2023.
