 Entering Gaussian System, Link 0=/dragofs/sw/campus/0.2/software/gaussian/16.gaussian/gaussian/g16_legacy/g16
 Input=C12H26O3_pair_001_018.com
 Output=C12H26O3_pair_001_018.log
 Initial command:
 /dragofs/sw/campus/0.2/software/gaussian/16.gaussian/gaussian/g16_legacy/l1.exe "/tmp/jramos/38562/Gau-4095528.inp" -scrdir="/tmp/jramos/38562/"
 Entering Link 1 = /dragofs/sw/campus/0.2/software/gaussian/16.gaussian/gaussian/g16_legacy/l1.exe PID=   4095530.
  
 Copyright (c) 1988,1990,1992,1993,1995,1998,2003,2009,2016,
            Gaussian, Inc.  All Rights Reserved.
  
 This is part of the Gaussian(R) 16 program.  It is based on
 the Gaussian(R) 09 system (copyright 2009, Gaussian, Inc.),
 the Gaussian(R) 03 system (copyright 2003, Gaussian, Inc.),
 the Gaussian(R) 98 system (copyright 1998, Gaussian, Inc.),
 the Gaussian(R) 94 system (copyright 1995, Gaussian, Inc.),
 the Gaussian 92(TM) system (copyright 1992, Gaussian, Inc.),
 the Gaussian 90(TM) system (copyright 1990, Gaussian, Inc.),
 the Gaussian 88(TM) system (copyright 1988, Gaussian, Inc.),
 the Gaussian 86(TM) system (copyright 1986, Carnegie Mellon
 University), and the Gaussian 82(TM) system (copyright 1983,
 Carnegie Mellon University). Gaussian is a federally registered
 trademark of Gaussian, Inc.
  
 This software contains proprietary and confidential information,
 including trade secrets, belonging to Gaussian, Inc.
  
 This software is provided under written license and may be
 used, copied, transmitted, or stored only in accord with that
 written license.
  
 The following legend is applicable only to US Government
 contracts under FAR:
  
                    RESTRICTED RIGHTS LEGEND
  
 Use, reproduction and disclosure by the US Government is
 subject to restrictions as set forth in subparagraphs (a)
 and (c) of the Commercial Computer Software - Restricted
 Rights clause in FAR 52.227-19.
  
 Gaussian, Inc.
 340 Quinnipiac St., Bldg. 40, Wallingford CT 06492
  
  
 ---------------------------------------------------------------
 Warning -- This program may not be used in any manner that
 competes with the business of Gaussian, Inc. or will provide
 assistance to any competitor of Gaussian, Inc.  The licensee
 of this program is prohibited from giving any competitor of
 Gaussian, Inc. access to this program.  By using this program,
 the user acknowledges that Gaussian, Inc. is engaged in the
 business of creating and licensing software in the field of
 computational chemistry and represents and warrants to the
 licensee that it is not a competitor of Gaussian, Inc. and that
 it will not use this program in any manner prohibited above.
 ---------------------------------------------------------------
  

 Cite this work as:
 Gaussian 16, Revision A.03,
 M. J. Frisch, G. W. Trucks, H. B. Schlegel, G. E. Scuseria, 
 M. A. Robb, J. R. Cheeseman, G. Scalmani, V. Barone, 
 G. A. Petersson, H. Nakatsuji, X. Li, M. Caricato, A. V. Marenich, 
 J. Bloino, B. G. Janesko, R. Gomperts, B. Mennucci, H. P. Hratchian, 
 J. V. Ortiz, A. F. Izmaylov, J. L. Sonnenberg, D. Williams-Young, 
 F. Ding, F. Lipparini, F. Egidi, J. Goings, B. Peng, A. Petrone, 
 T. Henderson, D. Ranasinghe, V. G. Zakrzewski, J. Gao, N. Rega, 
 G. Zheng, W. Liang, M. Hada, M. Ehara, K. Toyota, R. Fukuda, 
 J. Hasegawa, M. Ishida, T. Nakajima, Y. Honda, O. Kitao, H. Nakai, 
 T. Vreven, K. Throssell, J. A. Montgomery, Jr., J. E. Peralta, 
 F. Ogliaro, M. J. Bearpark, J. J. Heyd, E. N. Brothers, K. N. Kudin, 
 V. N. Staroverov, T. A. Keith, R. Kobayashi, J. Normand, 
 K. Raghavachari, A. P. Rendell, J. C. Burant, S. S. Iyengar, 
 J. Tomasi, M. Cossi, J. M. Millam, M. Klene, C. Adamo, R. Cammi, 
 J. W. Ochterski, R. L. Martin, K. Morokuma, O. Farkas, 
 J. B. Foresman, and D. J. Fox, Gaussian, Inc., Wallingford CT, 2016.
 
 ******************************************
 Gaussian 16:  EM64L-G16RevA.03 25-Dec-2016
                24-Jan-2023 
 ******************************************
 %chk=C12H26O3_pair_001_018.chk
 %nproc=8
 Will use up to    8 processors via shared memory.
 %mem=1000Mb
 -------------------------------------------
 #p opt blyp/6-31G** EmpiricalDispersion=GD3
 -------------------------------------------
 1/18=20,19=15,26=3,38=1/1,3;
 2/9=110,12=2,17=6,18=5,40=1/2;
 3/5=1,6=6,7=101,11=2,25=1,30=1,71=1,74=402,124=31/1,2,3;
 4//1;
 5/5=2,38=5/2;
 6/7=2,8=2,9=2,10=2,28=1/1;
 7//1,2,3,16;
 1/18=20,19=15,26=3/3(2);
 2/9=110/2;
 99//99;
 2/9=110/2;
 3/5=1,6=6,7=101,11=2,25=1,30=1,71=1,74=402,124=31/1,2,3;
 4/5=5,16=3,69=1/1;
 5/5=2,38=5/2;
 7//1,2,3,16;
 1/18=20,19=15,26=3/3(-5);
 2/9=110/2;
 6/7=2,8=2,9=2,10=2,19=2,28=1/1;
 99/9=1/99;
 Leave Link    1 at Tue Jan 24 00:27:18 2023, MaxMem=   131072000 cpu:               0.2 elap:               0.0
 (Enter /dragofs/sw/campus/0.2/software/gaussian/16.gaussian/gaussian/g16_legacy/l101.exe)
 ------------------------------------------------
 Conformer number 007. Energy MM = 0.000 kcal/mol
 ------------------------------------------------
 Symbolic Z-matrix:
 Charge =  0 Multiplicity = 1
 H                     8.378     10.876    6.969 
 C                     8.032     10.115    7.632 
 C                     8.151     8.825     6.745 
 H                     8.589     9.951     8.537 
 H                     6.984     10.277    7.943 
 H                     9.166     8.584     6.522 
 H                     7.534     9.033     5.818 
 C                     7.539     7.624     7.298 
 C                     7.84      6.472     6.44 
 H                     7.916     7.459     8.315 
 H                     8.983     6.638     6.153 
 H                     7.219     6.641     5.589 
 O                     6.097     7.844     7.5 
 H                     5.831     8.714     7.14 
 C                     7.654     5.087     6.916 
 H                     8.404     4.784     7.567 
 H                     7.665     4.464     6.067 
 H                     6.727     5.044     7.396 
 H                     6.554     4.941     4.368 
 C                     5.685     4.408     3.983 
 C                     4.601     4.416     5.043 
 H                     5.375     4.853     3.057 
 H                     5.948     3.374     3.725 
 H                     5.039     4.095     5.967 
 H                     3.985     3.66      4.67 
 C                     3.856     5.647     5.162 
 C                     2.928     5.548     6.279 
 H                     4.747     6.316     5.345 
 H                     3.508     5.364     7.194 
 H                     2.26      4.672     6.205 
 O                     3.277     5.874     3.879 
 C                     3.369     7.086     3.341 
 O                     4.        8.012     3.856 
 C                     2.497     7.085     2.147 
 H                     2.674     7.965     1.554 
 H                     2.412     6.235     1.555 
 H                     1.508     7.361     2.539 
 C                     2.067     6.82      6.612 
 H                     2.7       7.724     6.675 
 H                     1.488     6.645     7.54 
 H                     1.337     6.961     5.748 
 
 Add virtual bond connecting atoms H19        and H12        Dist= 4.15D+00.
 Add virtual bond connecting atoms H19        and H17        Dist= 3.94D+00.
 ITRead=  0  0  0  0  0  0  0  0  0  0  0  0  0  0  0  0  0  0  0  0
 ITRead=  0  0  0  0  0  0  0  0  0  0  0  0  0  0  0  0  0  0  0  0
 ITRead=  0
 MicOpt= -1 -1 -1 -1 -1 -1 -1 -1 -1 -1 -1 -1 -1 -1 -1 -1 -1 -1 -1 -1
 MicOpt= -1 -1 -1 -1 -1 -1 -1 -1 -1 -1 -1 -1 -1 -1 -1 -1 -1 -1 -1 -1
 MicOpt= -1
 NAtoms=     41 NQM=       41 NQMF=       0 NMMI=      0 NMMIF=      0
                NMic=       0 NMicF=      0.
                    Isotopes and Nuclear Properties:
 (Nuclear quadrupole moments (NQMom) in fm**2, nuclear magnetic moments (NMagM)
  in nuclear magnetons)

  Atom         1           2           3           4           5           6           7           8           9          10
 IAtWgt=           1          12          12           1           1           1           1          12          12           1
 AtmWgt=   1.0078250  12.0000000  12.0000000   1.0078250   1.0078250   1.0078250   1.0078250  12.0000000  12.0000000   1.0078250
 NucSpn=           1           0           0           1           1           1           1           0           0           1
 AtZEff=  -0.0000000  -0.0000000  -0.0000000  -0.0000000  -0.0000000  -0.0000000  -0.0000000  -0.0000000  -0.0000000  -0.0000000
 NQMom=    0.0000000   0.0000000   0.0000000   0.0000000   0.0000000   0.0000000   0.0000000   0.0000000   0.0000000   0.0000000
 NMagM=    2.7928460   0.0000000   0.0000000   2.7928460   2.7928460   2.7928460   2.7928460   0.0000000   0.0000000   2.7928460
 AtZNuc=   1.0000000   6.0000000   6.0000000   1.0000000   1.0000000   1.0000000   1.0000000   6.0000000   6.0000000   1.0000000

  Atom        11          12          13          14          15          16          17          18          19          20
 IAtWgt=           1           1          16           1          12           1           1           1           1          12
 AtmWgt=   1.0078250   1.0078250  15.9949146   1.0078250  12.0000000   1.0078250   1.0078250   1.0078250   1.0078250  12.0000000
 NucSpn=           1           1           0           1           0           1           1           1           1           0
 AtZEff=  -0.0000000  -0.0000000  -0.0000000  -0.0000000  -0.0000000  -0.0000000  -0.0000000  -0.0000000  -0.0000000  -0.0000000
 NQMom=    0.0000000   0.0000000   0.0000000   0.0000000   0.0000000   0.0000000   0.0000000   0.0000000   0.0000000   0.0000000
 NMagM=    2.7928460   2.7928460   0.0000000   2.7928460   0.0000000   2.7928460   2.7928460   2.7928460   2.7928460   0.0000000
 AtZNuc=   1.0000000   1.0000000   8.0000000   1.0000000   6.0000000   1.0000000   1.0000000   1.0000000   1.0000000   6.0000000

  Atom        21          22          23          24          25          26          27          28          29          30
 IAtWgt=          12           1           1           1           1          12          12           1           1           1
 AtmWgt=  12.0000000   1.0078250   1.0078250   1.0078250   1.0078250  12.0000000  12.0000000   1.0078250   1.0078250   1.0078250
 NucSpn=           0           1           1           1           1           0           0           1           1           1
 AtZEff=  -0.0000000  -0.0000000  -0.0000000  -0.0000000  -0.0000000  -0.0000000  -0.0000000  -0.0000000  -0.0000000  -0.0000000
 NQMom=    0.0000000   0.0000000   0.0000000   0.0000000   0.0000000   0.0000000   0.0000000   0.0000000   0.0000000   0.0000000
 NMagM=    0.0000000   2.7928460   2.7928460   2.7928460   2.7928460   0.0000000   0.0000000   2.7928460   2.7928460   2.7928460
 AtZNuc=   6.0000000   1.0000000   1.0000000   1.0000000   1.0000000   6.0000000   6.0000000   1.0000000   1.0000000   1.0000000

  Atom        31          32          33          34          35          36          37          38          39          40
 IAtWgt=          16          12          16          12           1           1           1          12           1           1
 AtmWgt=  15.9949146  12.0000000  15.9949146  12.0000000   1.0078250   1.0078250   1.0078250  12.0000000   1.0078250   1.0078250
 NucSpn=           0           0           0           0           1           1           1           0           1           1
 AtZEff=  -0.0000000  -0.0000000  -0.0000000  -0.0000000  -0.0000000  -0.0000000  -0.0000000  -0.0000000  -0.0000000  -0.0000000
 NQMom=    0.0000000   0.0000000   0.0000000   0.0000000   0.0000000   0.0000000   0.0000000   0.0000000   0.0000000   0.0000000
 NMagM=    0.0000000   0.0000000   0.0000000   0.0000000   2.7928460   2.7928460   2.7928460   0.0000000   2.7928460   2.7928460
 AtZNuc=   8.0000000   6.0000000   8.0000000   6.0000000   1.0000000   1.0000000   1.0000000   6.0000000   1.0000000   1.0000000

  Atom        41
 IAtWgt=           1
 AtmWgt=   1.0078250
 NucSpn=           1
 AtZEff=  -0.0000000
 NQMom=    0.0000000
 NMagM=    2.7928460
 AtZNuc=   1.0000000
 Leave Link  101 at Tue Jan 24 00:27:19 2023, MaxMem=   131072000 cpu:               0.9 elap:               0.1
 (Enter /dragofs/sw/campus/0.2/software/gaussian/16.gaussian/gaussian/g16_legacy/l103.exe)

 GradGradGradGradGradGradGradGradGradGradGradGradGradGradGradGradGradGrad
 Berny optimization.
 Initialization pass.
                           ----------------------------
                           !    Initial Parameters    !
                           ! (Angstroms and Degrees)  !
 --------------------------                            --------------------------
 ! Name  Definition              Value          Derivative Info.                !
 --------------------------------------------------------------------------------
 ! R1    R(1,2)                  1.067          estimate D2E/DX2                !
 ! R2    R(2,3)                  1.57           estimate D2E/DX2                !
 ! R3    R(2,4)                  1.0753         estimate D2E/DX2                !
 ! R4    R(2,5)                  1.1051         estimate D2E/DX2                !
 ! R5    R(3,6)                  1.0668         estimate D2E/DX2                !
 ! R6    R(3,7)                  1.1328         estimate D2E/DX2                !
 ! R7    R(3,8)                  1.457          estimate D2E/DX2                !
 ! R8    R(8,9)                  1.4676         estimate D2E/DX2                !
 ! R9    R(8,10)                 1.0971         estimate D2E/DX2                !
 ! R10   R(8,13)                 1.4726         estimate D2E/DX2                !
 ! R11   R(9,11)                 1.1901         estimate D2E/DX2                !
 ! R12   R(9,12)                 1.067          estimate D2E/DX2                !
 ! R13   R(9,15)                 1.4763         estimate D2E/DX2                !
 ! R14   R(12,19)                2.1961         estimate D2E/DX2                !
 ! R15   R(13,14)                0.9784         estimate D2E/DX2                !
 ! R16   R(15,16)                1.0383         estimate D2E/DX2                !
 ! R17   R(15,17)                1.0531         estimate D2E/DX2                !
 ! R18   R(15,18)                1.0448         estimate D2E/DX2                !
 ! R19   R(17,19)                2.0853         estimate D2E/DX2                !
 ! R20   R(19,20)                1.0897         estimate D2E/DX2                !
 ! R21   R(20,21)                1.5162         estimate D2E/DX2                !
 ! R22   R(20,22)                1.0731         estimate D2E/DX2                !
 ! R23   R(20,23)                1.0977         estimate D2E/DX2                !
 ! R24   R(21,24)                1.0718         estimate D2E/DX2                !
 ! R25   R(21,25)                1.0441         estimate D2E/DX2                !
 ! R26   R(21,26)                1.4438         estimate D2E/DX2                !
 ! R27   R(26,27)                1.4556         estimate D2E/DX2                !
 ! R28   R(26,28)                1.1291         estimate D2E/DX2                !
 ! R29   R(26,31)                1.4258         estimate D2E/DX2                !
 ! R30   R(27,29)                1.0989         estimate D2E/DX2                !
 ! R31   R(27,30)                1.1041         estimate D2E/DX2                !
 ! R32   R(27,38)                1.5717         estimate D2E/DX2                !
 ! R33   R(31,32)                1.3292         estimate D2E/DX2                !
 ! R34   R(32,33)                1.2332         estimate D2E/DX2                !
 ! R35   R(32,34)                1.4785         estimate D2E/DX2                !
 ! R36   R(34,35)                1.0758         estimate D2E/DX2                !
 ! R37   R(34,36)                1.0393         estimate D2E/DX2                !
 ! R38   R(34,37)                1.0991         estimate D2E/DX2                !
 ! R39   R(38,39)                1.1054         estimate D2E/DX2                !
 ! R40   R(38,40)                1.1077         estimate D2E/DX2                !
 ! R41   R(38,41)                1.1399         estimate D2E/DX2                !
 ! A1    A(1,2,3)              102.145          estimate D2E/DX2                !
 ! A2    A(1,2,4)              117.6326         estimate D2E/DX2                !
 ! A3    A(1,2,5)              112.2002         estimate D2E/DX2                !
 ! A4    A(3,2,4)              108.1147         estimate D2E/DX2                !
 ! A5    A(3,2,5)              110.5675         estimate D2E/DX2                !
 ! A6    A(4,2,5)              106.066          estimate D2E/DX2                !
 ! A7    A(2,3,6)              112.0756         estimate D2E/DX2                !
 ! A8    A(2,3,7)              105.674          estimate D2E/DX2                !
 ! A9    A(2,3,8)              115.5321         estimate D2E/DX2                !
 ! A10   A(6,3,7)              112.8699         estimate D2E/DX2                !
 ! A11   A(6,3,8)              107.0244         estimate D2E/DX2                !
 ! A12   A(7,3,8)              103.4835         estimate D2E/DX2                !
 ! A13   A(3,8,9)              109.8159         estimate D2E/DX2                !
 ! A14   A(3,8,10)             109.3582         estimate D2E/DX2                !
 ! A15   A(3,8,13)             109.8913         estimate D2E/DX2                !
 ! A16   A(9,8,10)             110.6959         estimate D2E/DX2                !
 ! A17   A(9,8,13)             113.4716         estimate D2E/DX2                !
 ! A18   A(10,8,13)            103.4032         estimate D2E/DX2                !
 ! A19   A(8,9,11)             103.2072         estimate D2E/DX2                !
 ! A20   A(8,9,12)             102.8612         estimate D2E/DX2                !
 ! A21   A(8,9,15)             121.4716         estimate D2E/DX2                !
 ! A22   A(11,9,12)            110.1544         estimate D2E/DX2                !
 ! A23   A(11,9,15)            109.2456         estimate D2E/DX2                !
 ! A24   A(12,9,15)            109.4169         estimate D2E/DX2                !
 ! A25   A(9,12,19)            119.8064         estimate D2E/DX2                !
 ! A26   A(8,13,14)            110.4014         estimate D2E/DX2                !
 ! A27   A(9,15,16)            112.639          estimate D2E/DX2                !
 ! A28   A(9,15,17)            107.0824         estimate D2E/DX2                !
 ! A29   A(9,15,18)            107.3696         estimate D2E/DX2                !
 ! A30   A(16,15,17)           108.9823         estimate D2E/DX2                !
 ! A31   A(16,15,18)           109.9275         estimate D2E/DX2                !
 ! A32   A(17,15,18)           110.8118         estimate D2E/DX2                !
 ! A33   A(15,17,19)           121.0611         estimate D2E/DX2                !
 ! A34   A(12,19,17)            64.072          estimate D2E/DX2                !
 ! A35   A(12,19,20)           144.7378         estimate D2E/DX2                !
 ! A36   A(17,19,20)           126.9301         estimate D2E/DX2                !
 ! A37   A(19,20,21)           108.6972         estimate D2E/DX2                !
 ! A38   A(19,20,22)           109.4148         estimate D2E/DX2                !
 ! A39   A(19,20,23)           110.6537         estimate D2E/DX2                !
 ! A40   A(21,20,22)           113.2386         estimate D2E/DX2                !
 ! A41   A(21,20,23)           109.9135         estimate D2E/DX2                !
 ! A42   A(22,20,23)           104.8932         estimate D2E/DX2                !
 ! A43   A(20,21,24)           107.9979         estimate D2E/DX2                !
 ! A44   A(20,21,25)            99.6852         estimate D2E/DX2                !
 ! A45   A(20,21,26)           115.534          estimate D2E/DX2                !
 ! A46   A(24,21,25)           109.405          estimate D2E/DX2                !
 ! A47   A(24,21,26)           113.2774         estimate D2E/DX2                !
 ! A48   A(25,21,26)           110.0212         estimate D2E/DX2                !
 ! A49   A(21,26,27)           109.5262         estimate D2E/DX2                !
 ! A50   A(21,26,28)            96.393          estimate D2E/DX2                !
 ! A51   A(21,26,31)           105.731          estimate D2E/DX2                !
 ! A52   A(27,26,28)           114.7727         estimate D2E/DX2                !
 ! A53   A(27,26,31)           116.2617         estimate D2E/DX2                !
 ! A54   A(28,26,31)           111.8365         estimate D2E/DX2                !
 ! A55   A(26,27,29)           108.293          estimate D2E/DX2                !
 ! A56   A(26,27,30)           112.8459         estimate D2E/DX2                !
 ! A57   A(26,27,38)           117.1815         estimate D2E/DX2                !
 ! A58   A(29,27,30)           104.0219         estimate D2E/DX2                !
 ! A59   A(29,27,38)           104.3737         estimate D2E/DX2                !
 ! A60   A(30,27,38)           108.9581         estimate D2E/DX2                !
 ! A61   A(26,31,32)           118.7687         estimate D2E/DX2                !
 ! A62   A(31,32,33)           123.4385         estimate D2E/DX2                !
 ! A63   A(31,32,34)           106.584          estimate D2E/DX2                !
 ! A64   A(33,32,34)           129.7558         estimate D2E/DX2                !
 ! A65   A(32,34,35)           110.3375         estimate D2E/DX2                !
 ! A66   A(32,34,36)           120.5825         estimate D2E/DX2                !
 ! A67   A(32,34,37)           104.0349         estimate D2E/DX2                !
 ! A68   A(35,34,36)           111.6211         estimate D2E/DX2                !
 ! A69   A(35,34,37)            98.0035         estimate D2E/DX2                !
 ! A70   A(36,34,37)           109.5689         estimate D2E/DX2                !
 ! A71   A(27,38,39)           111.1151         estimate D2E/DX2                !
 ! A72   A(27,38,40)           109.6323         estimate D2E/DX2                !
 ! A73   A(27,38,41)           106.8792         estimate D2E/DX2                !
 ! A74   A(39,38,40)           112.3817         estimate D2E/DX2                !
 ! A75   A(39,38,41)           107.9858         estimate D2E/DX2                !
 ! A76   A(40,38,41)           108.6509         estimate D2E/DX2                !
 ! D1    D(1,2,3,6)             66.8353         estimate D2E/DX2                !
 ! D2    D(1,2,3,7)            -56.4893         estimate D2E/DX2                !
 ! D3    D(1,2,3,8)           -170.2183         estimate D2E/DX2                !
 ! D4    D(4,2,3,6)            -57.8842         estimate D2E/DX2                !
 ! D5    D(4,2,3,7)            178.7912         estimate D2E/DX2                !
 ! D6    D(4,2,3,8)             65.0622         estimate D2E/DX2                !
 ! D7    D(5,2,3,6)           -173.59           estimate D2E/DX2                !
 ! D8    D(5,2,3,7)             63.0854         estimate D2E/DX2                !
 ! D9    D(5,2,3,8)            -50.6436         estimate D2E/DX2                !
 ! D10   D(2,3,8,9)           -174.2622         estimate D2E/DX2                !
 ! D11   D(2,3,8,10)           -52.6101         estimate D2E/DX2                !
 ! D12   D(2,3,8,13)            60.2449         estimate D2E/DX2                !
 ! D13   D(6,3,8,9)            -48.6815         estimate D2E/DX2                !
 ! D14   D(6,3,8,10)            72.9706         estimate D2E/DX2                !
 ! D15   D(6,3,8,13)          -174.1744         estimate D2E/DX2                !
 ! D16   D(7,3,8,9)             70.7503         estimate D2E/DX2                !
 ! D17   D(7,3,8,10)          -167.5976         estimate D2E/DX2                !
 ! D18   D(7,3,8,13)           -54.7425         estimate D2E/DX2                !
 ! D19   D(3,8,9,11)            41.3666         estimate D2E/DX2                !
 ! D20   D(3,8,9,12)           -73.2536         estimate D2E/DX2                !
 ! D21   D(3,8,9,15)           164.0925         estimate D2E/DX2                !
 ! D22   D(10,8,9,11)          -79.4819         estimate D2E/DX2                !
 ! D23   D(10,8,9,12)          165.8979         estimate D2E/DX2                !
 ! D24   D(10,8,9,15)           43.2439         estimate D2E/DX2                !
 ! D25   D(13,8,9,11)          164.7844         estimate D2E/DX2                !
 ! D26   D(13,8,9,12)           50.1642         estimate D2E/DX2                !
 ! D27   D(13,8,9,15)          -72.4897         estimate D2E/DX2                !
 ! D28   D(3,8,13,14)            5.6647         estimate D2E/DX2                !
 ! D29   D(9,8,13,14)         -117.7119         estimate D2E/DX2                !
 ! D30   D(10,8,13,14)         122.3181         estimate D2E/DX2                !
 ! D31   D(8,9,12,19)         -153.9352         estimate D2E/DX2                !
 ! D32   D(11,9,12,19)          96.5873         estimate D2E/DX2                !
 ! D33   D(15,9,12,19)         -23.5229         estimate D2E/DX2                !
 ! D34   D(8,9,15,16)          -76.0105         estimate D2E/DX2                !
 ! D35   D(8,9,15,17)          164.197          estimate D2E/DX2                !
 ! D36   D(8,9,15,18)           45.1465         estimate D2E/DX2                !
 ! D37   D(11,9,15,16)          43.8206         estimate D2E/DX2                !
 ! D38   D(11,9,15,17)         -75.972          estimate D2E/DX2                !
 ! D39   D(11,9,15,18)         164.9775         estimate D2E/DX2                !
 ! D40   D(12,9,15,16)         164.4856         estimate D2E/DX2                !
 ! D41   D(12,9,15,17)          44.6931         estimate D2E/DX2                !
 ! D42   D(12,9,15,18)         -74.3574         estimate D2E/DX2                !
 ! D43   D(9,12,19,17)           3.6053         estimate D2E/DX2                !
 ! D44   D(9,12,19,20)         121.6142         estimate D2E/DX2                !
 ! D45   D(9,15,17,19)         -46.6835         estimate D2E/DX2                !
 ! D46   D(16,15,17,19)       -168.7941         estimate D2E/DX2                !
 ! D47   D(18,15,17,19)         70.1191         estimate D2E/DX2                !
 ! D48   D(15,17,19,12)         28.4452         estimate D2E/DX2                !
 ! D49   D(15,17,19,20)       -111.9397         estimate D2E/DX2                !
 ! D50   D(12,19,20,21)        -36.7719         estimate D2E/DX2                !
 ! D51   D(12,19,20,22)         87.3486         estimate D2E/DX2                !
 ! D52   D(12,19,20,23)       -157.5587         estimate D2E/DX2                !
 ! D53   D(17,19,20,21)         59.8674         estimate D2E/DX2                !
 ! D54   D(17,19,20,22)       -176.0121         estimate D2E/DX2                !
 ! D55   D(17,19,20,23)        -60.9194         estimate D2E/DX2                !
 ! D56   D(19,20,21,24)        -49.6688         estimate D2E/DX2                !
 ! D57   D(19,20,21,25)       -163.8633         estimate D2E/DX2                !
 ! D58   D(19,20,21,26)         78.3331         estimate D2E/DX2                !
 ! D59   D(22,20,21,24)       -171.4872         estimate D2E/DX2                !
 ! D60   D(22,20,21,25)         74.3182         estimate D2E/DX2                !
 ! D61   D(22,20,21,26)        -43.4853         estimate D2E/DX2                !
 ! D62   D(23,20,21,24)         71.573          estimate D2E/DX2                !
 ! D63   D(23,20,21,25)        -42.6215         estimate D2E/DX2                !
 ! D64   D(23,20,21,26)       -160.4251         estimate D2E/DX2                !
 ! D65   D(20,21,26,27)       -175.5883         estimate D2E/DX2                !
 ! D66   D(20,21,26,28)        -56.4379         estimate D2E/DX2                !
 ! D67   D(20,21,26,31)         58.4226         estimate D2E/DX2                !
 ! D68   D(24,21,26,27)        -50.2588         estimate D2E/DX2                !
 ! D69   D(24,21,26,28)         68.8917         estimate D2E/DX2                !
 ! D70   D(24,21,26,31)       -176.2478         estimate D2E/DX2                !
 ! D71   D(25,21,26,27)         72.5413         estimate D2E/DX2                !
 ! D72   D(25,21,26,28)       -168.3083         estimate D2E/DX2                !
 ! D73   D(25,21,26,31)        -53.4477         estimate D2E/DX2                !
 ! D74   D(21,26,27,29)         59.7058         estimate D2E/DX2                !
 ! D75   D(21,26,27,30)        -54.8884         estimate D2E/DX2                !
 ! D76   D(21,26,27,38)        177.3306         estimate D2E/DX2                !
 ! D77   D(28,26,27,29)        -47.3782         estimate D2E/DX2                !
 ! D78   D(28,26,27,30)       -161.9724         estimate D2E/DX2                !
 ! D79   D(28,26,27,38)         70.2466         estimate D2E/DX2                !
 ! D80   D(31,26,27,29)        179.4251         estimate D2E/DX2                !
 ! D81   D(31,26,27,30)         64.8309         estimate D2E/DX2                !
 ! D82   D(31,26,27,38)        -62.9501         estimate D2E/DX2                !
 ! D83   D(21,26,31,32)       -133.2263         estimate D2E/DX2                !
 ! D84   D(27,26,31,32)        105.0255         estimate D2E/DX2                !
 ! D85   D(28,26,31,32)        -29.4878         estimate D2E/DX2                !
 ! D86   D(26,27,38,39)        -49.2628         estimate D2E/DX2                !
 ! D87   D(26,27,38,40)       -174.0917         estimate D2E/DX2                !
 ! D88   D(26,27,38,41)         68.3233         estimate D2E/DX2                !
 ! D89   D(29,27,38,39)         70.4626         estimate D2E/DX2                !
 ! D90   D(29,27,38,40)        -54.3663         estimate D2E/DX2                !
 ! D91   D(29,27,38,41)       -171.9514         estimate D2E/DX2                !
 ! D92   D(30,27,38,39)       -178.8972         estimate D2E/DX2                !
 ! D93   D(30,27,38,40)         56.2739         estimate D2E/DX2                !
 ! D94   D(30,27,38,41)        -61.3111         estimate D2E/DX2                !
 ! D95   D(26,31,32,33)          4.5033         estimate D2E/DX2                !
 ! D96   D(26,31,32,34)       -170.5572         estimate D2E/DX2                !
 ! D97   D(31,32,34,35)       -168.6663         estimate D2E/DX2                !
 ! D98   D(31,32,34,36)        -36.1725         estimate D2E/DX2                !
 ! D99   D(31,32,34,37)         87.1097         estimate D2E/DX2                !
 ! D100  D(33,32,34,35)         16.6965         estimate D2E/DX2                !
 ! D101  D(33,32,34,36)        149.1903         estimate D2E/DX2                !
 ! D102  D(33,32,34,37)        -87.5275         estimate D2E/DX2                !
 --------------------------------------------------------------------------------
 Trust Radius=3.00D-01 FncErr=1.00D-07 GrdErr=1.00D-06 EigMax=2.50D+02 EigMin=1.00D-04
 Number of steps in this run=    229 maximum allowed number of steps=    246.
 GradGradGradGradGradGradGradGradGradGradGradGradGradGradGradGradGradGrad

 Leave Link  103 at Tue Jan 24 00:27:19 2023, MaxMem=   131072000 cpu:               0.1 elap:               0.0
 (Enter /dragofs/sw/campus/0.2/software/gaussian/16.gaussian/gaussian/g16_legacy/l202.exe)
                          Input orientation:                          
 ---------------------------------------------------------------------
 Center     Atomic      Atomic             Coordinates (Angstroms)
 Number     Number       Type             X           Y           Z
 ---------------------------------------------------------------------
      1          1           0        8.378000   10.876000    6.969000
      2          6           0        8.032000   10.115000    7.632000
      3          6           0        8.151000    8.825000    6.745000
      4          1           0        8.589000    9.951000    8.537000
      5          1           0        6.984000   10.277000    7.943000
      6          1           0        9.166000    8.584000    6.522000
      7          1           0        7.534000    9.033000    5.818000
      8          6           0        7.539000    7.624000    7.298000
      9          6           0        7.840000    6.472000    6.440000
     10          1           0        7.916000    7.459000    8.315000
     11          1           0        8.983000    6.638000    6.153000
     12          1           0        7.219000    6.641000    5.589000
     13          8           0        6.097000    7.844000    7.500000
     14          1           0        5.831000    8.714000    7.140000
     15          6           0        7.654000    5.087000    6.916000
     16          1           0        8.404000    4.784000    7.567000
     17          1           0        7.665000    4.464000    6.067000
     18          1           0        6.727000    5.044000    7.396000
     19          1           0        6.554000    4.941000    4.368000
     20          6           0        5.685000    4.408000    3.983000
     21          6           0        4.601000    4.416000    5.043000
     22          1           0        5.375000    4.853000    3.057000
     23          1           0        5.948000    3.374000    3.725000
     24          1           0        5.039000    4.095000    5.967000
     25          1           0        3.985000    3.660000    4.670000
     26          6           0        3.856000    5.647000    5.162000
     27          6           0        2.928000    5.548000    6.279000
     28          1           0        4.747000    6.316000    5.345000
     29          1           0        3.508000    5.364000    7.194000
     30          1           0        2.260000    4.672000    6.205000
     31          8           0        3.277000    5.874000    3.879000
     32          6           0        3.369000    7.086000    3.341000
     33          8           0        4.000000    8.012000    3.856000
     34          6           0        2.497000    7.085000    2.147000
     35          1           0        2.674000    7.965000    1.554000
     36          1           0        2.412000    6.235000    1.555000
     37          1           0        1.508000    7.361000    2.539000
     38          6           0        2.067000    6.820000    6.612000
     39          1           0        2.700000    7.724000    6.675000
     40          1           0        1.488000    6.645000    7.540000
     41          1           0        1.337000    6.961000    5.748000
 ---------------------------------------------------------------------
                    Distance matrix (angstroms):
                    1          2          3          4          5
     1  H    0.000000
     2  C    1.066961   0.000000
     3  C    2.075646   1.570041   0.000000
     4  H    1.832695   1.075253   2.161246   0.000000
     5  H    1.802973   1.105110   2.214813   1.742164   0.000000
     6  H    2.464552   2.204998   1.066787   2.502367   3.105900
     7  H    2.331048   2.170098   1.132820   3.057566   2.523026
     8  C    3.374562   2.561188   1.456967   2.837702   2.786119
     9  C    4.468165   3.837861   2.392980   4.130599   4.179685
    10  H    3.701493   2.744864   2.094297   2.590806   2.991343
    11  H    4.358041   3.896328   2.413640   4.100568   4.521330
    12  H    4.602489   4.111386   2.640988   4.639365   4.337861
    13  O    3.831181   2.986485   2.398187   3.424162   2.627262
    14  H    3.345249   2.655045   2.356002   3.329916   2.101710
    15  C    5.834339   5.092772   3.774771   5.211560   5.332891
    16  H    6.121335   5.344359   4.131510   5.260515   5.686020
    17  H    6.514270   5.875178   4.440068   6.087844   6.146064
    18  H    6.076212   5.241542   4.092376   5.370994   5.267784
    19  H    6.731746   6.293525   4.825556   6.828022   6.437268
    20  C    7.616001   7.168923   5.763652   7.739314   7.198205
    21  C    7.727018   7.138157   5.910887   7.664751   6.959886
    22  H    7.784490   7.461831   6.089688   8.145539   7.475403
    23  H    8.526924   8.065283   6.609615   8.566630   8.155748
    24  H    7.624624   6.926086   5.715131   7.314379   6.775303
    25  H    8.755256   8.174269   6.952583   8.702137   7.968138
    26  C    7.145360   6.595673   5.572486   7.233003   6.241414
    27  C    7.652855   6.981326   6.183495   7.518769   6.448525
    28  H    6.051044   5.518514   4.454469   6.177625   5.238635
    29  H    7.358646   6.574984   5.808405   6.975728   6.064746
    30  H    8.746613   8.060928   7.227924   8.565180   7.533448
    31  O    7.783849   7.394668   6.377949   8.156975   7.045875
    32  C    7.253728   7.023610   6.121998   7.902850   6.665516
    33  O    6.087705   5.910821   5.122313   6.835964   5.544191
    34  C    8.497619   8.360763   7.492458   9.282161   7.994726
    35  H    8.386403   8.382884   7.594973   9.364492   8.046165
    36  H    9.297496   9.141593   8.159677  10.035552   8.834449
    37  H    8.898147   8.722714   7.997698   9.634556   8.227566
    38  C    7.510480   6.890475   6.407244   7.486339   6.156241
    39  H    6.500863   5.921398   5.561520   6.565584   5.145706
    40  H    8.105523   7.407651   7.055494   7.896065   6.599989
    41  H    8.148236   7.636766   7.134361   8.325270   6.906699
                    6          7          8          9         10
     6  H    0.000000
     7  H    1.833205   0.000000
     8  C    2.042279   2.043454   0.000000
     9  C    2.495104   2.653157   1.467607   0.000000
    10  H    2.458246   2.976308   1.097107   2.120276   0.000000
    11  H    1.989112   2.819193   2.090061   1.190115   2.546915
    12  H    2.904573   2.423495   1.997341   1.066960   2.930189
    13  O    3.304973   2.511536   1.472606   2.458462   2.030077
    14  H    3.394267   2.179370   2.032321   3.090735   2.702383
    15  C    3.830194   4.097673   2.568174   1.476278   2.766266
    16  H    4.014059   4.676527   2.980971   2.106554   2.820155
    17  H    4.408449   4.577655   3.393647   2.049834   3.753203
    18  H    4.386821   4.365026   2.706538   2.047410   2.844382
    19  H    4.973300   4.450546   4.093118   2.879399   4.875877
    20  C    6.000238   5.308168   4.976866   3.865355   5.749103
    21  C    6.356012   5.524473   4.899809   4.082875   5.563727
    22  H    6.348092   5.454980   5.508849   4.487992   6.394879
    23  H    6.732223   6.238616   5.775821   4.533045   6.452003
    24  H    6.123012   5.534534   4.524975   3.703979   5.010662
    25  H    7.383660   6.540828   5.937221   5.089329   6.570478
    26  C    6.218655   5.042124   4.694200   4.264524   5.450537
    27  C    6.941829   5.794220   5.158436   5.000744   5.716412
    28  H    5.104578   3.920866   3.649704   3.284815   4.491092
    29  H    6.544689   5.618150   4.622486   4.534579   5.007607
    30  H    7.943366   6.854427   6.146283   5.867847   6.649045
    31  O    7.000705   5.644559   5.737308   5.266621   6.611402
    32  C    6.779969   5.222410   5.773750   5.474545   6.749445
    33  O    5.841429   4.169058   4.952013   4.877936   5.960163
    34  C    8.115614   6.530108   7.228076   6.881371   8.218860
    35  H    8.198186   6.553008   7.535121   7.265645   8.570048
    36  H    8.706630   7.227507   7.822883   7.306338   8.802829
    37  H    8.718084   7.061169   7.687016   7.490150   8.627528
    38  C    7.315436   5.951125   5.573132   5.786036   6.125303
    39  H    6.524735   5.080894   4.879964   5.295501   5.474165
    40  H    7.984217   6.724726   6.134461   6.448863   6.525520
    41  H    8.032835   6.534592   6.427042   6.557972   7.079600
                   11         12         13         14         15
    11  H    0.000000
    12  H    1.851972   0.000000
    13  O    3.405560   2.521510   0.000000
    14  H    3.901160   2.937597   0.978395   0.000000
    15  C    2.180369   2.089275   3.219682   4.065542   0.000000
    16  H    2.402489   2.960601   3.832798   4.716732   1.038321
    17  H    2.543776   2.273044   3.992056   4.751567   1.053115
    18  H    3.029096   2.461244   2.871884   3.786456   1.044786
    19  H    3.459201   2.196148   4.294844   4.737324   2.779140
    20  C    4.534160   3.149394   4.934078   5.341311   3.597289
    21  C    5.036994   3.478888   4.475047   4.937926   3.644061
    22  H    5.078297   3.606703   5.404407   5.637920   4.487814
    23  H    5.075441   3.970293   5.852668   6.339678   4.003409
    24  H    4.696443   3.373040   4.186222   4.830979   2.953454
    25  H    6.003980   4.493293   5.474970   5.920433   4.532373
    26  C    5.315100   3.532723   3.913456   4.149650   4.220772
    27  C    6.153617   4.481454   4.099392   4.380900   4.790967
    28  H    4.324378   2.505184   2.966700   3.185512   3.525497
    29  H    5.716851   4.240080   3.598188   4.076977   4.164532
    30  H    7.004755   5.371043   5.144043   5.473941   5.456462
    31  O    6.189766   4.364831   4.994491   5.022214   5.385245
    32  C    6.294843   4.480405   5.031285   4.810845   5.927719
    33  O    5.656357   3.904471   4.207656   3.824921   5.592043
    34  C    7.636494   5.860186   6.495436   6.220872   7.302740
    35  H    7.919294   6.220227   6.861959   6.459957   7.863481
    36  H    8.030072   6.288501   7.177126   7.001945   7.585301
    37  H    8.334228   6.514324   6.775229   6.456635   7.880515
    38  C    6.933604   5.255633   4.251825   4.246612   5.857497
    39  H    6.397497   4.772174   3.497804   3.316547   5.617292
    40  H    7.622260   6.053989   4.762571   4.827257   6.390328
    41  H    7.663529   5.892844   5.148475   5.020628   6.691830
                   16         17         18         19         20
    16  H    0.000000
    17  H    1.702504   0.000000
    18  H    1.705629   1.726987   0.000000
    19  H    3.698750   2.085294   3.034686   0.000000
    20  C    4.514354   2.875168   3.624752   1.089713   0.000000
    21  C    4.579171   3.230940   3.232780   2.132008   1.516153
    22  H    5.433204   3.802042   4.548770   1.765363   1.073127
    23  H    4.772945   3.101798   4.107552   1.798937   1.097674
    24  H    3.789188   2.653684   2.406655   2.359606   2.109868
    25  H    5.402180   4.017515   4.106714   2.886508   1.980271
    26  C    5.216617   4.089865   3.687412   2.899668   2.504077
    27  C    5.677078   4.864069   3.991755   4.143458   3.764607
    28  H    4.545103   3.530710   3.121696   2.471923   2.524946
    29  H    4.944325   4.400088   3.241167   4.176520   3.995471
    30  H    6.294150   5.410761   4.637990   4.678180   4.091162
    31  O    6.409023   5.101959   4.996067   3.442142   2.821070
    32  C    6.964877   5.723773   5.647030   3.974919   3.598292
    33  O    6.602024   5.559591   5.364434   4.026922   3.980474
    34  C    8.340483   6.996018   7.043478   5.097924   4.549788
    35  H    8.894258   7.585134   7.686873   5.667237   5.255322
    36  H    8.611249   7.147629   7.359007   5.171418   4.466054
    37  H    8.914961   7.664727   7.496459   5.887593   5.315324
    38  C    6.724202   6.097980   5.048211   5.357177   5.081270
    39  H    6.478802   5.970636   4.890702   5.284000   5.210849
    40  H    7.162060   6.714300   5.480060   6.215268   5.938958
    41  H    7.615155   6.810312   5.953393   5.762108   5.342110
                   21         22         23         24         25
    21  C    0.000000
    22  H    2.175831   0.000000
    23  H    2.153438   1.721044   0.000000
    24  H    1.071756   3.025816   2.524418   0.000000
    25  H    1.044089   2.440721   2.197314   1.726948   0.000000
    26  C    1.443796   2.714557   3.407046   2.110976   2.051067
    27  C    2.368132   4.105133   4.513268   2.581642   2.696419
    28  H    1.929383   2.787418   3.566814   2.324863   2.844399
    29  H    2.592326   4.567448   4.684833   2.336632   3.082486
    30  H    2.626035   4.432368   4.629962   2.848230   2.521110
    31  O    2.287714   2.473809   3.661688   3.260250   2.455349
    32  C    3.397577   3.015125   4.536258   4.316348   3.726013
    33  O    3.834239   3.536708   5.032187   4.569325   4.427496
    34  C    4.465108   3.754039   5.307637   5.476702   4.506695
    35  H    5.336839   4.386223   6.042317   6.328088   5.473683
    36  H    4.501847   3.597957   5.039595   5.562955   4.336840
    37  H    4.950726   4.638111   6.084108   5.906429   4.937012
    38  C    3.829116   5.239273   5.939011   4.083434   4.175606
    39  H    4.149710   5.337433   6.178552   4.375137   4.710345
    40  H    4.571019   6.198171   6.719023   4.646120   4.835508
    41  H    4.198541   5.290613   6.182266   4.686867   4.366989
                   26         27         28         29         30
    26  C    0.000000
    27  C    1.455567   0.000000
    28  H    1.129128   2.184248   0.000000
    29  H    2.080917   1.098854   2.420790   0.000000
    30  H    2.141422   1.104118   3.102822   1.736228   0.000000
    31  O    1.425784   2.447055   2.122597   3.361947   2.808802
    32  C    2.371483   3.345410   2.551039   4.222584   3.906376
    33  O    2.705475   3.618205   2.377298   4.289081   4.438581
    34  C    3.606238   4.429622   3.985105   5.427354   4.727166
    35  H    4.448361   5.313382   4.624739   6.266606   5.713759
    36  H    3.929546   4.801500   4.452290   5.810179   4.908011
    37  H    3.915486   4.392149   4.410984   5.445827   4.608230
    38  C    2.584366   1.571685   3.006943   2.129587   2.194721
    39  H    2.817700   2.223460   2.818080   2.547906   3.119167
    40  H    3.501187   2.206157   3.943012   2.416832   2.504184
    41  H    2.900923   2.193128   3.493785   3.058523   2.510040
                   31         32         33         34         35
    31  O    0.000000
    32  C    1.329230   0.000000
    33  O    2.257056   1.233232   0.000000
    34  C    2.252719   1.478520   2.457442   0.000000
    35  H    3.184575   2.109274   2.657008   1.075815   0.000000
    36  H    2.505897   2.197691   3.312714   1.039321   1.749727
    37  H    2.671354   2.045031   2.892811   1.099073   1.641523
    38  C    3.135013   3.530637   3.571119   4.493479   5.221383
    39  H    3.401918   3.459792   3.117644   4.577370   5.126734
    40  H    4.147033   4.622147   4.663763   5.504192   6.243492
    41  H    2.904880   3.152507   3.431594   3.785258   4.515000
                   36         37         38         39         40
    36  H    0.000000
    37  H    1.747383   0.000000
    38  C    5.102401   4.146624   0.000000
    39  H    5.339894   4.319621   1.105384   0.000000
    40  H    6.069769   5.052035   1.107723   1.838861   0.000000
    41  H    4.389072   3.238352   1.139858   1.816388   1.825903
                   41
    41  H    0.000000
 Stoichiometry    C12H26O3
 Framework group  C1[X(C12H26O3)]
 Deg. of freedom   117
 Full point group                 C1      NOp   1
 Largest Abelian subgroup         C1      NOp   1
 Largest concise Abelian subgroup C1      NOp   1
                         Standard orientation:                         
 ---------------------------------------------------------------------
 Center     Atomic      Atomic             Coordinates (Angstroms)
 Number     Number       Type             X           Y           Z
 ---------------------------------------------------------------------
      1          1           0       -4.567805   -2.707199   -1.019222
      2          6           0       -4.406890   -2.071891   -0.177262
      3          6           0       -3.610875   -0.876941   -0.812467
      4          1           0       -5.273142   -1.670962    0.317746
      5          1           0       -3.806096   -2.564416    0.608699
      6          1           0       -4.207492   -0.316276   -1.496381
      7          1           0       -2.700124   -1.341070   -1.300728
      8          6           0       -3.041721    0.072550    0.134784
      9          6           0       -2.447850    1.202475   -0.589409
     10          1           0       -3.826820    0.419518    0.818067
     11          1           0       -3.241237    1.421731   -1.448965
     12          1           0       -1.562043    0.778218   -1.006248
     13          8           0       -2.093383   -0.616385    1.026182
     14          1           0       -1.972957   -1.545301    0.743575
     15          6           0       -2.111315    2.465949    0.095993
     16          1           0       -2.947955    3.047725    0.295192
     17          1           0       -1.465765    3.001086   -0.541146
     18          1           0       -1.629466    2.217539    0.989129
     19          1           0        0.157140    2.067486   -1.459308
     20          6           0        1.213568    2.244727   -1.259258
     21          6           0        1.491752    1.930452    0.197644
     22          1           0        1.807593    1.663997   -1.938588
     23          1           0        1.478523    3.288105   -1.473852
     24          1           0        0.758862    2.438815    0.791867
     25          1           0        2.415760    2.404308    0.306226
     26          6           0        1.614441    0.528325    0.519413
     27          6           0        1.774653    0.371425    1.957602
     28          1           0        0.605022    0.218704    0.119239
     29          1           0        0.891514    0.799614    2.451768
     30          1           0        2.618114    0.958359    2.361531
     31          8           0        2.679636    0.037437   -0.291295
     32          6           0        2.505359   -1.100028   -0.956616
     33          8           0        1.439049   -1.719269   -0.976300
     34          6           0        3.825345   -1.472378   -1.508896
     35          1           0        3.720828   -2.272921   -2.219942
     36          1           0        4.481603   -0.741598   -1.848709
     37          1           0        4.300062   -2.046468   -0.700796
     38          6           0        1.860450   -1.095737    2.514620
     39          1           0        1.041217   -1.721612    2.115856
     40          1           0        1.873341   -1.073234    3.622039
     41          1           0        2.847406   -1.531994    2.147367
 ---------------------------------------------------------------------
 Rotational constants (GHZ):           0.6676965           0.2869124           0.2612343
 Leave Link  202 at Tue Jan 24 00:27:19 2023, MaxMem=   131072000 cpu:               0.0 elap:               0.0
 (Enter /dragofs/sw/campus/0.2/software/gaussian/16.gaussian/gaussian/g16_legacy/l301.exe)
 Standard basis: 6-31G(d,p) (6D, 7F)
 Ernie: Thresh=  0.10000D-02 Tol=  0.10000D-05 Strict=F.
 There are   355 symmetry adapted cartesian basis functions of A   symmetry.
 There are   355 symmetry adapted basis functions of A   symmetry.
   355 basis functions,   602 primitive gaussians,   355 cartesian basis functions
    61 alpha electrons       61 beta electrons
       nuclear repulsion energy      1108.3392361050 Hartrees.
 IExCor=  402 DFT=T Ex=B Corr=LYP ExCW=0 ScaHFX=  0.000000
 ScaDFX=  1.000000  1.000000  1.000000  1.000000 ScalE2=  1.000000  1.000000
 IRadAn=      5 IRanWt=     -1 IRanGd=            0 ICorTp=0 IEmpDi=131
 NAtoms=   41 NActive=   41 NUniq=   41 SFac= 1.00D+00 NAtFMM=   60 NAOKFM=F Big=F
 Integral buffers will be    131072 words long.
 Raffenetti 2 integral format.
 Two-electron integral symmetry is turned on.
 R6Disp:  Grimme-D3 Dispersion energy=       -0.0482966303 Hartrees.
 Nuclear repulsion after empirical dispersion term =     1108.2909394747 Hartrees.
 Leave Link  301 at Tue Jan 24 00:27:19 2023, MaxMem=   131072000 cpu:               0.4 elap:               0.1
 (Enter /dragofs/sw/campus/0.2/software/gaussian/16.gaussian/gaussian/g16_legacy/l302.exe)
 NPDir=0 NMtPBC=     1 NCelOv=     1 NCel=       1 NClECP=     1 NCelD=      1
         NCelK=      1 NCelE2=     1 NClLst=     1 CellRange=     0.0.
 One-electron integrals computed using PRISM.
 One-electron integral symmetry used in STVInt
 NBasis=   355 RedAO= T EigKep=  2.42D-03  NBF=   355
 NBsUse=   355 1.00D-06 EigRej= -1.00D+00 NBFU=   355
 Precomputing XC quadrature grid using
 IXCGrd= 4 IRadAn=           5 IRanWt=          -1 IRanGd=           0 AccXCQ= 0.00D+00.
 Generated NRdTot=       0 NPtTot=           0 NUsed=           0 NTot=          32
 NSgBfM=   354   354   354   354   354 MxSgAt=    41 MxSgA2=    41.
 Leave Link  302 at Tue Jan 24 00:27:19 2023, MaxMem=   131072000 cpu:               3.9 elap:               0.5
 (Enter /dragofs/sw/campus/0.2/software/gaussian/16.gaussian/gaussian/g16_legacy/l303.exe)
 DipDrv:  MaxL=1.
 Leave Link  303 at Tue Jan 24 00:27:19 2023, MaxMem=   131072000 cpu:               0.3 elap:               0.1
 (Enter /dragofs/sw/campus/0.2/software/gaussian/16.gaussian/gaussian/g16_legacy/l401.exe)
 ExpMin= 1.61D-01 ExpMax= 5.48D+03 ExpMxC= 8.25D+02 IAcc=3 IRadAn=         5 AccDes= 0.00D+00
 Harris functional with IExCor=  402 and IRadAn=       5 diagonalized for initial guess.
 HarFok:  IExCor=  402 AccDes= 0.00D+00 IRadAn=         5 IDoV= 1 UseB2=F ITyADJ=14
 ICtDFT=  3500011 ScaDFX=  1.000000  1.000000  1.000000  1.000000
 FoFCou: FMM=F IPFlag=           0 FMFlag=      100000 FMFlg1=           0
         NFxFlg=           0 DoJE=T BraDBF=F KetDBF=T FulRan=T
         wScrn=  0.000000 ICntrl=       500 IOpCl=  0 I1Cent=   200000004 NGrid=           0
         NMat0=    1 NMatS0=      1 NMatT0=    0 NMatD0=    1 NMtDS0=    0 NMtDT0=    0
 Petite list used in FoFCou.
 Harris En= -698.815582296382    
 JPrj=0 DoOrth=F DoCkMO=F.
 Leave Link  401 at Tue Jan 24 00:27:22 2023, MaxMem=   131072000 cpu:              20.4 elap:               2.6
 (Enter /dragofs/sw/campus/0.2/software/gaussian/16.gaussian/gaussian/g16_legacy/l502.exe)
 Integral symmetry usage will be decided dynamically.
 Closed shell SCF:
 Using DIIS extrapolation, IDIIS=  1040.
 NGot=   131072000 LenX=   130813044 LenY=   130686578
 Requested convergence on RMS density matrix=1.00D-08 within 128 cycles.
 Requested convergence on MAX density matrix=1.00D-06.
 Requested convergence on             energy=1.00D-06.
 No special actions if energy rises.
 Fock matrices will be formed incrementally for  20 cycles.
 Integral accuracy reduced to 1.0D-05 until final iterations.

 Cycle   1  Pass 0  IDiag  1:
 FoFJK:  IHMeth= 1 ICntrl=     500 DoSepK=F KAlg= 0 I1Cent=           0 FoldK=F
 IRaf= 790000000 NMat=       1 IRICut=       1 DoRegI=T DoRafI=F ISym2E= 0 IDoP0=0 IntGTp=1.
 FoFCou: FMM=F IPFlag=           0 FMFlag=      100000 FMFlg1=           0
         NFxFlg=           0 DoJE=T BraDBF=F KetDBF=F FulRan=T
         wScrn=  0.000000 ICntrl=       500 IOpCl=  0 I1Cent=           0 NGrid=           0
         NMat0=    1 NMatS0=      1 NMatT0=    0 NMatD0=    1 NMtDS0=    0 NMtDT0=    0
 Symmetry not used in FoFCou.
 E= -697.660930744823    
 DIIS: error= 2.44D-02 at cycle   1 NSaved=   1.
 NSaved= 1 IEnMin= 1 EnMin= -697.660930744823     IErMin= 1 ErrMin= 2.44D-02
 ErrMax= 2.44D-02  0.00D+00 EMaxC= 1.00D-01 BMatC= 5.94D-01 BMatP= 5.94D-01
 IDIUse=3 WtCom= 7.56D-01 WtEn= 2.44D-01
 Coeff-Com:  0.100D+01
 Coeff-En:   0.100D+01
 Coeff:      0.100D+01
 Gap=     0.060 Goal=   None    Shift=    0.000
 GapD=    0.060 DampG=0.500 DampE=0.500 DampFc=0.2500 IDamp=-1.
 Damping current iteration by 2.50D-01
 RMSDP=6.26D-03 MaxDP=2.54D-01              OVMax= 2.71D-01

 Cycle   2  Pass 0  IDiag  1:
 RMSU=  1.56D-03    CP:  9.89D-01
 E= -697.885018656595     Delta-E=       -0.224087911772 Rises=F Damp=T
 DIIS: error= 1.06D-02 at cycle   2 NSaved=   2.
 NSaved= 2 IEnMin= 2 EnMin= -697.885018656595     IErMin= 2 ErrMin= 1.06D-02
 ErrMax= 1.06D-02  0.00D+00 EMaxC= 1.00D-01 BMatC= 8.94D-02 BMatP= 5.94D-01
 IDIUse=3 WtCom= 8.94D-01 WtEn= 1.06D-01
 Coeff-Com: -0.460D+00 0.146D+01
 Coeff-En:   0.000D+00 0.100D+01
 Coeff:     -0.411D+00 0.141D+01
 Gap=     0.171 Goal=   None    Shift=    0.000
 RMSDP=1.57D-03 MaxDP=5.59D-02 DE=-2.24D-01 OVMax= 2.61D-01

 Cycle   3  Pass 0  IDiag  1:
 RMSU=  1.41D-03    CP:  9.77D-01  1.42D+00
 E= -698.156407725735     Delta-E=       -0.271389069140 Rises=F Damp=F
 DIIS: error= 2.31D-02 at cycle   3 NSaved=   3.
 NSaved= 3 IEnMin= 3 EnMin= -698.156407725735     IErMin= 2 ErrMin= 1.06D-02
 ErrMax= 2.31D-02  0.00D+00 EMaxC= 1.00D-01 BMatC= 1.38D-01 BMatP= 8.94D-02
 IDIUse=2 WtCom= 0.00D+00 WtEn= 1.00D+00
 Coeff-En:   0.000D+00 0.000D+00 0.100D+01
 Coeff:      0.000D+00 0.000D+00 0.100D+01
 Gap=     0.139 Goal=   None    Shift=    0.000
 RMSDP=3.98D-03 MaxDP=2.66D-01 DE=-2.71D-01 OVMax= 5.86D-01

 Cycle   4  Pass 0  IDiag  1:
 RMSU=  2.22D-03    CP:  9.88D-01  1.91D+00 -1.27D+00
 E= -696.994286804608     Delta-E=        1.162120921128 Rises=F Damp=F
 DIIS: error= 8.74D-02 at cycle   4 NSaved=   4.
 NSaved= 4 IEnMin= 3 EnMin= -698.156407725735     IErMin= 2 ErrMin= 1.06D-02
 ErrMax= 8.74D-02  0.00D+00 EMaxC= 1.00D-01 BMatC= 1.52D+00 BMatP= 8.94D-02
 IDIUse=2 WtCom= 0.00D+00 WtEn= 1.00D+00
 Coeff-En:   0.000D+00 0.000D+00 0.854D+00 0.146D+00
 Coeff:      0.000D+00 0.000D+00 0.854D+00 0.146D+00
 Gap=     0.158 Goal=   None    Shift=    0.000
 RMSDP=2.40D-03 MaxDP=1.70D-01 DE= 1.16D+00 OVMax= 3.14D-01

 Cycle   5  Pass 0  IDiag  1:
 RMSU=  5.53D-04    CP:  9.85D-01  1.45D+00 -1.30D-01  3.08D-01
 E= -698.136691354053     Delta-E=       -1.142404549445 Rises=F Damp=F
 DIIS: error= 2.61D-02 at cycle   5 NSaved=   5.
 NSaved= 5 IEnMin= 3 EnMin= -698.156407725735     IErMin= 2 ErrMin= 1.06D-02
 ErrMax= 2.61D-02  0.00D+00 EMaxC= 1.00D-01 BMatC= 1.71D-01 BMatP= 8.94D-02
 IDIUse=2 WtCom= 0.00D+00 WtEn= 1.00D+00
 Coeff-En:   0.000D+00 0.000D+00 0.526D+00 0.000D+00 0.474D+00
 Coeff:      0.000D+00 0.000D+00 0.526D+00 0.000D+00 0.474D+00
 Gap=     0.190 Goal=   None    Shift=    0.000
 RMSDP=9.54D-04 MaxDP=7.15D-02 DE=-1.14D+00 OVMax= 1.44D-01

 Cycle   6  Pass 0  IDiag  1:
 RMSU=  1.29D-04    CP:  9.82D-01  1.38D+00  4.36D-01  1.13D-01  5.92D-01
 E= -698.273702003341     Delta-E=       -0.137010649288 Rises=F Damp=F
 DIIS: error= 1.24D-03 at cycle   6 NSaved=   6.
 NSaved= 6 IEnMin= 6 EnMin= -698.273702003341     IErMin= 6 ErrMin= 1.24D-03
 ErrMax= 1.24D-03  0.00D+00 EMaxC= 1.00D-01 BMatC= 7.26D-04 BMatP= 8.94D-02
 IDIUse=3 WtCom= 9.88D-01 WtEn= 1.24D-02
 Coeff-Com: -0.238D-01 0.358D-01 0.187D+00-0.313D-01 0.253D+00 0.579D+00
 Coeff-En:   0.000D+00 0.000D+00 0.000D+00 0.000D+00 0.000D+00 0.100D+01
 Coeff:     -0.235D-01 0.354D-01 0.185D+00-0.310D-01 0.250D+00 0.584D+00
 Gap=     0.192 Goal=   None    Shift=    0.000
 RMSDP=1.10D-04 MaxDP=6.76D-03 DE=-1.37D-01 OVMax= 1.36D-02

 Cycle   7  Pass 0  IDiag  1:
 RMSU=  6.78D-05    CP:  9.82D-01  1.41D+00  4.27D-01  1.31D-01  6.21D-01
                    CP:  5.74D-01
 E= -698.273976451327     Delta-E=       -0.000274447986 Rises=F Damp=F
 DIIS: error= 1.38D-03 at cycle   7 NSaved=   7.
 NSaved= 7 IEnMin= 7 EnMin= -698.273976451327     IErMin= 6 ErrMin= 1.24D-03
 ErrMax= 1.38D-03  0.00D+00 EMaxC= 1.00D-01 BMatC= 4.80D-04 BMatP= 7.26D-04
 IDIUse=3 WtCom= 9.88D-01 WtEn= 1.24D-02
 Coeff-Com: -0.118D-01 0.147D-01 0.628D-01-0.129D-01 0.782D-01 0.412D+00
 Coeff-Com:  0.457D+00
 Coeff-En:   0.000D+00 0.000D+00 0.000D+00 0.000D+00 0.000D+00 0.379D+00
 Coeff-En:   0.621D+00
 Coeff:     -0.117D-01 0.145D-01 0.620D-01-0.127D-01 0.773D-01 0.411D+00
 Coeff:      0.459D+00
 Gap=     0.189 Goal=   None    Shift=    0.000
 RMSDP=5.54D-05 MaxDP=3.21D-03 DE=-2.74D-04 OVMax= 6.26D-03

 Cycle   8  Pass 0  IDiag  1:
 RMSU=  2.33D-05    CP:  9.82D-01  1.41D+00  4.35D-01  1.22D-01  6.16D-01
                    CP:  6.71D-01  3.78D-01
 E= -698.274322334125     Delta-E=       -0.000345882798 Rises=F Damp=F
 DIIS: error= 3.62D-04 at cycle   8 NSaved=   8.
 NSaved= 8 IEnMin= 8 EnMin= -698.274322334125     IErMin= 8 ErrMin= 3.62D-04
 ErrMax= 3.62D-04  0.00D+00 EMaxC= 1.00D-01 BMatC= 4.42D-05 BMatP= 4.80D-04
 IDIUse=3 WtCom= 9.96D-01 WtEn= 3.62D-03
 Coeff-Com: -0.106D-02-0.163D-02 0.107D-01-0.569D-03-0.323D-04 0.200D+00
 Coeff-Com:  0.271D+00 0.522D+00
 Coeff-En:   0.000D+00 0.000D+00 0.000D+00 0.000D+00 0.000D+00 0.000D+00
 Coeff-En:   0.000D+00 0.100D+01
 Coeff:     -0.106D-02-0.163D-02 0.106D-01-0.567D-03-0.322D-04 0.199D+00
 Coeff:      0.270D+00 0.524D+00
 Gap=     0.190 Goal=   None    Shift=    0.000
 RMSDP=1.82D-05 MaxDP=1.29D-03 DE=-3.46D-04 OVMax= 1.27D-03

 Cycle   9  Pass 0  IDiag  1:
 RMSU=  5.83D-06    CP:  9.82D-01  1.41D+00  4.40D-01  1.21D-01  6.07D-01
                    CP:  7.08D-01  4.71D-01  5.22D-01
 E= -698.274354584574     Delta-E=       -0.000032250448 Rises=F Damp=F
 DIIS: error= 5.19D-05 at cycle   9 NSaved=   9.
 NSaved= 9 IEnMin= 9 EnMin= -698.274354584574     IErMin= 9 ErrMin= 5.19D-05
 ErrMax= 5.19D-05  0.00D+00 EMaxC= 1.00D-01 BMatC= 1.56D-06 BMatP= 4.42D-05
 IDIUse=1 WtCom= 1.00D+00 WtEn= 0.00D+00
 Coeff-Com: -0.262D-03-0.695D-03 0.407D-02 0.114D-03-0.333D-02 0.938D-01
 Coeff-Com:  0.135D+00 0.308D+00 0.464D+00
 Coeff:     -0.262D-03-0.695D-03 0.407D-02 0.114D-03-0.333D-02 0.938D-01
 Coeff:      0.135D+00 0.308D+00 0.464D+00
 Gap=     0.190 Goal=   None    Shift=    0.000
 RMSDP=3.62D-06 MaxDP=1.56D-04 DE=-3.23D-05 OVMax= 1.72D-04

 Initial convergence to 1.0D-05 achieved.  Increase integral accuracy.
 Cycle  10  Pass 1  IDiag  1:
 E= -698.274395810985     Delta-E=       -0.000041226411 Rises=F Damp=F
 DIIS: error= 3.68D-05 at cycle   1 NSaved=   1.
 NSaved= 1 IEnMin= 1 EnMin= -698.274395810985     IErMin= 1 ErrMin= 3.68D-05
 ErrMax= 3.68D-05  0.00D+00 EMaxC= 1.00D-01 BMatC= 2.45D-07 BMatP= 2.45D-07
 IDIUse=1 WtCom= 1.00D+00 WtEn= 0.00D+00
 Coeff-Com:  0.100D+01
 Coeff:      0.100D+01
 Gap=     0.190 Goal=   None    Shift=    0.000
 RMSDP=3.62D-06 MaxDP=1.56D-04 DE=-4.12D-05 OVMax= 1.83D-04

 Cycle  11  Pass 1  IDiag  1:
 RMSU=  8.07D-06    CP:  1.00D+00
 E= -698.274395817197     Delta-E=       -0.000000006212 Rises=F Damp=F
 DIIS: error= 3.25D-05 at cycle   2 NSaved=   2.
 NSaved= 2 IEnMin= 2 EnMin= -698.274395817197     IErMin= 2 ErrMin= 3.25D-05
 ErrMax= 3.25D-05  0.00D+00 EMaxC= 1.00D-01 BMatC= 2.99D-07 BMatP= 2.45D-07
 IDIUse=1 WtCom= 1.00D+00 WtEn= 0.00D+00
 Coeff-Com:  0.534D+00 0.466D+00
 Coeff:      0.534D+00 0.466D+00
 Gap=     0.190 Goal=   None    Shift=    0.000
 RMSDP=2.14D-06 MaxDP=1.65D-04 DE=-6.21D-09 OVMax= 2.68D-04

 Cycle  12  Pass 1  IDiag  1:
 RMSU=  2.08D-06    CP:  1.00D+00  9.41D-01
 E= -698.274395937545     Delta-E=       -0.000000120348 Rises=F Damp=F
 DIIS: error= 2.70D-05 at cycle   3 NSaved=   3.
 NSaved= 3 IEnMin= 3 EnMin= -698.274395937545     IErMin= 3 ErrMin= 2.70D-05
 ErrMax= 2.70D-05  0.00D+00 EMaxC= 1.00D-01 BMatC= 1.69D-07 BMatP= 2.45D-07
 IDIUse=1 WtCom= 1.00D+00 WtEn= 0.00D+00
 Coeff-Com:  0.118D+00 0.402D+00 0.480D+00
 Coeff:      0.118D+00 0.402D+00 0.480D+00
 Gap=     0.190 Goal=   None    Shift=    0.000
 RMSDP=1.20D-06 MaxDP=1.08D-04 DE=-1.20D-07 OVMax= 1.94D-04

 Cycle  13  Pass 1  IDiag  1:
 RMSU=  7.78D-07    CP:  1.00D+00  9.59D-01  5.65D-01
 E= -698.274396042344     Delta-E=       -0.000000104799 Rises=F Damp=F
 DIIS: error= 1.14D-05 at cycle   4 NSaved=   4.
 NSaved= 4 IEnMin= 4 EnMin= -698.274396042344     IErMin= 4 ErrMin= 1.14D-05
 ErrMax= 1.14D-05  0.00D+00 EMaxC= 1.00D-01 BMatC= 3.45D-08 BMatP= 1.69D-07
 IDIUse=1 WtCom= 1.00D+00 WtEn= 0.00D+00
 Coeff-Com:  0.681D-02 0.239D+00 0.370D+00 0.385D+00
 Coeff:      0.681D-02 0.239D+00 0.370D+00 0.385D+00
 Gap=     0.190 Goal=   None    Shift=    0.000
 RMSDP=4.74D-07 MaxDP=2.73D-05 DE=-1.05D-07 OVMax= 6.13D-05

 Cycle  14  Pass 1  IDiag  1:
 RMSU=  1.25D-07    CP:  1.00D+00  9.61D-01  6.03D-01  4.22D-01
 E= -698.274396070486     Delta-E=       -0.000000028142 Rises=F Damp=F
 DIIS: error= 1.48D-06 at cycle   5 NSaved=   5.
 NSaved= 5 IEnMin= 5 EnMin= -698.274396070486     IErMin= 5 ErrMin= 1.48D-06
 ErrMax= 1.48D-06  0.00D+00 EMaxC= 1.00D-01 BMatC= 7.45D-10 BMatP= 3.45D-08
 IDIUse=1 WtCom= 1.00D+00 WtEn= 0.00D+00
 Coeff-Com:  0.593D-03 0.137D+00 0.215D+00 0.242D+00 0.405D+00
 Coeff:      0.593D-03 0.137D+00 0.215D+00 0.242D+00 0.405D+00
 Gap=     0.190 Goal=   None    Shift=    0.000
 RMSDP=8.01D-08 MaxDP=4.76D-06 DE=-2.81D-08 OVMax= 5.18D-06

 Cycle  15  Pass 1  IDiag  1:
 RMSU=  3.24D-08    CP:  1.00D+00  9.61D-01  5.97D-01  4.08D-01  4.30D-01
 E= -698.274396071044     Delta-E=       -0.000000000558 Rises=F Damp=F
 DIIS: error= 1.62D-07 at cycle   6 NSaved=   6.
 NSaved= 6 IEnMin= 6 EnMin= -698.274396071044     IErMin= 6 ErrMin= 1.62D-07
 ErrMax= 1.62D-07  0.00D+00 EMaxC= 1.00D-01 BMatC= 2.46D-11 BMatP= 7.45D-10
 IDIUse=1 WtCom= 1.00D+00 WtEn= 0.00D+00
 Coeff-Com: -0.108D-03 0.573D-01 0.901D-01 0.105D+00 0.220D+00 0.528D+00
 Coeff:     -0.108D-03 0.573D-01 0.901D-01 0.105D+00 0.220D+00 0.528D+00
 Gap=     0.190 Goal=   None    Shift=    0.000
 RMSDP=1.78D-08 MaxDP=8.47D-07 DE=-5.58D-10 OVMax= 8.75D-07

 Cycle  16  Pass 1  IDiag  1:
 RMSU=  9.15D-09    CP:  1.00D+00  9.61D-01  5.97D-01  4.12D-01  4.38D-01
                    CP:  5.39D-01
 E= -698.274396071024     Delta-E=        0.000000000021 Rises=F Damp=F
 DIIS: error= 4.29D-08 at cycle   7 NSaved=   7.
 NSaved= 7 IEnMin= 6 EnMin= -698.274396071044     IErMin= 7 ErrMin= 4.29D-08
 ErrMax= 4.29D-08  0.00D+00 EMaxC= 1.00D-01 BMatC= 1.93D-12 BMatP= 2.46D-11
 IDIUse=1 WtCom= 1.00D+00 WtEn= 0.00D+00
 Coeff-Com: -0.912D-04 0.227D-01 0.355D-01 0.423D-01 0.938D-01 0.295D+00
 Coeff-Com:  0.511D+00
 Coeff:     -0.912D-04 0.227D-01 0.355D-01 0.423D-01 0.938D-01 0.295D+00
 Coeff:      0.511D+00
 Gap=     0.190 Goal=   None    Shift=    0.000
 RMSDP=4.93D-09 MaxDP=2.37D-07 DE= 2.07D-11 OVMax= 3.02D-07

 SCF Done:  E(RB-LYP) =  -698.274396071     A.U. after   16 cycles
            NFock= 16  Conv=0.49D-08     -V/T= 2.0075
 KE= 6.930524860514D+02 PE=-3.842510099542D+03 EE= 1.342892277945D+03
 Leave Link  502 at Tue Jan 24 00:28:08 2023, MaxMem=   131072000 cpu:             364.6 elap:              45.8
 (Enter /dragofs/sw/campus/0.2/software/gaussian/16.gaussian/gaussian/g16_legacy/l601.exe)
 Copying SCF densities to generalized density rwf, IOpCl= 0 IROHF=0.

 **********************************************************************

            Population analysis using the SCF density.

 **********************************************************************

 Orbital symmetries:
       Occupied  (A) (A) (A) (A) (A) (A) (A) (A) (A) (A) (A) (A)
                 (A) (A) (A) (A) (A) (A) (A) (A) (A) (A) (A) (A)
                 (A) (A) (A) (A) (A) (A) (A) (A) (A) (A) (A) (A)
                 (A) (A) (A) (A) (A) (A) (A) (A) (A) (A) (A) (A)
                 (A) (A) (A) (A) (A) (A) (A) (A) (A) (A) (A) (A)
                 (A)
       Virtual   (A) (A) (A) (A) (A) (A) (A) (A) (A) (A) (A) (A)
                 (A) (A) (A) (A) (A) (A) (A) (A) (A) (A) (A) (A)
                 (A) (A) (A) (A) (A) (A) (A) (A) (A) (A) (A) (A)
                 (A) (A) (A) (A) (A) (A) (A) (A) (A) (A) (A) (A)
                 (A) (A) (A) (A) (A) (A) (A) (A) (A) (A) (A) (A)
                 (A) (A) (A) (A) (A) (A) (A) (A) (A) (A) (A) (A)
                 (A) (A) (A) (A) (A) (A) (A) (A) (A) (A) (A) (A)
                 (A) (A) (A) (A) (A) (A) (A) (A) (A) (A) (A) (A)
                 (A) (A) (A) (A) (A) (A) (A) (A) (A) (A) (A) (A)
                 (A) (A) (A) (A) (A) (A) (A) (A) (A) (A) (A) (A)
                 (A) (A) (A) (A) (A) (A) (A) (A) (A) (A) (A) (A)
                 (A) (A) (A) (A) (A) (A) (A) (A) (A) (A) (A) (A)
                 (A) (A) (A) (A) (A) (A) (A) (A) (A) (A) (A) (A)
                 (A) (A) (A) (A) (A) (A) (A) (A) (A) (A) (A) (A)
                 (A) (A) (A) (A) (A) (A) (A) (A) (A) (A) (A) (A)
                 (A) (A) (A) (A) (A) (A) (A) (A) (A) (A) (A) (A)
                 (A) (A) (A) (A) (A) (A) (A) (A) (A) (A) (A) (A)
                 (A) (A) (A) (A) (A) (A) (A) (A) (A) (A) (A) (A)
                 (A) (A) (A) (A) (A) (A) (A) (A) (A) (A) (A) (A)
                 (A) (A) (A) (A) (A) (A) (A) (A) (A) (A) (A) (A)
                 (A) (A) (A) (A) (A) (A) (A) (A) (A) (A) (A) (A)
                 (A) (A) (A) (A) (A) (A) (A) (A) (A) (A) (A) (A)
                 (A) (A) (A) (A) (A) (A) (A) (A) (A) (A) (A) (A)
                 (A) (A) (A) (A) (A) (A) (A) (A) (A) (A) (A) (A)
                 (A) (A) (A) (A) (A) (A)
 The electronic state is 1-A.
 Alpha  occ. eigenvalues --  -18.82873 -18.77799 -18.76974 -10.03754  -9.95763
 Alpha  occ. eigenvalues --   -9.95116  -9.92200  -9.91521  -9.91439  -9.91305
 Alpha  occ. eigenvalues --   -9.91198  -9.90904  -9.89944  -9.89587  -9.89041
 Alpha  occ. eigenvalues --   -0.99680  -0.89793  -0.89411  -0.74170  -0.72167
 Alpha  occ. eigenvalues --   -0.67865  -0.67510  -0.66947  -0.61228  -0.60564
 Alpha  occ. eigenvalues --   -0.54622  -0.53174  -0.52608  -0.50910  -0.48460
 Alpha  occ. eigenvalues --   -0.43536  -0.43337  -0.42506  -0.41000  -0.39983
 Alpha  occ. eigenvalues --   -0.39620  -0.38635  -0.38048  -0.37492  -0.37254
 Alpha  occ. eigenvalues --   -0.36280  -0.34939  -0.34906  -0.34348  -0.33542
 Alpha  occ. eigenvalues --   -0.32222  -0.31492  -0.30674  -0.29912  -0.29698
 Alpha  occ. eigenvalues --   -0.29478  -0.29015  -0.28101  -0.27748  -0.27214
 Alpha  occ. eigenvalues --   -0.27021  -0.25402  -0.24973  -0.23773  -0.20484
 Alpha  occ. eigenvalues --   -0.19966
 Alpha virt. eigenvalues --   -0.01008   0.03916   0.06233   0.06970   0.07952
 Alpha virt. eigenvalues --    0.08303   0.09747   0.10318   0.10576   0.11630
 Alpha virt. eigenvalues --    0.11928   0.12479   0.13362   0.13474   0.14187
 Alpha virt. eigenvalues --    0.14316   0.14851   0.15113   0.15210   0.16561
 Alpha virt. eigenvalues --    0.16813   0.17666   0.17847   0.18200   0.18653
 Alpha virt. eigenvalues --    0.19198   0.19401   0.20862   0.21270   0.21829
 Alpha virt. eigenvalues --    0.22649   0.24415   0.25371   0.25407   0.26188
 Alpha virt. eigenvalues --    0.26552   0.27745   0.28992   0.30479   0.32267
 Alpha virt. eigenvalues --    0.44721   0.45212   0.45629   0.47163   0.47912
 Alpha virt. eigenvalues --    0.48454   0.49043   0.50574   0.51298   0.51735
 Alpha virt. eigenvalues --    0.53321   0.53811   0.54339   0.56423   0.56818
 Alpha virt. eigenvalues --    0.56871   0.59208   0.59703   0.59889   0.61089
 Alpha virt. eigenvalues --    0.61464   0.63479   0.65290   0.65904   0.66282
 Alpha virt. eigenvalues --    0.67474   0.68918   0.69945   0.71094   0.71541
 Alpha virt. eigenvalues --    0.72557   0.74451   0.74508   0.75560   0.76233
 Alpha virt. eigenvalues --    0.77257   0.78453   0.78613   0.80070   0.81051
 Alpha virt. eigenvalues --    0.81729   0.82432   0.83165   0.83369   0.84286
 Alpha virt. eigenvalues --    0.85028   0.85810   0.86184   0.86437   0.87927
 Alpha virt. eigenvalues --    0.88145   0.88314   0.89230   0.89716   0.90351
 Alpha virt. eigenvalues --    0.91186   0.91413   0.91760   0.93096   0.93808
 Alpha virt. eigenvalues --    0.95869   0.96483   0.98101   0.98212   1.00553
 Alpha virt. eigenvalues --    1.01277   1.03015   1.04290   1.05244   1.07773
 Alpha virt. eigenvalues --    1.08957   1.10793   1.12706   1.16927   1.20628
 Alpha virt. eigenvalues --    1.21669   1.24033   1.25635   1.26351   1.29130
 Alpha virt. eigenvalues --    1.32388   1.34527   1.35990   1.38949   1.39591
 Alpha virt. eigenvalues --    1.41076   1.44090   1.45682   1.46895   1.48979
 Alpha virt. eigenvalues --    1.51667   1.55288   1.56049   1.57243   1.59052
 Alpha virt. eigenvalues --    1.60183   1.61025   1.62788   1.63955   1.64136
 Alpha virt. eigenvalues --    1.65941   1.68236   1.69513   1.70814   1.73182
 Alpha virt. eigenvalues --    1.74818   1.75885   1.77412   1.78044   1.78803
 Alpha virt. eigenvalues --    1.80640   1.80896   1.81869   1.84942   1.85459
 Alpha virt. eigenvalues --    1.86892   1.88977   1.91382   1.91686   1.92925
 Alpha virt. eigenvalues --    1.93280   1.94476   1.95030   1.95770   1.96560
 Alpha virt. eigenvalues --    1.97678   1.98033   1.98762   1.99435   2.00325
 Alpha virt. eigenvalues --    2.00934   2.01112   2.02599   2.02933   2.03753
 Alpha virt. eigenvalues --    2.04315   2.05256   2.05380   2.06039   2.08960
 Alpha virt. eigenvalues --    2.09959   2.10905   2.12143   2.12525   2.13964
 Alpha virt. eigenvalues --    2.14916   2.17202   2.18781   2.19715   2.20499
 Alpha virt. eigenvalues --    2.21209   2.21793   2.22121   2.23412   2.24287
 Alpha virt. eigenvalues --    2.26498   2.27732   2.28486   2.28717   2.33403
 Alpha virt. eigenvalues --    2.34373   2.34599   2.36799   2.37566   2.37943
 Alpha virt. eigenvalues --    2.39587   2.41612   2.42523   2.43931   2.46224
 Alpha virt. eigenvalues --    2.46570   2.48039   2.52306   2.52474   2.54487
 Alpha virt. eigenvalues --    2.56748   2.58069   2.58874   2.59561   2.60282
 Alpha virt. eigenvalues --    2.62564   2.63905   2.64252   2.65545   2.67044
 Alpha virt. eigenvalues --    2.67354   2.68305   2.70525   2.72267   2.73006
 Alpha virt. eigenvalues --    2.74550   2.75910   2.76368   2.77961   2.78581
 Alpha virt. eigenvalues --    2.79875   2.80392   2.81218   2.82718   2.83433
 Alpha virt. eigenvalues --    2.84896   2.87055   2.87407   2.88697   2.89529
 Alpha virt. eigenvalues --    2.92547   2.94257   2.95749   2.95989   2.97081
 Alpha virt. eigenvalues --    3.00119   3.04913   3.07568   3.08150   3.15544
 Alpha virt. eigenvalues --    3.17716   3.18634   3.20253   3.21755   3.23960
 Alpha virt. eigenvalues --    3.25848   3.27303   3.30481   3.32295   3.34751
 Alpha virt. eigenvalues --    3.35369   3.36385   3.38224   3.38772   3.39683
 Alpha virt. eigenvalues --    3.40474   3.44068   3.45306   3.46466   3.48423
 Alpha virt. eigenvalues --    3.48944   3.50805   3.54778   3.58967   3.85113
 Alpha virt. eigenvalues --    4.00756   4.07818   4.16025   4.23355   4.29537
 Alpha virt. eigenvalues --    4.31642   4.35712   4.46175   4.48435   4.51001
 Alpha virt. eigenvalues --    4.55119   4.55310   4.68322   4.72967
          Condensed to atoms (all electrons):
               1          2          3          4          5          6
     1  H    0.611753   0.375027  -0.031384  -0.024749  -0.028515  -0.002352
     2  C    0.375027   4.928646   0.353802   0.382354   0.371865  -0.034665
     3  C   -0.031384   0.353802   4.990890  -0.034207  -0.032857   0.354108
     4  H   -0.024749   0.382354  -0.034207   0.608415  -0.035794  -0.004549
     5  H   -0.028515   0.371865  -0.032857  -0.035794   0.634683   0.005528
     6  H   -0.002352  -0.034665   0.354108  -0.004549   0.005528   0.659241
     7  H   -0.004571  -0.047373   0.355607   0.006064  -0.005979  -0.025946
     8  C    0.004199  -0.032610   0.374611  -0.004570  -0.006505  -0.037537
     9  C   -0.000174   0.006771  -0.023931  -0.000073   0.000603  -0.009890
    10  H    0.000081  -0.010424  -0.059725   0.006766  -0.001834  -0.000732
    11  H   -0.000044   0.000440  -0.016956   0.000009  -0.000033   0.008785
    12  H    0.000012  -0.000170  -0.011320   0.000016  -0.000026   0.000072
    13  O    0.000259  -0.006022  -0.037219  -0.000399   0.007964   0.004678
    14  H   -0.000460   0.000479  -0.008288  -0.000028   0.006997   0.000546
    15  C    0.000004  -0.000270   0.006056   0.000006   0.000003   0.000191
    16  H    0.000000  -0.000000   0.000020  -0.000001   0.000000  -0.000022
    17  H   -0.000000   0.000004  -0.000289   0.000000   0.000000  -0.000016
    18  H   -0.000000   0.000009   0.000474   0.000000  -0.000004  -0.000029
    19  H    0.000000  -0.000000   0.000017  -0.000000   0.000000   0.000002
    20  C   -0.000000   0.000000   0.000000   0.000000  -0.000000  -0.000000
    21  C    0.000000  -0.000000   0.000000  -0.000000   0.000000   0.000000
    22  H   -0.000000   0.000000   0.000000   0.000000  -0.000000  -0.000000
    23  H    0.000000   0.000000  -0.000000  -0.000000   0.000000   0.000000
    24  H   -0.000000   0.000000  -0.000001   0.000000  -0.000000   0.000000
    25  H    0.000000   0.000000   0.000000  -0.000000   0.000000   0.000000
    26  C    0.000000   0.000000   0.000012  -0.000000   0.000000   0.000000
    27  C   -0.000000  -0.000000   0.000000   0.000000  -0.000000  -0.000000
    28  H   -0.000000  -0.000000  -0.000123   0.000000  -0.000006  -0.000006
    29  H   -0.000000   0.000000   0.000001  -0.000000  -0.000000  -0.000000
    30  H   -0.000000   0.000000   0.000000  -0.000000  -0.000000  -0.000000
    31  O   -0.000000  -0.000000   0.000000   0.000000  -0.000000  -0.000000
    32  C    0.000000  -0.000000  -0.000000   0.000000   0.000000   0.000000
    33  O   -0.000000   0.000000  -0.000014   0.000000  -0.000000  -0.000000
    34  C    0.000000   0.000000  -0.000000  -0.000000  -0.000000  -0.000000
    35  H   -0.000000  -0.000000   0.000000   0.000000   0.000000   0.000000
    36  H    0.000000  -0.000000   0.000000   0.000000   0.000000   0.000000
    37  H   -0.000000  -0.000000   0.000000   0.000000   0.000000   0.000000
    38  C    0.000000  -0.000000  -0.000000  -0.000000   0.000000   0.000000
    39  H   -0.000000   0.000000  -0.000002   0.000000  -0.000004  -0.000000
    40  H    0.000000  -0.000000   0.000000  -0.000000   0.000000   0.000000
    41  H   -0.000000  -0.000000   0.000000   0.000000   0.000000  -0.000000
               7          8          9         10         11         12
     1  H   -0.004571   0.004199  -0.000174   0.000081  -0.000044   0.000012
     2  C   -0.047373  -0.032610   0.006771  -0.010424   0.000440  -0.000170
     3  C    0.355607   0.374611  -0.023931  -0.059725  -0.016956  -0.011320
     4  H    0.006064  -0.004570  -0.000073   0.006766   0.000009   0.000016
     5  H   -0.005979  -0.006505   0.000603  -0.001834  -0.000033  -0.000026
     6  H   -0.025946  -0.037537  -0.009890  -0.000732   0.008785   0.000072
     7  H    0.675299  -0.039874  -0.016827   0.010478   0.001924   0.008404
     8  C   -0.039874   4.700508   0.346474   0.379721  -0.037530  -0.033030
     9  C   -0.016827   0.346474   4.989017  -0.086796   0.340671   0.356096
    10  H    0.010478   0.379721  -0.086796   0.738278   0.004132   0.009871
    11  H    0.001924  -0.037530   0.340671   0.004132   0.717689  -0.021414
    12  H    0.008404  -0.033030   0.356096   0.009871  -0.021414   0.635849
    13  O   -0.005031   0.259667  -0.053176  -0.052674   0.003818  -0.000571
    14  H    0.007342  -0.035576   0.000473   0.007221  -0.000229   0.001736
    15  C    0.000052  -0.029871   0.383972  -0.006314  -0.045880  -0.050762
    16  H    0.000010  -0.003591  -0.031113   0.004064  -0.009267   0.007650
    17  H    0.000016   0.005364  -0.027874   0.000000  -0.001299  -0.012619
    18  H    0.000031  -0.010969  -0.041606   0.001155   0.007331  -0.001397
    19  H   -0.000020  -0.000175   0.001105  -0.000003   0.000058   0.005980
    20  C   -0.000001   0.000092  -0.002301  -0.000002   0.000027  -0.000371
    21  C   -0.000000  -0.000022   0.000380   0.000001  -0.000015   0.000297
    22  H    0.000000  -0.000000  -0.000003  -0.000000  -0.000001  -0.000002
    23  H    0.000000  -0.000001   0.000076   0.000000  -0.000001  -0.000051
    24  H    0.000000  -0.000013  -0.000256   0.000002   0.000018  -0.000084
    25  H   -0.000000   0.000000  -0.000008  -0.000000   0.000000   0.000001
    26  C   -0.000031  -0.000095   0.000022  -0.000013  -0.000002  -0.000977
    27  C    0.000000  -0.000001   0.000012   0.000000  -0.000000  -0.000012
    28  H    0.000225   0.000146  -0.001814   0.000083   0.000061   0.005324
    29  H    0.000000  -0.000032  -0.000001   0.000003   0.000000   0.000021
    30  H    0.000000  -0.000000  -0.000001  -0.000000   0.000000   0.000001
    31  O    0.000000   0.000000   0.000005   0.000000  -0.000000  -0.000013
    32  C    0.000004   0.000001  -0.000008   0.000000  -0.000000   0.000058
    33  O    0.000074   0.000017  -0.000040  -0.000000  -0.000000   0.000166
    34  C    0.000000   0.000000  -0.000000  -0.000000  -0.000000   0.000001
    35  H    0.000000  -0.000000   0.000000  -0.000000   0.000000  -0.000000
[...]
    18  H    0.009978  -0.000866   0.379746  -0.030727  -0.034502   0.606362
    19  H   -0.000027  -0.000022   0.001600  -0.000043   0.002415  -0.000276
    20  C    0.000005   0.000004  -0.000933   0.000034   0.000078  -0.000153
    21  C    0.000120  -0.000062  -0.000141   0.000004  -0.000113   0.000041
    22  H   -0.000000   0.000006   0.000015  -0.000001  -0.000003   0.000013
    23  H    0.000000   0.000000  -0.000039  -0.000000   0.000082  -0.000007
    24  H   -0.000009   0.000024   0.000583  -0.000029   0.000367   0.001693
    25  H   -0.000001  -0.000001   0.000011  -0.000000   0.000005  -0.000002
    26  C   -0.008498   0.001265  -0.000283   0.000030  -0.000035  -0.001373
    27  C    0.000345  -0.000307  -0.000038   0.000000  -0.000000   0.000050
    28  H    0.026093  -0.004174  -0.001251  -0.000044  -0.000067   0.004574
    29  H    0.000001   0.000028  -0.000021  -0.000001  -0.000004   0.000576
    30  H   -0.000001  -0.000015  -0.000000   0.000000  -0.000000  -0.000002
    31  O    0.000109  -0.000723   0.000007  -0.000000   0.000000   0.000017
    32  C    0.000016  -0.001424  -0.000003   0.000000  -0.000001  -0.000019
    33  O   -0.013017   0.044898  -0.000008  -0.000001  -0.000000  -0.000017
    34  C   -0.000023   0.000563  -0.000000  -0.000000   0.000000  -0.000000
    35  H    0.000000  -0.000013   0.000000   0.000000   0.000000   0.000000
    36  H    0.000000  -0.000005  -0.000000   0.000000  -0.000000   0.000000
    37  H    0.000000  -0.000022   0.000000   0.000000  -0.000000   0.000000
    38  C   -0.005635   0.002515  -0.000003   0.000000  -0.000000  -0.000012
    39  H    0.017803  -0.003124  -0.000009  -0.000000   0.000001   0.000063
    40  H    0.000057  -0.000023   0.000000  -0.000000   0.000000  -0.000001
    41  H   -0.000005   0.000256  -0.000000   0.000000  -0.000000   0.000003
              19         20         21         22         23         24
     1  H    0.000000  -0.000000  -0.000000  -0.000000   0.000000  -0.000000
     2  C   -0.000000   0.000000  -0.000000   0.000000  -0.000000   0.000000
     3  C   -0.000001   0.000001   0.000000   0.000000  -0.000000  -0.000000
     4  H   -0.000000   0.000000  -0.000000   0.000000  -0.000000   0.000000
     5  H    0.000000  -0.000000  -0.000000   0.000000  -0.000000   0.000000
     6  H    0.000000  -0.000000  -0.000000  -0.000000  -0.000000   0.000000
     7  H   -0.000004  -0.000000   0.000000  -0.000000   0.000000  -0.000000
     8  C   -0.000042   0.000026  -0.000002  -0.000001  -0.000000  -0.000001
     9  C    0.000396  -0.001026   0.000033   0.000007   0.000029  -0.000033
    10  H    0.000002  -0.000001   0.000001  -0.000000   0.000000  -0.000000
    11  H   -0.000056   0.000021   0.000002  -0.000000  -0.000001   0.000001
    12  H    0.003930   0.000144  -0.000054   0.000014  -0.000026  -0.000017
    13  O   -0.000027   0.000005   0.000120  -0.000000   0.000000  -0.000009
    14  H   -0.000022   0.000004  -0.000062   0.000006   0.000000   0.000024
    15  C    0.001600  -0.000933  -0.000141   0.000015  -0.000039   0.000583
    16  H   -0.000043   0.000034   0.000004  -0.000001  -0.000000  -0.000029
    17  H    0.002415   0.000078  -0.000113  -0.000003   0.000082   0.000367
    18  H   -0.000276  -0.000153   0.000041   0.000013  -0.000007   0.001693
    19  H    0.596816   0.379997  -0.034199  -0.032526  -0.030179  -0.005073
    20  C    0.379997   4.922314   0.365646   0.377226   0.368641  -0.032838
    21  C   -0.034199   0.365646   4.906727  -0.034157  -0.023286   0.362365
    22  H   -0.032526   0.377226  -0.034157   0.621983  -0.032034   0.005618
    23  H   -0.030179   0.368641  -0.023286  -0.032034   0.628330  -0.003090
    24  H   -0.005073  -0.032838   0.362365   0.005618  -0.003090   0.644975
    25  H    0.005304  -0.038355   0.364306  -0.004334  -0.002845  -0.036503
    26  C   -0.003889  -0.030469   0.366934  -0.008551   0.003553  -0.031130
    27  C    0.000063   0.003937  -0.037973   0.000210  -0.000124  -0.001426
    28  H    0.003790  -0.005489  -0.041414  -0.000213   0.000076  -0.003420
    29  H   -0.000004   0.000056  -0.001200  -0.000004  -0.000003   0.003011
    30  H    0.000006  -0.000032  -0.007240   0.000008   0.000002  -0.000159
    31  O   -0.000283  -0.003567  -0.043187   0.008668   0.000172   0.003161
    32  C    0.000096   0.001548   0.001003   0.001084  -0.000030   0.000001
    33  O   -0.000150  -0.000053   0.000418  -0.000199   0.000001   0.000005
    34  C   -0.000009  -0.000185  -0.000361   0.000070   0.000002   0.000008
    35  H    0.000000   0.000001   0.000002  -0.000001  -0.000000  -0.000000
    36  H    0.000003   0.000009   0.000049   0.000811  -0.000004  -0.000000
    37  H   -0.000000   0.000007  -0.000014  -0.000009  -0.000000  -0.000000
    38  C    0.000001  -0.000148   0.003940   0.000000   0.000001   0.000020
    39  H   -0.000001  -0.000000   0.000068   0.000000   0.000000  -0.000007
    40  H    0.000000   0.000001  -0.000134   0.000000  -0.000000   0.000000
    41  H    0.000000   0.000002   0.000198  -0.000001   0.000000  -0.000001
              25         26         27         28         29         30
     1  H    0.000000   0.000000  -0.000000  -0.000000  -0.000000   0.000000
     2  C    0.000000  -0.000000   0.000000   0.000002   0.000000  -0.000000
     3  C   -0.000000  -0.000030   0.000001   0.000236  -0.000000   0.000000
     4  H    0.000000   0.000000  -0.000000  -0.000000  -0.000000  -0.000000
     5  H    0.000000   0.000005  -0.000000  -0.000036  -0.000000   0.000000
     6  H    0.000000   0.000001  -0.000000  -0.000014  -0.000000  -0.000000
     7  H   -0.000000  -0.000007   0.000000  -0.000034   0.000000  -0.000000
     8  C   -0.000000  -0.000228  -0.000001   0.000508  -0.000001   0.000000
     9  C   -0.000003  -0.000127   0.000010  -0.000681  -0.000002  -0.000000
    10  H   -0.000000  -0.000019  -0.000001   0.000073   0.000000  -0.000000
    11  H    0.000000  -0.000018  -0.000000   0.000141   0.000000   0.000000
    12  H   -0.000003  -0.000117   0.000002   0.001007   0.000004  -0.000000
    13  O   -0.000001  -0.008498   0.000345   0.026093   0.000001  -0.000001
    14  H   -0.000001   0.001265  -0.000307  -0.004174   0.000028  -0.000015
    15  C    0.000011  -0.000283  -0.000038  -0.001251  -0.000021  -0.000000
    16  H   -0.000000   0.000030   0.000000  -0.000044  -0.000001   0.000000
    17  H    0.000005  -0.000035  -0.000000  -0.000067  -0.000004  -0.000000
    18  H   -0.000002  -0.001373   0.000050   0.004574   0.000576  -0.000002
    19  H    0.005304  -0.003889   0.000063   0.003790  -0.000004   0.000006
    20  C   -0.038355  -0.030469   0.003937  -0.005489   0.000056  -0.000032
    21  C    0.364306   0.366934  -0.037973  -0.041414  -0.001200  -0.007240
    22  H   -0.004334  -0.008551   0.000210  -0.000213  -0.000004   0.000008
    23  H   -0.002845   0.003553  -0.000124   0.000076  -0.000003   0.000002
    24  H   -0.036503  -0.031130  -0.001426  -0.003420   0.003011  -0.000159
    25  H    0.654445  -0.031328  -0.006949   0.005691  -0.000108   0.006332
    26  C   -0.031328   4.849878   0.378592   0.333138  -0.034535  -0.032938
    27  C   -0.006949   0.378592   4.888724  -0.047848   0.362854   0.365852
    28  H    0.005691   0.333138  -0.047848   0.645056  -0.001758   0.006259
    29  H   -0.000108  -0.034535   0.362854  -0.001758   0.650913  -0.036840
    30  H    0.006332  -0.032938   0.365852   0.006259  -0.036840   0.657424
    31  O   -0.001335   0.151324  -0.038072  -0.030398   0.003190  -0.001353
    32  C   -0.000268   0.000740  -0.001898  -0.006863   0.000027  -0.000288
    33  O   -0.000009  -0.003950  -0.000396   0.009330  -0.000004  -0.000012
    34  C    0.000006   0.005231  -0.000291   0.000419   0.000006  -0.000006
    35  H    0.000000  -0.000167   0.000008   0.000015  -0.000000   0.000001
    36  H    0.000005  -0.000229  -0.000012  -0.000018   0.000000   0.000001
    37  H    0.000004  -0.000175   0.000041   0.000011   0.000000   0.000015
    38  C   -0.000011  -0.030422   0.368086  -0.005790  -0.033035  -0.038208
    39  H    0.000007  -0.004034  -0.031093   0.003539  -0.004983   0.004926
    40  H    0.000001   0.003817  -0.024025   0.000152  -0.003336  -0.003333
    41  H    0.000001  -0.008216  -0.034181  -0.000395   0.005621  -0.004140
              31         32         33         34         35         36
     1  H   -0.000000  -0.000000  -0.000002   0.000000  -0.000000   0.000000
     2  C   -0.000000  -0.000002  -0.000024   0.000000  -0.000000  -0.000000
     3  C   -0.000001   0.000015  -0.002064  -0.000000  -0.000001   0.000000
     4  H    0.000000   0.000000  -0.000000  -0.000000   0.000000   0.000000
     5  H   -0.000000   0.000004   0.000070  -0.000000   0.000000   0.000000
     6  H    0.000000   0.000000   0.000017  -0.000000   0.000000  -0.000000
     7  H    0.000010   0.000205   0.005449  -0.000019   0.000012  -0.000000
     8  C   -0.000002  -0.000007   0.001338   0.000001  -0.000000  -0.000000
     9  C    0.000021  -0.000033  -0.001847  -0.000004   0.000000   0.000001
    10  H    0.000000   0.000003  -0.000026  -0.000000   0.000000   0.000000
    11  H    0.000000  -0.000003   0.000021   0.000000  -0.000000  -0.000000
    12  H   -0.000139   0.000725   0.004847   0.000025  -0.000001  -0.000006
    13  O    0.000109   0.000016  -0.013017  -0.000023   0.000000   0.000000
    14  H   -0.000723  -0.001424   0.044898   0.000563  -0.000013  -0.000005
    15  C    0.000007  -0.000003  -0.000008  -0.000000   0.000000  -0.000000
    16  H   -0.000000   0.000000  -0.000001  -0.000000   0.000000   0.000000
    17  H    0.000000  -0.000001  -0.000000   0.000000   0.000000  -0.000000
    18  H    0.000017  -0.000019  -0.000017  -0.000000   0.000000   0.000000
    19  H   -0.000283   0.000096  -0.000150  -0.000009   0.000000   0.000003
    20  C   -0.003567   0.001548  -0.000053  -0.000185   0.000001   0.000009
    21  C   -0.043187   0.001003   0.000418  -0.000361   0.000002   0.000049
    22  H    0.008668   0.001084  -0.000199   0.000070  -0.000001   0.000811
    23  H    0.000172  -0.000030   0.000001   0.000002  -0.000000  -0.000004
    24  H    0.003161   0.000001   0.000005   0.000008  -0.000000  -0.000000
    25  H   -0.001335  -0.000268  -0.000009   0.000006   0.000000   0.000005
    26  C    0.151324   0.000740  -0.003950   0.005231  -0.000167  -0.000229
    27  C   -0.038072  -0.001898  -0.000396  -0.000291   0.000008  -0.000012
    28  H   -0.030398  -0.006863   0.009330   0.000419   0.000015  -0.000018
    29  H    0.003190   0.000027  -0.000004   0.000006  -0.000000   0.000000
    30  H   -0.001353  -0.000288  -0.000012  -0.000006   0.000001   0.000001
    31  O    8.293189   0.231344  -0.067139  -0.091662   0.003502   0.001200
    32  C    0.231344   4.417761   0.500533   0.351754  -0.021594  -0.020264
    33  O   -0.067139   0.500533   8.040214  -0.068858   0.003626   0.000652
    34  C   -0.091662   0.351754  -0.068858   5.072655   0.360090   0.363080
    35  H    0.003502  -0.021594   0.003626   0.360090   0.574598  -0.023940
    36  H    0.001200  -0.020264   0.000652   0.363080  -0.023940   0.569658
    37  H    0.003426  -0.019099   0.001591   0.357538  -0.024800  -0.024712
    38  C   -0.003180   0.002195   0.000470  -0.000062   0.000001   0.000002
    39  H   -0.000210   0.000108  -0.000271  -0.000003   0.000000  -0.000000
    40  H    0.000030  -0.000047   0.000029   0.000002   0.000000   0.000000
    41  H    0.005117   0.003548  -0.000274   0.000022  -0.000015   0.000005
              37         38         39         40         41
     1  H   -0.000000  -0.000000   0.000000   0.000000  -0.000000
     2  C   -0.000000  -0.000002   0.000001   0.000000   0.000000
     3  C   -0.000000  -0.000010   0.000051   0.000000  -0.000000
     4  H    0.000000   0.000000  -0.000001   0.000000  -0.000000
     5  H    0.000000   0.000001   0.000049  -0.000000  -0.000000
     6  H    0.000000   0.000000  -0.000001  -0.000000  -0.000000
     7  H    0.000000   0.000001  -0.000008  -0.000000   0.000000
     8  C    0.000000   0.000181  -0.000367  -0.000002  -0.000004
     9  C   -0.000000  -0.000020   0.000069   0.000000   0.000000
    10  H    0.000000   0.000007  -0.000068   0.000000  -0.000000
    11  H    0.000000   0.000000  -0.000001  -0.000000   0.000000
    12  H    0.000000   0.000003  -0.000016  -0.000000   0.000001
    13  O    0.000000  -0.005635   0.017803   0.000057  -0.000005
    14  H   -0.000022   0.002515  -0.003124  -0.000023   0.000256
    15  C    0.000000  -0.000003  -0.000009   0.000000  -0.000000
    16  H    0.000000   0.000000  -0.000000  -0.000000   0.000000
    17  H   -0.000000  -0.000000   0.000001   0.000000  -0.000000
    18  H    0.000000  -0.000012   0.000063  -0.000001   0.000003
    19  H   -0.000000   0.000001  -0.000001   0.000000   0.000000
    20  C    0.000007  -0.000148  -0.000000   0.000001   0.000002
    21  C   -0.000014   0.003940   0.000068  -0.000134   0.000198
    22  H   -0.000009   0.000000   0.000000   0.000000  -0.000001
    23  H   -0.000000   0.000001   0.000000  -0.000000   0.000000
    24  H   -0.000000   0.000020  -0.000007   0.000000  -0.000001
    25  H    0.000004  -0.000011   0.000007   0.000001   0.000001
    26  C   -0.000175  -0.030422  -0.004034   0.003817  -0.008216
    27  C    0.000041   0.368086  -0.031093  -0.024025  -0.034181
    28  H    0.000011  -0.005790   0.003539   0.000152  -0.000395
    29  H    0.000000  -0.033035  -0.004983  -0.003336   0.005621
    30  H    0.000015  -0.038208   0.004926  -0.003333  -0.004140
    31  O    0.003426  -0.003180  -0.000210   0.000030   0.005117
    32  C   -0.019099   0.002195   0.000108  -0.000047   0.003548
    33  O    0.001591   0.000470  -0.000271   0.000029  -0.000274
    34  C    0.357538  -0.000062  -0.000003   0.000002   0.000022
    35  H   -0.024800   0.000001   0.000000   0.000000  -0.000015
    36  H   -0.024712   0.000002  -0.000000   0.000000   0.000005
    37  H    0.575245   0.000003   0.000000  -0.000002   0.000161
    38  C    0.000003   4.936114   0.372945   0.364365   0.377191
    39  H    0.000000   0.372945   0.570579  -0.027168  -0.031613
    40  H   -0.000002   0.364365  -0.027168   0.637037  -0.032943
    41  H    0.000161   0.377191  -0.031613  -0.032943   0.630193
 Mulliken charges:
               1
     1  H    0.077567
     2  C   -0.279706
     3  C   -0.166165
     4  H    0.083646
     5  H    0.103732
     6  H    0.067035
     7  H    0.091048
     8  C    0.187306
     9  C   -0.156602
    10  H    0.062700
    11  H    0.068331
    12  H    0.083803
    13  O   -0.546636
    14  H    0.324982
    15  C   -0.291388
    16  H    0.085095
    17  H    0.080205
    18  H    0.107174
    19  H    0.112363
    20  C   -0.306452
    21  C   -0.148318
    22  H    0.096301
    23  H    0.090777
    24  H    0.091904
    25  H    0.085938
    26  C    0.136258
    27  C   -0.144140
    28  H    0.109797
    29  H    0.089553
    30  H    0.083742
    31  O   -0.423235
    32  C    0.559131
    33  O   -0.455189
    34  C   -0.349989
    35  H    0.128674
    36  H    0.133713
    37  H    0.130789
    38  C   -0.311503
    39  H    0.132769
    40  H    0.085522
    41  H    0.089468
 Sum of Mulliken charges =  -0.00000
 Mulliken charges with hydrogens summed into heavy atoms:
               1
     2  C   -0.014762
     3  C   -0.008082
     8  C    0.250007
     9  C   -0.004468
    13  O   -0.221654
    15  C   -0.018915
    20  C   -0.007011
    21  C    0.029524
    26  C    0.246055
    27  C    0.029156
    31  O   -0.423235
    32  C    0.559131
    33  O   -0.455189
    34  C    0.043186
    38  C   -0.003743
 Electronic spatial extent (au):  <R**2>=           4203.3391
 Charge=              0.0000 electrons
 Dipole moment (field-independent basis, Debye):
    X=              2.4623    Y=              0.0228    Z=             -1.3505  Tot=              2.8084
 Quadrupole moment (field-independent basis, Debye-Ang):
   XX=            -94.3300   YY=            -92.4522   ZZ=            -95.9543
   XY=             -3.3067   XZ=              0.7900   YZ=              2.2198
 Traceless Quadrupole moment (field-independent basis, Debye-Ang):
   XX=             -0.0845   YY=              1.7933   ZZ=             -1.7088
   XY=             -3.3067   XZ=              0.7900   YZ=              2.2198
 Octapole moment (field-independent basis, Debye-Ang**2):
  XXX=              6.6739  YYY=            -21.4058  ZZZ=             -4.5350  XYY=             15.3807
  XXY=             -1.2191  XXZ=             -6.3106  XZZ=             13.9035  YZZ=             -7.4494
  YYZ=             -6.0677  XYZ=              4.8282
 Hexadecapole moment (field-independent basis, Debye-Ang**3):
 XXXX=          -3087.1311 YYYY=          -1552.4410 ZZZZ=          -1017.3644 XXXY=            -38.2099
 XXXZ=            -12.1356 YYYX=            -33.1333 YYYZ=             26.5354 ZZZX=            -12.1632
 ZZZY=             20.2114 XXYY=           -753.7035 XXZZ=           -678.8385 YYZZ=           -423.8756
 XXYZ=             18.2604 YYXZ=            -17.9396 ZZXY=            -14.0807
 N-N= 1.135037626892D+03 E-N=-3.895060141746D+03  KE= 6.915818966399D+02
 No NMR shielding tensors so no spin-rotation constants.
 Leave Link  601 at Tue Jan 24 01:18:05 2023, MaxMem=   131072000 cpu:               4.7 elap:               0.7
 (Enter /dragofs/sw/campus/0.2/software/gaussian/16.gaussian/gaussian/g16_legacy/l9999.exe)
 1\1\GINC-DRAGO31050143\FOpt\RBLYP\6-31G(d,p)\C12H26O3\JRAMOS\24-Jan-20
 23\0\\#p opt blyp/6-31G** EmpiricalDispersion=GD3\\Conformer number 00
 7. Energy MM = 0.000 kcal/mol\\0,1\H,7.4785720506,11.2160798545,6.6020
 562884\C,7.2352166698,10.2778104847,7.1256712522\C,7.7110935518,9.0463
 522317,6.3296777528\H,7.7086754901,10.3127367206,8.1215987755\H,6.1466
 973597,10.233435021,7.2784949129\H,8.809195692,9.0711108733,6.20608398
 02\H,7.2779269366,9.0660394105,5.3127781441\C,7.3122921429,7.708661005
 ,6.9974067257\C,7.819223349,6.4792893551,6.2028661951\H,7.7408379699,7
 .6754681656,8.0177279758\H,8.9007013412,6.5936569377,6.0053039571\H,7.
 3175754385,6.4864453527,5.2177920966\O,5.8790227459,7.6357103004,7.198
 4023687\H,5.4748364983,7.8045956554,6.3155787842\C,7.557082813,5.14495
 46094,6.9301287242\H,8.1442032609,5.0830851008,7.8618760635\H,7.827075
 9931,4.278472749,6.3051334694\H,6.4953862498,5.0578734608,7.205952908\
 H,6.388673392,4.4760196085,4.2446055992\C,5.4757862728,3.9855704576,3.
 8721507481\C,4.3733173386,3.9748941168,4.9502241101\H,5.1400403252,4.5
 297769466,2.9758931224\H,5.7416732416,2.9615635362,3.5669765862\H,4.71
 98298072,3.4138072088,5.8354407117\H,3.4743630796,3.4554363236,4.57389
 58059\C,3.9756694557,5.379852344,5.4301010654\C,2.8650248425,5.3943809
 164,6.4926122727\H,4.8545937396,5.9178969121,5.8057252027\H,3.19171657
 03,4.7356359642,7.3165731555\H,1.9575972127,4.9363828797,6.060236286\O
 ,3.4663394862,6.1061123654,4.2313303158\C,4.0062842123,7.3037953158,3.
 894371243\O,4.8697129598,7.9113433385,4.5311579578\C,3.4089379911,7.80
 68197647,2.5887982877\H,3.7372120936,8.8369489156,2.4079856693\H,3.742
 7188814,7.1619446359,1.7604199427\H,2.3109831745,7.7532924799,2.625366
 1636\C,2.5574663121,6.8020151116,7.0440743987\H,3.4460206716,7.2347162
 62,7.5274995547\H,1.7434025755,6.7631314042,7.7847913974\H,2.241020811
 1,7.4808859038,6.2362400288\\Version=EM64L-G16RevA.03\State=1-A\HF=-69
 8.3768631\RMSD=4.230e-09\RMSF=3.043e-06\Dipole=-0.4141416,-0.5397999,-
 0.870598\Quadrupole=1.2151465,-1.3437644,0.1286179,-0.5028726,1.915397
 7,-2.2889978\PG=C01 [X(C12H26O3)]\\@


 HONESTY IN A LAWYER IS LIKE A HEN'S HIND LEGS.
  -- MAGNUS OLESON, LAKE WOBEGON PATRIARCH, C.1875
 Job cpu time:       0 days  6 hours 41 minutes 38.9 seconds.
 Elapsed time:       0 days  0 hours 50 minutes 43.6 seconds.
 File lengths (MBytes):  RWF=     84 Int=      0 D2E=      0 Chk=     11 Scr=      1
 Normal termination of Gaussian 16 at Tue Jan 24 01:18:05 2023.
