 Entering Gaussian System, Link 0=/dragofs/sw/campus/0.2/software/gaussian/16.gaussian/gaussian/g16_legacy/g16
 Input=C12H26O3_pair_037_041.com
 Output=C12H26O3_pair_037_041.log
 Initial command:
 /dragofs/sw/campus/0.2/software/gaussian/16.gaussian/gaussian/g16_legacy/l1.exe "/tmp/jramos/38738/Gau-574921.inp" -scrdir="/tmp/jramos/38738/"
 Entering Link 1 = /dragofs/sw/campus/0.2/software/gaussian/16.gaussian/gaussian/g16_legacy/l1.exe PID=    574922.
  
 Copyright (c) 1988,1990,1992,1993,1995,1998,2003,2009,2016,
            Gaussian, Inc.  All Rights Reserved.
  
 This is part of the Gaussian(R) 16 program.  It is based on
 the Gaussian(R) 09 system (copyright 2009, Gaussian, Inc.),
 the Gaussian(R) 03 system (copyright 2003, Gaussian, Inc.),
 the Gaussian(R) 98 system (copyright 1998, Gaussian, Inc.),
 the Gaussian(R) 94 system (copyright 1995, Gaussian, Inc.),
 the Gaussian 92(TM) system (copyright 1992, Gaussian, Inc.),
 the Gaussian 90(TM) system (copyright 1990, Gaussian, Inc.),
 the Gaussian 88(TM) system (copyright 1988, Gaussian, Inc.),
 the Gaussian 86(TM) system (copyright 1986, Carnegie Mellon
 University), and the Gaussian 82(TM) system (copyright 1983,
 Carnegie Mellon University). Gaussian is a federally registered
 trademark of Gaussian, Inc.
  
 This software contains proprietary and confidential information,
 including trade secrets, belonging to Gaussian, Inc.
  
 This software is provided under written license and may be
 used, copied, transmitted, or stored only in accord with that
 written license.
  
 The following legend is applicable only to US Government
 contracts under FAR:
  
                    RESTRICTED RIGHTS LEGEND
  
 Use, reproduction and disclosure by the US Government is
 subject to restrictions as set forth in subparagraphs (a)
 and (c) of the Commercial Computer Software - Restricted
 Rights clause in FAR 52.227-19.
  
 Gaussian, Inc.
 340 Quinnipiac St., Bldg. 40, Wallingford CT 06492
  
  
 ---------------------------------------------------------------
 Warning -- This program may not be used in any manner that
 competes with the business of Gaussian, Inc. or will provide
 assistance to any competitor of Gaussian, Inc.  The licensee
 of this program is prohibited from giving any competitor of
 Gaussian, Inc. access to this program.  By using this program,
 the user acknowledges that Gaussian, Inc. is engaged in the
 business of creating and licensing software in the field of
 computational chemistry and represents and warrants to the
 licensee that it is not a competitor of Gaussian, Inc. and that
 it will not use this program in any manner prohibited above.
 ---------------------------------------------------------------
  

 Cite this work as:
 Gaussian 16, Revision A.03,
 M. J. Frisch, G. W. Trucks, H. B. Schlegel, G. E. Scuseria, 
 M. A. Robb, J. R. Cheeseman, G. Scalmani, V. Barone, 
 G. A. Petersson, H. Nakatsuji, X. Li, M. Caricato, A. V. Marenich, 
 J. Bloino, B. G. Janesko, R. Gomperts, B. Mennucci, H. P. Hratchian, 
 J. V. Ortiz, A. F. Izmaylov, J. L. Sonnenberg, D. Williams-Young, 
 F. Ding, F. Lipparini, F. Egidi, J. Goings, B. Peng, A. Petrone, 
 T. Henderson, D. Ranasinghe, V. G. Zakrzewski, J. Gao, N. Rega, 
 G. Zheng, W. Liang, M. Hada, M. Ehara, K. Toyota, R. Fukuda, 
 J. Hasegawa, M. Ishida, T. Nakajima, Y. Honda, O. Kitao, H. Nakai, 
 T. Vreven, K. Throssell, J. A. Montgomery, Jr., J. E. Peralta, 
 F. Ogliaro, M. J. Bearpark, J. J. Heyd, E. N. Brothers, K. N. Kudin, 
 V. N. Staroverov, T. A. Keith, R. Kobayashi, J. Normand, 
 K. Raghavachari, A. P. Rendell, J. C. Burant, S. S. Iyengar, 
 J. Tomasi, M. Cossi, J. M. Millam, M. Klene, C. Adamo, R. Cammi, 
 J. W. Ochterski, R. L. Martin, K. Morokuma, O. Farkas, 
 J. B. Foresman, and D. J. Fox, Gaussian, Inc., Wallingford CT, 2016.
 
 ******************************************
 Gaussian 16:  EM64L-G16RevA.03 25-Dec-2016
                24-Jan-2023 
 ******************************************
 %chk=C12H26O3_pair_037_041.chk
 %nproc=8
 Will use up to    8 processors via shared memory.
 %mem=1000Mb
 -------------------------------------------
 #p opt blyp/6-31G** EmpiricalDispersion=GD3
 -------------------------------------------
 1/18=20,19=15,26=3,38=1/1,3;
 2/9=110,12=2,17=6,18=5,40=1/2;
 3/5=1,6=6,7=101,11=2,25=1,30=1,71=1,74=402,124=31/1,2,3;
 4//1;
 5/5=2,38=5/2;
 6/7=2,8=2,9=2,10=2,28=1/1;
 7//1,2,3,16;
 1/18=20,19=15,26=3/3(2);
 2/9=110/2;
 99//99;
 2/9=110/2;
 3/5=1,6=6,7=101,11=2,25=1,30=1,71=1,74=402,124=31/1,2,3;
 4/5=5,16=3,69=1/1;
 5/5=2,38=5/2;
 7//1,2,3,16;
 1/18=20,19=15,26=3/3(-5);
 2/9=110/2;
 6/7=2,8=2,9=2,10=2,19=2,28=1/1;
 99/9=1/99;
 Leave Link    1 at Tue Jan 24 05:53:53 2023, MaxMem=   131072000 cpu:               0.5 elap:               0.1
 (Enter /dragofs/sw/campus/0.2/software/gaussian/16.gaussian/gaussian/g16_legacy/l101.exe)
 ------------------------------------------------
 Conformer number 174. Energy MM = 0.000 kcal/mol
 ------------------------------------------------
 Symbolic Z-matrix:
 Charge =  0 Multiplicity = 1
 H                     16.505    9.636     22.25 
 C                     16.13     9.739     23.284 
 C                     15.286    8.598     23.766 
 H                     17.021    9.891     23.948 
 H                     15.624    10.713    23.194 
 H                     14.31     8.648     23.314 
 H                     14.949    8.866     24.823 
 C                     15.832    7.237     23.845 
 C                     14.778    6.249     24.093 
 H                     16.307    6.912     22.913 
 H                     14.104    6.206     23.245 
 H                     14.247    6.56      25.005 
 O                     16.76     7.3       24.906 
 H                     17.494    6.703     24.72 
 C                     15.253    4.85      24.394 
 H                     16.014    4.486     23.732 
 H                     14.412    4.16      24.337 
 H                     15.623    4.929     25.39 
 H                     19.873    12.081    17.245 
 C                     20.518    12.125    18.146 
 C                     19.615    12.496    19.371 
 H                     20.94     11.12     18.193 
 H                     21.364    12.784    18.082 
 H                     19.417    13.597    19.302 
 H                     20.2      12.368    20.239 
 C                     18.37     11.718    19.534 
 C                     18.486    10.258    19.747 
 H                     17.861    12.087    20.455 
 H                     18.884    9.694     18.841 
 H                     17.375    9.945     19.95 
 O                     17.372    11.882    18.517 
 C                     16.177    12.442    18.711 
 O                     16.       13.224    19.608 
 C                     15.428    12.143    17.473 
 H                     14.714    12.958    17.15 
 H                     16.109    11.982    16.72 
 H                     14.754    11.232    17.552 
 C                     19.235    9.849     20.985 
 H                     19.257    8.832     21.177 
 H                     18.756    10.276    21.936 
 H                     20.25     10.228    21.106 
 
 Add virtual bond connecting atoms H30        and H1         Dist= 4.68D+00.
 Add virtual bond connecting atoms H40        and H1         Dist= 4.46D+00.
 ITRead=  0  0  0  0  0  0  0  0  0  0  0  0  0  0  0  0  0  0  0  0
 ITRead=  0  0  0  0  0  0  0  0  0  0  0  0  0  0  0  0  0  0  0  0
 ITRead=  0
 MicOpt= -1 -1 -1 -1 -1 -1 -1 -1 -1 -1 -1 -1 -1 -1 -1 -1 -1 -1 -1 -1
 MicOpt= -1 -1 -1 -1 -1 -1 -1 -1 -1 -1 -1 -1 -1 -1 -1 -1 -1 -1 -1 -1
 MicOpt= -1
 NAtoms=     41 NQM=       41 NQMF=       0 NMMI=      0 NMMIF=      0
                NMic=       0 NMicF=      0.
                    Isotopes and Nuclear Properties:
 (Nuclear quadrupole moments (NQMom) in fm**2, nuclear magnetic moments (NMagM)
  in nuclear magnetons)

  Atom         1           2           3           4           5           6           7           8           9          10
 IAtWgt=           1          12          12           1           1           1           1          12          12           1
 AtmWgt=   1.0078250  12.0000000  12.0000000   1.0078250   1.0078250   1.0078250   1.0078250  12.0000000  12.0000000   1.0078250
 NucSpn=           1           0           0           1           1           1           1           0           0           1
 AtZEff=  -0.0000000  -0.0000000  -0.0000000  -0.0000000  -0.0000000  -0.0000000  -0.0000000  -0.0000000  -0.0000000  -0.0000000
 NQMom=    0.0000000   0.0000000   0.0000000   0.0000000   0.0000000   0.0000000   0.0000000   0.0000000   0.0000000   0.0000000
 NMagM=    2.7928460   0.0000000   0.0000000   2.7928460   2.7928460   2.7928460   2.7928460   0.0000000   0.0000000   2.7928460
 AtZNuc=   1.0000000   6.0000000   6.0000000   1.0000000   1.0000000   1.0000000   1.0000000   6.0000000   6.0000000   1.0000000

  Atom        11          12          13          14          15          16          17          18          19          20
 IAtWgt=           1           1          16           1          12           1           1           1           1          12
 AtmWgt=   1.0078250   1.0078250  15.9949146   1.0078250  12.0000000   1.0078250   1.0078250   1.0078250   1.0078250  12.0000000
 NucSpn=           1           1           0           1           0           1           1           1           1           0
 AtZEff=  -0.0000000  -0.0000000  -0.0000000  -0.0000000  -0.0000000  -0.0000000  -0.0000000  -0.0000000  -0.0000000  -0.0000000
 NQMom=    0.0000000   0.0000000   0.0000000   0.0000000   0.0000000   0.0000000   0.0000000   0.0000000   0.0000000   0.0000000
 NMagM=    2.7928460   2.7928460   0.0000000   2.7928460   0.0000000   2.7928460   2.7928460   2.7928460   2.7928460   0.0000000
 AtZNuc=   1.0000000   1.0000000   8.0000000   1.0000000   6.0000000   1.0000000   1.0000000   1.0000000   1.0000000   6.0000000

  Atom        21          22          23          24          25          26          27          28          29          30
 IAtWgt=          12           1           1           1           1          12          12           1           1           1
 AtmWgt=  12.0000000   1.0078250   1.0078250   1.0078250   1.0078250  12.0000000  12.0000000   1.0078250   1.0078250   1.0078250
 NucSpn=           0           1           1           1           1           0           0           1           1           1
 AtZEff=  -0.0000000  -0.0000000  -0.0000000  -0.0000000  -0.0000000  -0.0000000  -0.0000000  -0.0000000  -0.0000000  -0.0000000
 NQMom=    0.0000000   0.0000000   0.0000000   0.0000000   0.0000000   0.0000000   0.0000000   0.0000000   0.0000000   0.0000000
 NMagM=    0.0000000   2.7928460   2.7928460   2.7928460   2.7928460   0.0000000   0.0000000   2.7928460   2.7928460   2.7928460
 AtZNuc=   6.0000000   1.0000000   1.0000000   1.0000000   1.0000000   6.0000000   6.0000000   1.0000000   1.0000000   1.0000000

  Atom        31          32          33          34          35          36          37          38          39          40
 IAtWgt=          16          12          16          12           1           1           1          12           1           1
 AtmWgt=  15.9949146  12.0000000  15.9949146  12.0000000   1.0078250   1.0078250   1.0078250  12.0000000   1.0078250   1.0078250
 NucSpn=           0           0           0           0           1           1           1           0           1           1
 AtZEff=  -0.0000000  -0.0000000  -0.0000000  -0.0000000  -0.0000000  -0.0000000  -0.0000000  -0.0000000  -0.0000000  -0.0000000
 NQMom=    0.0000000   0.0000000   0.0000000   0.0000000   0.0000000   0.0000000   0.0000000   0.0000000   0.0000000   0.0000000
 NMagM=    0.0000000   0.0000000   0.0000000   0.0000000   2.7928460   2.7928460   2.7928460   0.0000000   2.7928460   2.7928460
 AtZNuc=   8.0000000   6.0000000   8.0000000   6.0000000   1.0000000   1.0000000   1.0000000   6.0000000   1.0000000   1.0000000

  Atom        41
 IAtWgt=           1
 AtmWgt=   1.0078250
 NucSpn=           1
 AtZEff=  -0.0000000
 NQMom=    0.0000000
 NMagM=    2.7928460
 AtZNuc=   1.0000000
 Leave Link  101 at Tue Jan 24 05:53:53 2023, MaxMem=   131072000 cpu:               1.0 elap:               0.1
 (Enter /dragofs/sw/campus/0.2/software/gaussian/16.gaussian/gaussian/g16_legacy/l103.exe)

 GradGradGradGradGradGradGradGradGradGradGradGradGradGradGradGradGradGrad
 Berny optimization.
 Initialization pass.
                           ----------------------------
                           !    Initial Parameters    !
                           ! (Angstroms and Degrees)  !
 --------------------------                            --------------------------
 ! Name  Definition              Value          Derivative Info.                !
 --------------------------------------------------------------------------------
 ! R1    R(1,2)                  1.1047         estimate D2E/DX2                !
 ! R2    R(1,30)                 2.4784         estimate D2E/DX2                !
 ! R3    R(1,40)                 2.3612         estimate D2E/DX2                !
 ! R4    R(2,3)                  1.4988         estimate D2E/DX2                !
 ! R5    R(2,4)                  1.1216         estimate D2E/DX2                !
 ! R6    R(2,5)                  1.1013         estimate D2E/DX2                !
 ! R7    R(3,6)                  1.0767         estimate D2E/DX2                !
 ! R8    R(3,7)                  1.1413         estimate D2E/DX2                !
 ! R9    R(3,8)                  1.4686         estimate D2E/DX2                !
 ! R10   R(8,9)                  1.4658         estimate D2E/DX2                !
 ! R11   R(8,10)                 1.0954         estimate D2E/DX2                !
 ! R12   R(8,13)                 1.411          estimate D2E/DX2                !
 ! R13   R(9,11)                 1.0841         estimate D2E/DX2                !
 ! R14   R(9,12)                 1.1002         estimate D2E/DX2                !
 ! R15   R(9,15)                 1.5078         estimate D2E/DX2                !
 ! R16   R(13,14)                0.9642         estimate D2E/DX2                !
 ! R17   R(15,16)                1.0723         estimate D2E/DX2                !
 ! R18   R(15,17)                1.0893         estimate D2E/DX2                !
 ! R19   R(15,18)                1.0654         estimate D2E/DX2                !
 ! R20   R(19,20)                1.1089         estimate D2E/DX2                !
 ! R21   R(20,21)                1.5664         estimate D2E/DX2                !
 ! R22   R(20,22)                1.091          estimate D2E/DX2                !
 ! R23   R(20,23)                1.0743         estimate D2E/DX2                !
 ! R24   R(21,24)                1.1208         estimate D2E/DX2                !
 ! R25   R(21,25)                1.0545         estimate D2E/DX2                !
 ! R26   R(21,26)                1.4771         estimate D2E/DX2                !
 ! R27   R(26,27)                1.48           estimate D2E/DX2                !
 ! R28   R(26,28)                1.1151         estimate D2E/DX2                !
 ! R29   R(26,31)                1.4343         estimate D2E/DX2                !
 ! R30   R(27,29)                1.139          estimate D2E/DX2                !
 ! R31   R(27,30)                1.172          estimate D2E/DX2                !
 ! R32   R(27,38)                1.5036         estimate D2E/DX2                !
 ! R33   R(31,32)                1.3339         estimate D2E/DX2                !
 ! R34   R(32,33)                1.2031         estimate D2E/DX2                !
 ! R35   R(32,34)                1.4775         estimate D2E/DX2                !
 ! R36   R(34,35)                1.1306         estimate D2E/DX2                !
 ! R37   R(34,36)                1.028          estimate D2E/DX2                !
 ! R38   R(34,37)                1.136          estimate D2E/DX2                !
 ! R39   R(38,39)                1.0352         estimate D2E/DX2                !
 ! R40   R(38,40)                1.1472         estimate D2E/DX2                !
 ! R41   R(38,41)                1.0902         estimate D2E/DX2                !
 ! A1    A(2,1,40)             115.0124         estimate D2E/DX2                !
 ! A2    A(30,1,40)             60.537          estimate D2E/DX2                !
 ! A3    A(1,2,3)              114.9082         estimate D2E/DX2                !
 ! A4    A(1,2,4)              107.2836         estimate D2E/DX2                !
 ! A5    A(1,2,5)               99.3194         estimate D2E/DX2                !
 ! A6    A(3,2,4)              111.1081         estimate D2E/DX2                !
 ! A7    A(3,2,5)              116.1567         estimate D2E/DX2                !
 ! A8    A(4,2,5)              107.0698         estimate D2E/DX2                !
 ! A9    A(2,3,6)              109.8811         estimate D2E/DX2                !
 ! A10   A(2,3,7)              106.5787         estimate D2E/DX2                !
 ! A11   A(2,3,8)              120.8931         estimate D2E/DX2                !
 ! A12   A(6,3,7)               96.328          estimate D2E/DX2                !
 ! A13   A(6,3,8)              113.7422         estimate D2E/DX2                !
 ! A14   A(7,3,8)              106.1155         estimate D2E/DX2                !
 ! A15   A(3,8,9)              111.4954         estimate D2E/DX2                !
 ! A16   A(3,8,10)             112.9806         estimate D2E/DX2                !
 ! A17   A(3,8,13)             104.099          estimate D2E/DX2                !
 ! A18   A(9,8,10)             104.8199         estimate D2E/DX2                !
 ! A19   A(9,8,13)             112.0735         estimate D2E/DX2                !
 ! A20   A(10,8,13)            111.5826         estimate D2E/DX2                !
 ! A21   A(8,9,11)             109.9651         estimate D2E/DX2                !
 ! A22   A(8,9,12)             107.2634         estimate D2E/DX2                !
 ! A23   A(8,9,15)             115.636          estimate D2E/DX2                !
 ! A24   A(11,9,12)            111.0736         estimate D2E/DX2                !
 ! A25   A(11,9,15)            108.3739         estimate D2E/DX2                !
 ! A26   A(12,9,15)            104.4093         estimate D2E/DX2                !
 ! A27   A(8,13,14)            109.1448         estimate D2E/DX2                !
 ! A28   A(9,15,16)            114.5375         estimate D2E/DX2                !
 ! A29   A(9,15,17)            109.5151         estimate D2E/DX2                !
 ! A30   A(9,15,18)            103.1337         estimate D2E/DX2                !
 ! A31   A(16,15,17)           107.4924         estimate D2E/DX2                !
 ! A32   A(16,15,18)           110.8447         estimate D2E/DX2                !
 ! A33   A(17,15,18)           111.3456         estimate D2E/DX2                !
 ! A34   A(19,20,21)           108.0287         estimate D2E/DX2                !
 ! A35   A(19,20,22)           102.9103         estimate D2E/DX2                !
 ! A36   A(19,20,23)           115.7199         estimate D2E/DX2                !
 ! A37   A(21,20,22)           114.0454         estimate D2E/DX2                !
 ! A38   A(21,20,23)           110.8102         estimate D2E/DX2                !
 ! A39   A(22,20,23)           105.2501         estimate D2E/DX2                !
 ! A40   A(20,21,24)           106.6401         estimate D2E/DX2                !
 ! A41   A(20,21,25)           107.1672         estimate D2E/DX2                !
 ! A42   A(20,21,26)           116.5793         estimate D2E/DX2                !
 ! A43   A(24,21,25)           105.5402         estimate D2E/DX2                !
 ! A44   A(24,21,26)           112.0426         estimate D2E/DX2                !
 ! A45   A(25,21,26)           108.2288         estimate D2E/DX2                !
 ! A46   A(21,26,27)           117.9954         estimate D2E/DX2                !
 ! A47   A(21,26,28)           107.5524         estimate D2E/DX2                !
 ! A48   A(21,26,31)           116.6156         estimate D2E/DX2                !
 ! A49   A(27,26,28)           104.084          estimate D2E/DX2                !
 ! A50   A(27,26,31)           105.6274         estimate D2E/DX2                !
 ! A51   A(28,26,31)           103.308          estimate D2E/DX2                !
 ! A52   A(26,27,29)           113.6648         estimate D2E/DX2                !
 ! A53   A(26,27,30)           102.3622         estimate D2E/DX2                !
 ! A54   A(26,27,38)           115.2054         estimate D2E/DX2                !
 ! A55   A(29,27,30)           109.681          estimate D2E/DX2                !
 ! A56   A(29,27,38)           110.2526         estimate D2E/DX2                !
 ! A57   A(30,27,38)           104.8894         estimate D2E/DX2                !
 ! A58   A(1,30,27)            121.7908         estimate D2E/DX2                !
 ! A59   A(26,31,32)           124.6277         estimate D2E/DX2                !
 ! A60   A(31,32,33)           120.8716         estimate D2E/DX2                !
 ! A61   A(31,32,34)           104.3194         estimate D2E/DX2                !
 ! A62   A(33,32,34)           132.9739         estimate D2E/DX2                !
 ! A63   A(32,34,35)           114.4327         estimate D2E/DX2                !
 ! A64   A(32,34,36)           108.0374         estimate D2E/DX2                !
 ! A65   A(32,34,37)           113.8782         estimate D2E/DX2                !
 ! A66   A(35,34,36)           108.7832         estimate D2E/DX2                !
 ! A67   A(35,34,37)           102.9004         estimate D2E/DX2                !
 ! A68   A(36,34,37)           108.5664         estimate D2E/DX2                !
 ! A69   A(27,38,39)           115.5004         estimate D2E/DX2                !
 ! A70   A(27,38,40)           111.9181         estimate D2E/DX2                !
 ! A71   A(27,38,41)           117.4253         estimate D2E/DX2                !
 ! A72   A(39,38,40)           102.7549         estimate D2E/DX2                !
 ! A73   A(39,38,41)           107.5275         estimate D2E/DX2                !
 ! A74   A(40,38,41)            99.6326         estimate D2E/DX2                !
 ! A75   A(1,40,38)            114.041          estimate D2E/DX2                !
 ! A76   L(2,1,30,40,-1)       175.5494         estimate D2E/DX2                !
 ! A77   L(2,1,30,40,-2)       193.1937         estimate D2E/DX2                !
 ! D1    D(40,1,2,3)          -137.6928         estimate D2E/DX2                !
 ! D2    D(40,1,2,4)           -13.6145         estimate D2E/DX2                !
 ! D3    D(40,1,2,5)            97.6448         estimate D2E/DX2                !
 ! D4    D(3,2,30,27)         -135.6308         estimate D2E/DX2                !
 ! D5    D(4,2,30,27)           -7.0158         estimate D2E/DX2                !
 ! D6    D(5,2,30,27)          101.2885         estimate D2E/DX2                !
 ! D7    D(40,1,30,27)           0.2345         estimate D2E/DX2                !
 ! D8    D(2,1,40,38)          160.4851         estimate D2E/DX2                !
 ! D9    D(30,1,40,38)         -32.7086         estimate D2E/DX2                !
 ! D10   D(1,2,3,6)            -74.7661         estimate D2E/DX2                !
 ! D11   D(1,2,3,7)           -178.06           estimate D2E/DX2                !
 ! D12   D(1,2,3,8)             60.901          estimate D2E/DX2                !
 ! D13   D(4,2,3,6)            163.2023         estimate D2E/DX2                !
 ! D14   D(4,2,3,7)             59.9083         estimate D2E/DX2                !
 ! D15   D(4,2,3,8)            -61.1307         estimate D2E/DX2                !
 ! D16   D(5,2,3,6)             40.5095         estimate D2E/DX2                !
 ! D17   D(5,2,3,7)            -62.7844         estimate D2E/DX2                !
 ! D18   D(5,2,3,8)            176.1766         estimate D2E/DX2                !
 ! D19   D(2,3,8,9)           -169.1951         estimate D2E/DX2                !
 ! D20   D(2,3,8,10)           -51.4456         estimate D2E/DX2                !
 ! D21   D(2,3,8,13)            69.7844         estimate D2E/DX2                !
 ! D22   D(6,3,8,9)            -35.0797         estimate D2E/DX2                !
 ! D23   D(6,3,8,10)            82.6699         estimate D2E/DX2                !
 ! D24   D(6,3,8,13)          -156.1002         estimate D2E/DX2                !
 ! D25   D(7,3,8,9)             69.5411         estimate D2E/DX2                !
 ! D26   D(7,3,8,10)          -172.7094         estimate D2E/DX2                !
 ! D27   D(7,3,8,13)           -51.4794         estimate D2E/DX2                !
 ! D28   D(3,8,9,11)            65.5772         estimate D2E/DX2                !
 ! D29   D(3,8,9,12)           -55.3201         estimate D2E/DX2                !
 ! D30   D(3,8,9,15)          -171.3074         estimate D2E/DX2                !
 ! D31   D(10,8,9,11)          -56.9867         estimate D2E/DX2                !
 ! D32   D(10,8,9,12)         -177.884          estimate D2E/DX2                !
 ! D33   D(10,8,9,15)           66.1286         estimate D2E/DX2                !
 ! D34   D(13,8,9,11)         -178.1774         estimate D2E/DX2                !
 ! D35   D(13,8,9,12)           60.9253         estimate D2E/DX2                !
 ! D36   D(13,8,9,15)          -55.0621         estimate D2E/DX2                !
 ! D37   D(3,8,13,14)         -146.7849         estimate D2E/DX2                !
 ! D38   D(9,8,13,14)           92.5817         estimate D2E/DX2                !
 ! D39   D(10,8,13,14)         -24.6272         estimate D2E/DX2                !
 ! D40   D(8,9,15,16)          -46.396          estimate D2E/DX2                !
 ! D41   D(8,9,15,17)         -167.2168         estimate D2E/DX2                !
 ! D42   D(8,9,15,18)           74.1472         estimate D2E/DX2                !
 ! D43   D(11,9,15,16)          77.5541         estimate D2E/DX2                !
 ! D44   D(11,9,15,17)         -43.2667         estimate D2E/DX2                !
 ! D45   D(11,9,15,18)        -161.9027         estimate D2E/DX2                !
 ! D46   D(12,9,15,16)        -163.987          estimate D2E/DX2                !
 ! D47   D(12,9,15,17)          75.1922         estimate D2E/DX2                !
 ! D48   D(12,9,15,18)         -43.4439         estimate D2E/DX2                !
 ! D49   D(19,20,21,24)        -77.1631         estimate D2E/DX2                !
 ! D50   D(19,20,21,25)        170.1936         estimate D2E/DX2                !
 ! D51   D(19,20,21,26)         48.818          estimate D2E/DX2                !
 ! D52   D(22,20,21,24)        169.102          estimate D2E/DX2                !
 ! D53   D(22,20,21,25)         56.4586         estimate D2E/DX2                !
 ! D54   D(22,20,21,26)        -64.917          estimate D2E/DX2                !
 ! D55   D(23,20,21,24)         50.5663         estimate D2E/DX2                !
 ! D56   D(23,20,21,25)        -62.0771         estimate D2E/DX2                !
 ! D57   D(23,20,21,26)        176.5473         estimate D2E/DX2                !
 ! D58   D(20,21,26,27)         61.5407         estimate D2E/DX2                !
 ! D59   D(20,21,26,28)        178.7473         estimate D2E/DX2                !
 ! D60   D(20,21,26,31)        -65.8776         estimate D2E/DX2                !
 ! D61   D(24,21,26,27)       -175.2279         estimate D2E/DX2                !
 ! D62   D(24,21,26,28)        -58.0214         estimate D2E/DX2                !
 ! D63   D(24,21,26,31)         57.3538         estimate D2E/DX2                !
 ! D64   D(25,21,26,27)        -59.2732         estimate D2E/DX2                !
 ! D65   D(25,21,26,28)         57.9334         estimate D2E/DX2                !
 ! D66   D(25,21,26,31)        173.3086         estimate D2E/DX2                !
 ! D67   D(21,26,27,29)        -67.4687         estimate D2E/DX2                !
 ! D68   D(21,26,27,30)        174.3358         estimate D2E/DX2                !
 ! D69   D(21,26,27,38)         61.1387         estimate D2E/DX2                !
 ! D70   D(28,26,27,29)        173.486          estimate D2E/DX2                !
 ! D71   D(28,26,27,30)         55.2905         estimate D2E/DX2                !
 ! D72   D(28,26,27,38)        -57.9066         estimate D2E/DX2                !
 ! D73   D(31,26,27,29)         65.0282         estimate D2E/DX2                !
 ! D74   D(31,26,27,30)        -53.1673         estimate D2E/DX2                !
 ! D75   D(31,26,27,38)       -166.3644         estimate D2E/DX2                !
 ! D76   D(21,26,31,32)       -113.6787         estimate D2E/DX2                !
 ! D77   D(27,26,31,32)        113.0573         estimate D2E/DX2                !
 ! D78   D(28,26,31,32)          4.0419         estimate D2E/DX2                !
 ! D79   D(26,27,30,1)         -98.0488         estimate D2E/DX2                !
 ! D80   D(29,27,30,1)         140.9671         estimate D2E/DX2                !
 ! D81   D(38,27,30,1)          22.5747         estimate D2E/DX2                !
 ! D82   D(26,27,38,39)        175.5246         estimate D2E/DX2                !
 ! D83   D(26,27,38,40)         58.4217         estimate D2E/DX2                !
 ! D84   D(26,27,38,41)        -55.9085         estimate D2E/DX2                !
 ! D85   D(29,27,38,39)        -54.1954         estimate D2E/DX2                !
 ! D86   D(29,27,38,40)       -171.2982         estimate D2E/DX2                !
 ! D87   D(29,27,38,41)         74.3716         estimate D2E/DX2                !
 ! D88   D(30,27,38,39)         63.8098         estimate D2E/DX2                !
 ! D89   D(30,27,38,40)        -53.293          estimate D2E/DX2                !
 ! D90   D(30,27,38,41)       -167.6232         estimate D2E/DX2                !
 ! D91   D(26,31,32,33)         24.3321         estimate D2E/DX2                !
 ! D92   D(26,31,32,34)       -169.1978         estimate D2E/DX2                !
 ! D93   D(31,32,34,35)       -145.215          estimate D2E/DX2                !
 ! D94   D(31,32,34,36)        -23.8908         estimate D2E/DX2                !
 ! D95   D(31,32,34,37)         96.7971         estimate D2E/DX2                !
 ! D96   D(33,32,34,35)         18.8557         estimate D2E/DX2                !
 ! D97   D(33,32,34,36)        140.1799         estimate D2E/DX2                !
 ! D98   D(33,32,34,37)        -99.1322         estimate D2E/DX2                !
 ! D99   D(27,38,40,1)          58.4167         estimate D2E/DX2                !
 ! D100  D(39,38,40,1)         -66.1164         estimate D2E/DX2                !
 ! D101  D(41,38,40,1)        -176.7027         estimate D2E/DX2                !
 --------------------------------------------------------------------------------
 Trust Radius=3.00D-01 FncErr=1.00D-07 GrdErr=1.00D-06 EigMax=2.50D+02 EigMin=1.00D-04
 Number of steps in this run=    229 maximum allowed number of steps=    246.
 GradGradGradGradGradGradGradGradGradGradGradGradGradGradGradGradGradGrad

 Leave Link  103 at Tue Jan 24 05:53:53 2023, MaxMem=   131072000 cpu:               0.1 elap:               0.0
 (Enter /dragofs/sw/campus/0.2/software/gaussian/16.gaussian/gaussian/g16_legacy/l202.exe)
                          Input orientation:                          
 ---------------------------------------------------------------------
 Center     Atomic      Atomic             Coordinates (Angstroms)
 Number     Number       Type             X           Y           Z
 ---------------------------------------------------------------------
      1          1           0       16.505000    9.636000   22.250000
      2          6           0       16.130000    9.739000   23.284000
      3          6           0       15.286000    8.598000   23.766000
      4          1           0       17.021000    9.891000   23.948000
      5          1           0       15.624000   10.713000   23.194000
      6          1           0       14.310000    8.648000   23.314000
      7          1           0       14.949000    8.866000   24.823000
      8          6           0       15.832000    7.237000   23.845000
      9          6           0       14.778000    6.249000   24.093000
     10          1           0       16.307000    6.912000   22.913000
     11          1           0       14.104000    6.206000   23.245000
     12          1           0       14.247000    6.560000   25.005000
     13          8           0       16.760000    7.300000   24.906000
     14          1           0       17.494000    6.703000   24.720000
     15          6           0       15.253000    4.850000   24.394000
     16          1           0       16.014000    4.486000   23.732000
     17          1           0       14.412000    4.160000   24.337000
     18          1           0       15.623000    4.929000   25.390000
     19          1           0       19.873000   12.081000   17.245000
     20          6           0       20.518000   12.125000   18.146000
     21          6           0       19.615000   12.496000   19.371000
     22          1           0       20.940000   11.120000   18.193000
     23          1           0       21.364000   12.784000   18.082000
     24          1           0       19.417000   13.597000   19.302000
     25          1           0       20.200000   12.368000   20.239000
     26          6           0       18.370000   11.718000   19.534000
     27          6           0       18.486000   10.258000   19.747000
     28          1           0       17.861000   12.087000   20.455000
     29          1           0       18.884000    9.694000   18.841000
     30          1           0       17.375000    9.945000   19.950000
     31          8           0       17.372000   11.882000   18.517000
     32          6           0       16.177000   12.442000   18.711000
     33          8           0       16.000000   13.224000   19.608000
     34          6           0       15.428000   12.143000   17.473000
     35          1           0       14.714000   12.958000   17.150000
     36          1           0       16.109000   11.982000   16.720000
     37          1           0       14.754000   11.232000   17.552000
     38          6           0       19.235000    9.849000   20.985000
     39          1           0       19.257000    8.832000   21.177000
     40          1           0       18.756000   10.276000   21.936000
     41          1           0       20.250000   10.228000   21.106000
 ---------------------------------------------------------------------
                    Distance matrix (angstroms):
                    1          2          3          4          5
     1  H    0.000000
     2  C    1.104713   0.000000
     3  C    2.204917   1.498847   0.000000
     4  H    1.792898   1.121553   2.171451   0.000000
     5  H    1.681436   1.101277   2.216902   1.787683   0.000000
     6  H    2.631780   2.122164   1.076745   3.049020   2.450555
     7  H    3.103927   2.127301   1.141333   2.471727   2.553561
     8  C    2.958404   2.581381   1.468563   2.909991   3.542547
     9  C    4.225038   3.829162   2.425447   4.279747   4.631545
    10  H    2.810507   2.856729   2.147707   3.233491   3.872086
    11  H    4.303455   4.072872   2.718498   4.752086   4.756685
    12  H    4.706417   4.075975   2.601555   4.461825   4.735320
    13  O    3.546302   2.996082   2.270921   2.774737   3.983718
    14  H    3.959989   3.624898   3.062092   3.314070   4.680350
    15  C    5.391664   5.089553   3.800392   5.360636   5.996033
    16  H    5.381441   5.273345   4.176085   5.502248   6.262354
    17  H    6.222764   5.931743   4.559140   6.308927   6.761450
    18  H    5.726550   5.275262   4.026476   5.353056   6.186847
    19  H    6.509337   7.480945   8.700305   7.606590   7.437474
    20  C    6.256365   7.165653   8.449731   7.133230   7.171282
    21  C    5.112763   5.920966   7.297306   5.870587   5.807108
    22  H    6.191182   7.138735   8.329858   7.070292   7.309959
    23  H    7.133864   7.982956   9.315178   7.851182   7.960476
    24  H    5.732362   6.445530   7.872894   6.407852   6.152395
    25  H    5.016071   5.722636   7.127414   5.477066   5.693051
    26  C    3.897384   4.795471   6.095513   4.963983   4.684671
    27  C    3.252115   4.281409   5.398885   4.464226   4.503319
    28  H    3.326885   4.063583   5.455865   4.210590   3.793964
    29  H    4.157437   5.227503   6.196971   5.439764   5.533043
    30  H    2.478383   3.564831   4.554139   4.014005   3.765549
    31  O    4.442015   5.372085   6.533609   5.795088   5.128001
    32  C    4.528327   5.312320   6.412741   5.886094   4.836583
    33  O    4.484298   5.067060   6.260881   5.566591   4.393847
    34  C    5.501337   6.327696   7.224198   7.038095   5.900268
    35  H    6.344554   7.070571   7.944069   7.806506   6.511379
    36  H    6.020086   6.936684   7.859701   7.579446   6.615003
    37  H    5.261599   6.080974   6.770139   6.917108   5.732227
    38  C    3.016371   3.865039   4.989345   3.699044   4.320359
    39  H    3.061250   3.878173   4.746211   3.714784   4.561265
    40  H    2.361186   3.000225   4.266788   2.684510   3.403374
    41  H    3.960331   4.685852   5.862917   4.314739   5.098514
                    6          7          8          9         10
     6  H    0.000000
     7  H    1.653156   0.000000
     8  C    2.142281   2.095188   0.000000
     9  C    2.565359   2.722284   1.465798   0.000000
    10  H    2.676286   3.051292   1.095388   2.042011   0.000000
    11  H    2.451645   3.206199   2.099749   1.084080   2.337064
    12  H    2.687600   2.417346   2.077536   1.100194   2.957020
    13  O    3.217774   2.395614   1.410983   2.386188   2.080337
    14  H    3.987194   3.341587   1.952697   2.824164   2.172073
    15  C    4.059612   4.050273   2.516826   1.507789   2.748840
    16  H    4.516701   4.637770   2.759329   2.183160   2.577224
    17  H    4.604246   4.761407   3.424382   2.134810   3.632121
    18  H    4.456984   4.034320   2.785241   2.034363   3.245870
    19  H    8.919934   9.592084   9.129842  10.337618   8.459382
    20  C    8.794147   9.285320   8.850409  10.141094   8.223879
    21  C    7.648358   8.041938   7.873046   9.204285   7.393895
    22  H    8.734548   9.215720   8.550699   9.823792   7.839028
    23  H    9.707690  10.096734   9.725451  11.055032   9.131933
    24  H    8.165182   8.533863   8.598876   9.923059   8.209790
    25  H    7.614862   7.800645   7.642632   9.038449   7.216208
    26  C    6.340103   6.914526   6.716065   7.974767   6.226656
    27  C    5.723160   6.341436   5.741408   6.979188   5.095813
    28  H    5.710534   6.159059   6.255513   7.538049   5.936102
    29  H    6.482540   7.207922   6.355436   7.504050   5.564318
    30  H    4.732117   5.549401   4.988501   6.129378   4.372537
    31  O    6.545671   7.398163   7.234308   8.339742   6.720115
    32  C    6.250419   7.186954   7.319085   8.323243   6.946553
    33  O    6.126199   6.876990   7.336522   8.382072   7.131523
    34  C    6.897987   8.061679   8.051983   8.887414   7.598000
    35  H    7.532212   8.699116   8.877094   9.655052   8.503172
    36  H    7.604788   8.758634   8.564892   9.433980   8.006082
    37  H    6.330469   7.648753   7.531531   8.222867   7.057941
    38  C    5.578733   5.836637   5.155827   6.518014   4.573438
    39  H    5.391979   5.643876   4.625243   5.936024   3.924614
    40  H    4.931144   4.981578   4.629209   6.057546   4.274181
    41  H    6.531100   6.616021   5.997243   7.395769   5.459703
                   11         12         13         14         15
    11  H    0.000000
    12  H    1.800934   0.000000
    13  O    3.318146   2.621559   0.000000
    14  H    3.730246   3.262619   0.964241   0.000000
    15  C    2.116397   2.075923   2.921591   2.926084   0.000000
    16  H    2.616041   3.007373   3.139011   2.842821   1.072316
    17  H    2.339539   2.496688   3.961876   4.014008   1.089325
    18  H    2.922176   2.168355   2.673699   2.663948   1.065437
    19  H   10.188081  11.061235   9.551945   9.510949  11.168705
    20  C   10.108104  10.832384   9.115963   9.042131  10.939989
    21  C    9.216458   9.787414   8.110836   8.165127  10.135033
    22  H    9.818401  10.582684   8.782321   8.601543  10.493201
    23  H   11.074035  11.718268   9.891312   9.798903  11.837822
    24  H    9.919783  10.429404   8.838364   8.976630  10.944285
    25  H    9.174284   9.585710   7.700592   7.713237   9.912475
    26  C    7.896355   8.575310   7.139272   7.267200   8.972442
    27  C    6.917849   7.700058   6.192263   6.192965   7.829008
    28  H    7.515671   8.019428   6.628648   6.878399   8.642428
    29  H    7.376297   8.325781   6.857612   6.740981   8.214883
    30  H    5.961257   6.840733   5.651211   5.768676   7.085975
    31  O    8.077796   8.954521   7.885974   8.081716   9.406291
    32  C    7.983870   8.828208   8.072055   8.413007   9.528312
    33  O    8.128647   8.752686   7.983745   8.419502   9.674073
    34  C    8.385519   9.449639   8.970973   9.294136  10.055780
    35  H    9.116503  10.141672   9.816039  10.205799  10.886033
    36  H    8.941914  10.075036   9.452805   9.684321  10.511348
    37  H    7.621904   8.810893   8.577061   8.910649   9.369733
    38  C    6.686270   7.201254   5.291244   5.184460   7.243453
    39  H    6.142142   6.701915   4.742096   4.493736   6.499033
    40  H    6.318187   6.599886   4.654191   4.702088   6.910445
    41  H    7.650171   8.043161   5.932393   5.751709   8.043870
                   16         17         18         19         20
    16  H    0.000000
    17  H    1.743188   0.000000
    18  H    1.760140   1.779520   0.000000
    19  H   10.707804  11.952457  11.642793   0.000000
    20  C   10.480636  11.792071  11.323382   1.108946   0.000000
    21  C    9.805387  11.010053  10.460589   2.181436   1.566421
    22  H    9.947661  11.349234  10.880982   1.720673   1.091017
    23  H   11.375491  12.721191  12.168277   1.848745   1.074287
    24  H   10.687171  11.809243  11.251329   2.595658   2.171479
    25  H    9.583818  10.847387  10.140042   3.025448   2.130920
    26  C    8.687679   9.790707   9.377061   2.762300   2.589613
    27  C    7.436867   8.651658   8.272754   3.392212   3.190284
    28  H    8.480881   9.476437   8.977741   3.788440   3.520309
    29  H    7.699483   8.990548   8.730908   3.036957   3.010439
    30  H    6.779124   7.841643   7.604167   4.256704   4.229097
    31  O    9.151022  10.112531   9.931835   2.812932   3.177107
    32  C    9.409301  10.166544  10.067826   3.992480   4.389077
    33  O    9.662309  10.346076  10.118334   4.678712   4.874174
    34  C    9.906974  10.577100  10.712549   4.451275   5.134331
    35  H   10.806827  11.364373  11.540742   5.233874   5.947463
    36  H   10.264852  11.049081  11.187042   3.801726   4.636077
    37  H    9.235178   9.806445  10.095406   5.198001   5.862933
    38  C    6.832468   8.176916   7.527082   4.401871   3.858262
    39  H    5.994397   7.435537   6.796229   5.137712   4.649831
    40  H    6.653441   7.876585   7.094802   5.148902   4.570289
    41  H    7.603298   9.018993   8.236576   4.299193   3.525909
                   21         22         23         24         25
    21  C    0.000000
    22  H    2.244256   0.000000
    23  H    2.191681   1.720754   0.000000
    24  H    1.120788   3.112063   2.437248   0.000000
    25  H    1.054530   2.508230   2.486081   1.732483   0.000000
    26  C    1.477118   2.959862   3.494094   2.163487   2.066017
    27  C    2.534691   3.029864   4.175618   3.494811   2.762600
    28  H    2.102107   3.941063   4.288117   2.455737   2.365700
    29  H    2.943886   2.584669   4.034177   3.966109   3.291889
    30  H    3.443899   4.144502   5.240369   4.234002   3.732971
    31  O    2.477370   3.662819   4.115689   2.781991   3.346500
    32  C    3.501194   4.970128   5.236179   3.490115   4.304043
    33  O    3.695183   5.552715   5.594173   3.450892   4.332539
    34  C    4.610638   5.652174   6.001488   4.622930   5.520269
    35  H    5.400563   6.574889   6.717246   5.211299   6.323466
    36  H    4.425385   5.123606   5.487556   4.496422   5.410050
    37  H    5.341889   6.220130   6.810411   5.513555   6.178137
    38  C    3.123460   3.509662   4.644812   4.112556   2.798768
    39  H    4.100573   4.119671   5.443967   5.123129   3.777882
    40  H    3.499358   4.415002   5.286307   4.289979   3.056372
    41  H    2.925282   3.123673   4.113236   3.911325   2.309500
                   26         27         28         29         30
    26  C    0.000000
    27  C    1.480008   0.000000
    28  H    1.115116   2.058429   0.000000
    29  H    2.200232   1.139007   3.062348   0.000000
    30  H    2.075237   1.171964   2.253749   1.889435   0.000000
    31  O    1.434290   2.321911   2.009226   2.679266   2.409454
    32  C    2.451684   3.342848   2.450187   3.859566   3.034029
    33  O    2.808988   3.872554   2.339551   4.622407   3.572034
    34  C    3.617141   4.251549   3.849019   4.451175   3.841555
    35  H    4.537333   5.316239   4.645996   5.558964   4.898887
    36  H    3.619449   4.217231   4.126833   4.175429   4.023062
    37  H    4.152105   4.437851   4.337267   4.591717   3.778414
    38  C    2.519283   1.503638   2.679071   2.178064   2.130737
    39  H    3.437327   2.161670   3.614571   2.517751   2.507234
    40  H    2.828067   2.205662   2.504817   3.151846   2.441499
    41  H    2.868045   2.226988   3.096289   2.698395   3.111599
                   31         32         33         34         35
    31  O    0.000000
    32  C    1.333889   0.000000
    33  O    2.207630   1.203105   0.000000
    34  C    2.221980   1.477513   2.460482   0.000000
    35  H    3.176701   2.200760   2.786811   1.130641   0.000000
    36  H    2.198722   2.044579   3.145630   1.027955   1.755990
    37  H    2.864899   2.198252   3.122133   1.135974   1.772648
    38  C    3.700660   4.609348   4.873600   5.664789   6.694217
    39  H    4.464451   5.347865   5.688539   6.272446   7.340263
    40  H    4.022966   4.662984   4.658951   5.871937   6.814447
    41  H    4.209694   5.217964   5.411333   6.333845   7.331448
                   36         37         38         39         40
    36  H    0.000000
    37  H    1.758053   0.000000
    38  C    5.701911   5.811845   0.000000
    39  H    6.300576   6.259204   1.035199   0.000000
    40  H    6.092922   6.012437   1.147245   1.706522   0.000000
    41  H    6.281830   6.621552   1.090187   1.714615   1.709749
                   41
    41  H    0.000000
 Stoichiometry    C12H26O3
 Framework group  C1[X(C12H26O3)]
 Deg. of freedom   117
 Full point group                 C1      NOp   1
 Largest Abelian subgroup         C1      NOp   1
 Largest concise Abelian subgroup C1      NOp   1
                         Standard orientation:                         
 ---------------------------------------------------------------------
 Center     Atomic      Atomic             Coordinates (Angstroms)
 Number     Number       Type             X           Y           Z
 ---------------------------------------------------------------------
      1          1           0       -1.113719    0.218357    0.559091
      2          6           0       -1.859464    0.396883    1.354315
      3          6           0       -3.203663    0.848928    0.869211
      4          1           0       -1.942641   -0.548800    1.951514
      5          1           0       -1.296941    1.118119    1.967665
      6          1           0       -3.154624    1.879971    0.562738
      7          1           0       -3.843139    1.024108    1.798203
      8          6           0       -4.006038    0.003932   -0.024575
      9          6           0       -5.151456    0.736866   -0.571740
     10          1           0       -3.448466   -0.340323   -0.902342
     11          1           0       -4.805365    1.536290   -1.217008
     12          1           0       -5.721550    1.135291    0.280713
     13          8           0       -4.407586   -1.075017    0.791209
     14          1           0       -4.461833   -1.874211    0.254452
     15          6           0       -6.151375   -0.092507   -1.337069
     16          1           0       -5.717963   -0.771362   -2.045003
     17          1           0       -6.826218    0.564550   -1.884330
     18          1           0       -6.664764   -0.622737   -0.568665
     19          1           0        4.932119   -1.459795   -1.173861
     20          6           0        4.542015   -2.241709   -0.491080
     21          6           0        3.688250   -1.536103    0.616567
     22          1           0        3.962845   -2.881410   -1.158660
     23          1           0        5.279813   -2.886857   -0.051159
     24          1           0        4.413621   -1.084028    1.341571
     25          1           0        3.187408   -2.293311    1.153061
     26          6           0        2.684221   -0.556674    0.153401
     27          6           0        1.595966   -1.040136   -0.725455
     28          1           0        2.153443   -0.167850    1.053720
     29          1           0        1.952737   -1.370218   -1.755551
     30          1           0        0.916331   -0.090946   -0.828573
     31          8           0        3.187035    0.631910   -0.472407
     32          6           0        3.073305    1.860959    0.033325
     33          8           0        2.934741    2.031393    1.216209
     34          6           0        3.490513    2.750301   -1.070330
     35          1           0        4.042703    3.679576   -0.738843
     36          1           0        4.097869    2.211630   -1.700920
     37          1           0        2.625082    3.171273   -1.673861
     38          6           0        0.704415   -2.090020   -0.122290
     39          1           0       -0.100858   -2.379236   -0.704979
     40          1           0        0.201072   -1.722543    0.840922
     41          1           0        1.179394   -2.996139    0.254339
 ---------------------------------------------------------------------
 Rotational constants (GHZ):           0.7794593           0.1635442           0.1480174
 Leave Link  202 at Tue Jan 24 05:53:53 2023, MaxMem=   131072000 cpu:               0.0 elap:               0.0
 (Enter /dragofs/sw/campus/0.2/software/gaussian/16.gaussian/gaussian/g16_legacy/l301.exe)
 Standard basis: 6-31G(d,p) (6D, 7F)
 Ernie: Thresh=  0.10000D-02 Tol=  0.10000D-05 Strict=F.
 There are   355 symmetry adapted cartesian basis functions of A   symmetry.
 There are   355 symmetry adapted basis functions of A   symmetry.
   355 basis functions,   602 primitive gaussians,   355 cartesian basis functions
    61 alpha electrons       61 beta electrons
       nuclear repulsion energy      1020.2026871455 Hartrees.
 IExCor=  402 DFT=T Ex=B Corr=LYP ExCW=0 ScaHFX=  0.000000
 ScaDFX=  1.000000  1.000000  1.000000  1.000000 ScalE2=  1.000000  1.000000
 IRadAn=      5 IRanWt=     -1 IRanGd=            0 ICorTp=0 IEmpDi=131
 NAtoms=   41 NActive=   41 NUniq=   41 SFac= 1.00D+00 NAtFMM=   60 NAOKFM=F Big=F
 Integral buffers will be    131072 words long.
 Raffenetti 2 integral format.
 Two-electron integral symmetry is turned on.
 R6Disp:  Grimme-D3 Dispersion energy=       -0.0419003289 Hartrees.
 Nuclear repulsion after empirical dispersion term =     1020.1607868165 Hartrees.
 Leave Link  301 at Tue Jan 24 05:53:53 2023, MaxMem=   131072000 cpu:               0.4 elap:               0.1
 (Enter /dragofs/sw/campus/0.2/software/gaussian/16.gaussian/gaussian/g16_legacy/l302.exe)
 NPDir=0 NMtPBC=     1 NCelOv=     1 NCel=       1 NClECP=     1 NCelD=      1
         NCelK=      1 NCelE2=     1 NClLst=     1 CellRange=     0.0.
 One-electron integrals computed using PRISM.
 One-electron integral symmetry used in STVInt
 NBasis=   355 RedAO= T EigKep=  2.49D-03  NBF=   355
 NBsUse=   355 1.00D-06 EigRej= -1.00D+00 NBFU=   355
 Precomputing XC quadrature grid using
 IXCGrd= 4 IRadAn=           5 IRanWt=          -1 IRanGd=           0 AccXCQ= 0.00D+00.
 Generated NRdTot=       0 NPtTot=           0 NUsed=           0 NTot=          32
 NSgBfM=   350   350   350   350   350 MxSgAt=    41 MxSgA2=    41.
 Leave Link  302 at Tue Jan 24 05:53:54 2023, MaxMem=   131072000 cpu:               3.8 elap:               0.5
 (Enter /dragofs/sw/campus/0.2/software/gaussian/16.gaussian/gaussian/g16_legacy/l303.exe)
 DipDrv:  MaxL=1.
 Leave Link  303 at Tue Jan 24 05:53:54 2023, MaxMem=   131072000 cpu:               0.3 elap:               0.1
 (Enter /dragofs/sw/campus/0.2/software/gaussian/16.gaussian/gaussian/g16_legacy/l401.exe)
 ExpMin= 1.61D-01 ExpMax= 5.48D+03 ExpMxC= 8.25D+02 IAcc=3 IRadAn=         5 AccDes= 0.00D+00
 Harris functional with IExCor=  402 and IRadAn=       5 diagonalized for initial guess.
 HarFok:  IExCor=  402 AccDes= 0.00D+00 IRadAn=         5 IDoV= 1 UseB2=F ITyADJ=14
 ICtDFT=  3500011 ScaDFX=  1.000000  1.000000  1.000000  1.000000
 FoFCou: FMM=F IPFlag=           0 FMFlag=      100000 FMFlg1=           0
         NFxFlg=           0 DoJE=T BraDBF=F KetDBF=T FulRan=T
         wScrn=  0.000000 ICntrl=       500 IOpCl=  0 I1Cent=   200000004 NGrid=           0
         NMat0=    1 NMatS0=      1 NMatT0=    0 NMatD0=    1 NMtDS0=    0 NMtDT0=    0
 Petite list used in FoFCou.
 Harris En= -698.808626251864    
 JPrj=0 DoOrth=F DoCkMO=F.
 Leave Link  401 at Tue Jan 24 05:53:56 2023, MaxMem=   131072000 cpu:              17.5 elap:               2.2
 (Enter /dragofs/sw/campus/0.2/software/gaussian/16.gaussian/gaussian/g16_legacy/l502.exe)
 Integral symmetry usage will be decided dynamically.
 Closed shell SCF:
 Using DIIS extrapolation, IDIIS=  1040.
 NGot=   131072000 LenX=   130813044 LenY=   130686578
 Requested convergence on RMS density matrix=1.00D-08 within 128 cycles.
 Requested convergence on MAX density matrix=1.00D-06.
 Requested convergence on             energy=1.00D-06.
 No special actions if energy rises.
 Fock matrices will be formed incrementally for  20 cycles.
 Integral accuracy reduced to 1.0D-05 until final iterations.

 Cycle   1  Pass 0  IDiag  1:
 FoFJK:  IHMeth= 1 ICntrl=     500 DoSepK=F KAlg= 0 I1Cent=           0 FoldK=F
 IRaf= 690000000 NMat=       1 IRICut=       1 DoRegI=T DoRafI=F ISym2E= 0 IDoP0=0 IntGTp=1.
 FoFCou: FMM=F IPFlag=           0 FMFlag=      100000 FMFlg1=           0
         NFxFlg=           0 DoJE=T BraDBF=F KetDBF=F FulRan=T
         wScrn=  0.000000 ICntrl=       500 IOpCl=  0 I1Cent=           0 NGrid=           0
         NMat0=    1 NMatS0=      1 NMatT0=    0 NMatD0=    1 NMtDS0=    0 NMtDT0=    0
 Symmetry not used in FoFCou.
 E= -697.672208887785    
 DIIS: error= 2.52D-02 at cycle   1 NSaved=   1.
 NSaved= 1 IEnMin= 1 EnMin= -697.672208887785     IErMin= 1 ErrMin= 2.52D-02
 ErrMax= 2.52D-02  0.00D+00 EMaxC= 1.00D-01 BMatC= 5.87D-01 BMatP= 5.87D-01
 IDIUse=3 WtCom= 7.48D-01 WtEn= 2.52D-01
 Coeff-Com:  0.100D+01
 Coeff-En:   0.100D+01
 Coeff:      0.100D+01
 Gap=     0.100 Goal=   None    Shift=    0.000
 GapD=    0.100 DampG=0.500 DampE=0.500 DampFc=0.2500 IDamp=-1.
 Damping current iteration by 2.50D-01
 RMSDP=6.16D-03 MaxDP=2.43D-01              OVMax= 2.36D-01

 Cycle   2  Pass 0  IDiag  1:
 RMSU=  1.53D-03    CP:  9.89D-01
 E= -697.896008079911     Delta-E=       -0.223799192126 Rises=F Damp=T
 DIIS: error= 1.12D-02 at cycle   2 NSaved=   2.
 NSaved= 2 IEnMin= 2 EnMin= -697.896008079911     IErMin= 2 ErrMin= 1.12D-02
 ErrMax= 1.12D-02  0.00D+00 EMaxC= 1.00D-01 BMatC= 8.51D-02 BMatP= 5.87D-01
 IDIUse=3 WtCom= 8.88D-01 WtEn= 1.12D-01
 Coeff-Com: -0.464D+00 0.146D+01
 Coeff-En:   0.000D+00 0.100D+01
 Coeff:     -0.412D+00 0.141D+01
 Gap=     0.168 Goal=   None    Shift=    0.000
 RMSDP=1.49D-03 MaxDP=6.15D-02 DE=-2.24D-01 OVMax= 1.98D-01

 Cycle   3  Pass 0  IDiag  1:
 RMSU=  1.30D-03    CP:  9.79D-01  1.47D+00
 E= -698.191530188852     Delta-E=       -0.295522108941 Rises=F Damp=F
 DIIS: error= 1.92D-02 at cycle   3 NSaved=   3.
 NSaved= 3 IEnMin= 3 EnMin= -698.191530188852     IErMin= 2 ErrMin= 1.12D-02
 ErrMax= 1.92D-02  0.00D+00 EMaxC= 1.00D-01 BMatC= 1.04D-01 BMatP= 8.51D-02
 IDIUse=2 WtCom= 0.00D+00 WtEn= 1.00D+00
 Coeff-En:   0.000D+00 0.000D+00 0.100D+01
 Coeff:      0.000D+00 0.000D+00 0.100D+01
 Gap=     0.246 Goal=   None    Shift=    0.000
 RMSDP=3.26D-03 MaxDP=2.61D-01 DE=-2.96D-01 OVMax= 4.21D-01

 Cycle   4  Pass 0  IDiag  1:
 RMSU=  1.86D-03    CP:  9.87D-01  1.74D+00 -1.03D+00
 E= -697.388050416344     Delta-E=        0.803479772507 Rises=F Damp=F
 DIIS: error= 5.96D-02 at cycle   4 NSaved=   4.
 NSaved= 4 IEnMin= 3 EnMin= -698.191530188852     IErMin= 2 ErrMin= 1.12D-02
 ErrMax= 5.96D-02  0.00D+00 EMaxC= 1.00D-01 BMatC= 1.08D+00 BMatP= 8.51D-02
 IDIUse=2 WtCom= 0.00D+00 WtEn= 1.00D+00
 Coeff-En:   0.000D+00 0.000D+00 0.849D+00 0.151D+00
 Coeff:      0.000D+00 0.000D+00 0.849D+00 0.151D+00
 Gap=     0.150 Goal=   None    Shift=    0.000
 RMSDP=1.88D-03 MaxDP=1.30D-01 DE= 8.03D-01 OVMax= 2.55D-01

 Cycle   5  Pass 0  IDiag  1:
 RMSU=  4.21D-04    CP:  9.85D-01  1.43D+00 -2.50D-02  3.61D-01
 E= -698.186973079811     Delta-E=       -0.798922663467 Rises=F Damp=F
 DIIS: error= 2.03D-02 at cycle   5 NSaved=   5.
 NSaved= 5 IEnMin= 3 EnMin= -698.191530188852     IErMin= 2 ErrMin= 1.12D-02
 ErrMax= 2.03D-02  0.00D+00 EMaxC= 1.00D-01 BMatC= 1.15D-01 BMatP= 8.51D-02
 IDIUse=2 WtCom= 0.00D+00 WtEn= 1.00D+00
 Coeff-En:   0.000D+00 0.000D+00 0.509D+00 0.000D+00 0.491D+00
 Coeff:      0.000D+00 0.000D+00 0.509D+00 0.000D+00 0.491D+00
 Gap=     0.191 Goal=   None    Shift=    0.000
 RMSDP=8.04D-04 MaxDP=6.89D-02 DE=-7.99D-01 OVMax= 1.14D-01

 Cycle   6  Pass 0  IDiag  1:
 RMSU=  1.10D-04    CP:  9.83D-01  1.41D+00  4.82D-01  1.40D-01  6.10D-01
 E= -698.278929828089     Delta-E=       -0.091956748277 Rises=F Damp=F
 DIIS: error= 1.49D-03 at cycle   6 NSaved=   6.
 NSaved= 6 IEnMin= 6 EnMin= -698.278929828089     IErMin= 6 ErrMin= 1.49D-03
 ErrMax= 1.49D-03  0.00D+00 EMaxC= 1.00D-01 BMatC= 6.96D-04 BMatP= 8.51D-02
 IDIUse=3 WtCom= 9.85D-01 WtEn= 1.49D-02
 Coeff-Com: -0.209D-01 0.356D-01 0.209D+00-0.370D-01 0.315D+00 0.498D+00
 Coeff-En:   0.000D+00 0.000D+00 0.000D+00 0.000D+00 0.000D+00 0.100D+01
 Coeff:     -0.206D-01 0.351D-01 0.206D+00-0.365D-01 0.310D+00 0.505D+00
 Gap=     0.194 Goal=   None    Shift=    0.000
 RMSDP=1.01D-04 MaxDP=7.28D-03 DE=-9.20D-02 OVMax= 1.33D-02

 Cycle   7  Pass 0  IDiag  1:
 RMSU=  5.61D-05    CP:  9.82D-01  1.43D+00  4.63D-01  1.66D-01  6.35D-01
                    CP:  5.17D-01
 E= -698.279284058147     Delta-E=       -0.000354230058 Rises=F Damp=F
 DIIS: error= 1.01D-03 at cycle   7 NSaved=   7.
 NSaved= 7 IEnMin= 7 EnMin= -698.279284058147     IErMin= 7 ErrMin= 1.01D-03
 ErrMax= 1.01D-03  0.00D+00 EMaxC= 1.00D-01 BMatC= 2.78D-04 BMatP= 6.96D-04
 IDIUse=3 WtCom= 9.90D-01 WtEn= 1.01D-02
 Coeff-Com: -0.942D-02 0.136D-01 0.851D-01-0.199D-01 0.134D+00 0.346D+00
 Coeff-Com:  0.451D+00
 Coeff-En:   0.000D+00 0.000D+00 0.000D+00 0.000D+00 0.000D+00 0.310D+00
 Coeff-En:   0.690D+00
 Coeff:     -0.932D-02 0.135D-01 0.842D-01-0.197D-01 0.132D+00 0.346D+00
 Coeff:      0.453D+00
 Gap=     0.192 Goal=   None    Shift=    0.000
 RMSDP=4.35D-05 MaxDP=2.25D-03 DE=-3.54D-04 OVMax= 4.46D-03

 Cycle   8  Pass 0  IDiag  1:
 RMSU=  1.81D-05    CP:  9.82D-01  1.43D+00  4.70D-01  1.57D-01  6.41D-01
                    CP:  5.97D-01  4.18D-01
 E= -698.279491770221     Delta-E=       -0.000207712074 Rises=F Damp=F
 DIIS: error= 2.48D-04 at cycle   8 NSaved=   8.
 NSaved= 8 IEnMin= 8 EnMin= -698.279491770221     IErMin= 8 ErrMin= 2.48D-04
 ErrMax= 2.48D-04  0.00D+00 EMaxC= 1.00D-01 BMatC= 2.53D-05 BMatP= 2.78D-04
 IDIUse=3 WtCom= 9.98D-01 WtEn= 2.48D-03
 Coeff-Com:  0.107D-02-0.315D-02 0.122D-01-0.203D-02 0.937D-02 0.135D+00
 Coeff-Com:  0.232D+00 0.615D+00
 Coeff-En:   0.000D+00 0.000D+00 0.000D+00 0.000D+00 0.000D+00 0.000D+00
 Coeff-En:   0.000D+00 0.100D+01
 Coeff:      0.107D-02-0.314D-02 0.122D-01-0.203D-02 0.935D-02 0.135D+00
 Coeff:      0.231D+00 0.616D+00
 Gap=     0.192 Goal=   None    Shift=    0.000
 RMSDP=1.37D-05 MaxDP=8.49D-04 DE=-2.08D-04 OVMax= 1.03D-03

 Cycle   9  Pass 0  IDiag  1:
 RMSU=  4.85D-06    CP:  9.82D-01  1.43D+00  4.75D-01  1.55D-01  6.32D-01
                    CP:  6.24D-01  4.75D-01  5.54D-01
 E= -698.279510292241     Delta-E=       -0.000018522021 Rises=F Damp=F
 DIIS: error= 3.79D-05 at cycle   9 NSaved=   9.
 NSaved= 9 IEnMin= 9 EnMin= -698.279510292241     IErMin= 9 ErrMin= 3.79D-05
 ErrMax= 3.79D-05  0.00D+00 EMaxC= 1.00D-01 BMatC= 1.16D-06 BMatP= 2.53D-05
 IDIUse=1 WtCom= 1.00D+00 WtEn= 0.00D+00
 Coeff-Com:  0.106D-02-0.221D-02 0.386D-02-0.313D-03-0.571D-03 0.635D-01
 Coeff-Com:  0.114D+00 0.364D+00 0.456D+00
 Coeff:      0.106D-02-0.221D-02 0.386D-02-0.313D-03-0.571D-03 0.635D-01
 Coeff:      0.114D+00 0.364D+00 0.456D+00
 Gap=     0.192 Goal=   None    Shift=    0.000
 RMSDP=3.07D-06 MaxDP=1.24D-04 DE=-1.85D-05 OVMax= 1.31D-04

 Initial convergence to 1.0D-05 achieved.  Increase integral accuracy.
 Cycle  10  Pass 1  IDiag  1:
 E= -698.279528626619     Delta-E=       -0.000018334377 Rises=F Damp=F
 DIIS: error= 2.21D-05 at cycle   1 NSaved=   1.
 NSaved= 1 IEnMin= 1 EnMin= -698.279528626619     IErMin= 1 ErrMin= 2.21D-05
 ErrMax= 2.21D-05  0.00D+00 EMaxC= 1.00D-01 BMatC= 1.55D-07 BMatP= 1.55D-07
 IDIUse=1 WtCom= 1.00D+00 WtEn= 0.00D+00
 Coeff-Com:  0.100D+01
 Coeff:      0.100D+01
 Gap=     0.192 Goal=   None    Shift=    0.000
 RMSDP=3.07D-06 MaxDP=1.24D-04 DE=-1.83D-05 OVMax= 1.67D-04

 Cycle  11  Pass 1  IDiag  1:
 RMSU=  5.49D-06    CP:  1.00D+00
 E= -698.279528609448     Delta-E=        0.000000017170 Rises=F Damp=F
 DIIS: error= 2.18D-05 at cycle   2 NSaved=   2.
 NSaved= 2 IEnMin= 1 EnMin= -698.279528626619     IErMin= 2 ErrMin= 2.18D-05
 ErrMax= 2.18D-05  0.00D+00 EMaxC= 1.00D-01 BMatC= 2.18D-07 BMatP= 1.55D-07
 IDIUse=1 WtCom= 1.00D+00 WtEn= 0.00D+00
 Coeff-Com:  0.556D+00 0.444D+00
 Coeff:      0.556D+00 0.444D+00
 Gap=     0.192 Goal=   None    Shift=    0.000
 RMSDP=1.75D-06 MaxDP=1.61D-04 DE= 1.72D-08 OVMax= 2.18D-04

 Cycle  12  Pass 1  IDiag  1:
 RMSU=  1.68D-06    CP:  1.00D+00  9.09D-01
 E= -698.279528717763     Delta-E=       -0.000000108315 Rises=F Damp=F
 DIIS: error= 1.79D-05 at cycle   3 NSaved=   3.
 NSaved= 3 IEnMin= 3 EnMin= -698.279528717763     IErMin= 3 ErrMin= 1.79D-05
 ErrMax= 1.79D-05  0.00D+00 EMaxC= 1.00D-01 BMatC= 9.08D-08 BMatP= 1.55D-07
 IDIUse=1 WtCom= 1.00D+00 WtEn= 0.00D+00
 Coeff-Com:  0.129D+00 0.369D+00 0.502D+00
 Coeff:      0.129D+00 0.369D+00 0.502D+00
 Gap=     0.192 Goal=   None    Shift=    0.000
 RMSDP=9.46D-07 MaxDP=9.27D-05 DE=-1.08D-07 OVMax= 1.43D-04

 Cycle  13  Pass 1  IDiag  1:
 RMSU=  6.42D-07    CP:  1.00D+00  9.32D-01  5.93D-01
 E= -698.279528771595     Delta-E=       -0.000000053831 Rises=F Damp=F
 DIIS: error= 8.67D-06 at cycle   4 NSaved=   4.
 NSaved= 4 IEnMin= 4 EnMin= -698.279528771595     IErMin= 4 ErrMin= 8.67D-06
 ErrMax= 8.67D-06  0.00D+00 EMaxC= 1.00D-01 BMatC= 2.23D-08 BMatP= 9.08D-08
 IDIUse=1 WtCom= 1.00D+00 WtEn= 0.00D+00
 Coeff-Com:  0.831D-02 0.212D+00 0.393D+00 0.387D+00
 Coeff:      0.831D-02 0.212D+00 0.393D+00 0.387D+00
 Gap=     0.192 Goal=   None    Shift=    0.000
 RMSDP=3.68D-07 MaxDP=2.33D-05 DE=-5.38D-08 OVMax= 4.19D-05

 Cycle  14  Pass 1  IDiag  1:
 RMSU=  1.11D-07    CP:  1.00D+00  9.36D-01  6.27D-01  4.62D-01
 E= -698.279528789656     Delta-E=       -0.000000018061 Rises=F Damp=F
 DIIS: error= 7.86D-07 at cycle   5 NSaved=   5.
 NSaved= 5 IEnMin= 5 EnMin= -698.279528789656     IErMin= 5 ErrMin= 7.86D-07
 ErrMax= 7.86D-07  0.00D+00 EMaxC= 1.00D-01 BMatC= 3.77D-10 BMatP= 2.23D-08
 IDIUse=1 WtCom= 1.00D+00 WtEn= 0.00D+00
 Coeff-Com:  0.586D-03 0.112D+00 0.218D+00 0.225D+00 0.445D+00
 Coeff:      0.586D-03 0.112D+00 0.218D+00 0.225D+00 0.445D+00
 Gap=     0.192 Goal=   None    Shift=    0.000
 RMSDP=6.53D-08 MaxDP=3.08D-06 DE=-1.81D-08 OVMax= 3.00D-06

 Cycle  15  Pass 1  IDiag  1:
 RMSU=  2.64D-08    CP:  1.00D+00  9.37D-01  6.27D-01  4.41D-01  4.79D-01
 E= -698.279528789961     Delta-E=       -0.000000000305 Rises=F Damp=F
 DIIS: error= 1.67D-07 at cycle   6 NSaved=   6.
 NSaved= 6 IEnMin= 6 EnMin= -698.279528789961     IErMin= 6 ErrMin= 1.67D-07
 ErrMax= 1.67D-07  0.00D+00 EMaxC= 1.00D-01 BMatC= 2.15D-11 BMatP= 3.77D-10
 IDIUse=1 WtCom= 1.00D+00 WtEn= 0.00D+00
 Coeff-Com: -0.177D-03 0.505D-01 0.101D+00 0.103D+00 0.257D+00 0.488D+00
 Coeff:     -0.177D-03 0.505D-01 0.101D+00 0.103D+00 0.257D+00 0.488D+00
 Gap=     0.192 Goal=   None    Shift=    0.000
 RMSDP=1.58D-08 MaxDP=7.41D-07 DE=-3.05D-10 OVMax= 1.08D-06

 Cycle  16  Pass 1  IDiag  1:
 RMSU=  6.96D-09    CP:  1.00D+00  9.37D-01  6.29D-01  4.36D-01  4.77D-01
                    CP:  4.91D-01
 E= -698.279528789982     Delta-E=       -0.000000000021 Rises=F Damp=F
 DIIS: error= 4.62D-08 at cycle   7 NSaved=   7.
 NSaved= 7 IEnMin= 7 EnMin= -698.279528789982     IErMin= 7 ErrMin= 4.62D-08
 ErrMax= 4.62D-08  0.00D+00 EMaxC= 1.00D-01 BMatC= 1.15D-12 BMatP= 2.15D-11
 IDIUse=1 WtCom= 1.00D+00 WtEn= 0.00D+00
 Coeff-Com: -0.149D-03 0.184D-01 0.375D-01 0.379D-01 0.102D+00 0.257D+00
 Coeff-Com:  0.547D+00
 Coeff:     -0.149D-03 0.184D-01 0.375D-01 0.379D-01 0.102D+00 0.257D+00
 Coeff:      0.547D+00
 Gap=     0.192 Goal=   None    Shift=    0.000
 RMSDP=3.50D-09 MaxDP=2.21D-07 DE=-2.09D-11 OVMax= 2.11D-07

 SCF Done:  E(RB-LYP) =  -698.279528790     A.U. after   16 cycles
            NFock= 16  Conv=0.35D-08     -V/T= 2.0079
 KE= 6.927745662381D+02 PE=-3.665779073448D+03 EE= 1.254564191603D+03
 Leave Link  502 at Tue Jan 24 05:54:33 2023, MaxMem=   131072000 cpu:             292.4 elap:              36.8
 (Enter /dragofs/sw/campus/0.2/software/gaussian/16.gaussian/gaussian/g16_legacy/l601.exe)
 Copying SCF densities to generalized density rwf, IOpCl= 0 IROHF=0.

 **********************************************************************

            Population analysis using the SCF density.

 **********************************************************************

 Orbital symmetries:
       Occupied  (A) (A) (A) (A) (A) (A) (A) (A) (A) (A) (A) (A)
                 (A) (A) (A) (A) (A) (A) (A) (A) (A) (A) (A) (A)
                 (A) (A) (A) (A) (A) (A) (A) (A) (A) (A) (A) (A)
                 (A) (A) (A) (A) (A) (A) (A) (A) (A) (A) (A) (A)
                 (A) (A) (A) (A) (A) (A) (A) (A) (A) (A) (A) (A)
                 (A)
       Virtual   (A) (A) (A) (A) (A) (A) (A) (A) (A) (A) (A) (A)
                 (A) (A) (A) (A) (A) (A) (A) (A) (A) (A) (A) (A)
                 (A) (A) (A) (A) (A) (A) (A) (A) (A) (A) (A) (A)
                 (A) (A) (A) (A) (A) (A) (A) (A) (A) (A) (A) (A)
                 (A) (A) (A) (A) (A) (A) (A) (A) (A) (A) (A) (A)
                 (A) (A) (A) (A) (A) (A) (A) (A) (A) (A) (A) (A)
                 (A) (A) (A) (A) (A) (A) (A) (A) (A) (A) (A) (A)
                 (A) (A) (A) (A) (A) (A) (A) (A) (A) (A) (A) (A)
                 (A) (A) (A) (A) (A) (A) (A) (A) (A) (A) (A) (A)
                 (A) (A) (A) (A) (A) (A) (A) (A) (A) (A) (A) (A)
                 (A) (A) (A) (A) (A) (A) (A) (A) (A) (A) (A) (A)
                 (A) (A) (A) (A) (A) (A) (A) (A) (A) (A) (A) (A)
                 (A) (A) (A) (A) (A) (A) (A) (A) (A) (A) (A) (A)
                 (A) (A) (A) (A) (A) (A) (A) (A) (A) (A) (A) (A)
                 (A) (A) (A) (A) (A) (A) (A) (A) (A) (A) (A) (A)
                 (A) (A) (A) (A) (A) (A) (A) (A) (A) (A) (A) (A)
                 (A) (A) (A) (A) (A) (A) (A) (A) (A) (A) (A) (A)
                 (A) (A) (A) (A) (A) (A) (A) (A) (A) (A) (A) (A)
                 (A) (A) (A) (A) (A) (A) (A) (A) (A) (A) (A) (A)
                 (A) (A) (A) (A) (A) (A) (A) (A) (A) (A) (A) (A)
                 (A) (A) (A) (A) (A) (A) (A) (A) (A) (A) (A) (A)
                 (A) (A) (A) (A) (A) (A) (A) (A) (A) (A) (A) (A)
                 (A) (A) (A) (A) (A) (A) (A) (A) (A) (A) (A) (A)
                 (A) (A) (A) (A) (A) (A) (A) (A) (A) (A) (A) (A)
                 (A) (A) (A) (A) (A) (A)
 The electronic state is 1-A.
 Alpha  occ. eigenvalues --  -18.81718 -18.78553 -18.77181 -10.03617  -9.96949
 Alpha  occ. eigenvalues --   -9.95543  -9.93014  -9.92781  -9.92059  -9.91262
 Alpha  occ. eigenvalues --   -9.91257  -9.90545  -9.90488  -9.90268  -9.90157
 Alpha  occ. eigenvalues --   -0.99486  -0.92143  -0.90686  -0.73878  -0.71630
 Alpha  occ. eigenvalues --   -0.67547  -0.67363  -0.67109  -0.61121  -0.60414
 Alpha  occ. eigenvalues --   -0.56183  -0.53049  -0.52809  -0.50241  -0.46860
 Alpha  occ. eigenvalues --   -0.46830  -0.43522  -0.42219  -0.40794  -0.40470
 Alpha  occ. eigenvalues --   -0.39341  -0.38357  -0.38037  -0.36832  -0.36153
 Alpha  occ. eigenvalues --   -0.35977  -0.35568  -0.35444  -0.33822  -0.33567
 Alpha  occ. eigenvalues --   -0.32621  -0.31486  -0.30582  -0.30460  -0.30210
 Alpha  occ. eigenvalues --   -0.29666  -0.28875  -0.28436  -0.28101  -0.27539
 Alpha  occ. eigenvalues --   -0.26707  -0.25860  -0.25372  -0.23543  -0.20715
 Alpha  occ. eigenvalues --   -0.20668
 Alpha virt. eigenvalues --   -0.01454   0.03984   0.04603   0.07729   0.08231
 Alpha virt. eigenvalues --    0.08660   0.08865   0.10298   0.10795   0.10942
 Alpha virt. eigenvalues --    0.11119   0.11455   0.12537   0.12930   0.13846
 Alpha virt. eigenvalues --    0.14098   0.14140   0.14673   0.15572   0.15772
 Alpha virt. eigenvalues --    0.16178   0.16357   0.16590   0.17746   0.18112
 Alpha virt. eigenvalues --    0.18286   0.18802   0.20603   0.20942   0.21079
 Alpha virt. eigenvalues --    0.21541   0.22738   0.23301   0.24133   0.25321
 Alpha virt. eigenvalues --    0.26894   0.27807   0.28779   0.30484   0.32366
 Alpha virt. eigenvalues --    0.44931   0.45710   0.46227   0.46505   0.47973
 Alpha virt. eigenvalues --    0.48510   0.49922   0.50143   0.51113   0.51805
 Alpha virt. eigenvalues --    0.52262   0.53459   0.54149   0.55708   0.56170
 Alpha virt. eigenvalues --    0.56490   0.58105   0.59294   0.59758   0.60861
 Alpha virt. eigenvalues --    0.62166   0.62718   0.62915   0.63653   0.63976
 Alpha virt. eigenvalues --    0.65244   0.66272   0.67814   0.69473   0.72269
 Alpha virt. eigenvalues --    0.72657   0.73521   0.73673   0.74696   0.75385
 Alpha virt. eigenvalues --    0.76230   0.77349   0.78244   0.78858   0.79858
 Alpha virt. eigenvalues --    0.79945   0.80318   0.81093   0.81794   0.82085
 Alpha virt. eigenvalues --    0.82829   0.83596   0.83733   0.84120   0.85982
 Alpha virt. eigenvalues --    0.86727   0.87127   0.87682   0.88714   0.89068
 Alpha virt. eigenvalues --    0.89863   0.90665   0.91129   0.91648   0.92163
 Alpha virt. eigenvalues --    0.93259   0.93840   0.95510   0.96743   0.97109
 Alpha virt. eigenvalues --    0.98894   0.99456   1.03006   1.04266   1.06818
 Alpha virt. eigenvalues --    1.07651   1.09273   1.13478   1.14299   1.16520
 Alpha virt. eigenvalues --    1.21721   1.23167   1.24216   1.25470   1.27173
 Alpha virt. eigenvalues --    1.30287   1.34474   1.38294   1.38644   1.39126
 Alpha virt. eigenvalues --    1.42131   1.43106   1.43315   1.45657   1.47968
 Alpha virt. eigenvalues --    1.49683   1.50300   1.52802   1.54970   1.58204
 Alpha virt. eigenvalues --    1.59833   1.61329   1.61660   1.62407   1.64498
 Alpha virt. eigenvalues --    1.67510   1.67654   1.68711   1.69967   1.70486
 Alpha virt. eigenvalues --    1.71954   1.73699   1.74323   1.76078   1.79533
 Alpha virt. eigenvalues --    1.80296   1.80686   1.81242   1.82269   1.83551
 Alpha virt. eigenvalues --    1.84155   1.86439   1.88870   1.90345   1.90398
 Alpha virt. eigenvalues --    1.93497   1.93913   1.94717   1.95404   1.97376
 Alpha virt. eigenvalues --    1.97575   1.98134   1.98479   1.99496   1.99720
 Alpha virt. eigenvalues --    2.00356   2.01409   2.02004   2.03192   2.03868
 Alpha virt. eigenvalues --    2.04406   2.04495   2.05453   2.06528   2.06676
 Alpha virt. eigenvalues --    2.08202   2.08577   2.09836   2.09936   2.13388
 Alpha virt. eigenvalues --    2.13695   2.14874   2.16352   2.16942   2.17452
 Alpha virt. eigenvalues --    2.19560   2.20785   2.22129   2.22516   2.24372
 Alpha virt. eigenvalues --    2.24779   2.25091   2.28821   2.28930   2.30539
 Alpha virt. eigenvalues --    2.31020   2.33804   2.35294   2.36883   2.37066
 Alpha virt. eigenvalues --    2.37998   2.39391   2.41361   2.42297   2.44099
 Alpha virt. eigenvalues --    2.48240   2.50361   2.50986   2.51292   2.52038
 Alpha virt. eigenvalues --    2.53852   2.54694   2.58514   2.59313   2.59899
 Alpha virt. eigenvalues --    2.60297   2.62770   2.63406   2.64762   2.65256
 Alpha virt. eigenvalues --    2.65948   2.68840   2.69998   2.70140   2.71847
 Alpha virt. eigenvalues --    2.73641   2.75022   2.75844   2.76543   2.77503
 Alpha virt. eigenvalues --    2.78847   2.79347   2.80028   2.80623   2.81673
 Alpha virt. eigenvalues --    2.82604   2.83253   2.84023   2.85491   2.86794
 Alpha virt. eigenvalues --    2.87657   2.90564   2.93142   2.96626   2.97332
 Alpha virt. eigenvalues --    2.98563   3.02025   3.06650   3.07886   3.10272
 Alpha virt. eigenvalues --    3.13693   3.15442   3.16801   3.16870   3.20569
 Alpha virt. eigenvalues --    3.23219   3.25178   3.26013   3.30338   3.30689
 Alpha virt. eigenvalues --    3.33608   3.34048   3.36046   3.38309   3.39549
 Alpha virt. eigenvalues --    3.40506   3.41302   3.43274   3.45108   3.47370
 Alpha virt. eigenvalues --    3.50149   3.51124   3.52039   3.53517   3.87702
 Alpha virt. eigenvalues --    3.97108   4.05078   4.14863   4.25205   4.25813
 Alpha virt. eigenvalues --    4.31442   4.32743   4.46960   4.47630   4.52659
 Alpha virt. eigenvalues --    4.54739   4.55804   4.63746   4.67814
          Condensed to atoms (all electrons):
               1          2          3          4          5          6
     1  H    0.644528   0.374156  -0.036003  -0.035451  -0.043299  -0.003810
     2  C    0.374156   4.933350   0.364237   0.377724   0.365492  -0.040169
     3  C   -0.036003   0.364237   4.901937  -0.035858  -0.015279   0.359826
     4  H   -0.035451   0.377724  -0.035858   0.621592  -0.031608   0.006757
     5  H   -0.043299   0.365492  -0.015279  -0.031608   0.635332  -0.005120
     6  H   -0.003810  -0.040169   0.359826   0.006757  -0.005120   0.687379
     7  H    0.006073  -0.038830   0.354923  -0.008241  -0.003117  -0.047257
     8  C   -0.005197  -0.028414   0.406588  -0.005406   0.003766  -0.040902
     9  C    0.000096   0.006133  -0.051934   0.000439  -0.000150   0.001370
    10  H    0.004733  -0.007284  -0.050835  -0.000200  -0.000010   0.000554
    11  H    0.000009  -0.000158  -0.001517  -0.000015  -0.000010   0.002802
    12  H    0.000018   0.000180  -0.011708  -0.000008   0.000001   0.000184
    13  O   -0.000182  -0.000531  -0.075047   0.009668   0.000067   0.005122
    14  H    0.000021   0.000379   0.008606  -0.000790   0.000012  -0.000511
    15  C   -0.000004  -0.000249   0.005657   0.000004   0.000002   0.000333
    16  H   -0.000001   0.000003   0.000167  -0.000000   0.000000   0.000007
    17  H    0.000000   0.000002  -0.000144  -0.000000  -0.000000  -0.000025
    18  H    0.000000  -0.000005   0.000169  -0.000002  -0.000000  -0.000010
    19  H    0.000000  -0.000000   0.000000  -0.000000   0.000000   0.000000
    20  C   -0.000000   0.000000   0.000000  -0.000000   0.000000  -0.000000
    21  C    0.000003  -0.000001  -0.000000   0.000000   0.000000   0.000000
    22  H   -0.000000   0.000000  -0.000000  -0.000000  -0.000000   0.000000
    23  H    0.000000  -0.000000  -0.000000   0.000000  -0.000000  -0.000000
    24  H   -0.000000   0.000000  -0.000000  -0.000000  -0.000000  -0.000000
    25  H   -0.000000  -0.000000   0.000000   0.000000   0.000000   0.000000
    26  C   -0.000105  -0.000017   0.000001  -0.000002  -0.000028   0.000000
    27  C   -0.000329  -0.000667   0.000010   0.000030   0.000042   0.000001
    28  H    0.000151   0.000169   0.000002  -0.000020   0.000163  -0.000000
    29  H   -0.000047   0.000011   0.000000  -0.000000   0.000001  -0.000000
    30  H    0.005409  -0.000050  -0.000038  -0.000025  -0.000072   0.000002
    31  O   -0.000032   0.000003  -0.000000   0.000000  -0.000001   0.000000
    32  C    0.000024   0.000000   0.000000  -0.000000   0.000014  -0.000000
    33  O    0.000013  -0.000009   0.000000   0.000000   0.000025   0.000000
    34  C    0.000001  -0.000000   0.000000  -0.000000   0.000000   0.000000
    35  H   -0.000000   0.000000   0.000000   0.000000   0.000000   0.000000
    36  H   -0.000000  -0.000000   0.000000   0.000000  -0.000000   0.000000
    37  H   -0.000000   0.000000  -0.000000  -0.000000  -0.000000  -0.000000
    38  C   -0.000184  -0.001575   0.000063  -0.000514   0.000107  -0.000003
    39  H    0.000532   0.000124  -0.000031   0.000011  -0.000003  -0.000000
    40  H    0.000995   0.001916  -0.000023   0.002792  -0.000068   0.000006
    41  H    0.000048   0.000042  -0.000001   0.000015  -0.000005   0.000000
               7          8          9         10         11         12
     1  H    0.006073  -0.005197   0.000096   0.004733   0.000009   0.000018
     2  C   -0.038830  -0.028414   0.006133  -0.007284  -0.000158   0.000180
     3  C    0.354923   0.406588  -0.051934  -0.050835  -0.001517  -0.011708
     4  H   -0.008241  -0.005406   0.000439  -0.000200  -0.000015  -0.000008
     5  H   -0.003117   0.003766  -0.000150  -0.000010  -0.000010   0.000001
     6  H   -0.047257  -0.040902   0.001370   0.000554   0.002802   0.000184
     7  H    0.680407  -0.028135  -0.013616   0.008592   0.000210   0.009518
     8  C   -0.028135   4.684516   0.357876   0.363534  -0.022813  -0.039847
     9  C   -0.013616   0.357876   5.013127  -0.080115   0.346592   0.368036
    10  H    0.008592   0.363534  -0.080115   0.755814  -0.002363   0.010458
    11  H    0.000210  -0.022813   0.346592  -0.002363   0.676489  -0.031645
    12  H    0.009518  -0.039847   0.368036   0.010458  -0.031645   0.668062
    13  O   -0.004011   0.238290  -0.067877  -0.037422   0.004640  -0.000216
    14  H    0.000257  -0.018672  -0.000783  -0.011921  -0.000252  -0.000377
    15  C   -0.000212  -0.030198   0.357916  -0.007308  -0.044375  -0.047015
    16  H    0.000018  -0.006039  -0.038835   0.007436  -0.001651   0.007202
    17  H    0.000005   0.004602  -0.023296   0.000038  -0.006693  -0.001069
    18  H    0.000126  -0.007032  -0.043201   0.000447   0.008413  -0.011613
    19  H    0.000000  -0.000000   0.000000   0.000000  -0.000000   0.000000
    20  C   -0.000000  -0.000000   0.000000  -0.000000  -0.000000  -0.000000
    21  C    0.000000  -0.000000  -0.000000   0.000000  -0.000000  -0.000000
    22  H    0.000000   0.000000  -0.000000   0.000000   0.000000   0.000000
    23  H    0.000000   0.000000  -0.000000   0.000000   0.000000   0.000000
    24  H    0.000000  -0.000000   0.000000  -0.000000   0.000000   0.000000
    25  H   -0.000000  -0.000000  -0.000000  -0.000000   0.000000  -0.000000
    26  C   -0.000000  -0.000000   0.000000   0.000000  -0.000000   0.000000
    27  C   -0.000000  -0.000000  -0.000000  -0.000006  -0.000000  -0.000000
    28  H    0.000000   0.000000  -0.000000   0.000000  -0.000000  -0.000000
    29  H    0.000000   0.000000   0.000000  -0.000000   0.000000  -0.000000
    30  H    0.000001  -0.000007   0.000000   0.000019  -0.000000   0.000000
    31  O    0.000000   0.000000  -0.000000  -0.000000   0.000000  -0.000000
    32  C    0.000000  -0.000000  -0.000000  -0.000000   0.000000  -0.000000
    33  O   -0.000000  -0.000000   0.000000  -0.000000  -0.000000  -0.000000
    34  C   -0.000000  -0.000000   0.000000  -0.000000   0.000000  -0.000000
    35  H   -0.000000   0.000000  -0.000000   0.000000   0.000000  -0.000000
[...]
    19  H   -0.000000   0.000000  -0.000000  -0.000000  -0.000000  -0.000000
    20  C   -0.000001   0.000001  -0.000000  -0.000000   0.000000   0.000000
    21  C    0.000084  -0.000044   0.000000   0.000000  -0.000000  -0.000000
    22  H   -0.000000  -0.000000   0.000000   0.000000  -0.000000   0.000000
    23  H    0.000000  -0.000000   0.000000   0.000000   0.000000  -0.000000
    24  H    0.000001  -0.000007   0.000000   0.000000  -0.000000   0.000000
    25  H    0.000014   0.000056  -0.000000  -0.000000  -0.000000  -0.000000
    26  C   -0.009412   0.001259  -0.000002   0.000003  -0.000000   0.000007
    27  C    0.001489  -0.000198   0.000020  -0.000068  -0.000000  -0.000003
    28  H    0.027159  -0.002049  -0.000008  -0.000008   0.000000  -0.000038
    29  H   -0.000001   0.000008  -0.000000   0.000001   0.000000   0.000000
    30  H   -0.000085  -0.000017   0.000014  -0.000006  -0.000000   0.000003
    31  O    0.000052  -0.000006   0.000000  -0.000000   0.000000  -0.000000
    32  C   -0.000048   0.000002   0.000000  -0.000000   0.000000   0.000000
    33  O   -0.000033  -0.000001   0.000000  -0.000000   0.000000   0.000000
    34  C   -0.000000  -0.000000  -0.000000  -0.000000   0.000000   0.000000
    35  H    0.000000   0.000000   0.000000   0.000000  -0.000000  -0.000000
    36  H   -0.000000   0.000000   0.000000  -0.000000  -0.000000  -0.000000
    37  H    0.000000   0.000000   0.000000   0.000000  -0.000000   0.000000
    38  C   -0.002889  -0.000096  -0.000775   0.000531   0.000013  -0.000003
    39  H    0.000026  -0.000081  -0.000106   0.000987   0.000000  -0.000010
    40  H    0.004928   0.007565   0.001274   0.001075   0.000001   0.000084
    41  H    0.000017  -0.000038   0.000022  -0.000021  -0.000000   0.000002
              19         20         21         22         23         24
     1  H   -0.000000  -0.000001   0.000088  -0.000000   0.000000   0.000002
     2  C    0.000000  -0.000000   0.000018   0.000000   0.000000   0.000001
     3  C   -0.000000   0.000000  -0.000000   0.000000   0.000000  -0.000000
     4  H    0.000000   0.000000  -0.000022   0.000000   0.000000   0.000001
     5  H   -0.000000   0.000000  -0.000000  -0.000000  -0.000000  -0.000000
     6  H    0.000000  -0.000000   0.000000  -0.000000   0.000000   0.000000
     7  H    0.000000   0.000000  -0.000000   0.000000   0.000000   0.000000
     8  C   -0.000000   0.000000  -0.000009   0.000000  -0.000000   0.000001
     9  C    0.000000  -0.000000  -0.000000   0.000000  -0.000000  -0.000000
    10  H    0.000000   0.000000  -0.000005   0.000000   0.000000  -0.000001
    11  H    0.000000   0.000000  -0.000000   0.000000  -0.000000  -0.000000
    12  H    0.000000   0.000000  -0.000000   0.000000   0.000000   0.000000
    13  O   -0.000000  -0.000001   0.000084  -0.000000   0.000000   0.000001
    14  H    0.000000   0.000001  -0.000044  -0.000000  -0.000000  -0.000007
    15  C   -0.000000  -0.000000   0.000000   0.000000   0.000000   0.000000
    16  H   -0.000000  -0.000000   0.000000   0.000000   0.000000   0.000000
    17  H   -0.000000   0.000000  -0.000000  -0.000000   0.000000  -0.000000
    18  H   -0.000000   0.000000  -0.000000   0.000000  -0.000000   0.000000
    19  H    0.613793   0.382024  -0.036768  -0.034047  -0.031934  -0.003549
    20  C    0.382024   4.903464   0.367737   0.378051   0.372436  -0.037268
    21  C   -0.036768   0.367737   4.947348  -0.032944  -0.025388   0.368388
    22  H   -0.034047   0.378051  -0.032944   0.631584  -0.033292   0.004952
    23  H   -0.031934   0.372436  -0.025388  -0.033292   0.631853  -0.003896
    24  H   -0.003549  -0.037268   0.368388   0.004952  -0.003896   0.611384
    25  H    0.005687  -0.036224   0.355516  -0.006151  -0.002110  -0.033070
    26  C   -0.007517  -0.035998   0.360935  -0.004959   0.004050  -0.027879
    27  C   -0.001184  -0.007868  -0.049439   0.002757   0.000195   0.005611
    28  H    0.000318   0.004601  -0.041768  -0.000033  -0.000128  -0.004863
    29  H    0.001047   0.005358  -0.011569   0.002378  -0.000165  -0.000036
    30  H   -0.000040   0.000004   0.005685  -0.000075  -0.000001  -0.000185
    31  O    0.009075  -0.005469  -0.030877  -0.000056   0.000096  -0.006024
    32  C    0.001174   0.000367  -0.005215  -0.000047  -0.000038   0.003155
    33  O   -0.000010   0.000065  -0.008394  -0.000004   0.000001   0.012327
    34  C   -0.000024   0.000001  -0.000454  -0.000001  -0.000000   0.000158
    35  H   -0.000011   0.000002   0.000022   0.000000   0.000000   0.000006
    36  H    0.000150  -0.000002   0.000038   0.000001  -0.000000  -0.000047
    37  H    0.000002   0.000000  -0.000004  -0.000000  -0.000000   0.000001
    38  C    0.000091  -0.001279   0.000141   0.000169   0.000005   0.000045
    39  H    0.000002  -0.000006   0.000054  -0.000041   0.000000  -0.000002
    40  H   -0.000003   0.000112  -0.001252  -0.000023   0.000001  -0.000025
    41  H   -0.000018   0.000426   0.002453   0.001292  -0.000050  -0.000090
              25         26         27         28         29         30
     1  H   -0.000002  -0.000056  -0.001065  -0.000400  -0.000013   0.003612
     2  C    0.000001   0.000291  -0.000406  -0.000005   0.000010  -0.000219
     3  C   -0.000000   0.000116  -0.000007  -0.000831  -0.000001   0.000006
     4  H    0.000002  -0.000663   0.000049   0.002535   0.000000  -0.000041
     5  H   -0.000000  -0.000013   0.000015   0.000001  -0.000000  -0.000023
     6  H   -0.000000   0.000001  -0.000006   0.000005   0.000000   0.000011
     7  H    0.000000   0.000006  -0.000005  -0.000022   0.000000   0.000006
     8  C   -0.000001   0.000035  -0.000941   0.000413   0.000041  -0.001070
     9  C    0.000000  -0.000041   0.000072   0.000238  -0.000001  -0.000038
    10  H   -0.000001   0.000935  -0.002173  -0.001874  -0.000079   0.006211
    11  H   -0.000000   0.000002  -0.000003  -0.000009   0.000000   0.000005
    12  H   -0.000000   0.000000  -0.000001  -0.000002   0.000000   0.000001
    13  O    0.000014  -0.009412   0.001489   0.027159  -0.000001  -0.000085
    14  H    0.000056   0.001259  -0.000198  -0.002049   0.000008  -0.000017
    15  C   -0.000000  -0.000002   0.000020  -0.000008  -0.000000   0.000014
    16  H   -0.000000   0.000003  -0.000068  -0.000008   0.000001  -0.000006
    17  H   -0.000000  -0.000000  -0.000000   0.000000   0.000000  -0.000000
    18  H   -0.000000   0.000007  -0.000003  -0.000038   0.000000   0.000003
    19  H    0.005687  -0.007517  -0.001184   0.000318   0.001047  -0.000040
    20  C   -0.036224  -0.035998  -0.007868   0.004601   0.005358   0.000004
    21  C    0.355516   0.360935  -0.049439  -0.041768  -0.011569   0.005685
    22  H   -0.006151  -0.004959   0.002757  -0.000033   0.002378  -0.000075
    23  H   -0.002110   0.004050   0.000195  -0.000128  -0.000165  -0.000001
    24  H   -0.033070  -0.027879   0.005611  -0.004863  -0.000036  -0.000185
    25  H    0.664913  -0.030188  -0.004742   0.000060   0.000185  -0.000018
    26  C   -0.030188   4.826002   0.371037   0.344547  -0.028953  -0.030899
    27  C   -0.004742   0.371037   4.932846  -0.044483   0.362537   0.366417
    28  H    0.000060   0.344547  -0.044483   0.620191   0.005800  -0.006359
    29  H    0.000185  -0.028953   0.362537   0.005800   0.648730  -0.037627
    30  H   -0.000018  -0.030899   0.366417  -0.006359  -0.037627   0.639140
    31  O    0.002994   0.150983  -0.035341  -0.030211   0.000421   0.000855
    32  C    0.000136  -0.004304   0.004443  -0.004973  -0.000095   0.000096
    33  O    0.000108   0.000740   0.000695   0.012456  -0.000009   0.000005
    34  C    0.000006   0.005748  -0.000254   0.000673  -0.000011  -0.000005
    35  H   -0.000000  -0.000162   0.000002  -0.000007   0.000000   0.000001
    36  H   -0.000000  -0.000148  -0.000037   0.000004   0.000012   0.000001
    37  H    0.000000  -0.000213   0.000011  -0.000005   0.000004  -0.000012
    38  C    0.002024  -0.036078   0.353789  -0.002658  -0.035323  -0.035225
    39  H   -0.000035   0.003618  -0.022688  -0.000019  -0.002230  -0.004660
    40  H    0.000590  -0.004982  -0.036291   0.005078   0.005727  -0.004857
    41  H    0.002559  -0.005953  -0.030302  -0.000289  -0.005644   0.005423
              31         32         33         34         35         36
     1  H    0.005802   0.000528  -0.000737  -0.000475   0.000041  -0.000022
     2  C   -0.001172   0.001968  -0.003451  -0.001048   0.000001   0.000007
     3  C   -0.000002  -0.000006   0.000055   0.000033  -0.000000  -0.000000
     4  H   -0.001921   0.003058   0.009757   0.000195  -0.000005   0.000026
     5  H    0.000065  -0.000036   0.000037  -0.000138   0.000003   0.000001
     6  H   -0.000000   0.000000  -0.000000  -0.000000  -0.000000   0.000000
     7  H   -0.000001   0.000002  -0.000000  -0.000001   0.000000   0.000000
     8  C    0.000003  -0.000004   0.000002  -0.000001   0.000000   0.000000
     9  C   -0.000000  -0.000000  -0.000000   0.000000  -0.000000  -0.000000
    10  H   -0.000082  -0.000011   0.000000  -0.000000  -0.000000   0.000000
    11  H   -0.000000   0.000000   0.000000  -0.000000   0.000000   0.000000
    12  H   -0.000000  -0.000000  -0.000000  -0.000000   0.000000   0.000000
    13  O    0.000052  -0.000048  -0.000033  -0.000000   0.000000  -0.000000
    14  H   -0.000006   0.000002  -0.000001  -0.000000   0.000000   0.000000
    15  C    0.000000   0.000000   0.000000  -0.000000   0.000000   0.000000
    16  H   -0.000000  -0.000000  -0.000000  -0.000000   0.000000  -0.000000
    17  H    0.000000   0.000000   0.000000   0.000000  -0.000000  -0.000000
    18  H   -0.000000   0.000000   0.000000   0.000000  -0.000000  -0.000000
    19  H    0.009075   0.001174  -0.000010  -0.000024  -0.000011   0.000150
    20  C   -0.005469   0.000367   0.000065   0.000001   0.000002  -0.000002
    21  C   -0.030877  -0.005215  -0.008394  -0.000454   0.000022   0.000038
    22  H   -0.000056  -0.000047  -0.000004  -0.000001   0.000000   0.000001
    23  H    0.000096  -0.000038   0.000001  -0.000000   0.000000  -0.000000
    24  H   -0.006024   0.003155   0.012327   0.000158   0.000006  -0.000047
    25  H    0.002994   0.000136   0.000108   0.000006  -0.000000  -0.000000
    26  C    0.150983  -0.004304   0.000740   0.005748  -0.000162  -0.000148
    27  C   -0.035341   0.004443   0.000695  -0.000254   0.000002  -0.000037
    28  H   -0.030211  -0.004973   0.012456   0.000673  -0.000007   0.000004
    29  H    0.000421  -0.000095  -0.000009  -0.000011   0.000000   0.000012
    30  H    0.000855   0.000096   0.000005  -0.000005   0.000001   0.000001
    31  O    8.315460   0.219987  -0.069627  -0.091255   0.003304   0.005069
    32  C    0.219987   4.414690   0.503541   0.354741  -0.020808  -0.018739
    33  O   -0.069627   0.503541   8.055233  -0.067717   0.002799   0.002427
    34  C   -0.091255   0.354741  -0.067717   5.078228   0.359700   0.349861
    35  H    0.003304  -0.020808   0.002799   0.359700   0.582304  -0.026699
    36  H    0.005069  -0.018739   0.002427   0.349861  -0.026699   0.595452
    37  H    0.000183  -0.021493  -0.000268   0.364618  -0.023845  -0.024967
    38  C    0.002526  -0.000051   0.000010   0.000005  -0.000000  -0.000000
    39  H   -0.000051   0.000001   0.000000  -0.000000   0.000000   0.000000
    40  H    0.000031   0.000001  -0.000003   0.000000   0.000000   0.000000
    41  H    0.000006  -0.000000  -0.000000  -0.000000  -0.000000   0.000000
              37         38         39         40         41
     1  H    0.001248   0.000020  -0.000003  -0.000007   0.000001
     2  C    0.001981  -0.000011   0.000001   0.000030  -0.000000
     3  C   -0.000038   0.000010   0.000001   0.000007  -0.000001
     4  H   -0.000561  -0.000001   0.000000  -0.000014   0.000000
     5  H    0.000831  -0.000000   0.000000   0.000000   0.000000
     6  H    0.000001   0.000002  -0.000000  -0.000002  -0.000000
     7  H    0.000002   0.000000   0.000000  -0.000003   0.000000
     8  C    0.000000  -0.001543   0.000020   0.003100   0.000017
     9  C   -0.000000   0.000046  -0.000011  -0.000707   0.000001
    10  H    0.000000   0.003969   0.000123  -0.004754   0.000010
    11  H    0.000000   0.000002  -0.000001  -0.000015   0.000000
    12  H    0.000000   0.000002   0.000000  -0.000016   0.000000
    13  O    0.000000  -0.002889   0.000026   0.004928   0.000017
    14  H    0.000000  -0.000096  -0.000081   0.007565  -0.000038
    15  C    0.000000  -0.000775  -0.000106   0.001274   0.000022
    16  H    0.000000   0.000531   0.000987   0.001075  -0.000021
    17  H   -0.000000   0.000013   0.000000   0.000001  -0.000000
    18  H    0.000000  -0.000003  -0.000010   0.000084   0.000002
    19  H    0.000002   0.000091   0.000002  -0.000003  -0.000018
    20  C    0.000000  -0.001279  -0.000006   0.000112   0.000426
    21  C   -0.000004   0.000141   0.000054  -0.001252   0.002453
    22  H   -0.000000   0.000169  -0.000041  -0.000023   0.001292
    23  H   -0.000000   0.000005   0.000000   0.000001  -0.000050
    24  H    0.000001   0.000045  -0.000002  -0.000025  -0.000090
    25  H    0.000000   0.002024  -0.000035   0.000590   0.002559
    26  C   -0.000213  -0.036078   0.003618  -0.004982  -0.005953
    27  C    0.000011   0.353789  -0.022688  -0.036291  -0.030302
    28  H   -0.000005  -0.002658  -0.000019   0.005078  -0.000289
    29  H    0.000004  -0.035323  -0.002230   0.005727  -0.005644
    30  H   -0.000012  -0.035225  -0.004660  -0.004857   0.005423
    31  O    0.000183   0.002526  -0.000051   0.000031   0.000006
    32  C   -0.021493  -0.000051   0.000001   0.000001  -0.000000
    33  O   -0.000268   0.000010   0.000000  -0.000003  -0.000000
    34  C    0.364618   0.000005  -0.000000   0.000000  -0.000000
    35  H   -0.023845  -0.000000   0.000000   0.000000  -0.000000
    36  H   -0.024967  -0.000000   0.000000   0.000000   0.000000
    37  H    0.568245  -0.000000   0.000000   0.000000  -0.000000
    38  C   -0.000000   4.940820   0.371853   0.361705   0.376523
    39  H    0.000000   0.371853   0.623814  -0.033459  -0.031423
    40  H    0.000000   0.361705  -0.033459   0.650038  -0.033466
    41  H   -0.000000   0.376523  -0.031423  -0.033466   0.616635
 Mulliken charges:
               1
     1  H    0.089421
     2  C   -0.313132
     3  C   -0.147015
     4  H    0.140744
     5  H    0.077707
     6  H    0.072393
     7  H    0.087271
     8  C    0.174109
     9  C   -0.146762
    10  H    0.058582
    11  H    0.077430
    12  H    0.088915
    13  O   -0.506052
    14  H    0.295237
    15  C   -0.307394
    16  H    0.097325
    17  H    0.096954
    18  H    0.083704
    19  H    0.101743
    20  C   -0.290533
    21  C   -0.164354
    22  H    0.090489
    23  H    0.088366
    24  H    0.110907
    25  H    0.077691
    26  C    0.158104
    27  C   -0.164480
    28  H    0.116961
    29  H    0.089499
    30  H    0.093967
    31  O   -0.444816
    32  C    0.567974
    33  O   -0.450004
    34  C   -0.352582
    35  H    0.123353
    36  H    0.117613
    37  H    0.134279
    38  C   -0.298371
    39  H    0.094323
    40  H    0.078529
    41  H    0.101906
 Sum of Mulliken charges =  -0.00000
 Mulliken charges with hydrogens summed into heavy atoms:
               1
     2  C   -0.005260
     3  C    0.012649
     8  C    0.232692
     9  C    0.019584
    13  O   -0.210816
    15  C   -0.029411
    20  C   -0.009935
    21  C    0.024244
    26  C    0.275065
    27  C    0.018986
    31  O   -0.444816
    32  C    0.567974
    33  O   -0.450004
    34  C    0.022663
    38  C   -0.023614
 Electronic spatial extent (au):  <R**2>=           4586.7061
 Charge=             -0.0000 electrons
 Dipole moment (field-independent basis, Debye):
    X=             -1.1985    Y=             -1.5702    Z=             -2.1620  Tot=              2.9285
 Quadrupole moment (field-independent basis, Debye-Ang):
   XX=            -90.6225   YY=            -92.2758   ZZ=           -100.4146
   XY=              2.0299   XZ=             -2.1851   YZ=             -5.5607
 Traceless Quadrupole moment (field-independent basis, Debye-Ang):
   XX=              3.8151   YY=              2.1619   ZZ=             -5.9770
   XY=              2.0299   XZ=             -2.1851   YZ=             -5.5607
 Octapole moment (field-independent basis, Debye-Ang**2):
  XXX=              3.4701  YYY=             14.9924  ZZZ=              1.9174  XYY=              8.5665
  XXY=              6.7004  XXZ=             -4.2588  XZZ=             -3.3428  YZZ=             -6.8288
  YYZ=             -2.8395  XYZ=             -5.8014
 Hexadecapole moment (field-independent basis, Debye-Ang**3):
 XXXX=          -3707.7676 YYYY=          -1876.6657 ZZZZ=           -450.8834 XXXY=             60.1370
 XXXZ=            -16.7118 YYYX=             30.4347 YYYZ=             -3.0653 ZZZX=            -12.4456
 ZZZY=             -5.7528 XXYY=           -929.8783 XXZZ=           -722.4479 YYZZ=           -391.4635
 XXYZ=            -24.2096 YYXZ=            -14.7077 ZZXY=             -0.8573
 N-N= 1.117880814177D+03 E-N=-3.860703495000D+03  KE= 6.915878660174D+02
 No NMR shielding tensors so no spin-rotation constants.
 Leave Link  601 at Tue Jan 24 06:42:45 2023, MaxMem=   131072000 cpu:               1.0 elap:               0.2
 (Enter /dragofs/sw/campus/0.2/software/gaussian/16.gaussian/gaussian/g16_legacy/l9999.exe)
 1\1\GINC-DRAGO31050157\FOpt\RBLYP\6-31G(d,p)\C12H26O3\JRAMOS\24-Jan-20
 23\0\\#p opt blyp/6-31G** EmpiricalDispersion=GD3\\Conformer number 17
 4. Energy MM = 0.000 kcal/mol\\0,1\H,14.9526028637,9.926242847,20.6758
 750173\C,14.5490546511,10.2332198837,21.6554336574\C,14.4988825998,9.0
 440967566,22.6367142525\H,15.1936174058,11.0333533492,22.0429511443\H,
 13.5419673145,10.6492970866,21.4901598525\H,13.7923788219,8.2768442661
 ,22.2730154287\H,14.1239551025,9.3841163763,23.6184866731\C,15.8635988
 28,8.3654776262,22.8516879417\C,15.7858982627,7.1639168569,23.82109242
 08\H,16.2340010813,7.9983941859,21.8701838672\H,15.0372302257,6.451224
 4277,23.4312953584\H,15.4117928276,7.5253748365,24.7949101765\O,16.758
 9284962,9.3942993134,23.3524562769\H,17.6375794803,8.9885922714,23.477
 7959974\C,17.1343193267,6.4363744662,24.0103515954\H,17.5413857562,6.0
 916697758,23.0446286941\H,17.0278003482,5.5573705361,24.6647348433\H,1
 7.8883516022,7.0926615277,24.4782332264\H,19.4840169056,11.7381197613,
 18.2420507355\C,20.1709185898,11.3179184356,18.9931217967\C,19.4916486
 662,11.2587907734,20.3768041313\H,20.4811345613,10.3201641378,18.64262
 13101\H,21.0706451793,11.9520761302,19.0251395568\H,19.3118884392,12.2
 753210817,20.7578497819\H,20.1575796757,10.7685875954,21.1088461819\C,
 18.1372173203,10.5171585888,20.3972404884\C,18.1640454856,9.0626330165
 ,19.8941051333\H,17.716465742,10.5506091754,21.4145085665\H,18.4898235
 82,9.0419707298,18.8408508769\H,17.1273941589,8.6878529717,19.90357525
 48\O,17.1756294642,11.1993469568,19.4941654943\C,16.5849054008,12.3419
 1689,19.9668300959\O,16.8387963431,12.8647784959,21.0454659179\C,15.52
 77482564,12.8319391985,18.9869318661\H,15.3218860317,13.8933295513,19.
 1726615441\H,15.8396954522,12.6715202356,17.9454957323\H,14.6028326603
 ,12.2568240717,19.1568332463\C,19.0622193236,8.1411291321,20.744518700
 3\H,18.9703784187,7.0929539686,20.4198411509\H,18.779312937,8.18461766
 62,21.8087183984\H,20.1244724119,8.4219150464,20.6708176156\\Version=E
 M64L-G16RevA.03\State=1-A\HF=-698.3646938\RMSD=3.374e-09\RMSF=3.936e-0
 6\Dipole=0.1248928,-1.0761473,-0.3921074\Quadrupole=2.432373,-1.980009
 ,-0.452364,-0.8893036,1.797304,-5.3060894\PG=C01 [X(C12H26O3)]\\@


 THERE IS NO SCIENCE WITHOUT FANCY, NOR ART WITHOUT FACTS.
     -- VLADIMIR NABAKOV
 Job cpu time:       0 days  6 hours 27 minutes 12.3 seconds.
 Elapsed time:       0 days  0 hours 48 minutes 49.5 seconds.
 File lengths (MBytes):  RWF=     84 Int=      0 D2E=      0 Chk=     11 Scr=      1
 Normal termination of Gaussian 16 at Tue Jan 24 06:42:45 2023.
