 Entering Gaussian System, Link 0=/opt/gaussian/g16_legacy/g16
 Input=06-PVA_000_gaussian.com
 Output=06-PVA_000_gaussian.log
 Initial command:
 /opt/gaussian/g16_legacy/l1.exe "/scratch-local/jramos/2661748/Gau-19049.inp" -scrdir="/scratch-local/jramos/2661748/"
 Entering Link 1 = /opt/gaussian/g16_legacy/l1.exe PID=     19051.
  
 Copyright (c) 1988,1990,1992,1993,1995,1998,2003,2009,2016,
            Gaussian, Inc.  All Rights Reserved.
  
 This is part of the Gaussian(R) 16 program.  It is based on
 the Gaussian(R) 09 system (copyright 2009, Gaussian, Inc.),
 the Gaussian(R) 03 system (copyright 2003, Gaussian, Inc.),
 the Gaussian(R) 98 system (copyright 1998, Gaussian, Inc.),
 the Gaussian(R) 94 system (copyright 1995, Gaussian, Inc.),
 the Gaussian 92(TM) system (copyright 1992, Gaussian, Inc.),
 the Gaussian 90(TM) system (copyright 1990, Gaussian, Inc.),
 the Gaussian 88(TM) system (copyright 1988, Gaussian, Inc.),
 the Gaussian 86(TM) system (copyright 1986, Carnegie Mellon
 University), and the Gaussian 82(TM) system (copyright 1983,
 Carnegie Mellon University). Gaussian is a federally registered
 trademark of Gaussian, Inc.
  
 This software contains proprietary and confidential information,
 including trade secrets, belonging to Gaussian, Inc.
  
 This software is provided under written license and may be
 used, copied, transmitted, or stored only in accord with that
 written license.
  
 The following legend is applicable only to US Government
 contracts under FAR:
  
                    RESTRICTED RIGHTS LEGEND
  
 Use, reproduction and disclosure by the US Government is
 subject to restrictions as set forth in subparagraphs (a)
 and (c) of the Commercial Computer Software - Restricted
 Rights clause in FAR 52.227-19.
  
 Gaussian, Inc.
 340 Quinnipiac St., Bldg. 40, Wallingford CT 06492
  
  
 ---------------------------------------------------------------
 Warning -- This program may not be used in any manner that
 competes with the business of Gaussian, Inc. or will provide
 assistance to any competitor of Gaussian, Inc.  The licensee
 of this program is prohibited from giving any competitor of
 Gaussian, Inc. access to this program.  By using this program,
 the user acknowledges that Gaussian, Inc. is engaged in the
 business of creating and licensing software in the field of
 computational chemistry and represents and warrants to the
 licensee that it is not a competitor of Gaussian, Inc. and that
 it will not use this program in any manner prohibited above.
 ---------------------------------------------------------------
  

 Cite this work as:
 Gaussian 16, Revision A.03,
 M. J. Frisch, G. W. Trucks, H. B. Schlegel, G. E. Scuseria, 
 M. A. Robb, J. R. Cheeseman, G. Scalmani, V. Barone, 
 G. A. Petersson, H. Nakatsuji, X. Li, M. Caricato, A. V. Marenich, 
 J. Bloino, B. G. Janesko, R. Gomperts, B. Mennucci, H. P. Hratchian, 
 J. V. Ortiz, A. F. Izmaylov, J. L. Sonnenberg, D. Williams-Young, 
 F. Ding, F. Lipparini, F. Egidi, J. Goings, B. Peng, A. Petrone, 
 T. Henderson, D. Ranasinghe, V. G. Zakrzewski, J. Gao, N. Rega, 
 G. Zheng, W. Liang, M. Hada, M. Ehara, K. Toyota, R. Fukuda, 
 J. Hasegawa, M. Ishida, T. Nakajima, Y. Honda, O. Kitao, H. Nakai, 
 T. Vreven, K. Throssell, J. A. Montgomery, Jr., J. E. Peralta, 
 F. Ogliaro, M. J. Bearpark, J. J. Heyd, E. N. Brothers, K. N. Kudin, 
 V. N. Staroverov, T. A. Keith, R. Kobayashi, J. Normand, 
 K. Raghavachari, A. P. Rendell, J. C. Burant, S. S. Iyengar, 
 J. Tomasi, M. Cossi, J. M. Millam, M. Klene, C. Adamo, R. Cammi, 
 J. W. Ochterski, R. L. Martin, K. Morokuma, O. Farkas, 
 J. B. Foresman, and D. J. Fox, Gaussian, Inc., Wallingford CT, 2016.
 
 ******************************************
 Gaussian 16:  EM64L-G16RevA.03 25-Dec-2016
                19-Sep-2021 
 ******************************************
 %chk=06-PVA_000_gaussian.chk
 %nproc=1
 Will use up to    1 processors via shared memory.
 %mem=4000Mb
 ---------------------
 #p opt mp2/6-31g(d,p)
 ---------------------
 1/18=20,19=15,38=1/1,3;
 2/9=110,12=2,17=6,18=5,40=1/2;
 3/5=1,6=6,7=101,11=9,25=1,30=1,71=1/1,2,3;
 4//1;
 5/5=2,38=5/2;
 8/6=4,10=2/1;
 9/15=2,16=-3/6;
 10/5=1/2;
 6/7=2,8=2,9=2,10=2/1;
 7/12=2/1,2,3,16;
 1/18=20,19=15/3(2);
 2/9=110/2;
 99//99;
 2/9=110/2;
 3/5=1,6=6,7=101,11=9,25=1,30=1,71=1/1,2,3;
 4/5=5,16=3,69=1/1;
 5/5=2,38=5/2;
 8/6=4,10=2/1;
 9/15=2,16=-3/6;
 10/5=1/2;
 7/12=2/1,2,3,16;
 1/18=20,19=15/3(-8);
 2/9=110/2;
 6/7=2,8=2,9=2,10=2/1;
 99//99;
 Leave Link    1 at Sun Sep 19 19:55:12 2021, MaxMem=   524288000 cpu:               0.0 elap:               0.1
 (Enter /opt/gaussian/g16_legacy/l101.exe)
 ------------------------------------------------
 Conformer number 000. Energy MM = 1.411 kcal/mol
 ------------------------------------------------
 Symbolic Z-matrix:
 Charge =  0 Multiplicity = 1
 C                    -2.2022    1.158    -0.0082 
 H                    -1.9087    0.1042   -0.0465 
 H                    -1.8485    1.6477   -0.921 
 H                    -3.2963    1.2012   -0.0022 
 C                    -1.6432    1.8474    1.2304 
 H                    -2.0054    2.8815    1.2565 
 H                    -2.0408    1.3345    2.1147 
 C                    -0.111     1.8288    1.2645 
 H                     0.2798    2.2893    0.3489 
 C                     0.4159    2.573     2.4964 
 H                     0.0724    2.0706    3.4088 
 H                     0.0167    3.5938    2.511 
 C                     1.9372    2.6429    2.5389 
 H                     2.3322    3.128     1.6405 
 H                     2.2627    3.2233    3.409 
 H                     2.3829    1.647     2.6193 
 O                     0.3219    0.4711    1.2976 
 H                     1.278     0.4602    1.1232 
 
 ITRead=  0  0  0  0  0  0  0  0  0  0  0  0  0  0  0  0  0  0
 MicOpt= -1 -1 -1 -1 -1 -1 -1 -1 -1 -1 -1 -1 -1 -1 -1 -1 -1 -1
 NAtoms=     18 NQM=       18 NQMF=       0 NMMI=      0 NMMIF=      0
                NMic=       0 NMicF=      0.
                    Isotopes and Nuclear Properties:
 (Nuclear quadrupole moments (NQMom) in fm**2, nuclear magnetic moments (NMagM)
  in nuclear magnetons)

  Atom         1           2           3           4           5           6           7           8           9          10
 IAtWgt=          12           1           1           1          12           1           1          12           1          12
 AtmWgt=  12.0000000   1.0078250   1.0078250   1.0078250  12.0000000   1.0078250   1.0078250  12.0000000   1.0078250  12.0000000
 NucSpn=           0           1           1           1           0           1           1           0           1           0
 AtZEff=  -0.0000000  -0.0000000  -0.0000000  -0.0000000  -0.0000000  -0.0000000  -0.0000000  -0.0000000  -0.0000000  -0.0000000
 NQMom=    0.0000000   0.0000000   0.0000000   0.0000000   0.0000000   0.0000000   0.0000000   0.0000000   0.0000000   0.0000000
 NMagM=    0.0000000   2.7928460   2.7928460   2.7928460   0.0000000   2.7928460   2.7928460   0.0000000   2.7928460   0.0000000
 AtZNuc=   6.0000000   1.0000000   1.0000000   1.0000000   6.0000000   1.0000000   1.0000000   6.0000000   1.0000000   6.0000000

  Atom        11          12          13          14          15          16          17          18
 IAtWgt=           1           1          12           1           1           1          16           1
 AtmWgt=   1.0078250   1.0078250  12.0000000   1.0078250   1.0078250   1.0078250  15.9949146   1.0078250
 NucSpn=           1           1           0           1           1           1           0           1
 AtZEff=  -0.0000000  -0.0000000  -0.0000000  -0.0000000  -0.0000000  -0.0000000  -0.0000000  -0.0000000
 NQMom=    0.0000000   0.0000000   0.0000000   0.0000000   0.0000000   0.0000000   0.0000000   0.0000000
 NMagM=    2.7928460   2.7928460   0.0000000   2.7928460   2.7928460   2.7928460   0.0000000   2.7928460
 AtZNuc=   1.0000000   1.0000000   6.0000000   1.0000000   1.0000000   1.0000000   8.0000000   1.0000000
 Leave Link  101 at Sun Sep 19 19:55:12 2021, MaxMem=   524288000 cpu:               0.1 elap:               0.3
 (Enter /opt/gaussian/g16_legacy/l103.exe)

 GradGradGradGradGradGradGradGradGradGradGradGradGradGradGradGradGradGrad
 Berny optimization.
 Initialization pass.
                           ----------------------------
                           !    Initial Parameters    !
                           ! (Angstroms and Degrees)  !
 --------------------------                            --------------------------
 ! Name  Definition              Value          Derivative Info.                !
 --------------------------------------------------------------------------------
 ! R1    R(1,2)                  1.0946         estimate D2E/DX2                !
 ! R2    R(1,3)                  1.0946         estimate D2E/DX2                !
 ! R3    R(1,4)                  1.095          estimate D2E/DX2                !
 ! R4    R(1,5)                  1.5238         estimate D2E/DX2                !
 ! R5    R(5,6)                  1.096          estimate D2E/DX2                !
 ! R6    R(5,7)                  1.0969         estimate D2E/DX2                !
 ! R7    R(5,8)                  1.5327         estimate D2E/DX2                !
 ! R8    R(8,9)                  1.0969         estimate D2E/DX2                !
 ! R9    R(8,10)                 1.5327         estimate D2E/DX2                !
 ! R10   R(8,17)                 1.4254         estimate D2E/DX2                !
 ! R11   R(10,11)                1.0968         estimate D2E/DX2                !
 ! R12   R(10,12)                1.0962         estimate D2E/DX2                !
 ! R13   R(10,13)                1.5235         estimate D2E/DX2                !
 ! R14   R(13,14)                1.0947         estimate D2E/DX2                !
 ! R15   R(13,15)                1.0954         estimate D2E/DX2                !
 ! R16   R(13,16)                1.094          estimate D2E/DX2                !
 ! R17   R(17,18)                0.9719         estimate D2E/DX2                !
 ! A1    A(2,1,3)              108.3543         estimate D2E/DX2                !
 ! A2    A(2,1,4)              107.8245         estimate D2E/DX2                !
 ! A3    A(2,1,5)              111.4475         estimate D2E/DX2                !
 ! A4    A(3,1,4)              108.0471         estimate D2E/DX2                !
 ! A5    A(3,1,5)              110.9101         estimate D2E/DX2                !
 ! A6    A(4,1,5)              110.1365         estimate D2E/DX2                !
 ! A7    A(1,5,6)              108.9654         estimate D2E/DX2                !
 ! A8    A(1,5,7)              108.1065         estimate D2E/DX2                !
 ! A9    A(1,5,8)              112.2921         estimate D2E/DX2                !
 ! A10   A(6,5,7)              107.5897         estimate D2E/DX2                !
 ! A11   A(6,5,8)              109.9553         estimate D2E/DX2                !
 ! A12   A(7,5,8)              109.8011         estimate D2E/DX2                !
 ! A13   A(5,8,9)              109.4211         estimate D2E/DX2                !
 ! A14   A(5,8,10)             110.834          estimate D2E/DX2                !
 ! A15   A(5,8,17)             108.4016         estimate D2E/DX2                !
 ! A16   A(9,8,10)             110.1574         estimate D2E/DX2                !
 ! A17   A(9,8,17)             108.1234         estimate D2E/DX2                !
 ! A18   A(10,8,17)            109.8416         estimate D2E/DX2                !
 ! A19   A(8,10,11)            109.7894         estimate D2E/DX2                !
 ! A20   A(8,10,12)            109.7357         estimate D2E/DX2                !
 ! A21   A(8,10,13)            112.8293         estimate D2E/DX2                !
 ! A22   A(11,10,12)           107.5442         estimate D2E/DX2                !
 ! A23   A(11,10,13)           108.0927         estimate D2E/DX2                !
 ! A24   A(12,10,13)           108.6963         estimate D2E/DX2                !
 ! A25   A(10,13,14)           110.9609         estimate D2E/DX2                !
 ! A26   A(10,13,15)           110.0716         estimate D2E/DX2                !
 ! A27   A(10,13,16)           111.536          estimate D2E/DX2                !
 ! A28   A(14,13,15)           108.0506         estimate D2E/DX2                !
 ! A29   A(14,13,16)           108.4624         estimate D2E/DX2                !
 ! A30   A(15,13,16)           107.6314         estimate D2E/DX2                !
 ! A31   A(8,17,18)            107.7741         estimate D2E/DX2                !
 ! D1    D(2,1,5,6)           -176.944          estimate D2E/DX2                !
 ! D2    D(2,1,5,7)            -60.2927         estimate D2E/DX2                !
 ! D3    D(2,1,5,8)             60.9889         estimate D2E/DX2                !
 ! D4    D(3,1,5,6)             62.2411         estimate D2E/DX2                !
 ! D5    D(3,1,5,7)            178.8924         estimate D2E/DX2                !
 ! D6    D(3,1,5,8)            -59.826          estimate D2E/DX2                !
 ! D7    D(4,1,5,6)            -57.3181         estimate D2E/DX2                !
 ! D8    D(4,1,5,7)             59.3332         estimate D2E/DX2                !
 ! D9    D(4,1,5,8)           -179.3853         estimate D2E/DX2                !
 ! D10   D(1,5,8,9)             56.3129         estimate D2E/DX2                !
 ! D11   D(1,5,8,10)           177.9893         estimate D2E/DX2                !
 ! D12   D(1,5,8,17)           -61.3909         estimate D2E/DX2                !
 ! D13   D(6,5,8,9)            -65.1898         estimate D2E/DX2                !
 ! D14   D(6,5,8,10)            56.4866         estimate D2E/DX2                !
 ! D15   D(6,5,8,17)           177.1064         estimate D2E/DX2                !
 ! D16   D(7,5,8,9)            176.6179         estimate D2E/DX2                !
 ! D17   D(7,5,8,10)           -61.7057         estimate D2E/DX2                !
 ! D18   D(7,5,8,17)            58.9141         estimate D2E/DX2                !
 ! D19   D(5,8,10,11)           62.252          estimate D2E/DX2                !
 ! D20   D(5,8,10,12)          -55.7457         estimate D2E/DX2                !
 ! D21   D(5,8,10,13)         -177.113          estimate D2E/DX2                !
 ! D22   D(9,8,10,11)         -176.5046         estimate D2E/DX2                !
 ! D23   D(9,8,10,12)           65.4976         estimate D2E/DX2                !
 ! D24   D(9,8,10,13)          -55.8697         estimate D2E/DX2                !
 ! D25   D(17,8,10,11)         -57.5097         estimate D2E/DX2                !
 ! D26   D(17,8,10,12)        -175.5074         estimate D2E/DX2                !
 ! D27   D(17,8,10,13)          63.1253         estimate D2E/DX2                !
 ! D28   D(5,8,17,18)          167.8001         estimate D2E/DX2                !
 ! D29   D(9,8,17,18)           49.2708         estimate D2E/DX2                !
 ! D30   D(10,8,17,18)         -70.9661         estimate D2E/DX2                !
 ! D31   D(8,10,13,14)          57.7551         estimate D2E/DX2                !
 ! D32   D(8,10,13,15)         177.3091         estimate D2E/DX2                !
 ! D33   D(8,10,13,16)         -63.2928         estimate D2E/DX2                !
 ! D34   D(11,10,13,14)        179.3547         estimate D2E/DX2                !
 ! D35   D(11,10,13,15)        -61.0913         estimate D2E/DX2                !
 ! D36   D(11,10,13,16)         58.3068         estimate D2E/DX2                !
 ! D37   D(12,10,13,14)        -64.1997         estimate D2E/DX2                !
 ! D38   D(12,10,13,15)         55.3543         estimate D2E/DX2                !
 ! D39   D(12,10,13,16)        174.7524         estimate D2E/DX2                !
 --------------------------------------------------------------------------------
 Trust Radius=3.00D-01 FncErr=1.00D-07 GrdErr=1.00D-07 EigMax=2.50D+02 EigMin=1.00D-04
 Number of steps in this run=     97 maximum allowed number of steps=    108.
 GradGradGradGradGradGradGradGradGradGradGradGradGradGradGradGradGradGrad

 Leave Link  103 at Sun Sep 19 19:55:12 2021, MaxMem=   524288000 cpu:               0.0 elap:               0.1
 (Enter /opt/gaussian/g16_legacy/l202.exe)
                          Input orientation:                          
 ---------------------------------------------------------------------
 Center     Atomic      Atomic             Coordinates (Angstroms)
 Number     Number       Type             X           Y           Z
 ---------------------------------------------------------------------
      1          6           0       -2.202200    1.158000   -0.008200
      2          1           0       -1.908700    0.104200   -0.046500
      3          1           0       -1.848500    1.647700   -0.921000
      4          1           0       -3.296300    1.201200   -0.002200
      5          6           0       -1.643200    1.847400    1.230400
      6          1           0       -2.005400    2.881500    1.256500
      7          1           0       -2.040800    1.334500    2.114700
      8          6           0       -0.111000    1.828800    1.264500
      9          1           0        0.279800    2.289300    0.348900
     10          6           0        0.415900    2.573000    2.496400
     11          1           0        0.072400    2.070600    3.408800
     12          1           0        0.016700    3.593800    2.511000
     13          6           0        1.937200    2.642900    2.538900
     14          1           0        2.332200    3.128000    1.640500
     15          1           0        2.262700    3.223300    3.409000
     16          1           0        2.382900    1.647000    2.619300
     17          8           0        0.321900    0.471100    1.297600
     18          1           0        1.278000    0.460200    1.123200
 ---------------------------------------------------------------------
                    Distance matrix (angstroms):
                    1          2          3          4          5
     1  C    0.000000
     2  H    1.094579   0.000000
     3  H    1.094584   1.775040   0.000000
     4  H    1.094969   1.769408   1.771914   0.000000
     5  C    1.523773   2.177088   2.170380   2.160930   0.000000
     6  H    2.146776   3.069292   2.507666   2.464580   1.096008
     7  H    2.136330   2.490356   3.057867   2.464815   1.096877
     8  C    2.538278   2.815083   2.797877   3.484903   1.532692
     9  H    2.750942   3.117777   2.560070   3.754427   2.161075
    10  C    3.889691   4.238523   4.202655   4.680306   2.523716
    11  H    4.205060   4.441912   4.755614   4.872260   2.781821
    12  H    4.147651   4.735534   4.364046   4.797570   2.728574
    13  C    5.082055   5.283960   5.224256   5.993764   3.894131
    14  H    5.211516   5.474903   5.121604   6.171793   4.196656
    15  H    5.989829   6.250587   6.175223   6.828445   4.679258
    16  H    5.307167   5.282476   5.517107   6.270910   4.263647
    17  O    2.923701   2.629980   3.319218   3.913297   2.400070
    18  H    3.725424   3.413208   3.919683   4.768629   3.235618
                    6          7          8          9         10
     6  H    0.000000
     7  H    1.769455   0.000000
     8  C    2.167255   2.165941   0.000000
     9  H    2.529146   3.068367   1.096863   0.000000
    10  C    2.737740   2.777580   1.532656   2.170430   0.000000
    11  H    3.099549   2.584986   2.165670   3.074709   1.096755
    12  H    2.483954   3.081363   2.164554   2.538822   1.096178
    13  C    4.152779   4.209078   2.545973   2.769135   1.523498
    14  H    4.361536   4.750225   2.792584   2.565929   2.170897
    15  H    4.792365   4.874719   3.489694   3.764102   2.160185
    16  H    4.757982   4.463339   2.843953   3.160743   2.177537
    17  O    3.350827   2.644894   1.425429   2.051257   2.421558
    18  H    4.081811   3.572381   1.955084   2.222960   2.663235
                   11         12         13         14         15
    11  H    0.000000
    12  H    1.768979   0.000000
    13  C    2.135821   2.143201   0.000000
    14  H    3.058051   2.517197   1.094746   0.000000
    15  H    2.475102   2.447078   1.095394   1.772429   0.000000
    16  H    2.478136   3.066050   1.094043   1.775945   1.767143
    17  O    2.660416   3.364037   2.977706   3.349329   3.974836
    18  H    3.044803   3.651892   2.683828   2.914806   3.718768
                   16         17         18
    16  H    0.000000
    17  O    2.716128   0.000000
    18  H    2.206267   0.971937   0.000000
 Stoichiometry    C5H12O
 Framework group  C1[X(C5H12O)]
 Deg. of freedom    48
 Full point group                 C1      NOp   1
 Largest Abelian subgroup         C1      NOp   1
 Largest concise Abelian subgroup C1      NOp   1
                         Standard orientation:                         
 ---------------------------------------------------------------------
 Center     Atomic      Atomic             Coordinates (Angstroms)
 Number     Number       Type             X           Y           Z
 ---------------------------------------------------------------------
      1          6           0       -2.548154   -0.010819    0.249705
      2          1           0       -2.627854    1.005820   -0.148035
      3          1           0       -2.573443    0.043688    1.342638
      4          1           0       -3.428595   -0.570671   -0.082479
      5          6           0       -1.276622   -0.699162   -0.231204
      6          1           0       -1.264870   -1.728612    0.144733
      7          1           0       -1.308097   -0.746635   -1.326601
      8          6           0       -0.010497    0.037121    0.220417
      9          1           0       -0.015145    0.134180    1.312967
     10          6           0        1.247064   -0.709396   -0.238153
     11          1           0        1.276878   -0.748488   -1.333806
     12          1           0        1.218997   -1.741987    0.128690
     13          6           0        2.533721   -0.053557    0.247064
     14          1           0        2.548105    0.019916    1.339248
     15          1           0        3.399388   -0.648032   -0.064557
     16          1           0        2.654293    0.950919   -0.169374
     17          8           0       -0.027280    1.347148   -0.341184
     18          1           0        0.665513    1.867597    0.099080
 ---------------------------------------------------------------------
 Rotational constants (GHZ):           7.3657622           1.9065151           1.6553650
 Leave Link  202 at Sun Sep 19 19:55:12 2021, MaxMem=   524288000 cpu:               0.0 elap:               0.1
 (Enter /opt/gaussian/g16_legacy/l301.exe)
 Standard basis: 6-31G(d,p) (6D, 7F)
 Ernie: Thresh=  0.10000D-02 Tol=  0.10000D-05 Strict=F.
 There are   150 symmetry adapted cartesian basis functions of A   symmetry.
 There are   150 symmetry adapted basis functions of A   symmetry.
   150 basis functions,   252 primitive gaussians,   150 cartesian basis functions
    25 alpha electrons       25 beta electrons
       nuclear repulsion energy       258.7035595024 Hartrees.
 IExCor=    0 DFT=F Ex=HF Corr=None ExCW=0 ScaHFX=  1.000000
 ScaDFX=  1.000000  1.000000  1.000000  1.000000 ScalE2=  1.000000  1.000000
 IRadAn=      5 IRanWt=     -1 IRanGd=            0 ICorTp=0 IEmpDi=  4
 NAtoms=   18 NActive=   18 NUniq=   18 SFac= 1.00D+00 NAtFMM=   60 NAOKFM=F Big=F
 Integral buffers will be    131072 words long.
 Raffenetti 1 integral format.
 Two-electron integral symmetry is turned on.
 Leave Link  301 at Sun Sep 19 19:55:12 2021, MaxMem=   524288000 cpu:               0.0 elap:               0.1
 (Enter /opt/gaussian/g16_legacy/l302.exe)
 NPDir=0 NMtPBC=     1 NCelOv=     1 NCel=       1 NClECP=     1 NCelD=      1
         NCelK=      1 NCelE2=     1 NClLst=     1 CellRange=     0.0.
 One-electron integrals computed using PRISM.
 One-electron integral symmetry used in STVInt
 NBasis=   150 RedAO= T EigKep=  3.15D-03  NBF=   150
 NBsUse=   150 1.00D-06 EigRej= -1.00D+00 NBFU=   150
 Leave Link  302 at Sun Sep 19 19:55:13 2021, MaxMem=   524288000 cpu:               0.1 elap:               0.4
 (Enter /opt/gaussian/g16_legacy/l303.exe)
 DipDrv:  MaxL=1.
 Leave Link  303 at Sun Sep 19 19:55:13 2021, MaxMem=   524288000 cpu:               0.0 elap:               0.3
 (Enter /opt/gaussian/g16_legacy/l401.exe)
 ExpMin= 1.61D-01 ExpMax= 5.48D+03 ExpMxC= 8.25D+02 IAcc=3 IRadAn=         5 AccDes= 0.00D+00
 Harris functional with IExCor=  205 and IRadAn=       5 diagonalized for initial guess.
 HarFok:  IExCor=  205 AccDes= 0.00D+00 IRadAn=         5 IDoV= 1 UseB2=F ITyADJ=14
 ICtDFT=  3500011 ScaDFX=  1.000000  1.000000  1.000000  1.000000
 FoFCou: FMM=F IPFlag=           0 FMFlag=      100000 FMFlg1=           0
         NFxFlg=           0 DoJE=T BraDBF=F KetDBF=T FulRan=T
         wScrn=  0.000000 ICntrl=       500 IOpCl=  0 I1Cent=   200000004 NGrid=           0
         NMat0=    1 NMatS0=      1 NMatT0=    0 NMatD0=    1 NMtDS0=    0 NMtDT0=    0
 Petite list used in FoFCou.
 Harris En= -271.797718563846    
 JPrj=0 DoOrth=F DoCkMO=F.
 Leave Link  401 at Sun Sep 19 19:55:16 2021, MaxMem=   524288000 cpu:               2.9 elap:               3.2
 (Enter /opt/gaussian/g16_legacy/l502.exe)
 Keep R1 ints in memory in canonical form, NReq=65856006.
 FoFCou: FMM=F IPFlag=           0 FMFlag=           0 FMFlg1=           0
         NFxFlg=           0 DoJE=F BraDBF=F KetDBF=F FulRan=T
         wScrn=  0.000000 ICntrl=       600 IOpCl=  0 I1Cent=           0 NGrid=           0
         NMat0=    1 NMatS0=  11325 NMatT0=    0 NMatD0=    1 NMtDS0=    0 NMtDT0=    0
 Symmetry not used in FoFCou.
 Two-electron integral symmetry not used.
 Closed shell SCF:
 Using DIIS extrapolation, IDIIS=  1040.
 NGot=   524288000 LenX=   460106785 LenY=   460083844
 Requested convergence on RMS density matrix=1.00D-08 within 128 cycles.
 Requested convergence on MAX density matrix=1.00D-06.
 Requested convergence on             energy=1.00D-06.
 No special actions if energy rises.

 Cycle   1  Pass 1  IDiag  1:
 E= -270.824446058216    
 DIIS: error= 6.28D-02 at cycle   1 NSaved=   1.
 NSaved= 1 IEnMin= 1 EnMin= -270.824446058216     IErMin= 1 ErrMin= 6.28D-02
 ErrMax= 6.28D-02  0.00D+00 EMaxC= 1.00D-01 BMatC= 5.16D-01 BMatP= 5.16D-01
 IDIUse=3 WtCom= 3.72D-01 WtEn= 6.28D-01
 Coeff-Com:  0.100D+01
 Coeff-En:   0.100D+01
 Coeff:      0.100D+01
 Gap=     0.594 Goal=   None    Shift=    0.000
 GapD=    0.594 DampG=2.000 DampE=0.500 DampFc=1.0000 IDamp=-1.
 RMSDP=4.89D-03 MaxDP=1.16D-01              OVMax= 1.24D-01

 Cycle   2  Pass 1  IDiag  1:
 E= -271.142180410479     Delta-E=       -0.317734352262 Rises=F Damp=F
 DIIS: error= 1.69D-02 at cycle   2 NSaved=   2.
 NSaved= 2 IEnMin= 2 EnMin= -271.142180410479     IErMin= 2 ErrMin= 1.69D-02
 ErrMax= 1.69D-02  0.00D+00 EMaxC= 1.00D-01 BMatC= 7.15D-02 BMatP= 5.16D-01
 IDIUse=3 WtCom= 8.31D-01 WtEn= 1.69D-01
 Coeff-Com:  0.216D+00 0.784D+00
 Coeff-En:   0.000D+00 0.100D+01
 Coeff:      0.180D+00 0.820D+00
 Gap=     0.663 Goal=   None    Shift=    0.000
 RMSDP=1.84D-03 MaxDP=3.44D-02 DE=-3.18D-01 OVMax= 4.45D-02

 Cycle   3  Pass 1  IDiag  1:
 E= -271.201719341452     Delta-E=       -0.059538930973 Rises=F Damp=F
 DIIS: error= 2.79D-03 at cycle   3 NSaved=   3.
 NSaved= 3 IEnMin= 3 EnMin= -271.201719341452     IErMin= 3 ErrMin= 2.79D-03
 ErrMax= 2.79D-03  0.00D+00 EMaxC= 1.00D-01 BMatC= 3.19D-03 BMatP= 7.15D-02
 IDIUse=3 WtCom= 9.72D-01 WtEn= 2.79D-02
 Coeff-Com: -0.238D-01 0.129D+00 0.895D+00
 Coeff-En:   0.000D+00 0.000D+00 0.100D+01
 Coeff:     -0.231D-01 0.125D+00 0.898D+00
 Gap=     0.631 Goal=   None    Shift=    0.000
 RMSDP=3.17D-04 MaxDP=1.00D-02 DE=-5.95D-02 OVMax= 1.01D-02

 Cycle   4  Pass 1  IDiag  1:
 E= -271.204692988545     Delta-E=       -0.002973647093 Rises=F Damp=F
 DIIS: error= 7.58D-04 at cycle   4 NSaved=   4.
 NSaved= 4 IEnMin= 4 EnMin= -271.204692988545     IErMin= 4 ErrMin= 7.58D-04
 ErrMax= 7.58D-04  0.00D+00 EMaxC= 1.00D-01 BMatC= 1.11D-04 BMatP= 3.19D-03
 IDIUse=3 WtCom= 9.92D-01 WtEn= 7.58D-03
 Coeff-Com: -0.726D-02 0.109D-01 0.179D+00 0.817D+00
 Coeff-En:   0.000D+00 0.000D+00 0.000D+00 0.100D+01
 Coeff:     -0.721D-02 0.108D-01 0.178D+00 0.818D+00
 Gap=     0.632 Goal=   None    Shift=    0.000
 RMSDP=8.23D-05 MaxDP=2.38D-03 DE=-2.97D-03 OVMax= 2.22D-03

 Cycle   5  Pass 1  IDiag  1:
 E= -271.204797232282     Delta-E=       -0.000104243737 Rises=F Damp=F
 DIIS: error= 1.98D-04 at cycle   5 NSaved=   5.
 NSaved= 5 IEnMin= 5 EnMin= -271.204797232282     IErMin= 5 ErrMin= 1.98D-04
 ErrMax= 1.98D-04  0.00D+00 EMaxC= 1.00D-01 BMatC= 1.18D-05 BMatP= 1.11D-04
 IDIUse=3 WtCom= 9.98D-01 WtEn= 1.98D-03
 Coeff-Com:  0.227D-02-0.161D-01-0.954D-01 0.958D-01 0.101D+01
 Coeff-En:   0.000D+00 0.000D+00 0.000D+00 0.000D+00 0.100D+01
 Coeff:      0.226D-02-0.161D-01-0.952D-01 0.956D-01 0.101D+01
 Gap=     0.633 Goal=   None    Shift=    0.000
 RMSDP=3.60D-05 MaxDP=6.47D-04 DE=-1.04D-04 OVMax= 8.09D-04

 Cycle   6  Pass 1  IDiag  1:
 E= -271.204812769197     Delta-E=       -0.000015536914 Rises=F Damp=F
 DIIS: error= 3.86D-05 at cycle   6 NSaved=   6.
 NSaved= 6 IEnMin= 6 EnMin= -271.204812769197     IErMin= 6 ErrMin= 3.86D-05
 ErrMax= 3.86D-05  0.00D+00 EMaxC= 1.00D-01 BMatC= 2.70D-07 BMatP= 1.18D-05
 IDIUse=1 WtCom= 1.00D+00 WtEn= 0.00D+00
 Coeff-Com:  0.544D-03-0.229D-02-0.165D-01-0.270D-01 0.823D-01 0.963D+00
 Coeff:      0.544D-03-0.229D-02-0.165D-01-0.270D-01 0.823D-01 0.963D+00
 Gap=     0.633 Goal=   None    Shift=    0.000
 RMSDP=6.83D-06 MaxDP=1.09D-04 DE=-1.55D-05 OVMax= 1.56D-04

 Cycle   7  Pass 1  IDiag  1:
 E= -271.204813211064     Delta-E=       -0.000000441867 Rises=F Damp=F
 DIIS: error= 8.02D-06 at cycle   7 NSaved=   7.
 NSaved= 7 IEnMin= 7 EnMin= -271.204813211064     IErMin= 7 ErrMin= 8.02D-06
 ErrMax= 8.02D-06  0.00D+00 EMaxC= 1.00D-01 BMatC= 1.88D-08 BMatP= 2.70D-07
 IDIUse=1 WtCom= 1.00D+00 WtEn= 0.00D+00
 Coeff-Com: -0.245D-04 0.340D-03 0.200D-02-0.837D-02-0.323D-01 0.114D+00
 Coeff-Com:  0.924D+00
 Coeff:     -0.245D-04 0.340D-03 0.200D-02-0.837D-02-0.323D-01 0.114D+00
 Coeff:      0.924D+00
 Gap=     0.633 Goal=   None    Shift=    0.000
 RMSDP=1.75D-06 MaxDP=3.77D-05 DE=-4.42D-07 OVMax= 4.70D-05

 Cycle   8  Pass 1  IDiag  1:
 E= -271.204813240780     Delta-E=       -0.000000029716 Rises=F Damp=F
 DIIS: error= 3.06D-06 at cycle   8 NSaved=   8.
 NSaved= 8 IEnMin= 8 EnMin= -271.204813240780     IErMin= 8 ErrMin= 3.06D-06
 ErrMax= 3.06D-06  0.00D+00 EMaxC= 1.00D-01 BMatC= 1.90D-09 BMatP= 1.88D-08
 IDIUse=1 WtCom= 1.00D+00 WtEn= 0.00D+00
 Coeff-Com: -0.539D-04 0.251D-03 0.184D-02 0.212D-02-0.937D-02-0.956D-01
 Coeff-Com:  0.412D-01 0.106D+01
 Coeff:     -0.539D-04 0.251D-03 0.184D-02 0.212D-02-0.937D-02-0.956D-01
 Coeff:      0.412D-01 0.106D+01
 Gap=     0.633 Goal=   None    Shift=    0.000
 RMSDP=6.35D-07 MaxDP=1.71D-05 DE=-2.97D-08 OVMax= 1.84D-05

 Cycle   9  Pass 1  IDiag  1:
 E= -271.204813244622     Delta-E=       -0.000000003842 Rises=F Damp=F
 DIIS: error= 7.17D-07 at cycle   9 NSaved=   9.
 NSaved= 9 IEnMin= 9 EnMin= -271.204813244622     IErMin= 9 ErrMin= 7.17D-07
 ErrMax= 7.17D-07  0.00D+00 EMaxC= 1.00D-01 BMatC= 1.05D-10 BMatP= 1.90D-09
 IDIUse=1 WtCom= 1.00D+00 WtEn= 0.00D+00
 Coeff-Com:  0.103D-04-0.642D-04-0.457D-03 0.110D-03 0.386D-02 0.121D-01
 Coeff-Com: -0.687D-01-0.204D+00 0.126D+01
 Coeff:      0.103D-04-0.642D-04-0.457D-03 0.110D-03 0.386D-02 0.121D-01
 Coeff:     -0.687D-01-0.204D+00 0.126D+01
 Gap=     0.633 Goal=   None    Shift=    0.000
 RMSDP=1.86D-07 MaxDP=6.21D-06 DE=-3.84D-09 OVMax= 5.81D-06

 Cycle  10  Pass 1  IDiag  1:
 E= -271.204813244915     Delta-E=       -0.000000000293 Rises=F Damp=F
 DIIS: error= 1.80D-07 at cycle  10 NSaved=  10.
 NSaved=10 IEnMin=10 EnMin= -271.204813244915     IErMin=10 ErrMin= 1.80D-07
 ErrMax= 1.80D-07  0.00D+00 EMaxC= 1.00D-01 BMatC= 4.67D-12 BMatP= 1.05D-10
 IDIUse=1 WtCom= 1.00D+00 WtEn= 0.00D+00
 Coeff-Com:  0.129D-05-0.447D-05-0.373D-04-0.147D-03 0.250D-04 0.382D-02
 Coeff-Com:  0.562D-02-0.320D-01-0.153D+00 0.118D+01
 Coeff:      0.129D-05-0.447D-05-0.373D-04-0.147D-03 0.250D-04 0.382D-02
 Coeff:      0.562D-02-0.320D-01-0.153D+00 0.118D+01
 Gap=     0.633 Goal=   None    Shift=    0.000
 RMSDP=3.88D-08 MaxDP=1.47D-06 DE=-2.93D-10 OVMax= 1.26D-06

 Cycle  11  Pass 1  IDiag  1:
 E= -271.204813244933     Delta-E=       -0.000000000018 Rises=F Damp=F
 DIIS: error= 4.97D-08 at cycle  11 NSaved=  11.
 NSaved=11 IEnMin=11 EnMin= -271.204813244933     IErMin=11 ErrMin= 4.97D-08
 ErrMax= 4.97D-08  0.00D+00 EMaxC= 1.00D-01 BMatC= 3.29D-13 BMatP= 4.67D-12
 IDIUse=1 WtCom= 1.00D+00 WtEn= 0.00D+00
 Coeff-Com: -0.553D-06 0.347D-05 0.239D-04 0.179D-05-0.190D-03-0.810D-03
 Coeff-Com:  0.301D-02 0.120D-01-0.544D-01-0.568D-01 0.110D+01
 Coeff:     -0.553D-06 0.347D-05 0.239D-04 0.179D-05-0.190D-03-0.810D-03
 Coeff:      0.301D-02 0.120D-01-0.544D-01-0.568D-01 0.110D+01
 Gap=     0.633 Goal=   None    Shift=    0.000
 RMSDP=8.58D-09 MaxDP=3.38D-07 DE=-1.83D-11 OVMax= 3.62D-07

 SCF Done:  E(RHF) =  -271.204813245     A.U. after   11 cycles
            NFock= 11  Conv=0.86D-08     -V/T= 2.0017
 KE= 2.707460026913D+02 PE=-1.151297093760D+03 EE= 3.506427183216D+02
 Leave Link  502 at Sun Sep 19 19:55:20 2021, MaxMem=   524288000 cpu:               3.1 elap:               3.3
 (Enter /opt/gaussian/g16_legacy/l801.exe)
 ExpMin= 1.61D-01 ExpMax= 5.48D+03 ExpMxC= 8.25D+02 IAcc=3 IRadAn=         5 AccDes= 0.00D+00
 HarFok:  IExCor=  205 AccDes= 0.00D+00 IRadAn=         5 IDoV=-2 UseB2=F ITyADJ=14
 ICtDFT= 12500011 ScaDFX=  1.000000  1.000000  1.000000  1.000000
 Largest valence mixing into a core orbital is  2.03D-04
 Largest core mixing into a valence orbital is  3.24D-05
 Range of M.O.s used for correlation:     7   150
 NBasis=   150 NAE=    25 NBE=    25 NFC=     6 NFV=     0
 NROrb=    144 NOA=    19 NOB=    19 NVA=   125 NVB=   125
 Leave Link  801 at Sun Sep 19 19:55:21 2021, MaxMem=   524288000 cpu:               0.6 elap:               0.9
 (Enter /opt/gaussian/g16_legacy/l906.exe)
 Frozen-core derivative calculation, NFC=   6 NFV=   0.
 FulOut=F Deriv=T AODrv=T NAtomX=    18
   MMem=         321  MDisk=          19 MDiskD=          19
  W3Min=      562500 MinDsk=      807575 NBas6D=         150
 NBas2D=       11523    NTT=       11325    LW2=     2040000
    MDV=   524002667 MDiskM=       48333 NBas2p=       10825
 Fully direct method using O(ONN) memory.
 IMap=   1   2   3   4   5   6   7   8   9  10  11  12  13  14  15  16  17  18  19  20
 IMap=  21  22  23  24  25
 JobTyp=1 Pass  1:  I=   7 to  25 NPSUse=  1 ParTrn=F ParDer=F DoDerP=T.
 Spin components of T(2) and E(2):
     alpha-alpha T2 =       0.3387648114D-01 E2=     -0.1060311191D+00
     alpha-beta  T2 =       0.2151399893D+00 E2=     -0.7038564147D+00
     beta-beta   T2 =       0.3387648114D-01 E2=     -0.1060311191D+00
 The integrals were generated   1 times.
 ANorm=    0.1132648644D+01
 E2 =    -0.9159186529D+00 EUMP2 =    -0.27212073189784D+03
 Leave Link  906 at Sun Sep 19 19:55:41 2021, MaxMem=   524288000 cpu:              19.9 elap:              20.1
 (Enter /opt/gaussian/g16_legacy/l1002.exe)
 Minotr:  Closed shell wavefunction.
          Computing MP2/KS-MP2 derivatives.
          Using Z-Vector for PSCF gradient.
          Skipping F1 and S1 gradient terms here.
          IDoAtm=111111111111111111
          Frozen-core window.
          Direct CPHF calculation.
          Differentiating once with respect to electric field.
                with respect to dipole field.
          Differentiating once with respect to nuclear coordinates.
          Requested convergence is 1.0D-10 RMS, and 1.0D-09 maximum.
          NewPWx=F KeepS1=T KeepF1=T KeepIn=T MapXYZ=F SortEE=F KeepMc=T.
 Keep R1 ints in memory in canonical form, NReq=65858022.
 FoFCou: FMM=F IPFlag=           0 FMFlag=           0 FMFlg1=           0
         NFxFlg=           0 DoJE=F BraDBF=F KetDBF=F FulRan=T
         wScrn=  0.000000 ICntrl=       600 IOpCl=  0 I1Cent=           0 NGrid=           0
         NMat0=    1 NMatS0=  11325 NMatT0=    0 NMatD0=    1 NMtDS0=    0 NMtDT0=    0
 Symmetry not used in FoFCou.
 Two-electron integral symmetry not used.
          MDV=     524288000 using IRadAn=       5.
          Solving linear equations separately, MaxMat=       0.
          There are     1 degrees of freedom in the 1st order CPHF.  IDoFFX=0 NUNeed=     1.
 LinEq1:  Iter=  0 NonCon=     1 RMS=2.94D-03 Max=2.38D-02 NDo=     1
 AX will form     1 AO Fock derivatives at one time.
 LinEq1:  Iter=  1 NonCon=     1 RMS=8.87D-04 Max=8.59D-03 NDo=     1
 LinEq1:  Iter=  2 NonCon=     1 RMS=1.98D-04 Max=2.01D-03 NDo=     1
 LinEq1:  Iter=  3 NonCon=     1 RMS=7.49D-05 Max=7.64D-04 NDo=     1
 LinEq1:  Iter=  4 NonCon=     1 RMS=1.63D-05 Max=1.75D-04 NDo=     1
 LinEq1:  Iter=  5 NonCon=     1 RMS=3.54D-06 Max=2.80D-05 NDo=     1
 LinEq1:  Iter=  6 NonCon=     1 RMS=9.58D-07 Max=9.78D-06 NDo=     1
 LinEq1:  Iter=  7 NonCon=     1 RMS=2.95D-07 Max=2.57D-06 NDo=     1
 LinEq1:  Iter=  8 NonCon=     1 RMS=6.65D-08 Max=8.52D-07 NDo=     1
 LinEq1:  Iter=  9 NonCon=     1 RMS=1.27D-08 Max=1.29D-07 NDo=     1
 LinEq1:  Iter= 10 NonCon=     1 RMS=2.75D-09 Max=3.29D-08 NDo=     1
 LinEq1:  Iter= 11 NonCon=     1 RMS=7.10D-10 Max=5.36D-09 NDo=     1
 LinEq1:  Iter= 12 NonCon=     1 RMS=2.14D-10 Max=2.32D-09 NDo=     1
 LinEq1:  Iter= 13 NonCon=     0 RMS=4.53D-11 Max=4.97D-10 NDo=     1
 Linear equations converged to 1.000D-10 1.000D-09 after    13 iterations.
 End of Minotr F.D. properties file   721 does not exist.
 End of Minotr F.D. properties file   722 does not exist.
 End of Minotr F.D. properties file   788 does not exist.
 Leave Link 1002 at Sun Sep 19 19:55:45 2021, MaxMem=   524288000 cpu:               3.5 elap:               3.7
 (Enter /opt/gaussian/g16_legacy/l601.exe)
 Copying SCF densities to generalized density rwf, IOpCl= 0 IROHF=0.

 **********************************************************************

            Population analysis using the SCF density.

 **********************************************************************

 Orbital symmetries:
       Occupied  (A) (A) (A) (A) (A) (A) (A) (A) (A) (A) (A) (A)
                 (A) (A) (A) (A) (A) (A) (A) (A) (A) (A) (A) (A)
                 (A)
       Virtual   (A) (A) (A) (A) (A) (A) (A) (A) (A) (A) (A) (A)
                 (A) (A) (A) (A) (A) (A) (A) (A) (A) (A) (A) (A)
                 (A) (A) (A) (A) (A) (A) (A) (A) (A) (A) (A) (A)
                 (A) (A) (A) (A) (A) (A) (A) (A) (A) (A) (A) (A)
                 (A) (A) (A) (A) (A) (A) (A) (A) (A) (A) (A) (A)
                 (A) (A) (A) (A) (A) (A) (A) (A) (A) (A) (A) (A)
                 (A) (A) (A) (A) (A) (A) (A) (A) (A) (A) (A) (A)
                 (A) (A) (A) (A) (A) (A) (A) (A) (A) (A) (A) (A)
                 (A) (A) (A) (A) (A) (A) (A) (A) (A) (A) (A) (A)
                 (A) (A) (A) (A) (A) (A) (A) (A) (A) (A) (A) (A)
                 (A) (A) (A) (A) (A)
 The electronic state is 1-A.
 Alpha  occ. eigenvalues --  -20.55493 -11.27460 -11.21969 -11.21829 -11.21593
 Alpha  occ. eigenvalues --  -11.20476  -1.35072  -1.06596  -1.02036  -0.91594
 Alpha  occ. eigenvalues --   -0.82145  -0.78140  -0.69848  -0.63672  -0.59846
 Alpha  occ. eigenvalues --   -0.58144  -0.57738  -0.54786  -0.52439  -0.50546
 Alpha  occ. eigenvalues --   -0.48916  -0.48394  -0.47544  -0.44865  -0.42142
 Alpha virt. eigenvalues --    0.21134   0.25485   0.26517   0.27428   0.29096
 Alpha virt. eigenvalues --    0.30428   0.31880   0.32823   0.33365   0.34923
 Alpha virt. eigenvalues --    0.35482   0.37314   0.39520   0.43396   0.43990
 Alpha virt. eigenvalues --    0.45575   0.46246   0.68391   0.72452   0.74854
 Alpha virt. eigenvalues --    0.75811   0.76780   0.80120   0.83053   0.88095
 Alpha virt. eigenvalues --    0.89364   0.91953   0.96070   0.99151   1.04155
 Alpha virt. eigenvalues --    1.04887   1.05913   1.09817   1.11771   1.12238
 Alpha virt. eigenvalues --    1.14247   1.15443   1.17205   1.17508   1.17769
 Alpha virt. eigenvalues --    1.19189   1.19346   1.21491   1.22325   1.24037
 Alpha virt. eigenvalues --    1.30268   1.36908   1.42546   1.51498   1.54880
 Alpha virt. eigenvalues --    1.58562   1.62794   1.68966   1.77427   1.83564
 Alpha virt. eigenvalues --    1.85841   1.88155   1.90633   1.95128   1.98029
 Alpha virt. eigenvalues --    1.99677   2.07933   2.09516   2.16127   2.17293
 Alpha virt. eigenvalues --    2.21045   2.25108   2.30164   2.34785   2.35652
 Alpha virt. eigenvalues --    2.37297   2.38260   2.39898   2.41176   2.43340
 Alpha virt. eigenvalues --    2.44293   2.45115   2.46859   2.54293   2.56572
 Alpha virt. eigenvalues --    2.58712   2.60263   2.61816   2.68386   2.70806
 Alpha virt. eigenvalues --    2.73662   2.75377   2.77419   2.82147   2.91163
 Alpha virt. eigenvalues --    2.93193   2.96955   2.98573   3.01201   3.05063
 Alpha virt. eigenvalues --    3.05541   3.09569   3.10956   3.15916   3.19407
 Alpha virt. eigenvalues --    3.19903   3.22881   3.24717   3.26380   3.27821
 Alpha virt. eigenvalues --    3.32774   3.35077   3.55137   3.57237   3.65951
 Alpha virt. eigenvalues --    3.66723   3.71210   3.76697   3.82377   3.83826
 Alpha virt. eigenvalues --    3.85555   3.87572   3.92538   3.95401   4.35070
 Alpha virt. eigenvalues --    4.74577   4.82605   4.94593   5.04541   5.15796
          Condensed to atoms (all electrons):
               1          2          3          4          5          6
     1  C    4.930017   0.405427   0.399622   0.402457   0.334951  -0.040496
     2  H    0.405427   0.548907  -0.028472  -0.029065  -0.035399   0.004206
     3  H    0.399622  -0.028472   0.600558  -0.029901  -0.041610  -0.003052
     4  H    0.402457  -0.029065  -0.029901   0.592479  -0.039195  -0.003560
     5  C    0.334951  -0.035399  -0.041610  -0.039195   4.979374   0.405176
     6  H   -0.040496   0.004206  -0.003052  -0.003560   0.405176   0.598465
     7  H   -0.042110  -0.002833   0.004569  -0.003304   0.404216  -0.028515
     8  C   -0.053370  -0.005875  -0.004773   0.004764   0.372898  -0.040867
     9  H   -0.006286   0.000493   0.002921  -0.000099  -0.045476   0.000116
    10  C    0.005164   0.000060  -0.000052  -0.000088  -0.065641  -0.002886
    11  H   -0.000086   0.000014  -0.000001  -0.000000  -0.004983   0.000509
    12  H   -0.000129  -0.000007   0.000012  -0.000005  -0.003138   0.000565
    13  C   -0.000123  -0.000002  -0.000000   0.000001   0.004782  -0.000060
    14  H   -0.000001   0.000000  -0.000002   0.000000  -0.000054   0.000013
    15  H    0.000001   0.000000   0.000000  -0.000000  -0.000087  -0.000003
    16  H   -0.000002  -0.000001   0.000000  -0.000000  -0.000067  -0.000003
    17  O    0.000312   0.004503   0.000098   0.000044  -0.056046   0.002510
    18  H   -0.000112  -0.000240  -0.000034   0.000007   0.005751  -0.000178
               7          8          9         10         11         12
     1  C   -0.042110  -0.053370  -0.006286   0.005164  -0.000086  -0.000129
     2  H   -0.002833  -0.005875   0.000493   0.000060   0.000014  -0.000007
     3  H    0.004569  -0.004773   0.002921  -0.000052  -0.000001   0.000012
     4  H   -0.003304   0.004764  -0.000099  -0.000088  -0.000000  -0.000005
     5  C    0.404216   0.372898  -0.045476  -0.065641  -0.004983  -0.003138
     6  H   -0.028515  -0.040867   0.000116  -0.002886   0.000509   0.000565
     7  H    0.580652  -0.036749   0.004821  -0.005835   0.002173   0.000649
     8  C   -0.036749   4.742159   0.412397   0.366177  -0.035630  -0.038959
     9  H    0.004821   0.412397   0.635468  -0.055865   0.004707   0.001512
    10  C   -0.005835   0.366177  -0.055865   5.025098   0.404513   0.393743
    11  H    0.002173  -0.035630   0.004707   0.404513   0.577221  -0.027675
    12  H    0.000649  -0.038959   0.001512   0.393743  -0.027675   0.606268
    13  C   -0.000070  -0.051312  -0.005583   0.328938  -0.043207  -0.040700
    14  H   -0.000001  -0.003966   0.003103  -0.042344   0.004620  -0.002979
    15  H    0.000000   0.004271  -0.000088  -0.036414  -0.002853  -0.003783
    16  H    0.000019  -0.005309   0.000808  -0.040485  -0.003382   0.004925
    17  O    0.000590   0.191975  -0.039951  -0.056213   0.000457   0.003323
    18  H   -0.000159  -0.023731  -0.006494  -0.004723  -0.000197  -0.000092
              13         14         15         16         17         18
     1  C   -0.000123  -0.000001   0.000001  -0.000002   0.000312  -0.000112
     2  H   -0.000002   0.000000   0.000000  -0.000001   0.004503  -0.000240
     3  H   -0.000000  -0.000002   0.000000   0.000000   0.000098  -0.000034
     4  H    0.000001   0.000000  -0.000000  -0.000000   0.000044   0.000007
     5  C    0.004782  -0.000054  -0.000087  -0.000067  -0.056046   0.005751
     6  H   -0.000060   0.000013  -0.000003  -0.000003   0.002510  -0.000178
     7  H   -0.000070  -0.000001   0.000000   0.000019   0.000590  -0.000159
     8  C   -0.051312  -0.003966   0.004271  -0.005309   0.191975  -0.023731
     9  H   -0.005583   0.003103  -0.000088   0.000808  -0.039951  -0.006494
    10  C    0.328938  -0.042344  -0.036414  -0.040485  -0.056213  -0.004723
    11  H   -0.043207   0.004620  -0.002853  -0.003382   0.000457  -0.000197
    12  H   -0.040700  -0.002979  -0.003783   0.004925   0.003323  -0.000092
    13  C    4.956326   0.399068   0.406763   0.397345  -0.001259   0.003131
    14  H    0.399068   0.595246  -0.027401  -0.032612  -0.000036   0.000060
    15  H    0.406763  -0.027401   0.566249  -0.027732   0.000074  -0.000040
    16  H    0.397345  -0.032612  -0.027732   0.596442   0.004168   0.000483
    17  O   -0.001259  -0.000036   0.000074   0.004168   8.302986   0.305590
    18  H    0.003131   0.000060  -0.000040   0.000483   0.305590   0.377182
 Mulliken charges:
               1
     1  C   -0.335237
     2  H    0.138285
     3  H    0.100115
     4  H    0.105464
     5  C   -0.215453
     6  H    0.108059
     7  H    0.121885
     8  C    0.205900
     9  H    0.093495
    10  C   -0.213146
    11  H    0.123801
    12  H    0.106470
    13  C   -0.354039
    14  H    0.107287
    15  H    0.121043
    16  H    0.105402
    17  O   -0.663126
    18  H    0.343795
 Sum of Mulliken charges =  -0.00000
 Mulliken charges with hydrogens summed into heavy atoms:
               1
     1  C    0.008628
     5  C    0.014491
     8  C    0.299395
    10  C    0.017124
    13  C   -0.020308
    17  O   -0.319331
 Electronic spatial extent (au):  <R**2>=            800.5830
 Charge=              0.0000 electrons
 Dipole moment (field-independent basis, Debye):
    X=              1.1322    Y=             -0.5865    Z=              1.0839  Tot=              1.6735
 Quadrupole moment (field-independent basis, Debye-Ang):
   XX=            -40.0238   YY=            -39.4947   ZZ=            -40.3009
   XY=              2.2401   XZ=              0.2696   YZ=              1.8022
 Traceless Quadrupole moment (field-independent basis, Debye-Ang):
   XX=             -0.0840   YY=              0.4451   ZZ=             -0.3611
   XY=              2.2401   XZ=              0.2696   YZ=              1.8022
 Octapole moment (field-independent basis, Debye-Ang**2):
  XXX=              1.6355  YYY=             10.3126  ZZZ=             -0.7273  XYY=              5.1355
  XXY=              2.0066  XXZ=             -2.9807  XZZ=              0.1069  YZZ=              1.2275
  YYZ=              2.6785  XYZ=              0.3784
 Hexadecapole moment (field-independent basis, Debye-Ang**3):
 XXXX=           -823.9203 YYYY=           -172.2646 ZZZZ=            -89.8783 XXXY=             -1.3672
 XXXZ=              0.5355 YYYX=             10.5852 YYYZ=              0.6525 ZZZX=              0.3128
 ZZZY=              0.4449 XXYY=           -161.1841 XXZZ=           -151.8992 YYZZ=            -49.0735
 XXYZ=              0.1491 YYXZ=              0.6957 ZZXY=              0.3331
 N-N= 2.587035595024D+02 E-N=-1.151297093680D+03  KE= 2.707460026913D+02
 No NMR shielding tensors so no spin-rotation constants.
 Leave Link  601 at Sun Sep 19 19:55:45 2021, MaxMem=   524288000 cpu:               0.1 elap:               0.4
 (Enter /opt/gaussian/g16_legacy/l701.exe)
 ... and contract with generalized density number  2.
 Compute integral first derivatives.
 Leave Link  701 at Sun Sep 19 19:55:45 2021, MaxMem=   524288000 cpu:               0.1 elap:               0.3
 (Enter /opt/gaussian/g16_legacy/l702.exe)
 L702 exits ... SP integral derivatives will be done elsewhere.
 Leave Link  702 at Sun Sep 19 19:55:45 2021, MaxMem=   524288000 cpu:               0.0 elap:               0.0
 (Enter /opt/gaussian/g16_legacy/l703.exe)
 Integral derivatives from FoFJK, PRISM(SPDF).
 Compute integral first derivatives, UseDBF=F ICtDFT=           0.
 Calling FoFJK, ICntrl=  10002127 FMM=F ISym2X=0 I1Cent= 0 IOpClX= 0 NMat=1 NMatS=1 NMatT=0.
 FoFJK:  IHMeth= 1 ICntrl=10002127 DoSepK=F KAlg= 0 I1Cent=           0 FoldK=F
 IRaf=         0 NMat=       1 IRICut=       1 DoRegI=T DoRafI=F ISym2E= 0 IDoP0=0 IntGTp=1.
 FoFCou: FMM=F IPFlag=           0 FMFlag=      100000 FMFlg1=         800
         NFxFlg=           0 DoJE=F BraDBF=F KetDBF=F FulRan=T
         wScrn=  0.000000 ICntrl=  10002127 IOpCl=  0 I1Cent=           0 NGrid=           0
         NMat0=    1 NMatS0=      1 NMatT0=    0 NMatD0=    1 NMtDS0=    0 NMtDT0=    0
 Symmetry not used in FoFCou.
 Leave Link  703 at Sun Sep 19 19:55:51 2021, MaxMem=   524288000 cpu:               4.9 elap:               5.1
 (Enter /opt/gaussian/g16_legacy/l716.exe)
 Dipole        = 4.16198120D-01-1.72094876D-01 3.86872378D-01
 ***** Axes restored to original set *****
 -------------------------------------------------------------------
 Center     Atomic                   Forces (Hartrees/Bohr)
 Number     Number              X              Y              Z
 -------------------------------------------------------------------
      1        6          -0.004203523   -0.003223577   -0.003607211
      2        1           0.000434597    0.005293716    0.000929704
      3        1          -0.001078445   -0.001626340    0.002019116
      4        1           0.003267972   -0.000024834   -0.001432199
      5        6           0.001841006   -0.008106025   -0.005584602
      6        1           0.004324752   -0.001782120    0.001740846
      7        1           0.004987705    0.003235803    0.000183766
      8        6          -0.005512658    0.005669109    0.013105398
      9        1          -0.001689517    0.005425461    0.000023223
     10        6           0.003889350    0.002574014   -0.001009897
     11        1          -0.003301310    0.000128199   -0.005380493
     12        1          -0.000677053   -0.002613346   -0.000795678
     13        6           0.003799220    0.002643669    0.001738542
     14        1          -0.000185839   -0.001065474    0.002355393
     15        1           0.000810770   -0.002783036   -0.003873112
     16        1          -0.001318832    0.002757497    0.000161903
     17        8           0.003066788   -0.007521392   -0.001704659
     18        1          -0.008454982    0.001018677    0.001129961
 -------------------------------------------------------------------
 Cartesian Forces:  Max     0.013105398 RMS     0.003837173
 Leave Link  716 at Sun Sep 19 19:55:51 2021, MaxMem=   524288000 cpu:               0.0 elap:               0.1
 (Enter /opt/gaussian/g16_legacy/l103.exe)

 GradGradGradGradGradGradGradGradGradGradGradGradGradGradGradGradGradGrad
 Berny optimization.
 FormGI is forming the generalized inverse of G from B-inverse, IUseBI=4.
 Internal  Forces:  Max     0.009518689 RMS     0.002816750
 Search for a local minimum.
 Step number   1 out of a maximum of   97
 All quantities printed in internal units (Hartrees-Bohrs-Radians)
 RMS Force = .28167D-02 SwitMx=.10000D-02 MixMth= 1
 Mixed Optimization -- RFO/linear search
 Second derivative matrix not updated -- first step.
 ITU=  0
     Eigenvalues ---    0.00333   0.00334   0.00451   0.00455   0.01355
     Eigenvalues ---    0.03578   0.03624   0.04388   0.04871   0.04883
     Eigenvalues ---    0.04920   0.05523   0.05537   0.05683   0.05693
     Eigenvalues ---    0.07240   0.08259   0.08347   0.12140   0.12205
     Eigenvalues ---    0.16000   0.16000   0.16000   0.16000   0.16000
     Eigenvalues ---    0.16000   0.16000   0.16362   0.19670   0.21940
     Eigenvalues ---    0.21951   0.29176   0.29179   0.30006   0.30032
     Eigenvalues ---    0.34030   0.34031   0.34044   0.34108   0.34127
     Eigenvalues ---    0.34197   0.34245   0.34270   0.34288   0.34289
     Eigenvalues ---    0.34350   0.41653   0.52983
 RFO step:  Lambda=-3.85838597D-03 EMin= 3.33491402D-03
 Linear search not attempted -- first point.
 Iteration  1 RMS(Cart)=  0.03456702 RMS(Int)=  0.00062959
 Iteration  2 RMS(Cart)=  0.00064398 RMS(Int)=  0.00029602
 Iteration  3 RMS(Cart)=  0.00000029 RMS(Int)=  0.00029602
 ITry= 1 IFail=0 DXMaxC= 1.10D-01 DCOld= 1.00D+10 DXMaxT= 3.00D-01 DXLimC= 3.00D+00 Rises=F
 Variable       Old X    -DE/DX   Delta X   Delta X   Delta X     New X
                                 (Linear)    (Quad)   (Total)
    R1        2.06845  -0.00501   0.00000  -0.01446  -0.01446   2.05400
    R2        2.06846  -0.00276   0.00000  -0.00796  -0.00796   2.06050
    R3        2.06919  -0.00327   0.00000  -0.00945  -0.00945   2.05974
    R4        2.87951   0.00209   0.00000   0.00687   0.00687   2.88639
    R5        2.07115  -0.00307   0.00000  -0.00889  -0.00889   2.06226
    R6        2.07280  -0.00317   0.00000  -0.00922  -0.00922   2.06358
    R7        2.89637  -0.00952   0.00000  -0.03220  -0.03220   2.86417
    R8        2.07277   0.00166   0.00000   0.00481   0.00481   2.07758
    R9        2.89630  -0.00363   0.00000  -0.01229  -0.01229   2.88401
   R10        2.69367   0.00454   0.00000   0.01081   0.01081   2.70448
   R11        2.07257  -0.00350   0.00000  -0.01017  -0.01017   2.06240
   R12        2.07148  -0.00220   0.00000  -0.00637  -0.00637   2.06511
   R13        2.87899   0.00318   0.00000   0.01046   0.01046   2.88946
   R14        2.06877  -0.00247   0.00000  -0.00713  -0.00713   2.06164
   R15        2.07000  -0.00431   0.00000  -0.01246  -0.01246   2.05753
   R16        2.06744  -0.00304   0.00000  -0.00874  -0.00874   2.05870
   R17        1.83669  -0.00853   0.00000  -0.01599  -0.01599   1.82071
    A1        1.89114   0.00028   0.00000  -0.00537  -0.00548   1.88566
    A2        1.88189   0.00075   0.00000   0.00898   0.00906   1.89095
    A3        1.94513  -0.00275   0.00000  -0.01829  -0.01829   1.92683
    A4        1.88578  -0.00114   0.00000  -0.00402  -0.00408   1.88170
    A5        1.93575   0.00062   0.00000   0.00147   0.00138   1.93713
    A6        1.92224   0.00224   0.00000   0.01749   0.01750   1.93974
    A7        1.90180   0.00144   0.00000   0.02360   0.02366   1.92546
    A8        1.88681   0.00242   0.00000   0.03345   0.03355   1.92037
    A9        1.95987   0.00246   0.00000   0.01318   0.01341   1.97328
   A10        1.87779   0.00038   0.00000  -0.00368  -0.00519   1.87261
   A11        1.91908  -0.00296   0.00000  -0.03080  -0.03118   1.88790
   A12        1.91639  -0.00369   0.00000  -0.03506  -0.03551   1.88088
   A13        1.90976  -0.00101   0.00000  -0.02077  -0.02058   1.88918
   A14        1.93442   0.00646   0.00000   0.02719   0.02748   1.96190
   A15        1.89197  -0.00820   0.00000  -0.04444  -0.04476   1.84720
   A16        1.92261  -0.00427   0.00000  -0.02590  -0.02599   1.89661
   A17        1.88711   0.00349   0.00000   0.03503   0.03466   1.92177
   A18        1.91710   0.00339   0.00000   0.02874   0.02906   1.94615
   A19        1.91619  -0.00426   0.00000  -0.04032  -0.04056   1.87563
   A20        1.91525  -0.00128   0.00000  -0.01224  -0.01254   1.90270
   A21        1.96924   0.00244   0.00000   0.01301   0.01313   1.98237
   A22        1.87700   0.00034   0.00000  -0.00394  -0.00481   1.87219
   A23        1.88657   0.00262   0.00000   0.02958   0.02973   1.91631
   A24        1.89711   0.00014   0.00000   0.01414   0.01413   1.91123
   A25        1.93663   0.00071   0.00000   0.00483   0.00477   1.94141
   A26        1.92111   0.00305   0.00000   0.01978   0.01974   1.94085
   A27        1.94667  -0.00090   0.00000  -0.00719  -0.00717   1.93950
   A28        1.88584  -0.00155   0.00000  -0.00613  -0.00624   1.87960
   A29        1.89303  -0.00016   0.00000  -0.00316  -0.00315   1.88988
   A30        1.87852  -0.00128   0.00000  -0.00883  -0.00879   1.86973
   A31        1.88101  -0.00175   0.00000  -0.01068  -0.01068   1.87033
    D1       -3.08825  -0.00187   0.00000  -0.03092  -0.03096  -3.11922
    D2       -1.05231   0.00069   0.00000  -0.00423  -0.00412  -1.05643
    D3        1.06446  -0.00074   0.00000  -0.01710  -0.01702   1.04744
    D4        1.08631  -0.00078   0.00000  -0.01267  -0.01278   1.07353
    D5        3.12226   0.00177   0.00000   0.01401   0.01406   3.13632
    D6       -1.04416   0.00034   0.00000   0.00114   0.00116  -1.04300
    D7       -1.00039  -0.00121   0.00000  -0.01992  -0.02005  -1.02044
    D8        1.03556   0.00134   0.00000   0.00677   0.00679   1.04235
    D9       -3.13086  -0.00009   0.00000  -0.00610  -0.00611  -3.13697
   D10        0.98285   0.00013   0.00000   0.02496   0.02525   1.00810
   D11        3.10650  -0.00169   0.00000  -0.00361  -0.00348   3.10302
   D12       -1.07147   0.00120   0.00000   0.02005   0.01972  -1.05175
   D13       -1.13778  -0.00129   0.00000   0.00760   0.00825  -1.12952
   D14        0.98588  -0.00311   0.00000  -0.02097  -0.02048   0.96540
   D15        3.09109  -0.00022   0.00000   0.00269   0.00272   3.09381
   D16        3.08256   0.00227   0.00000   0.05189   0.05174   3.13430
   D17       -1.07697   0.00045   0.00000   0.02333   0.02301  -1.05396
   D18        1.02824   0.00334   0.00000   0.04699   0.04621   1.07445
   D19        1.08650  -0.00326   0.00000  -0.05488  -0.05445   1.03205
   D20       -0.97295  -0.00036   0.00000  -0.01866  -0.01873  -0.99168
   D21       -3.09121  -0.00128   0.00000  -0.03683  -0.03672  -3.12793
   D22       -3.08059  -0.00311   0.00000  -0.08034  -0.07993   3.12266
   D23        1.14315  -0.00021   0.00000  -0.04412  -0.04421   1.09893
   D24       -0.97511  -0.00114   0.00000  -0.06229  -0.06221  -1.03732
   D25       -1.00373   0.00066   0.00000  -0.03537  -0.03539  -1.03913
   D26       -3.06318   0.00356   0.00000   0.00084   0.00033  -3.06286
   D27        1.10174   0.00263   0.00000  -0.01733  -0.01767   1.08408
   D28        2.92866  -0.00307   0.00000  -0.02865  -0.02879   2.89987
   D29        0.85994   0.00072   0.00000   0.00117   0.00196   0.86190
   D30       -1.23859   0.00178   0.00000  -0.00560  -0.00624  -1.24484
   D31        1.00802   0.00041   0.00000   0.00303   0.00299   1.01101
   D32        3.09463   0.00091   0.00000   0.01128   0.01132   3.10595
   D33       -1.10467   0.00074   0.00000   0.00864   0.00863  -1.09604
   D34        3.13033  -0.00157   0.00000  -0.01889  -0.01894   3.11139
   D35       -1.06624  -0.00107   0.00000  -0.01063  -0.01062  -1.07686
   D36        1.01765  -0.00124   0.00000  -0.01328  -0.01331   1.00433
   D37       -1.12050   0.00032   0.00000  -0.00002  -0.00002  -1.12052
   D38        0.96611   0.00081   0.00000   0.00823   0.00830   0.97442
   D39        3.05001   0.00065   0.00000   0.00559   0.00561   3.05561
         Item               Value     Threshold  Converged?
 Maximum Force            0.009519     0.000450     NO 
 RMS     Force            0.002817     0.000300     NO 
 Maximum Displacement     0.110164     0.001800     NO 
 RMS     Displacement     0.034668     0.001200     NO 
 Predicted change in Energy=-2.001015D-03
 Lowest energy point so far.  Saving SCF results.
 GradGradGradGradGradGradGradGradGradGradGradGradGradGradGradGradGradGrad

 Leave Link  103 at Sun Sep 19 19:55:51 2021, MaxMem=   524288000 cpu:               0.0 elap:               0.1
 (Enter /opt/gaussian/g16_legacy/l202.exe)
                          Input orientation:                          
 ---------------------------------------------------------------------
 Center     Atomic      Atomic             Coordinates (Angstroms)
 Number     Number       Type             X           Y           Z
 ---------------------------------------------------------------------
      1          6           0       -2.195692    1.142793   -0.008949
      2          1           0       -1.866556    0.107473   -0.043571
      3          1           0       -1.854931    1.636090   -0.919691
      4          1           0       -3.285571    1.156481   -0.010116
      5          6           0       -1.637411    1.837732    1.231359
      6          1           0       -1.987043    2.870511    1.276782
      7          1           0       -1.992313    1.334921    2.133404
      8          6           0       -0.122403    1.849351    1.274028
      9          1           0        0.243677    2.347596    0.364941
     10          6           0        0.419642    2.593766    2.491062
     11          1           0        0.029338    2.095724    3.380285
     12          1           0        0.024687    3.612705    2.490253
     13          6           0        1.946865    2.638231    2.550734
     14          1           0        2.363790    3.105041    1.657156
     15          1           0        2.290862    3.207605    3.412686
     16          1           0        2.365639    1.636491    2.640048
     17          8           0        0.278760    0.475582    1.277714
     18          1           0        1.222258    0.454405    1.083676
 ---------------------------------------------------------------------
                    Distance matrix (angstroms):
                    1          2          3          4          5
     1  C    0.000000
     2  H    1.086929   0.000000
     3  H    1.090372   1.761928   0.000000
     4  H    1.089966   1.764976   1.761840   0.000000
     5  C    1.527410   2.161423   2.171403   2.172969   0.000000
     6  H    2.163712   3.064674   2.523042   2.506029   1.091302
     7  H    2.160545   2.502332   3.070988   2.509789   1.091998
     8  C    2.538461   2.795045   2.803487   3.483494   1.515653
     9  H    2.746245   3.104531   2.561382   3.743663   2.132870
    10  C    3.898121   4.222880   4.209996   4.695773   2.527826
    11  H    4.164822   4.389800   4.717152   4.833800   2.731756
    12  H    4.156507   4.720562   4.366656   4.821067   2.738231
    13  C    5.094024   5.260925   5.244215   6.010983   3.902381
    14  H    5.235952   5.456529   5.157089   6.204189   4.218647
    15  H    6.008344   6.232227   6.198931   6.857061   4.697453
    16  H    5.297798   5.239388   5.521318   6.260188   4.248448
    17  O    2.867679   2.546306   3.275363   3.850530   2.351448
    18  H    3.653778   3.306330   3.857325   4.691462   3.180112
                    6          7          8          9         10
     6  H    0.000000
     7  H    1.758371   0.000000
     8  C    2.125949   2.121257   0.000000
     9  H    2.465970   3.025331   1.099410   0.000000
    10  C    2.709833   2.744109   1.526151   2.147547   0.000000
    11  H    3.015098   2.494114   2.126039   3.033427   1.091374
    12  H    2.463822   3.063320   2.147150   2.483024   1.092807
    13  C    4.141562   4.170120   2.556203   2.786218   1.529035
    14  H    4.373721   4.726073   2.811529   2.595847   2.176354
    15  H    4.793348   4.846555   3.498937   3.770853   2.174317
    16  H    4.725161   4.397656   2.846344   3.191318   2.173816
    17  O    3.296900   2.574575   1.431149   2.082984   2.445151
    18  H    4.021751   3.494382   1.946850   2.249084   2.683616
                   11         12         13         14         15
    11  H    0.000000
    12  H    1.758809   0.000000
    13  C    2.158559   2.155927   0.000000
    14  H    3.072061   2.534399   1.090972   0.000000
    15  H    2.520281   2.480027   1.088799   1.760035   0.000000
    16  H    2.493421   3.067232   1.089418   1.767121   1.752416
    17  O    2.666060   3.372883   3.013338   3.377186   4.008817
    18  H    3.064539   3.658892   2.728811   2.942422   3.761159
                   16         17         18
    16  H    0.000000
    17  O    2.749315   0.000000
    18  H    2.264275   0.963478   0.000000
 Stoichiometry    C5H12O
 Framework group  C1[X(C5H12O)]
 Deg. of freedom    48
 Full point group                 C1      NOp   1
 RotChk:  IX=0 Diff= 1.37D-02
 Largest Abelian subgroup         C1      NOp   1
 Largest concise Abelian subgroup C1      NOp   1
                         Standard orientation:                         
 ---------------------------------------------------------------------
 Center     Atomic      Atomic             Coordinates (Angstroms)
 Number     Number       Type             X           Y           Z
 ---------------------------------------------------------------------
      1          6           0       -2.543288   -0.016125    0.248393
      2          1           0       -2.597034    1.000857   -0.131441
      3          1           0       -2.575871    0.027980    1.337385
      4          1           0       -3.427660   -0.555899   -0.090067
      5          6           0       -1.264062   -0.697529   -0.233535
      6          1           0       -1.222361   -1.725726    0.129797
      7          1           0       -1.250146   -0.738024   -1.324693
      8          6           0       -0.005189    0.015023    0.218918
      9          1           0       -0.014865    0.066858    1.317063
     10          6           0        1.263729   -0.707505   -0.224857
     11          1           0        1.243801   -0.765111   -1.314528
     12          1           0        1.241328   -1.732064    0.154622
     13          6           0        2.550714   -0.021148    0.233979
     14          1           0        2.580964    0.076263    1.320171
     15          1           0        3.429308   -0.586700   -0.072134
     16          1           0        2.641821    0.973498   -0.201007
     17          8           0       -0.080672    1.331828   -0.336522
     18          1           0        0.584674    1.867141    0.109622
 ---------------------------------------------------------------------
 Rotational constants (GHZ):           7.4919877           1.9034915           1.6561485
 Leave Link  202 at Sun Sep 19 19:55:51 2021, MaxMem=   524288000 cpu:               0.0 elap:               0.0
 (Enter /opt/gaussian/g16_legacy/l301.exe)
 Standard basis: 6-31G(d,p) (6D, 7F)
 Ernie: Thresh=  0.10000D-02 Tol=  0.10000D-05 Strict=F.
 There are   150 symmetry adapted cartesian basis functions of A   symmetry.
 There are   150 symmetry adapted basis functions of A   symmetry.
   150 basis functions,   252 primitive gaussians,   150 cartesian basis functions
    25 alpha electrons       25 beta electrons
       nuclear repulsion energy       259.2541775170 Hartrees.
 IExCor=    0 DFT=F Ex=HF Corr=None ExCW=0 ScaHFX=  1.000000
 ScaDFX=  1.000000  1.000000  1.000000  1.000000 ScalE2=  1.000000  1.000000
 IRadAn=      5 IRanWt=     -1 IRanGd=            0 ICorTp=0 IEmpDi=  4
 NAtoms=   18 NActive=   18 NUniq=   18 SFac= 1.00D+00 NAtFMM=   60 NAOKFM=F Big=F
 Integral buffers will be    131072 words long.
 Raffenetti 1 integral format.
 Two-electron integral symmetry is turned on.
 Leave Link  301 at Sun Sep 19 19:55:51 2021, MaxMem=   524288000 cpu:               0.0 elap:               0.0
 (Enter /opt/gaussian/g16_legacy/l302.exe)
 NPDir=0 NMtPBC=     1 NCelOv=     1 NCel=       1 NClECP=     1 NCelD=      1
         NCelK=      1 NCelE2=     1 NClLst=     1 CellRange=     0.0.
 One-electron integrals computed using PRISM.
 One-electron integral symmetry used in STVInt
 NBasis=   150 RedAO= T EigKep=  3.10D-03  NBF=   150
 NBsUse=   150 1.00D-06 EigRej= -1.00D+00 NBFU=   150
 Leave Link  302 at Sun Sep 19 19:55:51 2021, MaxMem=   524288000 cpu:               0.1 elap:               0.1
 (Enter /opt/gaussian/g16_legacy/l303.exe)
 DipDrv:  MaxL=1.
 Leave Link  303 at Sun Sep 19 19:55:51 2021, MaxMem=   524288000 cpu:               0.0 elap:               0.0
 (Enter /opt/gaussian/g16_legacy/l401.exe)
 Initial guess from the checkpoint file:  "06-PVA_000_gaussian.chk"
 B after Tr=    -0.000000    0.000000    0.000000
         Rot=    0.999986    0.000335   -0.000889   -0.005220 Ang=   0.61 deg.
 Guess basis will be translated and rotated to current coordinates.
 JPrj=2 DoOrth=T DoCkMO=T.
 Generating alternative initial guess.
 ExpMin= 1.61D-01 ExpMax= 5.48D+03 ExpMxC= 8.25D+02 IAcc=2 IRadAn=         4 AccDes= 0.00D+00
 Harris functional with IExCor=  205 and IRadAn=       4 diagonalized for initial guess.
 HarFok:  IExCor=  205 AccDes= 0.00D+00 IRadAn=         4 IDoV= 1 UseB2=F ITyADJ=14
 ICtDFT=  3500011 ScaDFX=  1.000000  1.000000  1.000000  1.000000
 FoFCou: FMM=F IPFlag=           0 FMFlag=      100000 FMFlg1=           0
         NFxFlg=           0 DoJE=T BraDBF=F KetDBF=T FulRan=T
         wScrn=  0.000000 ICntrl=       500 IOpCl=  0 I1Cent=   200000004 NGrid=           0
         NMat0=    1 NMatS0=      1 NMatT0=    0 NMatD0=    1 NMtDS0=    0 NMtDT0=    0
 Petite list used in FoFCou.
 Harris En= -271.801686654215    
 Leave Link  401 at Sun Sep 19 19:55:53 2021, MaxMem=   524288000 cpu:               1.2 elap:               1.2
 (Enter /opt/gaussian/g16_legacy/l502.exe)
 Keep R1 ints in memory in canonical form, NReq=65856006.
 FoFCou: FMM=F IPFlag=           0 FMFlag=           0 FMFlg1=           0
         NFxFlg=           0 DoJE=F BraDBF=F KetDBF=F FulRan=T
         wScrn=  0.000000 ICntrl=       600 IOpCl=  0 I1Cent=           0 NGrid=           0
         NMat0=    1 NMatS0=  11325 NMatT0=    0 NMatD0=    1 NMtDS0=    0 NMtDT0=    0
 Symmetry not used in FoFCou.
 Two-electron integral symmetry not used.
 Closed shell SCF:
 Using DIIS extrapolation, IDIIS=  1040.
 NGot=   524288000 LenX=   460106785 LenY=   460083844
 Requested convergence on RMS density matrix=1.00D-08 within 128 cycles.
 Requested convergence on MAX density matrix=1.00D-06.
 Requested convergence on             energy=1.00D-06.
 No special actions if energy rises.

 Cycle   1  Pass 1  IDiag  1:
 E= -271.204948959844    
 DIIS: error= 1.39D-03 at cycle   1 NSaved=   1.
 NSaved= 1 IEnMin= 1 EnMin= -271.204948959844     IErMin= 1 ErrMin= 1.39D-03
 ErrMax= 1.39D-03  0.00D+00 EMaxC= 1.00D-01 BMatC= 1.02D-03 BMatP= 1.02D-03
 IDIUse=3 WtCom= 9.86D-01 WtEn= 1.39D-02
 Coeff-Com:  0.100D+01
 Coeff-En:   0.100D+01
 Coeff:      0.100D+01
 Gap=     2.147 Goal=   None    Shift=    0.000
 GapD=    2.147 DampG=2.000 DampE=1.000 DampFc=2.0000 IDamp=-1.
 RMSDP=2.28D-04 MaxDP=3.78D-03              OVMax= 5.64D-03

 Cycle   2  Pass 1  IDiag  1:
 E= -271.206270848293     Delta-E=       -0.001321888449 Rises=F Damp=F
 DIIS: error= 3.81D-04 at cycle   2 NSaved=   2.
 NSaved= 2 IEnMin= 2 EnMin= -271.206270848293     IErMin= 2 ErrMin= 3.81D-04
 ErrMax= 3.81D-04  0.00D+00 EMaxC= 1.00D-01 BMatC= 6.25D-05 BMatP= 1.02D-03
 IDIUse=3 WtCom= 9.96D-01 WtEn= 3.81D-03
 Coeff-Com: -0.210D+00 0.121D+01
 Coeff-En:   0.000D+00 0.100D+01
 Coeff:     -0.209D+00 0.121D+01
 Gap=     0.637 Goal=   None    Shift=    0.000
 RMSDP=7.89D-05 MaxDP=1.39D-03 DE=-1.32D-03 OVMax= 2.39D-03

 Cycle   3  Pass 1  IDiag  1:
 E= -271.206391581524     Delta-E=       -0.000120733232 Rises=F Damp=F
 DIIS: error= 1.23D-04 at cycle   3 NSaved=   3.
 NSaved= 3 IEnMin= 3 EnMin= -271.206391581524     IErMin= 3 ErrMin= 1.23D-04
 ErrMax= 1.23D-04  0.00D+00 EMaxC= 1.00D-01 BMatC= 3.85D-06 BMatP= 6.25D-05
 IDIUse=3 WtCom= 9.99D-01 WtEn= 1.23D-03
 Coeff-Com: -0.346D-01 0.260D-01 0.101D+01
 Coeff-En:   0.000D+00 0.000D+00 0.100D+01
 Coeff:     -0.345D-01 0.260D-01 0.101D+01
 Gap=     0.637 Goal=   None    Shift=    0.000
 RMSDP=2.32D-05 MaxDP=4.81D-04 DE=-1.21D-04 OVMax= 7.30D-04

 Cycle   4  Pass 1  IDiag  1:
 E= -271.206398985099     Delta-E=       -0.000007403574 Rises=F Damp=F
 DIIS: error= 4.03D-05 at cycle   4 NSaved=   4.
 NSaved= 4 IEnMin= 4 EnMin= -271.206398985099     IErMin= 4 ErrMin= 4.03D-05
 ErrMax= 4.03D-05  0.00D+00 EMaxC= 1.00D-01 BMatC= 5.22D-07 BMatP= 3.85D-06
 IDIUse=1 WtCom= 1.00D+00 WtEn= 0.00D+00
 Coeff-Com:  0.146D-01-0.109D+00 0.122D+00 0.973D+00
 Coeff:      0.146D-01-0.109D+00 0.122D+00 0.973D+00
 Gap=     0.637 Goal=   None    Shift=    0.000
 RMSDP=9.27D-06 MaxDP=1.83D-04 DE=-7.40D-06 OVMax= 2.54D-04

 Cycle   5  Pass 1  IDiag  1:
 E= -271.206399930902     Delta-E=       -0.000000945803 Rises=F Damp=F
 DIIS: error= 1.24D-05 at cycle   5 NSaved=   5.
 NSaved= 5 IEnMin= 5 EnMin= -271.206399930902     IErMin= 5 ErrMin= 1.24D-05
 ErrMax= 1.24D-05  0.00D+00 EMaxC= 1.00D-01 BMatC= 3.45D-08 BMatP= 5.22D-07
 IDIUse=1 WtCom= 1.00D+00 WtEn= 0.00D+00
 Coeff-Com:  0.319D-02-0.716D-02-0.713D-01 0.414D-01 0.103D+01
 Coeff:      0.319D-02-0.716D-02-0.713D-01 0.414D-01 0.103D+01
 Gap=     0.637 Goal=   None    Shift=    0.000
 RMSDP=2.71D-06 MaxDP=7.42D-05 DE=-9.46D-07 OVMax= 1.02D-04

 Cycle   6  Pass 1  IDiag  1:
 E= -271.206400006467     Delta-E=       -0.000000075565 Rises=F Damp=F
 DIIS: error= 4.57D-06 at cycle   6 NSaved=   6.
 NSaved= 6 IEnMin= 6 EnMin= -271.206400006467     IErMin= 6 ErrMin= 4.57D-06
 ErrMax= 4.57D-06  0.00D+00 EMaxC= 1.00D-01 BMatC= 3.95D-09 BMatP= 3.45D-08
 IDIUse=1 WtCom= 1.00D+00 WtEn= 0.00D+00
 Coeff-Com: -0.978D-03 0.821D-02-0.128D-01-0.728D-01 0.437D-01 0.103D+01
 Coeff:     -0.978D-03 0.821D-02-0.128D-01-0.728D-01 0.437D-01 0.103D+01
 Gap=     0.637 Goal=   None    Shift=    0.000
 RMSDP=8.57D-07 MaxDP=2.97D-05 DE=-7.56D-08 OVMax= 4.16D-05

 Cycle   7  Pass 1  IDiag  1:
 E= -271.206400014914     Delta-E=       -0.000000008447 Rises=F Damp=F
 DIIS: error= 2.13D-06 at cycle   7 NSaved=   7.
 NSaved= 7 IEnMin= 7 EnMin= -271.206400014914     IErMin= 7 ErrMin= 2.13D-06
 ErrMax= 2.13D-06  0.00D+00 EMaxC= 1.00D-01 BMatC= 6.32D-10 BMatP= 3.95D-09
 IDIUse=1 WtCom= 1.00D+00 WtEn= 0.00D+00
 Coeff-Com: -0.662D-03 0.253D-02 0.889D-02-0.195D-01-0.152D+00 0.173D+00
 Coeff-Com:  0.987D+00
 Coeff:     -0.662D-03 0.253D-02 0.889D-02-0.195D-01-0.152D+00 0.173D+00
 Coeff:      0.987D+00
 Gap=     0.637 Goal=   None    Shift=    0.000
 RMSDP=3.53D-07 MaxDP=1.15D-05 DE=-8.45D-09 OVMax= 1.86D-05

 Cycle   8  Pass 1  IDiag  1:
 E= -271.206400016215     Delta-E=       -0.000000001300 Rises=F Damp=F
 DIIS: error= 5.53D-07 at cycle   8 NSaved=   8.
 NSaved= 8 IEnMin= 8 EnMin= -271.206400016215     IErMin= 8 ErrMin= 5.53D-07
 ErrMax= 5.53D-07  0.00D+00 EMaxC= 1.00D-01 BMatC= 3.61D-11 BMatP= 6.32D-10
 IDIUse=1 WtCom= 1.00D+00 WtEn= 0.00D+00
 Coeff-Com:  0.154D-03-0.990D-03 0.372D-03 0.821D-02 0.966D-02-0.104D+00
 Coeff-Com: -0.755D-01 0.116D+01
 Coeff:      0.154D-03-0.990D-03 0.372D-03 0.821D-02 0.966D-02-0.104D+00
 Coeff:     -0.755D-01 0.116D+01
 Gap=     0.637 Goal=   None    Shift=    0.000
 RMSDP=1.09D-07 MaxDP=3.16D-06 DE=-1.30D-09 OVMax= 5.43D-06

 Cycle   9  Pass 1  IDiag  1:
 E= -271.206400016314     Delta-E=       -0.000000000099 Rises=F Damp=F
 DIIS: error= 1.68D-07 at cycle   9 NSaved=   9.
 NSaved= 9 IEnMin= 9 EnMin= -271.206400016314     IErMin= 9 ErrMin= 1.68D-07
 ErrMax= 1.68D-07  0.00D+00 EMaxC= 1.00D-01 BMatC= 3.23D-12 BMatP= 3.61D-11
 IDIUse=1 WtCom= 1.00D+00 WtEn= 0.00D+00
 Coeff-Com:  0.819D-04-0.374D-03-0.683D-03 0.298D-02 0.141D-01-0.306D-01
 Coeff-Com: -0.942D-01 0.163D+00 0.946D+00
 Coeff:      0.819D-04-0.374D-03-0.683D-03 0.298D-02 0.141D-01-0.306D-01
 Coeff:     -0.942D-01 0.163D+00 0.946D+00
 Gap=     0.637 Goal=   None    Shift=    0.000
 RMSDP=2.68D-08 MaxDP=8.29D-07 DE=-9.91D-11 OVMax= 1.23D-06

 Cycle  10  Pass 1  IDiag  1:
 E= -271.206400016320     Delta-E=       -0.000000000007 Rises=F Damp=F
 DIIS: error= 3.85D-08 at cycle  10 NSaved=  10.
 NSaved=10 IEnMin=10 EnMin= -271.206400016320     IErMin=10 ErrMin= 3.85D-08
 ErrMax= 3.85D-08  0.00D+00 EMaxC= 1.00D-01 BMatC= 2.05D-13 BMatP= 3.23D-12
 IDIUse=1 WtCom= 1.00D+00 WtEn= 0.00D+00
 Coeff-Com: -0.154D-04 0.931D-04-0.139D-04-0.740D-03-0.127D-02 0.946D-02
 Coeff-Com:  0.929D-02-0.103D+00-0.127D-01 0.110D+01
 Coeff:     -0.154D-04 0.931D-04-0.139D-04-0.740D-03-0.127D-02 0.946D-02
 Coeff:      0.929D-02-0.103D+00-0.127D-01 0.110D+01
 Gap=     0.637 Goal=   None    Shift=    0.000
 RMSDP=7.45D-09 MaxDP=2.33D-07 DE=-6.59D-12 OVMax= 2.84D-07

 SCF Done:  E(RHF) =  -271.206400016     A.U. after   10 cycles
            NFock= 10  Conv=0.74D-08     -V/T= 2.0014
 KE= 2.708388662218D+02 PE=-1.152464452676D+03 EE= 3.511650089205D+02
 Leave Link  502 at Sun Sep 19 19:55:55 2021, MaxMem=   524288000 cpu:               2.9 elap:               2.9
 (Enter /opt/gaussian/g16_legacy/l801.exe)
 ExpMin= 1.61D-01 ExpMax= 5.48D+03 ExpMxC= 8.25D+02 IAcc=3 IRadAn=         5 AccDes= 0.00D+00
 HarFok:  IExCor=  205 AccDes= 0.00D+00 IRadAn=         5 IDoV=-2 UseB2=F ITyADJ=14
 ICtDFT= 12500011 ScaDFX=  1.000000  1.000000  1.000000  1.000000
 Largest valence mixing into a core orbital is  2.02D-04
 Largest core mixing into a valence orbital is  3.21D-05
 Range of M.O.s used for correlation:     7   150
 NBasis=   150 NAE=    25 NBE=    25 NFC=     6 NFV=     0
 NROrb=    144 NOA=    19 NOB=    19 NVA=   125 NVB=   125
 Leave Link  801 at Sun Sep 19 19:55:56 2021, MaxMem=   524288000 cpu:               0.6 elap:               0.6
 (Enter /opt/gaussian/g16_legacy/l906.exe)
 Frozen-core derivative calculation, NFC=   6 NFV=   0.
 FulOut=F Deriv=T AODrv=T NAtomX=    18
   MMem=         321  MDisk=          19 MDiskD=          19
  W3Min=      562500 MinDsk=      807575 NBas6D=         150
 NBas2D=       11523    NTT=       11325    LW2=     2040000
    MDV=   524002465 MDiskM=       48333 NBas2p=       10827
 Fully direct method using O(ONN) memory.
 IMap=   1   2   3   4   5   6   7   8   9  10  11  12  13  14  15  16  17  18  19  20
 IMap=  21  22  23  24  25
 JobTyp=1 Pass  1:  I=   7 to  25 NPSUse=  1 ParTrn=F ParDer=F DoDerP=T.
 Spin components of T(2) and E(2):
     alpha-alpha T2 =       0.3386652804D-01 E2=     -0.1061686329D+00
     alpha-beta  T2 =       0.2144945905D+00 E2=     -0.7036464249D+00
     beta-beta   T2 =       0.3386652804D-01 E2=     -0.1061686329D+00
 The integrals were generated   1 times.
 ANorm=    0.1132354912D+01
 E2 =    -0.9159836907D+00 EUMP2 =    -0.27212238370701D+03
 Leave Link  906 at Sun Sep 19 19:56:16 2021, MaxMem=   524288000 cpu:              19.8 elap:              19.8
 (Enter /opt/gaussian/g16_legacy/l1002.exe)
 Minotr:  Closed shell wavefunction.
          Computing MP2/KS-MP2 derivatives.
          Using Z-Vector for PSCF gradient.
          Skipping F1 and S1 gradient terms here.
          IDoAtm=111111111111111111
          Frozen-core window.
          Direct CPHF calculation.
          Differentiating once with respect to electric field.
                with respect to dipole field.
          Differentiating once with respect to nuclear coordinates.
          Requested convergence is 1.0D-10 RMS, and 1.0D-09 maximum.
          NewPWx=F KeepS1=T KeepF1=T KeepIn=T MapXYZ=F SortEE=F KeepMc=T.
 Keep R1 ints in memory in canonical form, NReq=65858022.
 FoFCou: FMM=F IPFlag=           0 FMFlag=           0 FMFlg1=           0
         NFxFlg=           0 DoJE=F BraDBF=F KetDBF=F FulRan=T
         wScrn=  0.000000 ICntrl=       600 IOpCl=  0 I1Cent=           0 NGrid=           0
         NMat0=    1 NMatS0=  11325 NMatT0=    0 NMatD0=    1 NMtDS0=    0 NMtDT0=    0
 Symmetry not used in FoFCou.
 Two-electron integral symmetry not used.
          MDV=     524288000 using IRadAn=       5.
          Solving linear equations separately, MaxMat=       0.
          There are     1 degrees of freedom in the 1st order CPHF.  IDoFFX=0 NUNeed=     1.
 LinEq1:  Iter=  0 NonCon=     1 RMS=2.95D-03 Max=2.49D-02 NDo=     1
[...]
 ! D27   D(17,8,10,13)          58.8826         -DE/DX =    0.0                 !
 ! D28   D(5,8,17,18)          165.568          -DE/DX =    0.0                 !
 ! D29   D(9,8,17,18)           48.295          -DE/DX =    0.0                 !
 ! D30   D(10,8,17,18)         -71.8294         -DE/DX =    0.0                 !
 ! D31   D(8,10,13,14)          56.9617         -DE/DX =    0.0                 !
 ! D32   D(8,10,13,15)         176.9637         -DE/DX =    0.0                 !
 ! D33   D(8,10,13,16)         -63.5923         -DE/DX =    0.0                 !
 ! D34   D(11,10,13,14)        177.8686         -DE/DX =    0.0                 !
 ! D35   D(11,10,13,15)        -62.1294         -DE/DX =    0.0                 !
 ! D36   D(11,10,13,16)         57.3146         -DE/DX =    0.0                 !
 ! D37   D(12,10,13,14)        -64.4111         -DE/DX =    0.0                 !
 ! D38   D(12,10,13,15)         55.5909         -DE/DX =    0.0                 !
 ! D39   D(12,10,13,16)        175.0349         -DE/DX =    0.0                 !
 --------------------------------------------------------------------------------
 Lowest energy point so far.  Saving SCF results.
 Largest change from initial coordinates is atom   14       0.057 Angstoms.
 GradGradGradGradGradGradGradGradGradGradGradGradGradGradGradGradGradGrad

 Leave Link  103 at Sun Sep 19 19:59:38 2021, MaxMem=   524288000 cpu:               0.0 elap:               0.0
 (Enter /opt/gaussian/g16_legacy/l202.exe)
                          Input orientation:                          
 ---------------------------------------------------------------------
 Center     Atomic      Atomic             Coordinates (Angstroms)
 Number     Number       Type             X           Y           Z
 ---------------------------------------------------------------------
      1          6           0       -2.195338    1.145051   -0.006526
      2          1           0       -1.831418    0.122716   -0.069479
      3          1           0       -1.880617    1.674204   -0.906749
      4          1           0       -3.284441    1.126723    0.007159
      5          6           0       -1.642193    1.824501    1.239688
      6          1           0       -2.013423    2.849770    1.310232
      7          1           0       -1.980032    1.297922    2.135478
      8          6           0       -0.123440    1.859966    1.270618
      9          1           0        0.236579    2.356689    0.356727
     10          6           0        0.417309    2.613896    2.481292
     11          1           0        0.001117    2.154296    3.380547
     12          1           0        0.048619    3.642098    2.442198
     13          6           0        1.939837    2.614158    2.557328
     14          1           0        2.377068    3.035635    1.650655
     15          1           0        2.293237    3.204219    3.401319
     16          1           0        2.321895    1.601939    2.685010
     17          8           0        0.308924    0.493415    1.278178
     18          1           0        1.249918    0.485302    1.068125
 ---------------------------------------------------------------------
                    Distance matrix (angstroms):
                    1          2          3          4          5
     1  C    0.000000
     2  H    1.087000   0.000000
     3  H    1.090620   1.763677   0.000000
     4  H    1.089343   1.767817   1.762295   0.000000
     5  C    1.523375   2.155411   2.164862   2.168640   0.000000
     6  H    2.161716   3.061626   2.512886   2.506467   1.092687
     7  H    2.158219   2.503005   3.067021   2.502106   1.092640
     8  C    2.536722   2.780483   2.804122   3.482226   1.519482
     9  H    2.741211   3.073905   2.558256   3.746010   2.143042
    10  C    3.895211   4.215351   4.200274   4.694248   2.531062
    11  H    4.161161   4.403201   4.706625   4.819807   2.718918
    12  H    4.155338   4.714775   4.337049   4.833819   2.758357
    13  C    5.082450   5.227788   5.242062   6.000742   3.897522
    14  H    5.217993   5.399566   5.149921   6.196588   4.217843
    15  H    6.000074   6.209257   6.190432   6.851773   4.697221
    16  H    5.278116   5.198589   5.528749   6.231189   4.225221
    17  O    2.889017   2.556298   3.310930   3.863785   2.362230
    18  H    3.668777   3.304579   3.887655   4.700795   3.191739
                    6          7          8          9         10
     6  H    0.000000
     7  H    1.757948   0.000000
     8  C    2.133850   2.123867   0.000000
     9  H    2.492952   3.032871   1.100701   0.000000
    10  C    2.708408   2.756560   1.525304   2.147695   0.000000
    11  H    2.971239   2.491692   2.133998   3.039719   1.092295
    12  H    2.482165   3.115231   2.139672   2.456989   1.093005
    13  C    4.151991   4.156418   2.545888   2.794642   1.524426
    14  H    4.407589   4.715827   2.789116   2.591700   2.169902
    15  H    4.800583   4.847386   3.491022   3.770635   2.171183
    16  H    4.716151   4.347527   2.836680   3.215447   2.166335
    17  O    3.308585   2.573231   1.433338   2.079927   2.440424
    18  H    4.037167   3.497452   1.953668   2.243888   2.687228
                   11         12         13         14         15
    11  H    0.000000
    12  H    1.759634   0.000000
    13  C    2.155875   2.155603   0.000000
    14  H    3.068293   2.532985   1.091270   0.000000
    15  H    2.521226   2.479912   1.088753   1.760759   0.000000
    16  H    2.484930   3.064146   1.089430   1.768734   1.755340
    17  O    2.696892   3.367032   2.965410   3.298309   3.974127
    18  H    3.113252   3.646444   2.688075   2.848510   3.731598
                   16         17         18
    16  H    0.000000
    17  O    2.694450   0.000000
    18  H    2.238378   0.964187   0.000000
 Stoichiometry    C5H12O
 Framework group  C1[X(C5H12O)]
 Deg. of freedom    48
 Full point group                 C1      NOp   1
 RotChk:  IX=0 Diff= 6.50D-16
 Largest Abelian subgroup         C1      NOp   1
 Largest concise Abelian subgroup C1      NOp   1
                         Standard orientation:                         
 ---------------------------------------------------------------------
 Center     Atomic      Atomic             Coordinates (Angstroms)
 Number     Number       Type             X           Y           Z
 ---------------------------------------------------------------------
      1          6           0       -2.544558   -0.002874    0.243132
      2          1           0       -2.574904    1.025262   -0.108412
      3          1           0       -2.583870    0.008963    1.332979
      4          1           0       -3.432345   -0.520662   -0.117977
      5          6           0       -1.273796   -0.687837   -0.243346
      6          1           0       -1.244779   -1.724347    0.101285
      7          1           0       -1.254829   -0.711556   -1.335563
      8          6           0       -0.007934    0.010078    0.224984
      9          1           0       -0.026475    0.074656    1.323633
     10          6           0        1.256528   -0.730036   -0.199183
     11          1           0        1.232644   -0.847343   -1.284898
     12          1           0        1.233718   -1.732442    0.235928
     13          6           0        2.537803   -0.016168    0.216269
     14          1           0        2.564123    0.144732    1.295291
     15          1           0        3.418718   -0.595986   -0.054255
     16          1           0        2.620396    0.951238   -0.277858
     17          8           0       -0.046864    1.328658   -0.335631
     18          1           0        0.614266    1.859250    0.123755
 ---------------------------------------------------------------------
 Rotational constants (GHZ):           7.5007254           1.9120068           1.6605759
 Leave Link  202 at Sun Sep 19 19:59:38 2021, MaxMem=   524288000 cpu:               0.0 elap:               0.0
 (Enter /opt/gaussian/g16_legacy/l601.exe)
 Copying SCF densities to generalized density rwf, IOpCl= 0 IROHF=0.

 **********************************************************************

            Population analysis using the SCF density.

 **********************************************************************

 Orbital symmetries:
       Occupied  (A) (A) (A) (A) (A) (A) (A) (A) (A) (A) (A) (A)
                 (A) (A) (A) (A) (A) (A) (A) (A) (A) (A) (A) (A)
                 (A)
       Virtual   (A) (A) (A) (A) (A) (A) (A) (A) (A) (A) (A) (A)
                 (A) (A) (A) (A) (A) (A) (A) (A) (A) (A) (A) (A)
                 (A) (A) (A) (A) (A) (A) (A) (A) (A) (A) (A) (A)
                 (A) (A) (A) (A) (A) (A) (A) (A) (A) (A) (A) (A)
                 (A) (A) (A) (A) (A) (A) (A) (A) (A) (A) (A) (A)
                 (A) (A) (A) (A) (A) (A) (A) (A) (A) (A) (A) (A)
                 (A) (A) (A) (A) (A) (A) (A) (A) (A) (A) (A) (A)
                 (A) (A) (A) (A) (A) (A) (A) (A) (A) (A) (A) (A)
                 (A) (A) (A) (A) (A) (A) (A) (A) (A) (A) (A) (A)
                 (A) (A) (A) (A) (A) (A) (A) (A) (A) (A) (A) (A)
                 (A) (A) (A) (A) (A)
 The electronic state is 1-A.
 Alpha  occ. eigenvalues --  -20.55461 -11.27291 -11.21899 -11.21819 -11.21296
 Alpha  occ. eigenvalues --  -11.20300  -1.35013  -1.06907  -1.02136  -0.91931
 Alpha  occ. eigenvalues --   -0.82598  -0.77939  -0.70078  -0.63706  -0.59888
 Alpha  occ. eigenvalues --   -0.57952  -0.57480  -0.55147  -0.52496  -0.50669
 Alpha  occ. eigenvalues --   -0.48938  -0.48568  -0.47608  -0.45056  -0.42385
 Alpha virt. eigenvalues --    0.21353   0.25609   0.26702   0.27556   0.29405
 Alpha virt. eigenvalues --    0.30404   0.32281   0.32932   0.33527   0.34814
 Alpha virt. eigenvalues --    0.35683   0.37353   0.39209   0.43481   0.44038
 Alpha virt. eigenvalues --    0.45529   0.46619   0.68465   0.71906   0.74736
 Alpha virt. eigenvalues --    0.75617   0.76407   0.80463   0.83269   0.88104
 Alpha virt. eigenvalues --    0.90226   0.91478   0.95948   0.99546   1.04045
 Alpha virt. eigenvalues --    1.04857   1.06195   1.09848   1.12175   1.12534
 Alpha virt. eigenvalues --    1.14353   1.15805   1.17645   1.17751   1.18209
 Alpha virt. eigenvalues --    1.19373   1.19493   1.22125   1.22719   1.23580
 Alpha virt. eigenvalues --    1.29673   1.37277   1.42482   1.52008   1.54835
 Alpha virt. eigenvalues --    1.58581   1.62703   1.68833   1.77976   1.83524
 Alpha virt. eigenvalues --    1.85758   1.89145   1.90645   1.94921   1.97157
 Alpha virt. eigenvalues --    1.99762   2.08061   2.09453   2.16947   2.17456
 Alpha virt. eigenvalues --    2.21978   2.25854   2.30359   2.35343   2.35838
 Alpha virt. eigenvalues --    2.37648   2.38764   2.40131   2.41985   2.44343
 Alpha virt. eigenvalues --    2.44455   2.45922   2.47408   2.54322   2.56343
 Alpha virt. eigenvalues --    2.58221   2.60916   2.62752   2.67730   2.72077
 Alpha virt. eigenvalues --    2.74182   2.76073   2.77068   2.82928   2.89964
 Alpha virt. eigenvalues --    2.93968   2.97513   2.99278   3.02826   3.06260
 Alpha virt. eigenvalues --    3.06412   3.10428   3.10955   3.15855   3.20541
 Alpha virt. eigenvalues --    3.20943   3.23643   3.25828   3.26744   3.29715
 Alpha virt. eigenvalues --    3.33382   3.36444   3.56366   3.58990   3.65943
 Alpha virt. eigenvalues --    3.67931   3.72237   3.77846   3.83442   3.84925
 Alpha virt. eigenvalues --    3.86240   3.88640   3.93855   3.95868   4.35832
 Alpha virt. eigenvalues --    4.74609   4.82898   4.94599   5.04884   5.16359
          Condensed to atoms (all electrons):
               1          2          3          4          5          6
     1  C    4.920259   0.406463   0.400227   0.403517   0.338546  -0.038541
     2  H    0.406463   0.544805  -0.028748  -0.027995  -0.037191   0.004261
     3  H    0.400227  -0.028748   0.600493  -0.030484  -0.041725  -0.003117
     4  H    0.403517  -0.027995  -0.030484   0.586578  -0.037750  -0.003072
     5  C    0.338546  -0.037191  -0.041725  -0.037750   4.977276   0.404899
     6  H   -0.038541   0.004261  -0.003117  -0.003072   0.404899   0.603834
     7  H   -0.039045  -0.002607   0.004410  -0.003221   0.403901  -0.029103
     8  C   -0.051649  -0.006399  -0.004647   0.004594   0.375979  -0.044802
     9  H   -0.006657   0.000501   0.003064  -0.000097  -0.047218  -0.000160
    10  C    0.004903   0.000086  -0.000063  -0.000078  -0.062883  -0.002407
    11  H   -0.000074   0.000012  -0.000000  -0.000001  -0.005729   0.000490
    12  H   -0.000152  -0.000009   0.000013  -0.000004  -0.002879   0.000764
    13  C   -0.000115  -0.000002  -0.000001   0.000001   0.004644  -0.000038
    14  H   -0.000001   0.000000  -0.000001   0.000000  -0.000051   0.000009
    15  H    0.000001   0.000000  -0.000000  -0.000000  -0.000076  -0.000003
    16  H   -0.000003  -0.000001   0.000000  -0.000000  -0.000088  -0.000002
    17  O   -0.001250   0.005528   0.000128   0.000070  -0.063635   0.003002
    18  H   -0.000038  -0.000311  -0.000036   0.000008   0.006149  -0.000209
               7          8          9         10         11         12
     1  C   -0.039045  -0.051649  -0.006657   0.004903  -0.000074  -0.000152
     2  H   -0.002607  -0.006399   0.000501   0.000086   0.000012  -0.000009
     3  H    0.004410  -0.004647   0.003064  -0.000063  -0.000000   0.000013
     4  H   -0.003221   0.004594  -0.000097  -0.000078  -0.000001  -0.000004
     5  C    0.403901   0.375979  -0.047218  -0.062883  -0.005729  -0.002879
     6  H   -0.029103  -0.044802  -0.000160  -0.002407   0.000490   0.000764
     7  H    0.582207  -0.040033   0.005506  -0.006818   0.003047   0.000587
     8  C   -0.040033   4.751090   0.410554   0.365418  -0.039935  -0.039346
     9  H    0.005506   0.410554   0.643267  -0.059871   0.005380   0.000687
    10  C   -0.006818   0.365418  -0.059871   5.020851   0.404177   0.394215
    11  H    0.003047  -0.039935   0.005380   0.404177   0.581152  -0.028364
    12  H    0.000587  -0.039346   0.000687   0.394215  -0.028364   0.604119
    13  C   -0.000108  -0.049879  -0.005328   0.330488  -0.040587  -0.038926
    14  H    0.000001  -0.003780   0.003121  -0.042333   0.004471  -0.002780
    15  H    0.000000   0.004092  -0.000099  -0.034713  -0.002589  -0.003391
    16  H    0.000028  -0.005501   0.000756  -0.040683  -0.003180   0.004782
    17  O    0.000275   0.196008  -0.037558  -0.054235   0.000728   0.003238
    18  H   -0.000174  -0.023376  -0.006297  -0.004368  -0.000210  -0.000100
              13         14         15         16         17         18
     1  C   -0.000115  -0.000001   0.000001  -0.000003  -0.001250  -0.000038
     2  H   -0.000002   0.000000   0.000000  -0.000001   0.005528  -0.000311
     3  H   -0.000001  -0.000001  -0.000000   0.000000   0.000128  -0.000036
     4  H    0.000001   0.000000  -0.000000  -0.000000   0.000070   0.000008
     5  C    0.004644  -0.000051  -0.000076  -0.000088  -0.063635   0.006149
     6  H   -0.000038   0.000009  -0.000003  -0.000002   0.003002  -0.000209
     7  H   -0.000108   0.000001   0.000000   0.000028   0.000275  -0.000174
     8  C   -0.049879  -0.003780   0.004092  -0.005501   0.196008  -0.023376
     9  H   -0.005328   0.003121  -0.000099   0.000756  -0.037558  -0.006297
    10  C    0.330488  -0.042333  -0.034713  -0.040683  -0.054235  -0.004368
    11  H   -0.040587   0.004471  -0.002589  -0.003180   0.000728  -0.000210
    12  H   -0.038926  -0.002780  -0.003391   0.004782   0.003238  -0.000100
    13  C    4.950210   0.399219   0.407278   0.398830  -0.001627   0.003157
    14  H    0.399219   0.595588  -0.028182  -0.032353  -0.000102   0.000077
    15  H    0.407278  -0.028182   0.562500  -0.027875   0.000111  -0.000030
    16  H    0.398830  -0.032353  -0.027875   0.588627   0.004735   0.000107
    17  O   -0.001627  -0.000102   0.000111   0.004735   8.300148   0.306503
    18  H    0.003157   0.000077  -0.000030   0.000107   0.306503   0.377702
 Mulliken charges:
               1
     1  C   -0.336392
     2  H    0.141609
     3  H    0.100486
     4  H    0.107933
     5  C   -0.212167
     6  H    0.104197
     7  H    0.121146
     8  C    0.201613
     9  H    0.090449
    10  C   -0.211685
    11  H    0.121212
    12  H    0.107545
    13  C   -0.357215
    14  H    0.107097
    15  H    0.122977
    16  H    0.111820
    17  O   -0.662069
    18  H    0.341446
 Sum of Mulliken charges =  -0.00000
 Mulliken charges with hydrogens summed into heavy atoms:
               1
     1  C    0.013635
     5  C    0.013176
     8  C    0.292061
    10  C    0.017072
    13  C   -0.015321
    17  O   -0.320624
 Electronic spatial extent (au):  <R**2>=            796.5783
 Charge=             -0.0000 electrons
 Dipole moment (field-independent basis, Debye):
    X=              1.1464    Y=             -0.5516    Z=              1.1266  Tot=              1.6994
 Quadrupole moment (field-independent basis, Debye-Ang):
   XX=            -39.8787   YY=            -39.4369   ZZ=            -40.2792
   XY=              2.0787   XZ=              0.2947   YZ=              1.7995
 Traceless Quadrupole moment (field-independent basis, Debye-Ang):
   XX=             -0.0137   YY=              0.4280   ZZ=             -0.4143
   XY=              2.0787   XZ=              0.2947   YZ=              1.7995
 Octapole moment (field-independent basis, Debye-Ang**2):
  XXX=              1.8414  YYY=             10.6359  ZZZ=             -0.6854  XYY=              4.8745
  XXY=              1.9203  XXZ=             -2.3993  XZZ=              0.1364  YZZ=              1.2119
  YYZ=              2.7714  XYZ=              0.3365
 Hexadecapole moment (field-independent basis, Debye-Ang**3):
 XXXX=           -814.1720 YYYY=           -170.6077 ZZZZ=            -88.6128 XXXY=             -1.6279
 XXXZ=              1.0113 YYYX=              9.2472 YYYZ=              0.8225 ZZZX=              0.3363
 ZZZY=              0.4901 XXYY=           -161.7911 XXZZ=           -151.1441 YYZZ=            -48.2202
 XXYZ=             -0.0118 YYXZ=              0.7324 ZZXY=              0.5175
 N-N= 2.594309836880D+02 E-N=-1.152821249097D+03  KE= 2.708375898304D+02
 No NMR shielding tensors so no spin-rotation constants.
 Leave Link  601 at Sun Sep 19 19:59:39 2021, MaxMem=   524288000 cpu:               0.1 elap:               0.1
 (Enter /opt/gaussian/g16_legacy/l9999.exe)
 1\1\GINC-TRUENO95\FOpt\RMP2-FC\6-31G(d,p)\C5H12O1\JRAMOS\19-Sep-2021\0
 \\#p opt mp2/6-31g(d,p)\\Conformer number 000. Energy MM = 1.411 kcal/
 mol\\0,1\C,-2.1953375662,1.1450508224,-0.0065264047\H,-1.8314178909,0.
 1227163132,-0.0694791808\H,-1.8806169272,1.6742039865,-0.9067487602\H,
 -3.2844406563,1.1267232709,0.007159223\C,-1.6421933704,1.8245012026,1.
 2396880926\H,-2.0134230107,2.8497702729,1.3102322329\H,-1.9800323893,1
 .2979218206,2.135478363\C,-0.1234404058,1.8599662413,1.270617665\H,0.2
 365787575,2.3566887312,0.3567269401\C,0.4173088955,2.6138961933,2.4812
 916617\H,0.0011174706,2.1542957743,3.3805471425\H,0.04861853,3.6420976
 949,2.4421975566\C,1.9398371048,2.614157953,2.5573283222\H,2.377067657
 7,3.0356351518,1.6506552016\H,2.2932371775,3.2042190301,3.4013186657\H
 ,2.3218953933,1.6019391698,2.685010439\O,0.3089236791,0.4934148327,1.2
 781777791\H,1.2499175507,0.4853015386,1.0681250605\\Version=EM64L-G16R
 evA.03\State=1-A\HF=-271.2064534\MP2=-272.1225457\RMSD=7.924e-09\RMSF=
 6.839e-06\Dipole=0.3944194,0.4530683,-0.063497\PG=C01 [X(C5H12O1)]\\@


 THE ... SCIENTISTS WERE WRONG ... THE MOST PERSISTENT PRINCIPLES 
 OF THE UNIVERSE WERE ACCIDENT AND ERROR.

                          -- FRANK HERBERT IN DUNE
 Job cpu time:       0 days  0 hours  4 minutes 22.8 seconds.
 Elapsed time:       0 days  0 hours  4 minutes 25.6 seconds.
 File lengths (MBytes):  RWF=     15 Int=      0 D2E=      0 Chk=      4 Scr=      1
 Normal termination of Gaussian 16 at Sun Sep 19 19:59:39 2021.
