 Entering Gaussian System, Link 0=/opt/gaussian/g16_legacy/g16
 Input=06-PVA_003_gaussian.com
 Output=06-PVA_003_gaussian.log
 Initial command:
 /opt/gaussian/g16_legacy/l1.exe "/scratch-local/jramos/2661750/Gau-19048.inp" -scrdir="/scratch-local/jramos/2661750/"
 Entering Link 1 = /opt/gaussian/g16_legacy/l1.exe PID=     19052.
  
 Copyright (c) 1988,1990,1992,1993,1995,1998,2003,2009,2016,
            Gaussian, Inc.  All Rights Reserved.
  
 This is part of the Gaussian(R) 16 program.  It is based on
 the Gaussian(R) 09 system (copyright 2009, Gaussian, Inc.),
 the Gaussian(R) 03 system (copyright 2003, Gaussian, Inc.),
 the Gaussian(R) 98 system (copyright 1998, Gaussian, Inc.),
 the Gaussian(R) 94 system (copyright 1995, Gaussian, Inc.),
 the Gaussian 92(TM) system (copyright 1992, Gaussian, Inc.),
 the Gaussian 90(TM) system (copyright 1990, Gaussian, Inc.),
 the Gaussian 88(TM) system (copyright 1988, Gaussian, Inc.),
 the Gaussian 86(TM) system (copyright 1986, Carnegie Mellon
 University), and the Gaussian 82(TM) system (copyright 1983,
 Carnegie Mellon University). Gaussian is a federally registered
 trademark of Gaussian, Inc.
  
 This software contains proprietary and confidential information,
 including trade secrets, belonging to Gaussian, Inc.
  
 This software is provided under written license and may be
 used, copied, transmitted, or stored only in accord with that
 written license.
  
 The following legend is applicable only to US Government
 contracts under FAR:
  
                    RESTRICTED RIGHTS LEGEND
  
 Use, reproduction and disclosure by the US Government is
 subject to restrictions as set forth in subparagraphs (a)
 and (c) of the Commercial Computer Software - Restricted
 Rights clause in FAR 52.227-19.
  
 Gaussian, Inc.
 340 Quinnipiac St., Bldg. 40, Wallingford CT 06492
  
  
 ---------------------------------------------------------------
 Warning -- This program may not be used in any manner that
 competes with the business of Gaussian, Inc. or will provide
 assistance to any competitor of Gaussian, Inc.  The licensee
 of this program is prohibited from giving any competitor of
 Gaussian, Inc. access to this program.  By using this program,
 the user acknowledges that Gaussian, Inc. is engaged in the
 business of creating and licensing software in the field of
 computational chemistry and represents and warrants to the
 licensee that it is not a competitor of Gaussian, Inc. and that
 it will not use this program in any manner prohibited above.
 ---------------------------------------------------------------
  

 Cite this work as:
 Gaussian 16, Revision A.03,
 M. J. Frisch, G. W. Trucks, H. B. Schlegel, G. E. Scuseria, 
 M. A. Robb, J. R. Cheeseman, G. Scalmani, V. Barone, 
 G. A. Petersson, H. Nakatsuji, X. Li, M. Caricato, A. V. Marenich, 
 J. Bloino, B. G. Janesko, R. Gomperts, B. Mennucci, H. P. Hratchian, 
 J. V. Ortiz, A. F. Izmaylov, J. L. Sonnenberg, D. Williams-Young, 
 F. Ding, F. Lipparini, F. Egidi, J. Goings, B. Peng, A. Petrone, 
 T. Henderson, D. Ranasinghe, V. G. Zakrzewski, J. Gao, N. Rega, 
 G. Zheng, W. Liang, M. Hada, M. Ehara, K. Toyota, R. Fukuda, 
 J. Hasegawa, M. Ishida, T. Nakajima, Y. Honda, O. Kitao, H. Nakai, 
 T. Vreven, K. Throssell, J. A. Montgomery, Jr., J. E. Peralta, 
 F. Ogliaro, M. J. Bearpark, J. J. Heyd, E. N. Brothers, K. N. Kudin, 
 V. N. Staroverov, T. A. Keith, R. Kobayashi, J. Normand, 
 K. Raghavachari, A. P. Rendell, J. C. Burant, S. S. Iyengar, 
 J. Tomasi, M. Cossi, J. M. Millam, M. Klene, C. Adamo, R. Cammi, 
 J. W. Ochterski, R. L. Martin, K. Morokuma, O. Farkas, 
 J. B. Foresman, and D. J. Fox, Gaussian, Inc., Wallingford CT, 2016.
 
 ******************************************
 Gaussian 16:  EM64L-G16RevA.03 25-Dec-2016
                19-Sep-2021 
 ******************************************
 %chk=06-PVA_003_gaussian.chk
 %nproc=1
 Will use up to    1 processors via shared memory.
 %mem=4000Mb
 ---------------------
 #p opt mp2/6-31g(d,p)
 ---------------------
 1/18=20,19=15,38=1/1,3;
 2/9=110,12=2,17=6,18=5,40=1/2;
 3/5=1,6=6,7=101,11=9,25=1,30=1,71=1/1,2,3;
 4//1;
 5/5=2,38=5/2;
 8/6=4,10=2/1;
 9/15=2,16=-3/6;
 10/5=1/2;
 6/7=2,8=2,9=2,10=2/1;
 7/12=2/1,2,3,16;
 1/18=20,19=15/3(2);
 2/9=110/2;
 99//99;
 2/9=110/2;
 3/5=1,6=6,7=101,11=9,25=1,30=1,71=1/1,2,3;
 4/5=5,16=3,69=1/1;
 5/5=2,38=5/2;
 8/6=4,10=2/1;
 9/15=2,16=-3/6;
 10/5=1/2;
 7/12=2/1,2,3,16;
 1/18=20,19=15/3(-8);
 2/9=110/2;
 6/7=2,8=2,9=2,10=2/1;
 99//99;
 Leave Link    1 at Sun Sep 19 19:55:12 2021, MaxMem=   524288000 cpu:               0.0 elap:               0.1
 (Enter /opt/gaussian/g16_legacy/l101.exe)
 ------------------------------------------------
 Conformer number 003. Energy MM = 1.793 kcal/mol
 ------------------------------------------------
 Symbolic Z-matrix:
 Charge =  0 Multiplicity = 1
 C                    -2.1915    1.1484   -0.0763 
 H                    -1.8826    0.0993   -0.1201 
 H                    -1.8133    1.659    -0.9663 
 H                    -3.2856    1.1757   -0.1062 
 C                    -1.6883    1.8183    1.1959 
 H                    -2.0784    2.8423    1.2408 
 H                    -2.1077    1.2661    2.0439 
 C                    -0.158     1.8457    1.2798 
 H                     0.2377    2.3563    0.3944 
 C                     0.3588    2.5645    2.534 
 H                     0.0226    3.6069    2.528 
 H                     1.4554    2.5786    2.5015 
 C                    -0.0544    1.909     3.8465 
 H                     0.2615    0.8616    3.8875 
 H                     0.4089    2.4325    4.6883 
 H                    -1.1383    1.9502    3.9909 
 O                     0.3376    0.5085    1.2563 
 H                     1.3089    0.5574    1.2775 
 
 ITRead=  0  0  0  0  0  0  0  0  0  0  0  0  0  0  0  0  0  0
 MicOpt= -1 -1 -1 -1 -1 -1 -1 -1 -1 -1 -1 -1 -1 -1 -1 -1 -1 -1
 NAtoms=     18 NQM=       18 NQMF=       0 NMMI=      0 NMMIF=      0
                NMic=       0 NMicF=      0.
                    Isotopes and Nuclear Properties:
 (Nuclear quadrupole moments (NQMom) in fm**2, nuclear magnetic moments (NMagM)
  in nuclear magnetons)

  Atom         1           2           3           4           5           6           7           8           9          10
 IAtWgt=          12           1           1           1          12           1           1          12           1          12
 AtmWgt=  12.0000000   1.0078250   1.0078250   1.0078250  12.0000000   1.0078250   1.0078250  12.0000000   1.0078250  12.0000000
 NucSpn=           0           1           1           1           0           1           1           0           1           0
 AtZEff=  -0.0000000  -0.0000000  -0.0000000  -0.0000000  -0.0000000  -0.0000000  -0.0000000  -0.0000000  -0.0000000  -0.0000000
 NQMom=    0.0000000   0.0000000   0.0000000   0.0000000   0.0000000   0.0000000   0.0000000   0.0000000   0.0000000   0.0000000
 NMagM=    0.0000000   2.7928460   2.7928460   2.7928460   0.0000000   2.7928460   2.7928460   0.0000000   2.7928460   0.0000000
 AtZNuc=   6.0000000   1.0000000   1.0000000   1.0000000   6.0000000   1.0000000   1.0000000   6.0000000   1.0000000   6.0000000

  Atom        11          12          13          14          15          16          17          18
 IAtWgt=           1           1          12           1           1           1          16           1
 AtmWgt=   1.0078250   1.0078250  12.0000000   1.0078250   1.0078250   1.0078250  15.9949146   1.0078250
 NucSpn=           1           1           0           1           1           1           0           1
 AtZEff=  -0.0000000  -0.0000000  -0.0000000  -0.0000000  -0.0000000  -0.0000000  -0.0000000  -0.0000000
 NQMom=    0.0000000   0.0000000   0.0000000   0.0000000   0.0000000   0.0000000   0.0000000   0.0000000
 NMagM=    2.7928460   2.7928460   0.0000000   2.7928460   2.7928460   2.7928460   0.0000000   2.7928460
 AtZNuc=   1.0000000   1.0000000   6.0000000   1.0000000   1.0000000   1.0000000   8.0000000   1.0000000
 Leave Link  101 at Sun Sep 19 19:55:12 2021, MaxMem=   524288000 cpu:               0.1 elap:               0.3
 (Enter /opt/gaussian/g16_legacy/l103.exe)

 GradGradGradGradGradGradGradGradGradGradGradGradGradGradGradGradGradGrad
 Berny optimization.
 Initialization pass.
                           ----------------------------
                           !    Initial Parameters    !
                           ! (Angstroms and Degrees)  !
 --------------------------                            --------------------------
 ! Name  Definition              Value          Derivative Info.                !
 --------------------------------------------------------------------------------
 ! R1    R(1,2)                  1.0945         estimate D2E/DX2                !
 ! R2    R(1,3)                  1.0935         estimate D2E/DX2                !
 ! R3    R(1,4)                  1.0948         estimate D2E/DX2                !
 ! R4    R(1,5)                  1.5233         estimate D2E/DX2                !
 ! R5    R(5,6)                  1.0967         estimate D2E/DX2                !
 ! R6    R(5,7)                  1.0954         estimate D2E/DX2                !
 ! R7    R(5,8)                  1.5328         estimate D2E/DX2                !
 ! R8    R(8,9)                  1.096          estimate D2E/DX2                !
 ! R9    R(8,10)                 1.5352         estimate D2E/DX2                !
 ! R10   R(8,17)                 1.4263         estimate D2E/DX2                !
 ! R11   R(10,11)                1.0953         estimate D2E/DX2                !
 ! R12   R(10,12)                1.0972         estimate D2E/DX2                !
 ! R13   R(10,13)                1.5242         estimate D2E/DX2                !
 ! R14   R(13,14)                1.0948         estimate D2E/DX2                !
 ! R15   R(13,15)                1.0942         estimate D2E/DX2                !
 ! R16   R(13,16)                1.0943         estimate D2E/DX2                !
 ! R17   R(17,18)                0.9728         estimate D2E/DX2                !
 ! A1    A(2,1,3)              108.5041         estimate D2E/DX2                !
 ! A2    A(2,1,4)              107.7486         estimate D2E/DX2                !
 ! A3    A(2,1,5)              111.2055         estimate D2E/DX2                !
 ! A4    A(3,1,4)              108.1642         estimate D2E/DX2                !
 ! A5    A(3,1,5)              111.1077         estimate D2E/DX2                !
 ! A6    A(4,1,5)              109.9957         estimate D2E/DX2                !
 ! A7    A(1,5,6)              109.1052         estimate D2E/DX2                !
 ! A8    A(1,5,7)              107.3594         estimate D2E/DX2                !
 ! A9    A(1,5,8)              112.5419         estimate D2E/DX2                !
 ! A10   A(6,5,7)              107.6259         estimate D2E/DX2                !
 ! A11   A(6,5,8)              109.6443         estimate D2E/DX2                !
 ! A12   A(7,5,8)              110.4184         estimate D2E/DX2                !
 ! A13   A(5,8,9)              108.9383         estimate D2E/DX2                !
 ! A14   A(5,8,10)             112.9026         estimate D2E/DX2                !
 ! A15   A(5,8,17)             109.2227         estimate D2E/DX2                !
 ! A16   A(9,8,10)             108.682          estimate D2E/DX2                !
 ! A17   A(9,8,17)             107.3384         estimate D2E/DX2                !
 ! A18   A(10,8,17)            109.6007         estimate D2E/DX2                !
 ! A19   A(8,10,11)            109.743          estimate D2E/DX2                !
 ! A20   A(8,10,12)            108.5589         estimate D2E/DX2                !
 ! A21   A(8,10,13)            114.2607         estimate D2E/DX2                !
 ! A22   A(11,10,12)           107.1214         estimate D2E/DX2                !
 ! A23   A(11,10,13)           109.3178         estimate D2E/DX2                !
 ! A24   A(12,10,13)           107.5774         estimate D2E/DX2                !
 ! A25   A(10,13,14)           111.4375         estimate D2E/DX2                !
 ! A26   A(10,13,15)           109.9949         estimate D2E/DX2                !
 ! A27   A(10,13,16)           111.4678         estimate D2E/DX2                !
 ! A28   A(14,13,15)           107.8625         estimate D2E/DX2                !
 ! A29   A(14,13,16)           108.4758         estimate D2E/DX2                !
 ! A30   A(15,13,16)           107.4496         estimate D2E/DX2                !
 ! A31   A(8,17,18)            107.4256         estimate D2E/DX2                !
 ! D1    D(2,1,5,6)           -175.8269         estimate D2E/DX2                !
 ! D2    D(2,1,5,7)            -59.466          estimate D2E/DX2                !
 ! D3    D(2,1,5,8)             62.2366         estimate D2E/DX2                !
 ! D4    D(3,1,5,6)             63.1972         estimate D2E/DX2                !
 ! D5    D(3,1,5,7)            179.5581         estimate D2E/DX2                !
 ! D6    D(3,1,5,8)            -58.7393         estimate D2E/DX2                !
 ! D7    D(4,1,5,6)            -56.5429         estimate D2E/DX2                !
 ! D8    D(4,1,5,7)             59.8181         estimate D2E/DX2                !
 ! D9    D(4,1,5,8)           -178.4794         estimate D2E/DX2                !
 ! D10   D(1,5,8,9)             57.0659         estimate D2E/DX2                !
 ! D11   D(1,5,8,10)           177.9023         estimate D2E/DX2                !
 ! D12   D(1,5,8,17)           -59.8906         estimate D2E/DX2                !
 ! D13   D(6,5,8,9)            -64.5646         estimate D2E/DX2                !
 ! D14   D(6,5,8,10)            56.2718         estimate D2E/DX2                !
 ! D15   D(6,5,8,17)           178.4789         estimate D2E/DX2                !
 ! D16   D(7,5,8,9)            177.0142         estimate D2E/DX2                !
 ! D17   D(7,5,8,10)           -62.1494         estimate D2E/DX2                !
 ! D18   D(7,5,8,17)            60.0577         estimate D2E/DX2                !
 ! D19   D(5,8,10,11)          -60.9357         estimate D2E/DX2                !
 ! D20   D(5,8,10,12)         -177.7075         estimate D2E/DX2                !
 ! D21   D(5,8,10,13)           62.244          estimate D2E/DX2                !
 ! D22   D(9,8,10,11)           60.0465         estimate D2E/DX2                !
 ! D23   D(9,8,10,12)          -56.7253         estimate D2E/DX2                !
 ! D24   D(9,8,10,13)         -176.7738         estimate D2E/DX2                !
 ! D25   D(17,8,10,11)         177.0696         estimate D2E/DX2                !
 ! D26   D(17,8,10,12)          60.2978         estimate D2E/DX2                !
 ! D27   D(17,8,10,13)         -59.7507         estimate D2E/DX2                !
 ! D28   D(5,8,17,18)          177.9521         estimate D2E/DX2                !
 ! D29   D(9,8,17,18)           59.987          estimate D2E/DX2                !
 ! D30   D(10,8,17,18)         -57.8772         estimate D2E/DX2                !
 ! D31   D(8,10,13,14)          56.3364         estimate D2E/DX2                !
 ! D32   D(8,10,13,15)         175.9101         estimate D2E/DX2                !
 ! D33   D(8,10,13,16)         -65.0129         estimate D2E/DX2                !
 ! D34   D(11,10,13,14)        179.7458         estimate D2E/DX2                !
 ! D35   D(11,10,13,15)        -60.6805         estimate D2E/DX2                !
 ! D36   D(11,10,13,16)         58.3965         estimate D2E/DX2                !
 ! D37   D(12,10,13,14)        -64.2596         estimate D2E/DX2                !
 ! D38   D(12,10,13,15)         55.3141         estimate D2E/DX2                !
 ! D39   D(12,10,13,16)        174.3911         estimate D2E/DX2                !
 --------------------------------------------------------------------------------
 Trust Radius=3.00D-01 FncErr=1.00D-07 GrdErr=1.00D-07 EigMax=2.50D+02 EigMin=1.00D-04
 Number of steps in this run=     97 maximum allowed number of steps=    108.
 GradGradGradGradGradGradGradGradGradGradGradGradGradGradGradGradGradGrad

 Leave Link  103 at Sun Sep 19 19:55:12 2021, MaxMem=   524288000 cpu:               0.0 elap:               0.1
 (Enter /opt/gaussian/g16_legacy/l202.exe)
                          Input orientation:                          
 ---------------------------------------------------------------------
 Center     Atomic      Atomic             Coordinates (Angstroms)
 Number     Number       Type             X           Y           Z
 ---------------------------------------------------------------------
      1          6           0       -2.191500    1.148400   -0.076300
      2          1           0       -1.882600    0.099300   -0.120100
      3          1           0       -1.813300    1.659000   -0.966300
      4          1           0       -3.285600    1.175700   -0.106200
      5          6           0       -1.688300    1.818300    1.195900
      6          1           0       -2.078400    2.842300    1.240800
      7          1           0       -2.107700    1.266100    2.043900
      8          6           0       -0.158000    1.845700    1.279800
      9          1           0        0.237700    2.356300    0.394400
     10          6           0        0.358800    2.564500    2.534000
     11          1           0        0.022600    3.606900    2.528000
     12          1           0        1.455400    2.578600    2.501500
     13          6           0       -0.054400    1.909000    3.846500
     14          1           0        0.261500    0.861600    3.887500
     15          1           0        0.408900    2.432500    4.688300
     16          1           0       -1.138300    1.950200    3.990900
     17          8           0        0.337600    0.508500    1.256300
     18          1           0        1.308900    0.557400    1.277500
 ---------------------------------------------------------------------
                    Distance matrix (angstroms):
                    1          2          3          4          5
     1  C    0.000000
     2  H    1.094508   0.000000
     3  H    1.093548   1.775816   0.000000
     4  H    1.094849   1.768400   1.772292   0.000000
     5  C    1.523309   2.173607   2.171661   2.158649   0.000000
     6  H    2.148684   3.068295   2.518287   2.459532   1.096709
     7  H    2.125117   2.468803   3.049975   2.453273   1.095411
     8  C    2.541723   2.825576   2.796398   3.485940   1.532843
     9  H    2.753469   3.139177   2.558189   3.749408   2.154373
    10  C    3.914465   4.259734   4.217825   4.709679   2.556940
    11  H    4.210563   4.790144   4.401701   4.877902   2.810829
    12  H    4.689393   4.915482   4.853422   5.589750   3.487907
    13  C    4.531453   4.727710   5.130231   5.157734   3.115050
    14  H    4.670243   4.608592   5.338541   5.350721   3.458570
    15  H    5.577850   5.815110   6.124620   6.181918   4.119751
    16  H    4.277175   4.569479   5.011412   4.690093   2.851653
    17  O    2.929444   2.644090   3.299996   3.927994   2.413192
    18  H    3.799323   3.514088   3.999537   4.838011   3.252650
                    6          7          8          9         10
     6  H    0.000000
     7  H    1.769247   0.000000
     8  C    2.163947   2.172813   0.000000
     9  H    2.513346   3.067619   1.096004   0.000000
    10  C    2.772992   2.830135   1.535179   2.153114   0.000000
    11  H    2.579864   3.201855   2.166205   2.482442   1.095292
    12  H    3.761203   3.824622   2.152383   2.443784   1.097172
    13  C    3.428892   2.806907   2.569570   3.493193   1.524162
    14  H    4.050102   3.029124   2.818605   3.799532   2.177452
    15  H    4.270814   3.832312   3.504794   4.297987   2.158922
    16  H    3.040178   2.280030   2.884783   3.872093   2.177437
    17  O    3.359154   2.678388   1.426280   2.041376   2.420765
    18  H    4.086064   3.572503   1.952311   2.272306   2.551457
                   11         12         13         14         15
    11  H    0.000000
    12  H    1.763808   0.000000
    13  C    2.151101   2.129997   0.000000
    14  H    3.072781   2.508881   1.094770   0.000000
    15  H    2.489044   2.428704   1.094224   1.769388   0.000000
    16  H    2.496482   3.056220   1.094252   1.776283   1.764315
    17  O    3.364005   2.661825   2.970556   2.655877   3.935160
    18  H    3.538046   2.367464   3.207050   2.828725   3.994941
                   16         17         18
    16  H    0.000000
    17  O    3.425612   0.000000
    18  H    3.910399   0.972761   0.000000
 Stoichiometry    C5H12O
 Framework group  C1[X(C5H12O)]
 Deg. of freedom    48
 Full point group                 C1      NOp   1
 Largest Abelian subgroup         C1      NOp   1
 Largest concise Abelian subgroup C1      NOp   1
                         Standard orientation:                         
 ---------------------------------------------------------------------
 Center     Atomic      Atomic             Coordinates (Angstroms)
 Number     Number       Type             X           Y           Z
 ---------------------------------------------------------------------
      1          6           0       -2.417582   -0.309113   -0.133571
      2          1           0       -2.508842    0.488905   -0.877067
      3          1           0       -2.809752    0.057608    0.819092
      4          1           0       -3.044556   -1.144459   -0.461892
      5          6           0       -0.971764   -0.767321    0.008288
      6          1           0       -0.930271   -1.614504    0.703508
      7          1           0       -0.645246   -1.127489   -0.973338
      8          6           0       -0.046827    0.350642    0.502514
      9          1           0       -0.425569    0.728900    1.458913
     10          6           0        1.402756   -0.115695    0.697476
     11          1           0        1.437433   -0.911722    1.449009
     12          1           0        1.990085    0.724170    1.089215
     13          6           0        2.082734   -0.597232   -0.578777
     14          1           0        2.063738    0.172396   -1.357130
     15          1           0        3.129398   -0.842978   -0.375235
     16          1           0        1.604224   -1.499535   -0.971544
     17          8           0       -0.080529    1.432825   -0.425935
     18          1           0        0.487688    2.138423   -0.071638
 ---------------------------------------------------------------------
 Rotational constants (GHZ):           5.6529184           2.1702290           1.8897068
 Leave Link  202 at Sun Sep 19 19:55:12 2021, MaxMem=   524288000 cpu:               0.0 elap:               0.1
 (Enter /opt/gaussian/g16_legacy/l301.exe)
 Standard basis: 6-31G(d,p) (6D, 7F)
 Ernie: Thresh=  0.10000D-02 Tol=  0.10000D-05 Strict=F.
 There are   150 symmetry adapted cartesian basis functions of A   symmetry.
 There are   150 symmetry adapted basis functions of A   symmetry.
   150 basis functions,   252 primitive gaussians,   150 cartesian basis functions
    25 alpha electrons       25 beta electrons
       nuclear repulsion energy       260.9864499586 Hartrees.
 IExCor=    0 DFT=F Ex=HF Corr=None ExCW=0 ScaHFX=  1.000000
 ScaDFX=  1.000000  1.000000  1.000000  1.000000 ScalE2=  1.000000  1.000000
 IRadAn=      5 IRanWt=     -1 IRanGd=            0 ICorTp=0 IEmpDi=  4
 NAtoms=   18 NActive=   18 NUniq=   18 SFac= 1.00D+00 NAtFMM=   60 NAOKFM=F Big=F
 Integral buffers will be    131072 words long.
 Raffenetti 1 integral format.
 Two-electron integral symmetry is turned on.
 Leave Link  301 at Sun Sep 19 19:55:12 2021, MaxMem=   524288000 cpu:               0.0 elap:               0.1
 (Enter /opt/gaussian/g16_legacy/l302.exe)
 NPDir=0 NMtPBC=     1 NCelOv=     1 NCel=       1 NClECP=     1 NCelD=      1
         NCelK=      1 NCelE2=     1 NClLst=     1 CellRange=     0.0.
 One-electron integrals computed using PRISM.
 One-electron integral symmetry used in STVInt
 NBasis=   150 RedAO= T EigKep=  3.45D-03  NBF=   150
 NBsUse=   150 1.00D-06 EigRej= -1.00D+00 NBFU=   150
 Leave Link  302 at Sun Sep 19 19:55:13 2021, MaxMem=   524288000 cpu:               0.1 elap:               0.4
 (Enter /opt/gaussian/g16_legacy/l303.exe)
 DipDrv:  MaxL=1.
 Leave Link  303 at Sun Sep 19 19:55:13 2021, MaxMem=   524288000 cpu:               0.0 elap:               0.3
 (Enter /opt/gaussian/g16_legacy/l401.exe)
 ExpMin= 1.61D-01 ExpMax= 5.48D+03 ExpMxC= 8.25D+02 IAcc=3 IRadAn=         5 AccDes= 0.00D+00
 Harris functional with IExCor=  205 and IRadAn=       5 diagonalized for initial guess.
 HarFok:  IExCor=  205 AccDes= 0.00D+00 IRadAn=         5 IDoV= 1 UseB2=F ITyADJ=14
 ICtDFT=  3500011 ScaDFX=  1.000000  1.000000  1.000000  1.000000
 FoFCou: FMM=F IPFlag=           0 FMFlag=      100000 FMFlg1=           0
         NFxFlg=           0 DoJE=T BraDBF=F KetDBF=T FulRan=T
         wScrn=  0.000000 ICntrl=       500 IOpCl=  0 I1Cent=   200000004 NGrid=           0
         NMat0=    1 NMatS0=      1 NMatT0=    0 NMatD0=    1 NMtDS0=    0 NMtDT0=    0
 Petite list used in FoFCou.
 Harris En= -271.797599979903    
 JPrj=0 DoOrth=F DoCkMO=F.
 Leave Link  401 at Sun Sep 19 19:55:16 2021, MaxMem=   524288000 cpu:               2.9 elap:               3.2
 (Enter /opt/gaussian/g16_legacy/l502.exe)
 Keep R1 ints in memory in canonical form, NReq=65856006.
 FoFCou: FMM=F IPFlag=           0 FMFlag=           0 FMFlg1=           0
         NFxFlg=           0 DoJE=F BraDBF=F KetDBF=F FulRan=T
         wScrn=  0.000000 ICntrl=       600 IOpCl=  0 I1Cent=           0 NGrid=           0
         NMat0=    1 NMatS0=  11325 NMatT0=    0 NMatD0=    1 NMtDS0=    0 NMtDT0=    0
 Symmetry not used in FoFCou.
 Two-electron integral symmetry not used.
 Closed shell SCF:
 Using DIIS extrapolation, IDIIS=  1040.
 NGot=   524288000 LenX=   460106785 LenY=   460083844
 Requested convergence on RMS density matrix=1.00D-08 within 128 cycles.
 Requested convergence on MAX density matrix=1.00D-06.
 Requested convergence on             energy=1.00D-06.
 No special actions if energy rises.

 Cycle   1  Pass 1  IDiag  1:
 E= -270.820936453514    
 DIIS: error= 5.82D-02 at cycle   1 NSaved=   1.
 NSaved= 1 IEnMin= 1 EnMin= -270.820936453514     IErMin= 1 ErrMin= 5.82D-02
 ErrMax= 5.82D-02  0.00D+00 EMaxC= 1.00D-01 BMatC= 5.19D-01 BMatP= 5.19D-01
 IDIUse=3 WtCom= 4.18D-01 WtEn= 5.82D-01
 Coeff-Com:  0.100D+01
 Coeff-En:   0.100D+01
 Coeff:      0.100D+01
 Gap=     0.592 Goal=   None    Shift=    0.000
 GapD=    0.592 DampG=2.000 DampE=0.500 DampFc=1.0000 IDamp=-1.
 RMSDP=4.93D-03 MaxDP=1.18D-01              OVMax= 1.27D-01

 Cycle   2  Pass 1  IDiag  1:
 E= -271.136204636574     Delta-E=       -0.315268183060 Rises=F Damp=F
 DIIS: error= 1.43D-02 at cycle   2 NSaved=   2.
 NSaved= 2 IEnMin= 2 EnMin= -271.136204636574     IErMin= 2 ErrMin= 1.43D-02
 ErrMax= 1.43D-02  0.00D+00 EMaxC= 1.00D-01 BMatC= 7.66D-02 BMatP= 5.19D-01
 IDIUse=3 WtCom= 8.57D-01 WtEn= 1.43D-01
 Coeff-Com:  0.224D+00 0.776D+00
 Coeff-En:   0.000D+00 0.100D+01
 Coeff:      0.192D+00 0.808D+00
 Gap=     0.665 Goal=   None    Shift=    0.000
 RMSDP=1.90D-03 MaxDP=3.43D-02 DE=-3.15D-01 OVMax= 4.50D-02

 Cycle   3  Pass 1  IDiag  1:
 E= -271.200340600877     Delta-E=       -0.064135964304 Rises=F Damp=F
 DIIS: error= 2.89D-03 at cycle   3 NSaved=   3.
 NSaved= 3 IEnMin= 3 EnMin= -271.200340600877     IErMin= 3 ErrMin= 2.89D-03
 ErrMax= 2.89D-03  0.00D+00 EMaxC= 1.00D-01 BMatC= 3.41D-03 BMatP= 7.66D-02
 IDIUse=3 WtCom= 9.71D-01 WtEn= 2.89D-02
 Coeff-Com: -0.237D-01 0.129D+00 0.894D+00
 Coeff-En:   0.000D+00 0.000D+00 0.100D+01
 Coeff:     -0.230D-01 0.126D+00 0.897D+00
 Gap=     0.631 Goal=   None    Shift=    0.000
 RMSDP=3.29D-04 MaxDP=9.63D-03 DE=-6.41D-02 OVMax= 1.04D-02

 Cycle   4  Pass 1  IDiag  1:
 E= -271.203519958014     Delta-E=       -0.003179357136 Rises=F Damp=F
 DIIS: error= 6.40D-04 at cycle   4 NSaved=   4.
 NSaved= 4 IEnMin= 4 EnMin= -271.203519958014     IErMin= 4 ErrMin= 6.40D-04
 ErrMax= 6.40D-04  0.00D+00 EMaxC= 1.00D-01 BMatC= 1.09D-04 BMatP= 3.41D-03
 IDIUse=3 WtCom= 9.94D-01 WtEn= 6.40D-03
 Coeff-Com: -0.706D-02 0.900D-02 0.166D+00 0.832D+00
 Coeff-En:   0.000D+00 0.000D+00 0.000D+00 0.100D+01
 Coeff:     -0.701D-02 0.894D-02 0.165D+00 0.833D+00
 Gap=     0.633 Goal=   None    Shift=    0.000
 RMSDP=8.35D-05 MaxDP=2.31D-03 DE=-3.18D-03 OVMax= 2.26D-03

 Cycle   5  Pass 1  IDiag  1:
 E= -271.203625089153     Delta-E=       -0.000105131139 Rises=F Damp=F
 DIIS: error= 1.70D-04 at cycle   5 NSaved=   5.
 NSaved= 5 IEnMin= 5 EnMin= -271.203625089153     IErMin= 5 ErrMin= 1.70D-04
 ErrMax= 1.70D-04  0.00D+00 EMaxC= 1.00D-01 BMatC= 1.18D-05 BMatP= 1.09D-04
 IDIUse=3 WtCom= 9.98D-01 WtEn= 1.70D-03
 Coeff-Com:  0.194D-02-0.148D-01-0.847D-01 0.105D+00 0.993D+00
 Coeff-En:   0.000D+00 0.000D+00 0.000D+00 0.000D+00 0.100D+01
 Coeff:      0.194D-02-0.147D-01-0.846D-01 0.105D+00 0.993D+00
 Gap=     0.633 Goal=   None    Shift=    0.000
 RMSDP=3.41D-05 MaxDP=6.50D-04 DE=-1.05D-04 OVMax= 8.29D-04

 Cycle   6  Pass 1  IDiag  1:
 E= -271.203640387447     Delta-E=       -0.000015298294 Rises=F Damp=F
 DIIS: error= 4.01D-05 at cycle   6 NSaved=   6.
 NSaved= 6 IEnMin= 6 EnMin= -271.203640387447     IErMin= 6 ErrMin= 4.01D-05
 ErrMax= 4.01D-05  0.00D+00 EMaxC= 1.00D-01 BMatC= 3.94D-07 BMatP= 1.18D-05
 IDIUse=1 WtCom= 1.00D+00 WtEn= 0.00D+00
 Coeff-Com:  0.651D-03-0.282D-02-0.203D-01-0.301D-01 0.121D+00 0.932D+00
 Coeff:      0.651D-03-0.282D-02-0.203D-01-0.301D-01 0.121D+00 0.932D+00
 Gap=     0.633 Goal=   None    Shift=    0.000
 RMSDP=7.27D-06 MaxDP=1.12D-04 DE=-1.53D-05 OVMax= 1.67D-04

 Cycle   7  Pass 1  IDiag  1:
 E= -271.203640965066     Delta-E=       -0.000000577620 Rises=F Damp=F
 DIIS: error= 9.47D-06 at cycle   7 NSaved=   7.
 NSaved= 7 IEnMin= 7 EnMin= -271.203640965066     IErMin= 7 ErrMin= 9.47D-06
 ErrMax= 9.47D-06  0.00D+00 EMaxC= 1.00D-01 BMatC= 2.34D-08 BMatP= 3.94D-07
 IDIUse=1 WtCom= 1.00D+00 WtEn= 0.00D+00
 Coeff-Com:  0.614D-05 0.213D-03 0.105D-02-0.101D-01-0.282D-01 0.125D+00
 Coeff-Com:  0.912D+00
 Coeff:      0.614D-05 0.213D-03 0.105D-02-0.101D-01-0.282D-01 0.125D+00
 Coeff:      0.912D+00
 Gap=     0.633 Goal=   None    Shift=    0.000
 RMSDP=1.80D-06 MaxDP=3.84D-05 DE=-5.78D-07 OVMax= 4.35D-05

 Cycle   8  Pass 1  IDiag  1:
 E= -271.203641000539     Delta-E=       -0.000000035473 Rises=F Damp=F
 DIIS: error= 4.26D-06 at cycle   8 NSaved=   8.
 NSaved= 8 IEnMin= 8 EnMin= -271.203641000539     IErMin= 8 ErrMin= 4.26D-06
 ErrMax= 4.26D-06  0.00D+00 EMaxC= 1.00D-01 BMatC= 1.92D-09 BMatP= 2.34D-08
 IDIUse=1 WtCom= 1.00D+00 WtEn= 0.00D+00
 Coeff-Com: -0.532D-04 0.244D-03 0.183D-02 0.225D-02-0.984D-02-0.827D-01
 Coeff-Com: -0.403D-02 0.109D+01
 Coeff:     -0.532D-04 0.244D-03 0.183D-02 0.225D-02-0.984D-02-0.827D-01
 Coeff:     -0.403D-02 0.109D+01
 Gap=     0.633 Goal=   None    Shift=    0.000
 RMSDP=6.23D-07 MaxDP=1.31D-05 DE=-3.55D-08 OVMax= 1.77D-05

 Cycle   9  Pass 1  IDiag  1:
 E= -271.203641004476     Delta-E=       -0.000000003937 Rises=F Damp=F
 DIIS: error= 1.10D-06 at cycle   9 NSaved=   9.
 NSaved= 9 IEnMin= 9 EnMin= -271.203641004476     IErMin= 9 ErrMin= 1.10D-06
 ErrMax= 1.10D-06  0.00D+00 EMaxC= 1.00D-01 BMatC= 1.19D-10 BMatP= 1.92D-09
 IDIUse=1 WtCom= 1.00D+00 WtEn= 0.00D+00
 Coeff-Com:  0.240D-05-0.286D-04-0.189D-03 0.374D-03 0.247D-02 0.499D-03
 Coeff-Com: -0.565D-01-0.929D-01 0.115D+01
 Coeff:      0.240D-05-0.286D-04-0.189D-03 0.374D-03 0.247D-02 0.499D-03
 Coeff:     -0.565D-01-0.929D-01 0.115D+01
 Gap=     0.633 Goal=   None    Shift=    0.000
 RMSDP=1.70D-07 MaxDP=3.92D-06 DE=-3.94D-09 OVMax= 5.69D-06

 Cycle  10  Pass 1  IDiag  1:
 E= -271.203641004775     Delta-E=       -0.000000000299 Rises=F Damp=F
 DIIS: error= 3.71D-07 at cycle  10 NSaved=  10.
 NSaved=10 IEnMin=10 EnMin= -271.203641004775     IErMin=10 ErrMin= 3.71D-07
 ErrMax= 3.71D-07  0.00D+00 EMaxC= 1.00D-01 BMatC= 9.19D-12 BMatP= 1.19D-10
 IDIUse=1 WtCom= 1.00D+00 WtEn= 0.00D+00
 Coeff-Com:  0.374D-05-0.172D-04-0.133D-03-0.203D-03 0.733D-03 0.673D-02
 Coeff-Com:  0.632D-03-0.872D-01-0.116D-01 0.109D+01
 Coeff:      0.374D-05-0.172D-04-0.133D-03-0.203D-03 0.733D-03 0.673D-02
 Coeff:      0.632D-03-0.872D-01-0.116D-01 0.109D+01
 Gap=     0.633 Goal=   None    Shift=    0.000
 RMSDP=4.80D-08 MaxDP=1.07D-06 DE=-2.99D-10 OVMax= 1.76D-06

 Cycle  11  Pass 1  IDiag  1:
 E= -271.203641004796     Delta-E=       -0.000000000021 Rises=F Damp=F
 DIIS: error= 6.11D-08 at cycle  11 NSaved=  11.
 NSaved=11 IEnMin=11 EnMin= -271.203641004796     IErMin=11 ErrMin= 6.11D-08
 ErrMax= 6.11D-08  0.00D+00 EMaxC= 1.00D-01 BMatC= 6.59D-13 BMatP= 9.19D-12
 IDIUse=1 WtCom= 1.00D+00 WtEn= 0.00D+00
 Coeff-Com:  0.664D-07 0.829D-06 0.350D-05-0.451D-04-0.113D-03 0.468D-03
 Coeff-Com:  0.380D-02-0.517D-03-0.774D-01 0.937D-01 0.980D+00
 Coeff:      0.664D-07 0.829D-06 0.350D-05-0.451D-04-0.113D-03 0.468D-03
 Coeff:      0.380D-02-0.517D-03-0.774D-01 0.937D-01 0.980D+00
 Gap=     0.633 Goal=   None    Shift=    0.000
 RMSDP=9.55D-09 MaxDP=2.07D-07 DE=-2.10D-11 OVMax= 3.28D-07

 SCF Done:  E(RHF) =  -271.203641005     A.U. after   11 cycles
            NFock= 11  Conv=0.96D-08     -V/T= 2.0017
 KE= 2.707424910642D+02 PE=-1.155913054048D+03 EE= 3.529804720208D+02
 Leave Link  502 at Sun Sep 19 19:55:20 2021, MaxMem=   524288000 cpu:               3.1 elap:               3.3
 (Enter /opt/gaussian/g16_legacy/l801.exe)
 ExpMin= 1.61D-01 ExpMax= 5.48D+03 ExpMxC= 8.25D+02 IAcc=3 IRadAn=         5 AccDes= 0.00D+00
 HarFok:  IExCor=  205 AccDes= 0.00D+00 IRadAn=         5 IDoV=-2 UseB2=F ITyADJ=14
 ICtDFT= 12500011 ScaDFX=  1.000000  1.000000  1.000000  1.000000
 Largest valence mixing into a core orbital is  2.03D-04
 Largest core mixing into a valence orbital is  3.26D-05
 Range of M.O.s used for correlation:     7   150
 NBasis=   150 NAE=    25 NBE=    25 NFC=     6 NFV=     0
 NROrb=    144 NOA=    19 NOB=    19 NVA=   125 NVB=   125
 Leave Link  801 at Sun Sep 19 19:55:21 2021, MaxMem=   524288000 cpu:               0.6 elap:               0.9
 (Enter /opt/gaussian/g16_legacy/l906.exe)
 Frozen-core derivative calculation, NFC=   6 NFV=   0.
 FulOut=F Deriv=T AODrv=T NAtomX=    18
   MMem=         315  MDisk=          19 MDiskD=          19
  W3Min=      562500 MinDsk=      807575 NBas6D=         150
 NBas2D=       11523    NTT=       11325    LW2=     2040000
    MDV=   524000922 MDiskM=       48333 NBas2p=       11022
 Fully direct method using O(ONN) memory.
 IMap=   1   2   3   4   5   6   7   8   9  10  11  12  13  14  15  16  17  18  19  20
 IMap=  21  22  23  24  25
 JobTyp=1 Pass  1:  I=   7 to  25 NPSUse=  1 ParTrn=F ParDer=F DoDerP=T.
 Spin components of T(2) and E(2):
     alpha-alpha T2 =       0.3391373180D-01 E2=     -0.1061090481D+00
     alpha-beta  T2 =       0.2152617266D+00 E2=     -0.7041391035D+00
     beta-beta   T2 =       0.3391373180D-01 E2=     -0.1061090481D+00
 The integrals were generated   1 times.
 ANorm=    0.1132735269D+01
 E2 =    -0.9163571997D+00 EUMP2 =    -0.27211999820454D+03
 Leave Link  906 at Sun Sep 19 19:55:42 2021, MaxMem=   524288000 cpu:              20.7 elap:              20.8
 (Enter /opt/gaussian/g16_legacy/l1002.exe)
 Minotr:  Closed shell wavefunction.
          Computing MP2/KS-MP2 derivatives.
          Using Z-Vector for PSCF gradient.
          Skipping F1 and S1 gradient terms here.
          IDoAtm=111111111111111111
          Frozen-core window.
          Direct CPHF calculation.
          Differentiating once with respect to electric field.
                with respect to dipole field.
          Differentiating once with respect to nuclear coordinates.
          Requested convergence is 1.0D-10 RMS, and 1.0D-09 maximum.
          NewPWx=F KeepS1=T KeepF1=T KeepIn=T MapXYZ=F SortEE=F KeepMc=T.
 Keep R1 ints in memory in canonical form, NReq=65858022.
 FoFCou: FMM=F IPFlag=           0 FMFlag=           0 FMFlg1=           0
         NFxFlg=           0 DoJE=F BraDBF=F KetDBF=F FulRan=T
         wScrn=  0.000000 ICntrl=       600 IOpCl=  0 I1Cent=           0 NGrid=           0
         NMat0=    1 NMatS0=  11325 NMatT0=    0 NMatD0=    1 NMtDS0=    0 NMtDT0=    0
 Symmetry not used in FoFCou.
 Two-electron integral symmetry not used.
          MDV=     524288000 using IRadAn=       5.
          Solving linear equations separately, MaxMat=       0.
          There are     1 degrees of freedom in the 1st order CPHF.  IDoFFX=0 NUNeed=     1.
 LinEq1:  Iter=  0 NonCon=     1 RMS=2.92D-03 Max=2.68D-02 NDo=     1
 AX will form     1 AO Fock derivatives at one time.
 LinEq1:  Iter=  1 NonCon=     1 RMS=8.87D-04 Max=7.63D-03 NDo=     1
 LinEq1:  Iter=  2 NonCon=     1 RMS=1.97D-04 Max=2.28D-03 NDo=     1
 LinEq1:  Iter=  3 NonCon=     1 RMS=7.13D-05 Max=6.89D-04 NDo=     1
 LinEq1:  Iter=  4 NonCon=     1 RMS=1.64D-05 Max=1.75D-04 NDo=     1
 LinEq1:  Iter=  5 NonCon=     1 RMS=4.03D-06 Max=3.87D-05 NDo=     1
 LinEq1:  Iter=  6 NonCon=     1 RMS=1.07D-06 Max=1.05D-05 NDo=     1
 LinEq1:  Iter=  7 NonCon=     1 RMS=2.96D-07 Max=2.17D-06 NDo=     1
 LinEq1:  Iter=  8 NonCon=     1 RMS=6.40D-08 Max=7.31D-07 NDo=     1
 LinEq1:  Iter=  9 NonCon=     1 RMS=1.53D-08 Max=1.50D-07 NDo=     1
 LinEq1:  Iter= 10 NonCon=     1 RMS=4.43D-09 Max=4.89D-08 NDo=     1
 LinEq1:  Iter= 11 NonCon=     1 RMS=1.31D-09 Max=1.24D-08 NDo=     1
 LinEq1:  Iter= 12 NonCon=     1 RMS=2.61D-10 Max=4.27D-09 NDo=     1
 LinEq1:  Iter= 13 NonCon=     0 RMS=5.35D-11 Max=7.73D-10 NDo=     1
 Linear equations converged to 1.000D-10 1.000D-09 after    13 iterations.
 End of Minotr F.D. properties file   721 does not exist.
 End of Minotr F.D. properties file   722 does not exist.
 End of Minotr F.D. properties file   788 does not exist.
 Leave Link 1002 at Sun Sep 19 19:55:45 2021, MaxMem=   524288000 cpu:               3.6 elap:               3.6
 (Enter /opt/gaussian/g16_legacy/l601.exe)
 Copying SCF densities to generalized density rwf, IOpCl= 0 IROHF=0.

 **********************************************************************

            Population analysis using the SCF density.

 **********************************************************************

 Orbital symmetries:
       Occupied  (A) (A) (A) (A) (A) (A) (A) (A) (A) (A) (A) (A)
                 (A) (A) (A) (A) (A) (A) (A) (A) (A) (A) (A) (A)
                 (A)
       Virtual   (A) (A) (A) (A) (A) (A) (A) (A) (A) (A) (A) (A)
                 (A) (A) (A) (A) (A) (A) (A) (A) (A) (A) (A) (A)
                 (A) (A) (A) (A) (A) (A) (A) (A) (A) (A) (A) (A)
                 (A) (A) (A) (A) (A) (A) (A) (A) (A) (A) (A) (A)
                 (A) (A) (A) (A) (A) (A) (A) (A) (A) (A) (A) (A)
                 (A) (A) (A) (A) (A) (A) (A) (A) (A) (A) (A) (A)
                 (A) (A) (A) (A) (A) (A) (A) (A) (A) (A) (A) (A)
                 (A) (A) (A) (A) (A) (A) (A) (A) (A) (A) (A) (A)
                 (A) (A) (A) (A) (A) (A) (A) (A) (A) (A) (A) (A)
                 (A) (A) (A) (A) (A) (A) (A) (A) (A) (A) (A) (A)
                 (A) (A) (A) (A) (A)
 The electronic state is 1-A.
 Alpha  occ. eigenvalues --  -20.55500 -11.27489 -11.22103 -11.21706 -11.21054
 Alpha  occ. eigenvalues --  -11.20538  -1.35048  -1.06619  -1.01568  -0.91227
 Alpha  occ. eigenvalues --   -0.83596  -0.77027  -0.68321  -0.63621  -0.61657
 Alpha  occ. eigenvalues --   -0.58534  -0.57178  -0.53566  -0.52257  -0.50577
 Alpha  occ. eigenvalues --   -0.49215  -0.47882  -0.47625  -0.44291  -0.42285
 Alpha virt. eigenvalues --    0.20993   0.25519   0.26365   0.28018   0.29436
 Alpha virt. eigenvalues --    0.31864   0.32415   0.32743   0.33190   0.34339
 Alpha virt. eigenvalues --    0.35591   0.36937   0.40469   0.43187   0.43903
 Alpha virt. eigenvalues --    0.44291   0.46592   0.69370   0.71719   0.74748
 Alpha virt. eigenvalues --    0.76002   0.76610   0.79577   0.81070   0.90039
 Alpha virt. eigenvalues --    0.90975   0.93362   0.94246   0.96901   1.03612
 Alpha virt. eigenvalues --    1.05854   1.09127   1.09853   1.10601   1.12231
 Alpha virt. eigenvalues --    1.14228   1.15456   1.16291   1.17091   1.17416
 Alpha virt. eigenvalues --    1.19934   1.21036   1.22015   1.22794   1.25265
 Alpha virt. eigenvalues --    1.30527   1.35333   1.41825   1.51874   1.54774
 Alpha virt. eigenvalues --    1.56063   1.67357   1.70956   1.75077   1.78351
 Alpha virt. eigenvalues --    1.83026   1.86120   1.91040   1.97437   1.99244
 Alpha virt. eigenvalues --    2.02462   2.04468   2.10165   2.16881   2.19041
 Alpha virt. eigenvalues --    2.21262   2.26729   2.30096   2.33887   2.35969
 Alpha virt. eigenvalues --    2.36861   2.39308   2.40392   2.41569   2.43673
 Alpha virt. eigenvalues --    2.44791   2.46283   2.46941   2.54638   2.56997
 Alpha virt. eigenvalues --    2.58642   2.59319   2.63612   2.65754   2.70058
 Alpha virt. eigenvalues --    2.71929   2.75148   2.80099   2.84266   2.87704
 Alpha virt. eigenvalues --    2.94354   2.94740   2.98868   3.00036   3.03972
 Alpha virt. eigenvalues --    3.04582   3.07246   3.13715   3.14368   3.19679
 Alpha virt. eigenvalues --    3.20295   3.22749   3.23591   3.25688   3.28202
 Alpha virt. eigenvalues --    3.33943   3.35150   3.56107   3.57848   3.66734
 Alpha virt. eigenvalues --    3.67582   3.73432   3.77396   3.81003   3.83902
 Alpha virt. eigenvalues --    3.85649   3.87800   3.93013   3.94962   4.34670
 Alpha virt. eigenvalues --    4.74347   4.83971   4.98578   5.05513   5.14406
          Condensed to atoms (all electrons):
               1          2          3          4          5          6
     1  C    4.925619   0.405572   0.399841   0.403099   0.336546  -0.040453
     2  H    0.405572   0.548842  -0.027964  -0.029301  -0.035382   0.004211
     3  H    0.399841  -0.027964   0.597135  -0.029883  -0.041449  -0.002852
     4  H    0.403099  -0.029301  -0.029883   0.592918  -0.039842  -0.003830
     5  C    0.336546  -0.035382  -0.041449  -0.039842   4.991570   0.404712
     6  H   -0.040453   0.004211  -0.002852  -0.003830   0.404712   0.598345
     7  H   -0.043529  -0.003107   0.004624  -0.003226   0.405895  -0.028697
     8  C   -0.051668  -0.005689  -0.004618   0.004713   0.357261  -0.041184
     9  H   -0.006507   0.000488   0.003065  -0.000101  -0.049417   0.000097
    10  C    0.004821   0.000029  -0.000098  -0.000083  -0.058169  -0.002755
    11  H   -0.000183  -0.000006   0.000007  -0.000003  -0.002448   0.001067
    12  H   -0.000110   0.000000  -0.000003   0.000002   0.005102  -0.000011
    13  C   -0.000070   0.000006  -0.000001   0.000001  -0.006712   0.000378
    14  H   -0.000042   0.000000   0.000000  -0.000000  -0.000037   0.000028
    15  H    0.000001  -0.000000   0.000000  -0.000000  -0.000029  -0.000031
    16  H    0.000004   0.000005  -0.000002   0.000003   0.001259   0.000276
    17  O    0.000478   0.003837   0.000080   0.000032  -0.054529   0.002487
    18  H   -0.000164  -0.000186  -0.000033   0.000006   0.006290  -0.000179
               7          8          9         10         11         12
     1  C   -0.043529  -0.051668  -0.006507   0.004821  -0.000183  -0.000110
     2  H   -0.003107  -0.005689   0.000488   0.000029  -0.000006   0.000000
     3  H    0.004624  -0.004618   0.003065  -0.000098   0.000007  -0.000003
     4  H   -0.003226   0.004713  -0.000101  -0.000083  -0.000003   0.000002
     5  C    0.405895   0.357261  -0.049417  -0.058169  -0.002448   0.005102
     6  H   -0.028697  -0.041184   0.000097  -0.002755   0.001067  -0.000011
     7  H    0.579938  -0.034547   0.004671  -0.005972   0.000481  -0.000116
     8  C   -0.034547   4.746115   0.422504   0.368512  -0.036708  -0.042691
     9  H    0.004671   0.422504   0.631704  -0.058340   0.000589  -0.005531
    10  C   -0.005972   0.368512  -0.058340   5.030246   0.394380   0.407899
    11  H    0.000481  -0.036708   0.000589   0.394380   0.598445  -0.027873
    12  H   -0.000116  -0.042691  -0.005531   0.407899  -0.027873   0.616599
    13  C    0.000096  -0.049658   0.004981   0.323607  -0.039530  -0.048012
    14  H    0.000530  -0.006410   0.000175  -0.037343   0.004397  -0.002576
    15  H    0.000060   0.004389  -0.000066  -0.038652  -0.003068  -0.004492
    16  H   -0.002231  -0.004529  -0.000113  -0.037679  -0.003246   0.004605
    17  O    0.000744   0.191198  -0.040549  -0.053222   0.003393  -0.001618
    18  H   -0.000146  -0.027153  -0.004819  -0.003993   0.000015   0.003684
              13         14         15         16         17         18
     1  C   -0.000070  -0.000042   0.000001   0.000004   0.000478  -0.000164
     2  H    0.000006   0.000000  -0.000000   0.000005   0.003837  -0.000186
     3  H   -0.000001   0.000000   0.000000  -0.000002   0.000080  -0.000033
     4  H    0.000001  -0.000000  -0.000000   0.000003   0.000032   0.000006
     5  C   -0.006712  -0.000037  -0.000029   0.001259  -0.054529   0.006290
     6  H    0.000378   0.000028  -0.000031   0.000276   0.002487  -0.000179
     7  H    0.000096   0.000530   0.000060  -0.002231   0.000744  -0.000146
     8  C   -0.049658  -0.006410   0.004389  -0.004529   0.191198  -0.027153
     9  H    0.004981   0.000175  -0.000066  -0.000113  -0.040549  -0.004819
    10  C    0.323607  -0.037343  -0.038652  -0.037679  -0.053222  -0.003993
    11  H   -0.039530   0.004397  -0.003068  -0.003246   0.003393   0.000015
    12  H   -0.048012  -0.002576  -0.004492   0.004605  -0.001618   0.003684
    13  C    4.940687   0.402644   0.403833   0.403637  -0.003101  -0.000359
    14  H    0.402644   0.560245  -0.029505  -0.027847   0.007368  -0.000004
    15  H    0.403833  -0.029505   0.589091  -0.030134   0.000054  -0.000053
    16  H    0.403637  -0.027847  -0.030134   0.583788   0.000062   0.000037
    17  O   -0.003101   0.007368   0.000054   0.000062   8.299103   0.304416
    18  H   -0.000359  -0.000004  -0.000053   0.000037   0.304416   0.383974
 Mulliken charges:
               1
     1  C   -0.333257
     2  H    0.138643
     3  H    0.102151
     4  H    0.105493
     5  C   -0.220619
     6  H    0.108392
     7  H    0.124531
     8  C    0.210163
     9  H    0.097168
    10  C   -0.233185
    11  H    0.110289
    12  H    0.095143
    13  C   -0.332428
    14  H    0.128377
    15  H    0.108601
    16  H    0.112107
    17  O   -0.660235
    18  H    0.338667
 Sum of Mulliken charges =  -0.00000
 Mulliken charges with hydrogens summed into heavy atoms:
               1
     1  C    0.013030
     5  C    0.012304
     8  C    0.307331
    10  C   -0.027753
    13  C    0.016656
    17  O   -0.321568
 Electronic spatial extent (au):  <R**2>=            746.4817
 Charge=             -0.0000 electrons
 Dipole moment (field-independent basis, Debye):
    X=              0.9296    Y=             -0.0347    Z=              1.3500  Tot=              1.6395
 Quadrupole moment (field-independent basis, Debye-Ang):
   XX=            -40.5149   YY=            -37.7753   ZZ=            -40.7392
   XY=              2.5979   XZ=              0.0384   YZ=              1.8285
 Traceless Quadrupole moment (field-independent basis, Debye-Ang):
   XX=             -0.8384   YY=              1.9012   ZZ=             -1.0627
   XY=              2.5979   XZ=              0.0384   YZ=              1.8285
 Octapole moment (field-independent basis, Debye-Ang**2):
  XXX=              2.6146  YYY=             15.7305  ZZZ=             -0.9783  XYY=              5.0078
  XXY=              3.5737  XXZ=             -0.3933  XZZ=             -1.1281  YZZ=              1.3443
  YYZ=              2.2241  XYZ=             -0.8628
 Hexadecapole moment (field-independent basis, Debye-Ang**3):
 XXXX=           -683.3576 YYYY=           -178.6792 ZZZZ=           -133.7107 XXXY=              1.8609
 XXXZ=              3.1851 YYYX=             14.4173 YYYZ=              0.7684 ZZZX=             -0.9384
 ZZZY=             -2.2902 XXYY=           -143.9911 XXZZ=           -135.2715 YYZZ=            -56.0183
 XXYZ=             -1.1598 YYXZ=              0.8847 ZZXY=              0.1848
 N-N= 2.609864499586D+02 E-N=-1.155913056122D+03  KE= 2.707424910642D+02
 No NMR shielding tensors so no spin-rotation constants.
 Leave Link  601 at Sun Sep 19 19:55:45 2021, MaxMem=   524288000 cpu:               0.1 elap:               0.1
 (Enter /opt/gaussian/g16_legacy/l701.exe)
 ... and contract with generalized density number  2.
 Compute integral first derivatives.
 Leave Link  701 at Sun Sep 19 19:55:45 2021, MaxMem=   524288000 cpu:               0.1 elap:               0.1
 (Enter /opt/gaussian/g16_legacy/l702.exe)
 L702 exits ... SP integral derivatives will be done elsewhere.
 Leave Link  702 at Sun Sep 19 19:55:45 2021, MaxMem=   524288000 cpu:               0.0 elap:               0.0
 (Enter /opt/gaussian/g16_legacy/l703.exe)
 Integral derivatives from FoFJK, PRISM(SPDF).
 Compute integral first derivatives, UseDBF=F ICtDFT=           0.
 Calling FoFJK, ICntrl=  10002127 FMM=F ISym2X=0 I1Cent= 0 IOpClX= 0 NMat=1 NMatS=1 NMatT=0.
 FoFJK:  IHMeth= 1 ICntrl=10002127 DoSepK=F KAlg= 0 I1Cent=           0 FoldK=F
 IRaf=         0 NMat=       1 IRICut=       1 DoRegI=T DoRafI=F ISym2E= 0 IDoP0=0 IntGTp=1.
 FoFCou: FMM=F IPFlag=           0 FMFlag=      100000 FMFlg1=         800
         NFxFlg=           0 DoJE=F BraDBF=F KetDBF=F FulRan=T
         wScrn=  0.000000 ICntrl=  10002127 IOpCl=  0 I1Cent=           0 NGrid=           0
         NMat0=    1 NMatS0=      1 NMatT0=    0 NMatD0=    1 NMtDS0=    0 NMtDT0=    0
 Symmetry not used in FoFCou.
 Leave Link  703 at Sun Sep 19 19:55:51 2021, MaxMem=   524288000 cpu:               5.1 elap:               5.3
 (Enter /opt/gaussian/g16_legacy/l716.exe)
 Dipole        = 3.37563877D-01 2.31038943D-02 4.70026164D-01
 ***** Axes restored to original set *****
 -------------------------------------------------------------------
 Center     Atomic                   Forces (Hartrees/Bohr)
 Number     Number              X              Y              Z
 -------------------------------------------------------------------
      1        6          -0.003171501   -0.003326015   -0.003684469
      2        1           0.000444155    0.005194095    0.000504709
      3        1          -0.000880525   -0.001565230    0.001418687
      4        1           0.003302589    0.000180644   -0.001284825
      5        6           0.002745387   -0.008066319   -0.002618123
      6        1           0.004414692   -0.001906871    0.001795649
      7        1           0.004476264    0.003458270    0.000489970
      8        6           0.001712844    0.007249032    0.007492640
      9        1          -0.003116248    0.005377642   -0.001150656
     10        6           0.000260504    0.000151817    0.001119207
     11        1           0.001560113   -0.001241761   -0.001899047
     12        1          -0.001503800    0.002157292   -0.002881696
     13        6          -0.002344528   -0.001778367    0.004716479
     14        1          -0.002128638    0.004293549   -0.001940236
     15        1          -0.001517061   -0.001517674   -0.002088763
     16        1           0.003901401   -0.000959732   -0.000066577
     17        8           0.000153920   -0.008610174    0.000564386
     18        1          -0.008309569    0.000909803   -0.000487335
 -------------------------------------------------------------------
 Cartesian Forces:  Max     0.008610174 RMS     0.003391331
 Leave Link  716 at Sun Sep 19 19:55:51 2021, MaxMem=   524288000 cpu:               0.0 elap:               0.0
 (Enter /opt/gaussian/g16_legacy/l103.exe)

 GradGradGradGradGradGradGradGradGradGradGradGradGradGradGradGradGradGrad
 Berny optimization.
 FormGI is forming the generalized inverse of G from B-inverse, IUseBI=4.
 Internal  Forces:  Max     0.011019537 RMS     0.002845901
 Search for a local minimum.
 Step number   1 out of a maximum of   97
 All quantities printed in internal units (Hartrees-Bohrs-Radians)
 RMS Force = .28459D-02 SwitMx=.10000D-02 MixMth= 1
 Mixed Optimization -- RFO/linear search
 Second derivative matrix not updated -- first step.
 ITU=  0
     Eigenvalues ---    0.00301   0.00331   0.00446   0.00458   0.01344
     Eigenvalues ---    0.03410   0.03605   0.04159   0.04766   0.04832
     Eigenvalues ---    0.04873   0.05477   0.05546   0.05686   0.05705
     Eigenvalues ---    0.07457   0.08301   0.08580   0.12167   0.12385
     Eigenvalues ---    0.16000   0.16000   0.16000   0.16000   0.16000
     Eigenvalues ---    0.16000   0.16000   0.16928   0.19858   0.21945
     Eigenvalues ---    0.21969   0.28950   0.29162   0.29969   0.30050
     Eigenvalues ---    0.33997   0.34049   0.34128   0.34195   0.34208
     Eigenvalues ---    0.34258   0.34267   0.34297   0.34326   0.34329
     Eigenvalues ---    0.34406   0.41528   0.52817
 RFO step:  Lambda=-4.06914684D-03 EMin= 3.00602149D-03
 Linear search not attempted -- first point.
 Iteration  1 RMS(Cart)=  0.03772711 RMS(Int)=  0.00061732
 Iteration  2 RMS(Cart)=  0.00066866 RMS(Int)=  0.00031812
 Iteration  3 RMS(Cart)=  0.00000019 RMS(Int)=  0.00031812
 ITry= 1 IFail=0 DXMaxC= 1.47D-01 DCOld= 1.00D+10 DXMaxT= 3.00D-01 DXLimC= 3.00D+00 Rises=F
 Variable       Old X    -DE/DX   Delta X   Delta X   Delta X     New X
                                 (Linear)    (Quad)   (Total)
    R1        2.06832  -0.00487   0.00000  -0.01404  -0.01404   2.05428
    R2        2.06651  -0.00219   0.00000  -0.00629  -0.00629   2.06022
    R3        2.06896  -0.00326   0.00000  -0.00941  -0.00941   2.05956
    R4        2.87864   0.00243   0.00000   0.00799   0.00799   2.88662
    R5        2.07248  -0.00328   0.00000  -0.00951  -0.00951   2.06297
    R6        2.07003  -0.00308   0.00000  -0.00890  -0.00890   2.06113
    R7        2.89665  -0.01102   0.00000  -0.03727  -0.03727   2.85939
    R8        2.07115   0.00231   0.00000   0.00669   0.00669   2.07783
    R9        2.90107  -0.00256   0.00000  -0.00873  -0.00873   2.89234
   R10        2.69528   0.00438   0.00000   0.01045   0.01045   2.70573
   R11        2.06980  -0.00165   0.00000  -0.00477  -0.00477   2.06503
   R12        2.07335  -0.00139   0.00000  -0.00404  -0.00404   2.06931
   R13        2.88025   0.00108   0.00000   0.00357   0.00357   2.88382
   R14        2.06881  -0.00479   0.00000  -0.01383  -0.01383   2.05499
   R15        2.06778  -0.00298   0.00000  -0.00857  -0.00857   2.05922
   R16        2.06784  -0.00391   0.00000  -0.01126  -0.01126   2.05658
   R17        1.83825  -0.00826   0.00000  -0.01552  -0.01552   1.82273
    A1        1.89375  -0.00013   0.00000  -0.00837  -0.00846   1.88529
    A2        1.88057   0.00071   0.00000   0.00991   0.00996   1.89053
    A3        1.94090  -0.00213   0.00000  -0.01418  -0.01420   1.92670
    A4        1.88782  -0.00112   0.00000  -0.00459  -0.00464   1.88318
    A5        1.93920   0.00065   0.00000   0.00102   0.00095   1.94014
    A6        1.91979   0.00202   0.00000   0.01642   0.01642   1.93621
    A7        1.90424   0.00203   0.00000   0.02137   0.02119   1.92544
    A8        1.87377   0.00331   0.00000   0.03976   0.03968   1.91346
    A9        1.96423  -0.00018   0.00000   0.00070   0.00091   1.96513
   A10        1.87843  -0.00007   0.00000  -0.00285  -0.00420   1.87423
   A11        1.91365  -0.00227   0.00000  -0.03093  -0.03108   1.88257
   A12        1.92717  -0.00267   0.00000  -0.02641  -0.02667   1.90049
   A13        1.90133  -0.00104   0.00000  -0.02521  -0.02485   1.87648
   A14        1.97052   0.00477   0.00000   0.01199   0.01233   1.98286
   A15        1.90630  -0.00978   0.00000  -0.06178  -0.06164   1.84465
   A16        1.89686  -0.00294   0.00000  -0.00670  -0.00741   1.88945
   A17        1.87341   0.00413   0.00000   0.05284   0.05180   1.92521
   A18        1.91289   0.00491   0.00000   0.03137   0.03110   1.94399
   A19        1.91538  -0.00034   0.00000  -0.01003  -0.01006   1.90532
   A20        1.89471  -0.00120   0.00000  -0.01305  -0.01311   1.88160
   A21        1.99422  -0.00156   0.00000  -0.00382  -0.00376   1.99046
   A22        1.86962  -0.00113   0.00000  -0.01566  -0.01605   1.85358
   A23        1.90796   0.00152   0.00000   0.01402   0.01397   1.92192
   A24        1.87758   0.00276   0.00000   0.02805   0.02803   1.90561
   A25        1.94495  -0.00227   0.00000  -0.01629  -0.01628   1.92867
   A26        1.91977   0.00086   0.00000   0.00888   0.00886   1.92863
   A27        1.94548   0.00123   0.00000   0.00628   0.00622   1.95170
   A28        1.88256   0.00097   0.00000   0.00815   0.00820   1.89075
   A29        1.89326  -0.00023   0.00000  -0.00801  -0.00805   1.88521
   A30        1.87535  -0.00052   0.00000   0.00153   0.00145   1.87680
   A31        1.87493  -0.00242   0.00000  -0.01477  -0.01477   1.86016
    D1       -3.06876  -0.00220   0.00000  -0.03885  -0.03903  -3.10779
    D2       -1.03788   0.00056   0.00000  -0.00956  -0.00938  -1.04726
    D3        1.08623  -0.00063   0.00000  -0.01505  -0.01495   1.07128
    D4        1.10300  -0.00104   0.00000  -0.01922  -0.01944   1.08356
    D5        3.13388   0.00173   0.00000   0.01007   0.01021  -3.13910
    D6       -1.02519   0.00054   0.00000   0.00458   0.00464  -1.02056
    D7       -0.98686  -0.00136   0.00000  -0.02485  -0.02508  -1.01194
    D8        1.04402   0.00141   0.00000   0.00444   0.00457   1.04859
    D9       -3.11505   0.00021   0.00000  -0.00105  -0.00100  -3.11606
   D10        0.99599  -0.00046   0.00000  -0.00754  -0.00711   0.98888
   D11        3.10498  -0.00181   0.00000  -0.02577  -0.02578   3.07920
   D12       -1.04529   0.00068   0.00000  -0.02189  -0.02212  -1.06741
   D13       -1.12686  -0.00132   0.00000  -0.01339  -0.01281  -1.13967
   D14        0.98213  -0.00267   0.00000  -0.03162  -0.03149   0.95064
   D15        3.11504  -0.00018   0.00000  -0.02775  -0.02782   3.08722
   D16        3.08948   0.00178   0.00000   0.02522   0.02531   3.11479
   D17       -1.08471   0.00043   0.00000   0.00699   0.00663  -1.07808
   D18        1.04820   0.00292   0.00000   0.01086   0.01029   1.05850
   D19       -1.06353  -0.00273   0.00000  -0.01395  -0.01396  -1.07749
   D20       -3.10158  -0.00049   0.00000   0.01788   0.01775  -3.08384
   D21        1.08636  -0.00213   0.00000  -0.00605  -0.00610   1.08026
   D22        1.04801  -0.00300   0.00000  -0.04271  -0.04256   1.00545
   D23       -0.99004  -0.00077   0.00000  -0.01088  -0.01086  -1.00091
   D24       -3.08528  -0.00241   0.00000  -0.03482  -0.03471  -3.12000
   D25        3.09045   0.00302   0.00000   0.03451   0.03454   3.12499
   D26        1.05239   0.00526   0.00000   0.06634   0.06625   1.11864
   D27       -1.04285   0.00362   0.00000   0.04241   0.04240  -1.00045
   D28        3.10585  -0.00250   0.00000  -0.02073  -0.02119   3.08466
   D29        1.04697   0.00170   0.00000   0.01288   0.01434   1.06132
   D30       -1.01015   0.00021   0.00000  -0.02613  -0.02713  -1.03728
   D31        0.98326  -0.00067   0.00000  -0.02555  -0.02551   0.95775
   D32        3.07021  -0.00035   0.00000  -0.01995  -0.01997   3.05024
   D33       -1.13469   0.00035   0.00000  -0.00827  -0.00825  -1.14294
   D34        3.13716  -0.00107   0.00000  -0.03062  -0.03066   3.10649
   D35       -1.05908  -0.00075   0.00000  -0.02503  -0.02513  -1.08420
   D36        1.01921  -0.00005   0.00000  -0.01335  -0.01340   1.00581
   D37       -1.12154  -0.00011   0.00000  -0.02652  -0.02645  -1.14800
   D38        0.96541   0.00021   0.00000  -0.02093  -0.02092   0.94450
   D39        3.04370   0.00090   0.00000  -0.00925  -0.00919   3.03451
         Item               Value     Threshold  Converged?
 Maximum Force            0.011020     0.000450     NO 
 RMS     Force            0.002846     0.000300     NO 
 Maximum Displacement     0.147124     0.001800     NO 
 RMS     Displacement     0.037681     0.001200     NO 
 Predicted change in Energy=-2.125865D-03
 Lowest energy point so far.  Saving SCF results.
 GradGradGradGradGradGradGradGradGradGradGradGradGradGradGradGradGradGrad

 Leave Link  103 at Sun Sep 19 19:55:51 2021, MaxMem=   524288000 cpu:               0.0 elap:               0.1
 (Enter /opt/gaussian/g16_legacy/l202.exe)
                          Input orientation:                          
 ---------------------------------------------------------------------
 Center     Atomic      Atomic             Coordinates (Angstroms)
 Number     Number       Type             X           Y           Z
 ---------------------------------------------------------------------
      1          6           0       -2.170378    1.149616   -0.084428
      2          1           0       -1.828466    0.119410   -0.143670
      3          1           0       -1.797116    1.679763   -0.960898
      4          1           0       -3.259297    1.152305   -0.129899
      5          6           0       -1.676337    1.801012    1.205908
      6          1           0       -2.048758    2.824476    1.280603
      7          1           0       -2.061509    1.250525    2.065118
      8          6           0       -0.166415    1.849095    1.291719
      9          1           0        0.198691    2.383415    0.402790
     10          6           0        0.354118    2.574679    2.534773
     11          1           0        0.017549    3.614048    2.510775
     12          1           0        1.446870    2.605829    2.471336
     13          6           0       -0.053260    1.921321    3.852346
     14          1           0        0.247580    0.876433    3.868413
     15          1           0        0.421622    2.427658    4.692309
     16          1           0       -1.129293    1.964210    4.009515
     17          8           0        0.266654    0.484627    1.264060
     18          1           0        1.231045    0.501878    1.265632
 ---------------------------------------------------------------------
                    Distance matrix (angstroms):
                    1          2          3          4          5
     1  C    0.000000
     2  H    1.087077   0.000000
     3  H    1.090219   1.761688   0.000000
     4  H    1.089871   1.764749   1.762595   0.000000
     5  C    1.527534   2.161548   2.173553   2.170475   0.000000
     6  H    2.164084   3.065039   2.529430   2.500215   1.091675
     7  H    2.154666   2.492483   3.067722   2.502488   1.090704
     8  C    2.529608   2.795454   2.786062   3.474540   1.513122
     9  H    2.715166   3.087669   2.517542   3.709052   2.121302
    10  C    3.906930   4.238640   4.200999   4.709606   2.546997
    11  H    4.194702   4.760918   4.368865   4.875557   2.803396
    12  H    4.662292   4.873229   4.812616   5.570203   3.464601
    13  C    4.536068   4.729311   5.125105   5.169946   3.106846
    14  H    4.641778   4.580377   5.305503   5.325485   3.412511
    15  H    5.582927   5.811849   6.118896   6.199143   4.116929
    16  H    4.302068   4.597942   5.023136   4.725554   2.861137
    17  O    2.863521   2.550415   3.261585   3.849837   2.347651
    18  H    3.716437   3.390136   3.938859   4.746971   3.184994
                    6          7          8          9         10
     6  H    0.000000
     7  H    1.758678   0.000000
     8  C    2.120072   2.132560   0.000000
     9  H    2.452777   3.025768   1.099543   0.000000
    10  C    2.721976   2.794497   1.530558   2.146180   0.000000
    11  H    2.531081   3.179203   2.152905   2.447625   1.092769
    12  H    3.699333   3.782933   2.137014   2.426170   1.095034
    13  C    3.378101   2.770779   2.564144   3.489477   1.526052
    14  H    3.970491   2.953592   2.785106   3.779408   2.161940
    15  H    4.230836   3.801804   3.499219   4.295535   2.163593
    16  H    3.005401   2.271355   2.885619   3.866230   2.179001
    17  O    3.291854   2.578495   1.431813   2.086097   2.447586
    18  H    4.018929   3.469951   1.941281   2.313100   2.583838
                   11         12         13         14         15
    11  H    0.000000
    12  H    1.749577   0.000000
    13  C    2.161054   2.150844   0.000000
    14  H    3.064414   2.526050   1.087452   0.000000
    15  H    2.515927   2.452672   1.089691   1.765048   0.000000
    16  H    2.506678   3.068270   1.088296   1.760383   1.756795
    17  O    3.377814   2.711074   2.977526   2.633729   3.943637
    18  H    3.564906   2.434525   3.217973   2.807484   4.013217
                   16         17         18
    16  H    0.000000
    17  O    3.416922   0.000000
    18  H    3.903653   0.964547   0.000000
 Stoichiometry    C5H12O
 Framework group  C1[X(C5H12O)]
 Deg. of freedom    48
 Full point group                 C1      NOp   1
 RotChk:  IX=0 Diff= 5.75D-02
 Largest Abelian subgroup         C1      NOp   1
 Largest concise Abelian subgroup C1      NOp   1
                         Standard orientation:                         
 ---------------------------------------------------------------------
 Center     Atomic      Atomic             Coordinates (Angstroms)
 Number     Number       Type             X           Y           Z
 ---------------------------------------------------------------------
      1          6           0       -2.404517   -0.322341   -0.124779
      2          1           0       -2.500883    0.520900   -0.804039
      3          1           0       -2.789164   -0.017006    0.848563
      4          1           0       -3.032550   -1.133016   -0.493832
      5          6           0       -0.945264   -0.763322   -0.027438
      6          1           0       -0.854530   -1.631508    0.628135
      7          1           0       -0.585663   -1.060424   -1.013365
      8          6           0       -0.044242    0.324361    0.515375
      9          1           0       -0.442439    0.625670    1.494990
     10          6           0        1.408087   -0.120242    0.704259
     11          1           0        1.442188   -0.934800    1.431911
     12          1           0        1.957909    0.713627    1.153098
     13          6           0        2.102549   -0.541186   -0.587779
     14          1           0        2.041363    0.252129   -1.329035
     15          1           0        3.154511   -0.757040   -0.402820
     16          1           0        1.654388   -1.436222   -1.014920
     17          8           0       -0.141580    1.408118   -0.415262
     18          1           0        0.387832    2.129136   -0.054421
 ---------------------------------------------------------------------
 Rotational constants (GHZ):           5.7947775           2.1699272           1.9108935
 Leave Link  202 at Sun Sep 19 19:55:51 2021, MaxMem=   524288000 cpu:               0.0 elap:               0.0
 (Enter /opt/gaussian/g16_legacy/l301.exe)
 Standard basis: 6-31G(d,p) (6D, 7F)
 Ernie: Thresh=  0.10000D-02 Tol=  0.10000D-05 Strict=F.
 There are   150 symmetry adapted cartesian basis functions of A   symmetry.
 There are   150 symmetry adapted basis functions of A   symmetry.
   150 basis functions,   252 primitive gaussians,   150 cartesian basis functions
    25 alpha electrons       25 beta electrons
       nuclear repulsion energy       262.0818378995 Hartrees.
 IExCor=    0 DFT=F Ex=HF Corr=None ExCW=0 ScaHFX=  1.000000
 ScaDFX=  1.000000  1.000000  1.000000  1.000000 ScalE2=  1.000000  1.000000
 IRadAn=      5 IRanWt=     -1 IRanGd=            0 ICorTp=0 IEmpDi=  4
 NAtoms=   18 NActive=   18 NUniq=   18 SFac= 1.00D+00 NAtFMM=   60 NAOKFM=F Big=F
 Integral buffers will be    131072 words long.
 Raffenetti 1 integral format.
 Two-electron integral symmetry is turned on.
 Leave Link  301 at Sun Sep 19 19:55:51 2021, MaxMem=   524288000 cpu:               0.0 elap:               0.0
 (Enter /opt/gaussian/g16_legacy/l302.exe)
 NPDir=0 NMtPBC=     1 NCelOv=     1 NCel=       1 NClECP=     1 NCelD=      1
         NCelK=      1 NCelE2=     1 NClLst=     1 CellRange=     0.0.
 One-electron integrals computed using PRISM.
 One-electron integral symmetry used in STVInt
 NBasis=   150 RedAO= T EigKep=  3.37D-03  NBF=   150
 NBsUse=   150 1.00D-06 EigRej= -1.00D+00 NBFU=   150
 Leave Link  302 at Sun Sep 19 19:55:51 2021, MaxMem=   524288000 cpu:               0.1 elap:               0.1
 (Enter /opt/gaussian/g16_legacy/l303.exe)
 DipDrv:  MaxL=1.
 Leave Link  303 at Sun Sep 19 19:55:51 2021, MaxMem=   524288000 cpu:               0.0 elap:               0.0
 (Enter /opt/gaussian/g16_legacy/l401.exe)
 Initial guess from the checkpoint file:  "06-PVA_003_gaussian.chk"
 B after Tr=    -0.000000    0.000000    0.000000
         Rot=    0.999868   -0.013566   -0.000502   -0.008878 Ang=  -1.86 deg.
 Guess basis will be translated and rotated to current coordinates.
 JPrj=2 DoOrth=T DoCkMO=T.
 Generating alternative initial guess.
 ExpMin= 1.61D-01 ExpMax= 5.48D+03 ExpMxC= 8.25D+02 IAcc=2 IRadAn=         4 AccDes= 0.00D+00
 Harris functional with IExCor=  205 and IRadAn=       4 diagonalized for initial guess.
 HarFok:  IExCor=  205 AccDes= 0.00D+00 IRadAn=         4 IDoV= 1 UseB2=F ITyADJ=14
 ICtDFT=  3500011 ScaDFX=  1.000000  1.000000  1.000000  1.000000
 FoFCou: FMM=F IPFlag=           0 FMFlag=      100000 FMFlg1=           0
         NFxFlg=           0 DoJE=T BraDBF=F KetDBF=T FulRan=T
         wScrn=  0.000000 ICntrl=       500 IOpCl=  0 I1Cent=   200000004 NGrid=           0
         NMat0=    1 NMatS0=      1 NMatT0=    0 NMatD0=    1 NMtDS0=    0 NMtDT0=    0
 Petite list used in FoFCou.
 Harris En= -271.802413945933    
 Leave Link  401 at Sun Sep 19 19:55:53 2021, MaxMem=   524288000 cpu:               1.3 elap:               1.3
 (Enter /opt/gaussian/g16_legacy/l502.exe)
 Keep R1 ints in memory in canonical form, NReq=65856006.
 FoFCou: FMM=F IPFlag=           0 FMFlag=           0 FMFlg1=           0
         NFxFlg=           0 DoJE=F BraDBF=F KetDBF=F FulRan=T
         wScrn=  0.000000 ICntrl=       600 IOpCl=  0 I1Cent=           0 NGrid=           0
         NMat0=    1 NMatS0=  11325 NMatT0=    0 NMatD0=    1 NMtDS0=    0 NMtDT0=    0
 Symmetry not used in FoFCou.
 Two-electron integral symmetry not used.
 Closed shell SCF:
 Using DIIS extrapolation, IDIIS=  1040.
 NGot=   524288000 LenX=   460106785 LenY=   460083844
 Requested convergence on RMS density matrix=1.00D-08 within 128 cycles.
 Requested convergence on MAX density matrix=1.00D-06.
 Requested convergence on             energy=1.00D-06.
 No special actions if energy rises.

 Cycle   1  Pass 1  IDiag  1:
 E= -271.203098709106    
 DIIS: error= 1.63D-03 at cycle   1 NSaved=   1.
 NSaved= 1 IEnMin= 1 EnMin= -271.203098709106     IErMin= 1 ErrMin= 1.63D-03
 ErrMax= 1.63D-03  0.00D+00 EMaxC= 1.00D-01 BMatC= 1.29D-03 BMatP= 1.29D-03
 IDIUse=3 WtCom= 9.84D-01 WtEn= 1.63D-02
 Coeff-Com:  0.100D+01
 Coeff-En:   0.100D+01
 Coeff:      0.100D+01
 Gap=     2.126 Goal=   None    Shift=    0.000
 GapD=    2.126 DampG=2.000 DampE=1.000 DampFc=2.0000 IDamp=-1.
 RMSDP=2.45D-04 MaxDP=3.74D-03              OVMax= 6.24D-03

 Cycle   2  Pass 1  IDiag  1:
 E= -271.204763869073     Delta-E=       -0.001665159967 Rises=F Damp=F
 DIIS: error= 4.81D-04 at cycle   2 NSaved=   2.
 NSaved= 2 IEnMin= 2 EnMin= -271.204763869073     IErMin= 2 ErrMin= 4.81D-04
 ErrMax= 4.81D-04  0.00D+00 EMaxC= 1.00D-01 BMatC= 8.13D-05 BMatP= 1.29D-03
 IDIUse=3 WtCom= 9.95D-01 WtEn= 4.81D-03
 Coeff-Com: -0.222D+00 0.122D+01
 Coeff-En:   0.000D+00 0.100D+01
 Coeff:     -0.221D+00 0.122D+01
 Gap=     0.637 Goal=   None    Shift=    0.000
 RMSDP=9.03D-05 MaxDP=1.46D-03 DE=-1.67D-03 OVMax= 2.72D-03

 Cycle   3  Pass 1  IDiag  1:
 E= -271.204923297026     Delta-E=       -0.000159427953 Rises=F Damp=F
 DIIS: error= 1.97D-04 at cycle   3 NSaved=   3.
 NSaved= 3 IEnMin= 3 EnMin= -271.204923297026     IErMin= 3 ErrMin= 1.97D-04
 ErrMax= 1.97D-04  0.00D+00 EMaxC= 1.00D-01 BMatC= 4.94D-06 BMatP= 8.13D-05
 IDIUse=3 WtCom= 9.98D-01 WtEn= 1.97D-03
 Coeff-Com: -0.349D-01 0.276D-01 0.101D+01
 Coeff-En:   0.000D+00 0.000D+00 0.100D+01
 Coeff:     -0.348D-01 0.275D-01 0.101D+01
 Gap=     0.638 Goal=   None    Shift=    0.000
 RMSDP=2.71D-05 MaxDP=4.09D-04 DE=-1.59D-04 OVMax= 7.87D-04

 Cycle   4  Pass 1  IDiag  1:
 E= -271.204932672311     Delta-E=       -0.000009375285 Rises=F Damp=F
 DIIS: error= 4.24D-05 at cycle   4 NSaved=   4.
 NSaved= 4 IEnMin= 4 EnMin= -271.204932672311     IErMin= 4 ErrMin= 4.24D-05
 ErrMax= 4.24D-05  0.00D+00 EMaxC= 1.00D-01 BMatC= 6.67D-07 BMatP= 4.94D-06
 IDIUse=1 WtCom= 1.00D+00 WtEn= 0.00D+00
 Coeff-Com:  0.169D-01-0.121D+00 0.137D+00 0.967D+00
 Coeff:      0.169D-01-0.121D+00 0.137D+00 0.967D+00
 Gap=     0.637 Goal=   None    Shift=    0.000
 RMSDP=1.08D-05 MaxDP=1.98D-04 DE=-9.38D-06 OVMax= 2.54D-04

 Cycle   5  Pass 1  IDiag  1:
 E= -271.204933828004     Delta-E=       -0.000001155693 Rises=F Damp=F
 DIIS: error= 1.58D-05 at cycle   5 NSaved=   5.
 NSaved= 5 IEnMin= 5 EnMin= -271.204933828004     IErMin= 5 ErrMin= 1.58D-05
 ErrMax= 1.58D-05  0.00D+00 EMaxC= 1.00D-01 BMatC= 2.84D-08 BMatP= 6.67D-07
 IDIUse=1 WtCom= 1.00D+00 WtEn= 0.00D+00
 Coeff-Com:  0.234D-02-0.453D-02-0.536D-01 0.221D-01 0.103D+01
 Coeff:      0.234D-02-0.453D-02-0.536D-01 0.221D-01 0.103D+01
 Gap=     0.637 Goal=   None    Shift=    0.000
 RMSDP=2.71D-06 MaxDP=8.34D-05 DE=-1.16D-06 OVMax= 8.89D-05

 Cycle   6  Pass 1  IDiag  1:
 E= -271.204933891775     Delta-E=       -0.000000063771 Rises=F Damp=F
 DIIS: error= 3.96D-06 at cycle   6 NSaved=   6.
 NSaved= 6 IEnMin= 6 EnMin= -271.204933891775     IErMin= 6 ErrMin= 3.96D-06
 ErrMax= 3.96D-06  0.00D+00 EMaxC= 1.00D-01 BMatC= 3.50D-09 BMatP= 2.84D-08
 IDIUse=1 WtCom= 1.00D+00 WtEn= 0.00D+00
 Coeff-Com: -0.101D-02 0.796D-02-0.127D-01-0.664D-01 0.639D-01 0.101D+01
 Coeff:     -0.101D-02 0.796D-02-0.127D-01-0.664D-01 0.639D-01 0.101D+01
 Gap=     0.637 Goal=   None    Shift=    0.000
 RMSDP=8.28D-07 MaxDP=3.39D-05 DE=-6.38D-08 OVMax= 3.78D-05

 Cycle   7  Pass 1  IDiag  1:
 E= -271.204933899154     Delta-E=       -0.000000007379 Rises=F Damp=F
 DIIS: error= 2.27D-06 at cycle   7 NSaved=   7.
 NSaved= 7 IEnMin= 7 EnMin= -271.204933899154     IErMin= 7 ErrMin= 2.27D-06
 ErrMax= 2.27D-06  0.00D+00 EMaxC= 1.00D-01 BMatC= 5.64D-10 BMatP= 3.50D-09
 IDIUse=1 WtCom= 1.00D+00 WtEn= 0.00D+00
 Coeff-Com: -0.518D-03 0.196D-02 0.612D-02-0.149D-01-0.142D+00 0.154D+00
 Coeff-Com:  0.996D+00
 Coeff:     -0.518D-03 0.196D-02 0.612D-02-0.149D-01-0.142D+00 0.154D+00
 Coeff:      0.996D+00
 Gap=     0.637 Goal=   None    Shift=    0.000
 RMSDP=3.53D-07 MaxDP=1.49D-05 DE=-7.38D-09 OVMax= 1.75D-05

 Cycle   8  Pass 1  IDiag  1:
 E= -271.204933900378     Delta-E=       -0.000000001224 Rises=F Damp=F
 DIIS: error= 7.12D-07 at cycle   8 NSaved=   8.
 NSaved= 8 IEnMin= 8 EnMin= -271.204933900378     IErMin= 8 ErrMin= 7.12D-07
 ErrMax= 7.12D-07  0.00D+00 EMaxC= 1.00D-01 BMatC= 4.04D-11 BMatP= 5.64D-10
 IDIUse=1 WtCom= 1.00D+00 WtEn= 0.00D+00
 Coeff-Com:  0.133D-03-0.922D-03 0.106D-02 0.746D-02 0.178D-02-0.108D+00
 Coeff-Com: -0.388D-01 0.114D+01
 Coeff:      0.133D-03-0.922D-03 0.106D-02 0.746D-02 0.178D-02-0.108D+00
 Coeff:     -0.388D-01 0.114D+01
 Gap=     0.637 Goal=   None    Shift=    0.000
 RMSDP=1.15D-07 MaxDP=4.72D-06 DE=-1.22D-09 OVMax= 5.90D-06

 Cycle   9  Pass 1  IDiag  1:
 E= -271.204933900489     Delta-E=       -0.000000000111 Rises=F Damp=F
 DIIS: error= 2.43D-07 at cycle   9 NSaved=   9.
 NSaved= 9 IEnMin= 9 EnMin= -271.204933900489     IErMin= 9 ErrMin= 2.43D-07
 ErrMax= 2.43D-07  0.00D+00 EMaxC= 1.00D-01 BMatC= 3.61D-12 BMatP= 4.04D-11
 IDIUse=1 WtCom= 1.00D+00 WtEn= 0.00D+00
 Coeff-Com:  0.629D-04-0.284D-03-0.439D-03 0.222D-02 0.130D-01-0.262D-01
 Coeff-Com: -0.943D-01 0.114D+00 0.992D+00
 Coeff:      0.629D-04-0.284D-03-0.439D-03 0.222D-02 0.130D-01-0.262D-01
 Coeff:     -0.943D-01 0.114D+00 0.992D+00
 Gap=     0.637 Goal=   None    Shift=    0.000
 RMSDP=3.05D-08 MaxDP=1.09D-06 DE=-1.11D-10 OVMax= 1.50D-06

 Cycle  10  Pass 1  IDiag  1:
 E= -271.204933900499     Delta-E=       -0.000000000010 Rises=F Damp=F
 DIIS: error= 6.16D-08 at cycle  10 NSaved=  10.
 NSaved=10 IEnMin=10 EnMin= -271.204933900499     IErMin=10 ErrMin= 6.16D-08
 ErrMax= 6.16D-08  0.00D+00 EMaxC= 1.00D-01 BMatC= 2.76D-13 BMatP= 3.61D-12
 IDIUse=1 WtCom= 1.00D+00 WtEn= 0.00D+00
 Coeff-Com: -0.122D-04 0.820D-04-0.948D-04-0.638D-03-0.319D-03 0.952D-02
 Coeff-Com:  0.457D-02-0.101D+00 0.448D-02 0.108D+01
 Coeff:     -0.122D-04 0.820D-04-0.948D-04-0.638D-03-0.319D-03 0.952D-02
 Coeff:      0.457D-02-0.101D+00 0.448D-02 0.108D+01
 Gap=     0.637 Goal=   None    Shift=    0.000
 RMSDP=8.57D-09 MaxDP=2.72D-07 DE=-9.66D-12 OVMax= 3.86D-07

 SCF Done:  E(RHF) =  -271.204933900     A.U. after   10 cycles
            NFock= 10  Conv=0.86D-08     -V/T= 2.0013
 KE= 2.708477736554D+02 PE=-1.158188072370D+03 EE= 3.540535269151D+02
 Leave Link  502 at Sun Sep 19 19:55:56 2021, MaxMem=   524288000 cpu:               3.0 elap:               3.0
 (Enter /opt/gaussian/g16_legacy/l801.exe)
 ExpMin= 1.61D-01 ExpMax= 5.48D+03 ExpMxC= 8.25D+02 IAcc=3 IRadAn=         5 AccDes= 0.00D+00
 HarFok:  IExCor=  205 AccDes= 0.00D+00 IRadAn=         5 IDoV=-2 UseB2=F ITyADJ=14
 ICtDFT= 12500011 ScaDFX=  1.000000  1.000000  1.000000  1.000000
 Largest valence mixing into a core orbital is  2.02D-04
 Largest core mixing into a valence orbital is  3.24D-05
 Range of M.O.s used for correlation:     7   150
 NBasis=   150 NAE=    25 NBE=    25 NFC=     6 NFV=     0
 NROrb=    144 NOA=    19 NOB=    19 NVA=   125 NVB=   125
 Leave Link  801 at Sun Sep 19 19:55:56 2021, MaxMem=   524288000 cpu:               0.6 elap:               0.6
 (Enter /opt/gaussian/g16_legacy/l906.exe)
 Frozen-core derivative calculation, NFC=   6 NFV=   0.
 FulOut=F Deriv=T AODrv=T NAtomX=    18
   MMem=         315  MDisk=          19 MDiskD=          19
  W3Min=      562500 MinDsk=      807575 NBas6D=         150
 NBas2D=       11523    NTT=       11325    LW2=     2040000
    MDV=   524000384 MDiskM=       48333 NBas2p=       11049
 Fully direct method using O(ONN) memory.
 IMap=   1   2   3   4   5   6   7   8   9  10  11  12  13  14  15  16  17  18  19  20
 IMap=  21  22  23  24  25
 JobTyp=1 Pass  1:  I=   7 to  25 NPSUse=  1 ParTrn=F ParDer=F DoDerP=T.
 Spin components of T(2) and E(2):
     alpha-alpha T2 =       0.3391820102D-01 E2=     -0.1063167540D+00
     alpha-beta  T2 =       0.2146429987D+00 E2=     -0.7041129413D+00
     beta-beta   T2 =       0.3391820102D-01 E2=     -0.1063167540D+00
 The integrals were generated   1 times.
 ANorm=    0.1132466070D+01
 E2 =    -0.9167464494D+00 EUMP2 =    -0.27212168034991D+03
 Leave Link  906 at Sun Sep 19 19:56:17 2021, MaxMem=   524288000 cpu:              20.7 elap:              20.7
 (Enter /opt/gaussian/g16_legacy/l1002.exe)
 Minotr:  Closed shell wavefunction.
          Computing MP2/KS-MP2 derivatives.
          Using Z-Vector for PSCF gradient.
          Skipping F1 and S1 gradient terms here.
          IDoAtm=111111111111111111
          Frozen-core window.
          Direct CPHF calculation.
          Differentiating once with respect to electric field.
                with respect to dipole field.
          Differentiating once with respect to nuclear coordinates.
          Requested convergence is 1.0D-10 RMS, and 1.0D-09 maximum.
          NewPWx=F KeepS1=T KeepF1=T KeepIn=T MapXYZ=F SortEE=F KeepMc=T.
 Keep R1 ints in memory in canonical form, NReq=65858022.
 FoFCou: FMM=F IPFlag=           0 FMFlag=           0 FMFlg1=           0
         NFxFlg=           0 DoJE=F BraDBF=F KetDBF=F FulRan=T
         wScrn=  0.000000 ICntrl=       600 IOpCl=  0 I1Cent=           0 NGrid=           0
         NMat0=    1 NMatS0=  11325 NMatT0=    0 NMatD0=    1 NMtDS0=    0 NMtDT0=    0
 Symmetry not used in FoFCou.
 Two-electron integral symmetry not used.
          MDV=     524288000 using IRadAn=       5.
          Solving linear equations separately, MaxMat=       0.
          There are     1 degrees of freedom in the 1st order CPHF.  IDoFFX=0 NUNeed=     1.
 LinEq1:  Iter=  0 NonCon=     1 RMS=2.94D-03 Max=2.33D-02 NDo=     1
[...]
 ! D26   D(17,8,10,12)          61.8596         -DE/DX =    0.0                 !
 ! D27   D(17,8,10,13)         -59.8605         -DE/DX =    0.0                 !
 ! D28   D(5,8,17,18)          173.9576         -DE/DX =    0.0                 !
 ! D29   D(9,8,17,18)           57.509          -DE/DX =    0.0                 !
 ! D30   D(10,8,17,18)         -61.7981         -DE/DX =    0.0                 !
 ! D31   D(8,10,13,14)          51.5298         -DE/DX =    0.0                 !
 ! D32   D(8,10,13,15)         171.5791         -DE/DX =    0.0                 !
 ! D33   D(8,10,13,16)         -68.5093         -DE/DX =    0.0                 !
 ! D34   D(11,10,13,14)        174.1857         -DE/DX =    0.0                 !
 ! D35   D(11,10,13,15)        -65.765          -DE/DX =    0.0                 !
 ! D36   D(11,10,13,16)         54.1467         -DE/DX =    0.0                 !
 ! D37   D(12,10,13,14)        -69.348          -DE/DX =    0.0                 !
 ! D38   D(12,10,13,15)         50.7014         -DE/DX =    0.0                 !
 ! D39   D(12,10,13,16)        170.613          -DE/DX =    0.0                 !
 --------------------------------------------------------------------------------
 Lowest energy point so far.  Saving SCF results.
 Largest change from initial coordinates is atom    3       0.127 Angstoms.
 GradGradGradGradGradGradGradGradGradGradGradGradGradGradGradGradGradGrad

 Leave Link  103 at Sun Sep 19 20:00:23 2021, MaxMem=   524288000 cpu:               0.0 elap:               0.0
 (Enter /opt/gaussian/g16_legacy/l202.exe)
                          Input orientation:                          
 ---------------------------------------------------------------------
 Center     Atomic      Atomic             Coordinates (Angstroms)
 Number     Number       Type             X           Y           Z
 ---------------------------------------------------------------------
      1          6           0       -2.170908    1.160533   -0.087009
      2          1           0       -1.783647    0.150588   -0.196819
      3          1           0       -1.832953    1.748781   -0.940909
      4          1           0       -3.259095    1.120526   -0.117458
      5          6           0       -1.680112    1.772529    1.219516
      6          1           0       -2.074490    2.785266    1.336277
      7          1           0       -2.045910    1.183476    2.061808
      8          6           0       -0.163650    1.835335    1.298930
      9          1           0        0.204071    2.360578    0.405326
     10          6           0        0.362561    2.570350    2.531734
     11          1           0        0.046514    3.615467    2.476554
     12          1           0        1.456006    2.580783    2.476111
     13          6           0       -0.071674    1.949638    3.854541
     14          1           0        0.154559    0.885320    3.860545
     15          1           0        0.446488    2.417845    4.690433
     16          1           0       -1.140921    2.069681    4.019843
     17          8           0        0.291230    0.475757    1.277169
     18          1           0        1.255232    0.497847    1.229808
 ---------------------------------------------------------------------
                    Distance matrix (angstroms):
                    1          2          3          4          5
     1  C    0.000000
     2  H    1.087207   0.000000
     3  H    1.090593   1.763609   0.000000
     4  H    1.089348   1.767490   1.762571   0.000000
     5  C    1.523951   2.155787   2.165954   2.169284   0.000000
     6  H    2.162127   3.062107   2.513606   2.507587   1.093070
     7  H    2.152572   2.497406   3.062879   2.494991   1.090985
     8  C    2.530863   2.774893   2.794806   3.478345   1.519838
     9  H    2.706109   3.032764   2.517163   3.715447   2.135147
    10  C    3.906900   4.231603   4.189810   4.715570   2.555572
    11  H    4.185154   4.743606   4.323883   4.886786   2.820958
    12  H    4.662745   4.852396   4.815132   5.575941   3.473836
    13  C    4.534896   4.751942   5.112610   5.159830   3.092216
    14  H    4.589850   4.556170   5.267801   5.247176   3.335895
    15  H    5.590666   5.830883   6.111915   6.207270   4.121423
    16  H    4.330550   4.677207   5.019058   4.743924   2.867205
    17  O    2.896899   2.565832   3.324547   3.868529   2.360324
    18  H    3.729826   3.375003   3.976649   4.752053   3.200183
                    6          7          8          9         10
     6  H    0.000000
     7  H    1.758676   0.000000
     8  C    2.134261   2.133027   0.000000
     9  H    2.497772   3.031816   1.099831   0.000000
    10  C    2.722962   2.818684   1.528709   2.142600   0.000000
    11  H    2.547179   3.234939   2.144723   2.426841   1.093252
    12  H    3.715566   3.793089   2.136523   2.429811   1.094908
    13  C    3.324334   2.774617   2.559818   3.484536   1.524356
    14  H    3.866572   2.857694   2.750574   3.757310   2.155998
    15  H    4.211970   3.826929   3.494836   4.292341   2.165706
    16  H    2.930041   2.332009   2.900577   3.867604   2.173844
    17  O    3.306653   2.564907   1.433820   2.078523   2.442609
    18  H    4.041122   3.472729   1.951123   2.292265   2.605214
                   11         12         13         14         15
    11  H    0.000000
    12  H    1.748496   0.000000
    13  C    2.165133   2.152259   0.000000
    14  H    3.062810   2.546569   1.088113   0.000000
    15  H    2.548635   2.439037   1.089232   1.767079   0.000000
    16  H    2.486201   3.064043   1.088588   1.762485   1.758060
    17  O    3.369894   2.687991   2.991132   2.619209   3.930163
    18  H    3.568604   2.435611   3.279879   2.877915   4.039355
                   16         17         18
    16  H    0.000000
    17  O    3.480505   0.000000
    18  H    3.999564   0.965418   0.000000
 Stoichiometry    C5H12O
 Framework group  C1[X(C5H12O)]
 Deg. of freedom    48
 Full point group                 C1      NOp   1
 RotChk:  IX=0 Diff= 2.00D-15
 Largest Abelian subgroup         C1      NOp   1
 Largest concise Abelian subgroup C1      NOp   1
                         Standard orientation:                         
 ---------------------------------------------------------------------
 Center     Atomic      Atomic             Coordinates (Angstroms)
 Number     Number       Type             X           Y           Z
 ---------------------------------------------------------------------
      1          6           0       -2.407678   -0.336156   -0.100516
      2          1           0       -2.519216    0.537882   -0.737411
      3          1           0       -2.777871   -0.081906    0.893319
      4          1           0       -3.032307   -1.136189   -0.496071
      5          6           0       -0.945014   -0.759791   -0.040740
      6          1           0       -0.831084   -1.643276    0.592723
      7          1           0       -0.599496   -1.030707   -1.039474
      8          6           0       -0.043063    0.337964    0.499008
      9          1           0       -0.443698    0.662924    1.470358
     10          6           0        1.407701   -0.097431    0.705559
     11          1           0        1.432803   -0.876004    1.472628
     12          1           0        1.958860    0.753541    1.118951
     13          6           0        2.096736   -0.577792   -0.566505
     14          1           0        1.978733    0.160112   -1.357430
     15          1           0        3.161064   -0.733505   -0.395083
     16          1           0        1.677392   -1.519475   -0.916371
     17          8           0       -0.127502    1.418120   -0.440127
     18          1           0        0.362741    2.160879   -0.065958
 ---------------------------------------------------------------------
 Rotational constants (GHZ):           5.7288322           2.1766926           1.9036716
 Leave Link  202 at Sun Sep 19 20:00:23 2021, MaxMem=   524288000 cpu:               0.0 elap:               0.0
 (Enter /opt/gaussian/g16_legacy/l601.exe)
 Copying SCF densities to generalized density rwf, IOpCl= 0 IROHF=0.

 **********************************************************************

            Population analysis using the SCF density.

 **********************************************************************

 Orbital symmetries:
       Occupied  (A) (A) (A) (A) (A) (A) (A) (A) (A) (A) (A) (A)
                 (A) (A) (A) (A) (A) (A) (A) (A) (A) (A) (A) (A)
                 (A)
       Virtual   (A) (A) (A) (A) (A) (A) (A) (A) (A) (A) (A) (A)
                 (A) (A) (A) (A) (A) (A) (A) (A) (A) (A) (A) (A)
                 (A) (A) (A) (A) (A) (A) (A) (A) (A) (A) (A) (A)
                 (A) (A) (A) (A) (A) (A) (A) (A) (A) (A) (A) (A)
                 (A) (A) (A) (A) (A) (A) (A) (A) (A) (A) (A) (A)
                 (A) (A) (A) (A) (A) (A) (A) (A) (A) (A) (A) (A)
                 (A) (A) (A) (A) (A) (A) (A) (A) (A) (A) (A) (A)
                 (A) (A) (A) (A) (A) (A) (A) (A) (A) (A) (A) (A)
                 (A) (A) (A) (A) (A) (A) (A) (A) (A) (A) (A) (A)
                 (A) (A) (A) (A) (A) (A) (A) (A) (A) (A) (A) (A)
                 (A) (A) (A) (A) (A)
 The electronic state is 1-A.
 Alpha  occ. eigenvalues --  -20.55549 -11.27329 -11.22051 -11.21279 -11.20870
 Alpha  occ. eigenvalues --  -11.20322  -1.35043  -1.06925  -1.01594  -0.91403
 Alpha  occ. eigenvalues --   -0.84057  -0.76807  -0.68683  -0.63612  -0.61551
 Alpha  occ. eigenvalues --   -0.58306  -0.56974  -0.53666  -0.52358  -0.50918
 Alpha  occ. eigenvalues --   -0.49245  -0.47835  -0.47717  -0.44494  -0.42478
 Alpha virt. eigenvalues --    0.21227   0.25757   0.26625   0.27977   0.29309
 Alpha virt. eigenvalues --    0.32340   0.32625   0.32982   0.33343   0.34422
 Alpha virt. eigenvalues --    0.35793   0.36606   0.40590   0.43089   0.43694
 Alpha virt. eigenvalues --    0.44730   0.46781   0.69235   0.71513   0.74723
 Alpha virt. eigenvalues --    0.76120   0.76627   0.79779   0.81341   0.90307
 Alpha virt. eigenvalues --    0.91541   0.93037   0.94721   0.97168   1.03498
 Alpha virt. eigenvalues --    1.06078   1.09552   1.09712   1.11417   1.12398
 Alpha virt. eigenvalues --    1.14700   1.15987   1.16514   1.17165   1.17751
 Alpha virt. eigenvalues --    1.19392   1.21258   1.22181   1.22765   1.25753
 Alpha virt. eigenvalues --    1.30605   1.35592   1.42123   1.51049   1.54797
 Alpha virt. eigenvalues --    1.57175   1.67801   1.70941   1.76795   1.79300
 Alpha virt. eigenvalues --    1.82658   1.86759   1.91644   1.96377   1.98039
 Alpha virt. eigenvalues --    2.03267   2.04928   2.09862   2.17787   2.19634
 Alpha virt. eigenvalues --    2.21907   2.27106   2.29961   2.35181   2.36270
 Alpha virt. eigenvalues --    2.37068   2.40456   2.41194   2.41917   2.44073
 Alpha virt. eigenvalues --    2.45706   2.46795   2.47339   2.54471   2.56665
 Alpha virt. eigenvalues --    2.58884   2.59873   2.63884   2.67007   2.70407
 Alpha virt. eigenvalues --    2.72552   2.76439   2.80612   2.84180   2.89217
 Alpha virt. eigenvalues --    2.94695   2.95174   2.99132   3.00610   3.04233
 Alpha virt. eigenvalues --    3.05898   3.07823   3.14228   3.15024   3.20143
 Alpha virt. eigenvalues --    3.21101   3.23933   3.24910   3.26869   3.29703
 Alpha virt. eigenvalues --    3.34825   3.36223   3.57736   3.59746   3.67502
 Alpha virt. eigenvalues --    3.68525   3.73660   3.78731   3.81900   3.84661
 Alpha virt. eigenvalues --    3.86664   3.88484   3.93588   3.95881   4.36423
 Alpha virt. eigenvalues --    4.74828   4.84413   4.99152   5.05800   5.15171
          Condensed to atoms (all electrons):
               1          2          3          4          5          6
     1  C    4.919735   0.406398   0.400332   0.404031   0.339787  -0.038852
     2  H    0.406398   0.545269  -0.028733  -0.028010  -0.037120   0.004261
     3  H    0.400332  -0.028733   0.599544  -0.030370  -0.041631  -0.003079
     4  H    0.404031  -0.028010  -0.030370   0.586401  -0.038229  -0.003161
     5  C    0.339787  -0.037120  -0.041631  -0.038229   4.991842   0.404650
     6  H   -0.038852   0.004261  -0.003079  -0.003161   0.404650   0.604659
     7  H   -0.039617  -0.002684   0.004380  -0.003096   0.405911  -0.028929
     8  C   -0.051326  -0.006283  -0.004801   0.004618   0.360032  -0.045591
     9  H   -0.007348   0.000535   0.003283  -0.000088  -0.051189   0.000294
    10  C    0.004728   0.000072  -0.000112  -0.000080  -0.057854  -0.002422
    11  H   -0.000185  -0.000008   0.000008  -0.000003  -0.002683   0.001049
    12  H   -0.000117   0.000000  -0.000003   0.000002   0.005314  -0.000004
    13  C   -0.000067  -0.000001  -0.000001   0.000002  -0.006672   0.000153
    14  H   -0.000051   0.000001   0.000000  -0.000000  -0.000449   0.000057
    15  H    0.000001  -0.000000   0.000000  -0.000000  -0.000006  -0.000034
    16  H    0.000012   0.000003  -0.000002   0.000002   0.001443   0.000317
    17  O   -0.001051   0.005047   0.000133   0.000042  -0.064970   0.003041
    18  H   -0.000101  -0.000270  -0.000034   0.000008   0.006920  -0.000216
               7          8          9         10         11         12
     1  C   -0.039617  -0.051326  -0.007348   0.004728  -0.000185  -0.000117
     2  H   -0.002684  -0.006283   0.000535   0.000072  -0.000008   0.000000
     3  H    0.004380  -0.004801   0.003283  -0.000112   0.000008  -0.000003
     4  H   -0.003096   0.004618  -0.000088  -0.000080  -0.000003   0.000002
     5  C    0.405911   0.360032  -0.051189  -0.057854  -0.002683   0.005314
     6  H   -0.028929  -0.045591   0.000294  -0.002422   0.001049  -0.000004
     7  H    0.576545  -0.036683   0.005221  -0.006344   0.000465  -0.000151
     8  C   -0.036683   4.760921   0.420256   0.367723  -0.037606  -0.044011
     9  H    0.005221   0.420256   0.635050  -0.060084   0.000496  -0.005563
    10  C   -0.006344   0.367723  -0.060084   5.023079   0.394607   0.408630
    11  H    0.000465  -0.037606   0.000496   0.394607   0.599270  -0.029678
    12  H   -0.000151  -0.044011  -0.005563   0.408630  -0.029678   0.613131
    13  C    0.000444  -0.048975   0.005068   0.324104  -0.037855  -0.044417
    14  H    0.000692  -0.007144   0.000238  -0.039972   0.004432  -0.001918
    15  H    0.000061   0.004329  -0.000074  -0.037448  -0.002157  -0.004791
    16  H   -0.002135  -0.004359  -0.000122  -0.036798  -0.003846   0.004358
    17  O    0.000233   0.194492  -0.036487  -0.050235   0.003285  -0.001427
    18  H   -0.000151  -0.026577  -0.005027  -0.003433  -0.000024   0.003352
              13         14         15         16         17         18
     1  C   -0.000067  -0.000051   0.000001   0.000012  -0.001051  -0.000101
     2  H   -0.000001   0.000001  -0.000000   0.000003   0.005047  -0.000270
     3  H   -0.000001   0.000000   0.000000  -0.000002   0.000133  -0.000034
     4  H    0.000002  -0.000000  -0.000000   0.000002   0.000042   0.000008
     5  C   -0.006672  -0.000449  -0.000006   0.001443  -0.064970   0.006920
     6  H    0.000153   0.000057  -0.000034   0.000317   0.003041  -0.000216
     7  H    0.000444   0.000692   0.000061  -0.002135   0.000233  -0.000151
     8  C   -0.048975  -0.007144   0.004329  -0.004359   0.194492  -0.026577
     9  H    0.005068   0.000238  -0.000074  -0.000122  -0.036487  -0.005027
    10  C    0.324104  -0.039972  -0.037448  -0.036798  -0.050235  -0.003433
    11  H   -0.037855   0.004432  -0.002157  -0.003846   0.003285  -0.000024
    12  H   -0.044417  -0.001918  -0.004791   0.004358  -0.001427   0.003352
    13  C    4.939395   0.404020   0.404730   0.404390  -0.004375  -0.000214
    14  H    0.404020   0.555734  -0.028478  -0.028529   0.008398  -0.000117
    15  H    0.404730  -0.028478   0.583539  -0.029987   0.000027  -0.000039
    16  H    0.404390  -0.028529  -0.029987   0.581198   0.000115   0.000024
    17  O   -0.004375   0.008398   0.000027   0.000115   8.297405   0.304836
    18  H   -0.000214  -0.000117  -0.000039   0.000024   0.304836   0.385020
 Mulliken charges:
               1
     1  C   -0.336309
     2  H    0.141523
     3  H    0.101086
     4  H    0.107931
     5  C   -0.215097
     6  H    0.103807
     7  H    0.125836
     8  C    0.200984
     9  H    0.095540
    10  C   -0.228160
    11  H    0.110432
    12  H    0.097295
    13  C   -0.339731
    14  H    0.133088
    15  H    0.110327
    16  H    0.113915
    17  O   -0.658510
    18  H    0.336043
 Sum of Mulliken charges =  -0.00000
 Mulliken charges with hydrogens summed into heavy atoms:
               1
     1  C    0.014231
     5  C    0.014546
     8  C    0.296524
    10  C   -0.020434
    13  C    0.017599
    17  O   -0.322467
 Electronic spatial extent (au):  <R**2>=            741.5573
 Charge=             -0.0000 electrons
 Dipole moment (field-independent basis, Debye):
    X=              0.8963    Y=              0.0727    Z=              1.3938  Tot=              1.6587
 Quadrupole moment (field-independent basis, Debye-Ang):
   XX=            -40.6553   YY=            -37.5400   ZZ=            -40.6704
   XY=              2.1868   XZ=              0.0127   YZ=              1.8945
 Traceless Quadrupole moment (field-independent basis, Debye-Ang):
   XX=             -1.0334   YY=              2.0819   ZZ=             -1.0485
   XY=              2.1868   XZ=              0.0127   YZ=              1.8945
 Octapole moment (field-independent basis, Debye-Ang**2):
  XXX=              2.0574  YYY=             16.8046  ZZZ=             -0.8216  XYY=              4.2503
  XXY=              3.0602  XXZ=             -0.4671  XZZ=             -0.9450  YZZ=              1.2415
  YYZ=              2.1401  XYZ=             -0.7516
 Hexadecapole moment (field-independent basis, Debye-Ang**3):
 XXXX=           -676.4318 YYYY=           -172.1981 ZZZZ=           -133.0892 XXXY=              1.3216
 XXXZ=              3.5483 YYYX=             11.0982 YYYZ=              0.9293 ZZZX=             -0.9648
 ZZZY=             -2.1754 XXYY=           -144.1408 XXZZ=           -134.7250 YYZZ=            -55.8212
 XXYZ=             -0.5903 YYXZ=              1.1229 ZZXY=              0.1853
 N-N= 2.618520064815D+02 E-N=-1.157729467869D+03  KE= 2.708361730496D+02
 No NMR shielding tensors so no spin-rotation constants.
 Leave Link  601 at Sun Sep 19 20:00:24 2021, MaxMem=   524288000 cpu:               0.1 elap:               0.3
 (Enter /opt/gaussian/g16_legacy/l9999.exe)
 1\1\GINC-TRUENO95\FOpt\RMP2-FC\6-31G(d,p)\C5H12O1\JRAMOS\19-Sep-2021\0
 \\#p opt mp2/6-31g(d,p)\\Conformer number 003. Energy MM = 1.793 kcal/
 mol\\0,1\C,-2.1709081512,1.1605334654,-0.0870089008\H,-1.7836474913,0.
 1505884752,-0.1968194028\H,-1.8329533454,1.7487807876,-0.9409085509\H,
 -3.2590949506,1.1205258666,-0.1174576053\C,-1.6801122278,1.7725292029,
 1.2195155187\H,-2.0744895367,2.7852656054,1.3362769882\H,-2.0459095687
 ,1.1834762022,2.0618077681\C,-0.1636500632,1.8353347385,1.2989303381\H
 ,0.2040705431,2.3605777751,0.4053258221\C,0.3625613748,2.5703497729,2.
 5317339331\H,0.0465140655,3.6154668177,2.4765541779\H,1.4560055163,2.5
 807826582,2.4761106519\C,-0.0716742714,1.949638442,3.8545407443\H,0.15
 45588974,0.8853202337,3.8605451339\H,0.4464877642,2.4178448842,4.69043
 32892\H,-1.1409208009,2.0696813734,4.0198434643\O,0.2912299304,0.47575
 70821,1.2771688026\H,1.2552323152,0.497846617,1.2298078275\\Version=EM
 64L-G16RevA.03\State=1-A\HF=-271.2052991\MP2=-272.1219188\RMSD=4.268e-
 09\RMSF=3.358e-06\Dipole=0.3947828,0.4355142,0.0112445\PG=C01 [X(C5H12
 O1)]\\@


 RESEARCH IS WHAT I AM DOING WHEN I DON'T KNOW WHAT I AM DOING.
     -- WERNER VON BRAUN
 Job cpu time:       0 days  0 hours  5 minutes  4.6 seconds.
 Elapsed time:       0 days  0 hours  5 minutes  9.5 seconds.
 File lengths (MBytes):  RWF=     15 Int=      0 D2E=      0 Chk=      4 Scr=      1
 Normal termination of Gaussian 16 at Sun Sep 19 20:00:24 2021.
