 Entering Gaussian System, Link 0=/opt/gaussian/g16_legacy/g16
 Input=06-PVA_004_gaussian.com
 Output=06-PVA_004_gaussian.log
 Initial command:
 /opt/gaussian/g16_legacy/l1.exe "/scratch-local/jramos/2661751/Gau-30540.inp" -scrdir="/scratch-local/jramos/2661751/"
 Entering Link 1 = /opt/gaussian/g16_legacy/l1.exe PID=     30542.
  
 Copyright (c) 1988,1990,1992,1993,1995,1998,2003,2009,2016,
            Gaussian, Inc.  All Rights Reserved.
  
 This is part of the Gaussian(R) 16 program.  It is based on
 the Gaussian(R) 09 system (copyright 2009, Gaussian, Inc.),
 the Gaussian(R) 03 system (copyright 2003, Gaussian, Inc.),
 the Gaussian(R) 98 system (copyright 1998, Gaussian, Inc.),
 the Gaussian(R) 94 system (copyright 1995, Gaussian, Inc.),
 the Gaussian 92(TM) system (copyright 1992, Gaussian, Inc.),
 the Gaussian 90(TM) system (copyright 1990, Gaussian, Inc.),
 the Gaussian 88(TM) system (copyright 1988, Gaussian, Inc.),
 the Gaussian 86(TM) system (copyright 1986, Carnegie Mellon
 University), and the Gaussian 82(TM) system (copyright 1983,
 Carnegie Mellon University). Gaussian is a federally registered
 trademark of Gaussian, Inc.
  
 This software contains proprietary and confidential information,
 including trade secrets, belonging to Gaussian, Inc.
  
 This software is provided under written license and may be
 used, copied, transmitted, or stored only in accord with that
 written license.
  
 The following legend is applicable only to US Government
 contracts under FAR:
  
                    RESTRICTED RIGHTS LEGEND
  
 Use, reproduction and disclosure by the US Government is
 subject to restrictions as set forth in subparagraphs (a)
 and (c) of the Commercial Computer Software - Restricted
 Rights clause in FAR 52.227-19.
  
 Gaussian, Inc.
 340 Quinnipiac St., Bldg. 40, Wallingford CT 06492
  
  
 ---------------------------------------------------------------
 Warning -- This program may not be used in any manner that
 competes with the business of Gaussian, Inc. or will provide
 assistance to any competitor of Gaussian, Inc.  The licensee
 of this program is prohibited from giving any competitor of
 Gaussian, Inc. access to this program.  By using this program,
 the user acknowledges that Gaussian, Inc. is engaged in the
 business of creating and licensing software in the field of
 computational chemistry and represents and warrants to the
 licensee that it is not a competitor of Gaussian, Inc. and that
 it will not use this program in any manner prohibited above.
 ---------------------------------------------------------------
  

 Cite this work as:
 Gaussian 16, Revision A.03,
 M. J. Frisch, G. W. Trucks, H. B. Schlegel, G. E. Scuseria, 
 M. A. Robb, J. R. Cheeseman, G. Scalmani, V. Barone, 
 G. A. Petersson, H. Nakatsuji, X. Li, M. Caricato, A. V. Marenich, 
 J. Bloino, B. G. Janesko, R. Gomperts, B. Mennucci, H. P. Hratchian, 
 J. V. Ortiz, A. F. Izmaylov, J. L. Sonnenberg, D. Williams-Young, 
 F. Ding, F. Lipparini, F. Egidi, J. Goings, B. Peng, A. Petrone, 
 T. Henderson, D. Ranasinghe, V. G. Zakrzewski, J. Gao, N. Rega, 
 G. Zheng, W. Liang, M. Hada, M. Ehara, K. Toyota, R. Fukuda, 
 J. Hasegawa, M. Ishida, T. Nakajima, Y. Honda, O. Kitao, H. Nakai, 
 T. Vreven, K. Throssell, J. A. Montgomery, Jr., J. E. Peralta, 
 F. Ogliaro, M. J. Bearpark, J. J. Heyd, E. N. Brothers, K. N. Kudin, 
 V. N. Staroverov, T. A. Keith, R. Kobayashi, J. Normand, 
 K. Raghavachari, A. P. Rendell, J. C. Burant, S. S. Iyengar, 
 J. Tomasi, M. Cossi, J. M. Millam, M. Klene, C. Adamo, R. Cammi, 
 J. W. Ochterski, R. L. Martin, K. Morokuma, O. Farkas, 
 J. B. Foresman, and D. J. Fox, Gaussian, Inc., Wallingford CT, 2016.
 
 ******************************************
 Gaussian 16:  EM64L-G16RevA.03 25-Dec-2016
                19-Sep-2021 
 ******************************************
 %chk=06-PVA_004_gaussian.chk
 %nproc=1
 Will use up to    1 processors via shared memory.
 %mem=4000Mb
 ---------------------
 #p opt mp2/6-31g(d,p)
 ---------------------
 1/18=20,19=15,38=1/1,3;
 2/9=110,12=2,17=6,18=5,40=1/2;
 3/5=1,6=6,7=101,11=9,25=1,30=1,71=1/1,2,3;
 4//1;
 5/5=2,38=5/2;
 8/6=4,10=2/1;
 9/15=2,16=-3/6;
 10/5=1/2;
 6/7=2,8=2,9=2,10=2/1;
 7/12=2/1,2,3,16;
 1/18=20,19=15/3(2);
 2/9=110/2;
 99//99;
 2/9=110/2;
 3/5=1,6=6,7=101,11=9,25=1,30=1,71=1/1,2,3;
 4/5=5,16=3,69=1/1;
 5/5=2,38=5/2;
 8/6=4,10=2/1;
 9/15=2,16=-3/6;
 10/5=1/2;
 7/12=2/1,2,3,16;
 1/18=20,19=15/3(-8);
 2/9=110/2;
 6/7=2,8=2,9=2,10=2/1;
 99//99;
 Leave Link    1 at Sun Sep 19 19:55:11 2021, MaxMem=   524288000 cpu:               0.0 elap:               0.1
 (Enter /opt/gaussian/g16_legacy/l101.exe)
 ------------------------------------------------
 Conformer number 004. Energy MM = 2.201 kcal/mol
 ------------------------------------------------
 Symbolic Z-matrix:
 Charge =  0 Multiplicity = 1
 C                    -2.2888    1.1301    2.4821 
 H                    -2.0646    1.6355    3.4259 
 H                    -1.9463    0.0929    2.5543 
 H                    -3.3769    1.1159    2.3668 
 C                    -1.6493    1.8474    1.2986 
 H                    -1.9922    1.3461    0.3844 
 H                    -2.0183    2.8788    1.2592 
 C                    -0.1147    1.8442    1.3111 
 H                     0.2334    2.325     0.3893 
 C                     0.4695    2.5771    2.5245 
 H                     0.1831    2.0667    3.4517 
 H                     0.0661    3.5954    2.5667 
 C                     1.991     2.6509    2.5003 
 H                     2.3476    3.133     1.5849 
 H                     2.3507    3.2334    3.3543 
 H                     2.4408    1.6556    2.5669 
 O                     0.3319    0.4912    1.2843 
 H                     1.2847    0.4961    1.0908 
 
 ITRead=  0  0  0  0  0  0  0  0  0  0  0  0  0  0  0  0  0  0
 MicOpt= -1 -1 -1 -1 -1 -1 -1 -1 -1 -1 -1 -1 -1 -1 -1 -1 -1 -1
 NAtoms=     18 NQM=       18 NQMF=       0 NMMI=      0 NMMIF=      0
                NMic=       0 NMicF=      0.
                    Isotopes and Nuclear Properties:
 (Nuclear quadrupole moments (NQMom) in fm**2, nuclear magnetic moments (NMagM)
  in nuclear magnetons)

  Atom         1           2           3           4           5           6           7           8           9          10
 IAtWgt=          12           1           1           1          12           1           1          12           1          12
 AtmWgt=  12.0000000   1.0078250   1.0078250   1.0078250  12.0000000   1.0078250   1.0078250  12.0000000   1.0078250  12.0000000
 NucSpn=           0           1           1           1           0           1           1           0           1           0
 AtZEff=  -0.0000000  -0.0000000  -0.0000000  -0.0000000  -0.0000000  -0.0000000  -0.0000000  -0.0000000  -0.0000000  -0.0000000
 NQMom=    0.0000000   0.0000000   0.0000000   0.0000000   0.0000000   0.0000000   0.0000000   0.0000000   0.0000000   0.0000000
 NMagM=    0.0000000   2.7928460   2.7928460   2.7928460   0.0000000   2.7928460   2.7928460   0.0000000   2.7928460   0.0000000
 AtZNuc=   6.0000000   1.0000000   1.0000000   1.0000000   6.0000000   1.0000000   1.0000000   6.0000000   1.0000000   6.0000000

  Atom        11          12          13          14          15          16          17          18
 IAtWgt=           1           1          12           1           1           1          16           1
 AtmWgt=   1.0078250   1.0078250  12.0000000   1.0078250   1.0078250   1.0078250  15.9949146   1.0078250
 NucSpn=           1           1           0           1           1           1           0           1
 AtZEff=  -0.0000000  -0.0000000  -0.0000000  -0.0000000  -0.0000000  -0.0000000  -0.0000000  -0.0000000
 NQMom=    0.0000000   0.0000000   0.0000000   0.0000000   0.0000000   0.0000000   0.0000000   0.0000000
 NMagM=    2.7928460   2.7928460   0.0000000   2.7928460   2.7928460   2.7928460   0.0000000   2.7928460
 AtZNuc=   1.0000000   1.0000000   6.0000000   1.0000000   1.0000000   1.0000000   8.0000000   1.0000000
 Leave Link  101 at Sun Sep 19 19:55:12 2021, MaxMem=   524288000 cpu:               0.1 elap:               0.3
 (Enter /opt/gaussian/g16_legacy/l103.exe)

 GradGradGradGradGradGradGradGradGradGradGradGradGradGradGradGradGradGrad
 Berny optimization.
 Initialization pass.
                           ----------------------------
                           !    Initial Parameters    !
                           ! (Angstroms and Degrees)  !
 --------------------------                            --------------------------
 ! Name  Definition              Value          Derivative Info.                !
 --------------------------------------------------------------------------------
 ! R1    R(1,2)                  1.0938         estimate D2E/DX2                !
 ! R2    R(1,3)                  1.0947         estimate D2E/DX2                !
 ! R3    R(1,4)                  1.0943         estimate D2E/DX2                !
 ! R4    R(1,5)                  1.5245         estimate D2E/DX2                !
 ! R5    R(5,6)                  1.0976         estimate D2E/DX2                !
 ! R6    R(5,7)                  1.0961         estimate D2E/DX2                !
 ! R7    R(5,8)                  1.5347         estimate D2E/DX2                !
 ! R8    R(8,9)                  1.0964         estimate D2E/DX2                !
 ! R9    R(8,10)                 1.5332         estimate D2E/DX2                !
 ! R10   R(8,17)                 1.4251         estimate D2E/DX2                !
 ! R11   R(10,11)                1.0965         estimate D2E/DX2                !
 ! R12   R(10,12)                1.0961         estimate D2E/DX2                !
 ! R13   R(10,13)                1.5235         estimate D2E/DX2                !
 ! R14   R(13,14)                1.0943         estimate D2E/DX2                !
 ! R15   R(13,15)                1.0945         estimate D2E/DX2                !
 ! R16   R(13,16)                1.0942         estimate D2E/DX2                !
 ! R17   R(17,18)                0.9723         estimate D2E/DX2                !
 ! A1    A(2,1,3)              108.4665         estimate D2E/DX2                !
 ! A2    A(2,1,4)              107.5009         estimate D2E/DX2                !
 ! A3    A(2,1,5)              111.4973         estimate D2E/DX2                !
 ! A4    A(3,1,4)              107.8042         estimate D2E/DX2                !
 ! A5    A(3,1,5)              111.4546         estimate D2E/DX2                !
 ! A6    A(4,1,5)              109.9631         estimate D2E/DX2                !
 ! A7    A(1,5,6)              107.4976         estimate D2E/DX2                !
 ! A8    A(1,5,7)              109.2334         estimate D2E/DX2                !
 ! A9    A(1,5,8)              114.3405         estimate D2E/DX2                !
 ! A10   A(6,5,7)              107.1369         estimate D2E/DX2                !
 ! A11   A(6,5,8)              108.5566         estimate D2E/DX2                !
 ! A12   A(7,5,8)              109.8088         estimate D2E/DX2                !
 ! A13   A(5,8,9)              108.0426         estimate D2E/DX2                !
 ! A14   A(5,8,10)             112.7346         estimate D2E/DX2                !
 ! A15   A(5,8,17)             108.3733         estimate D2E/DX2                !
 ! A16   A(9,8,10)             109.5595         estimate D2E/DX2                !
 ! A17   A(9,8,17)             107.5205         estimate D2E/DX2                !
 ! A18   A(10,8,17)            110.4455         estimate D2E/DX2                !
 ! A19   A(8,10,11)            110.3158         estimate D2E/DX2                !
 ! A20   A(8,10,12)            109.5313         estimate D2E/DX2                !
 ! A21   A(8,10,13)            113.024          estimate D2E/DX2                !
 ! A22   A(11,10,12)           107.684          estimate D2E/DX2                !
 ! A23   A(11,10,13)           107.2682         estimate D2E/DX2                !
 ! A24   A(12,10,13)           108.8541         estimate D2E/DX2                !
 ! A25   A(10,13,14)           111.1044         estimate D2E/DX2                !
 ! A26   A(10,13,15)           109.9739         estimate D2E/DX2                !
 ! A27   A(10,13,16)           111.4381         estimate D2E/DX2                !
 ! A28   A(14,13,15)           108.1271         estimate D2E/DX2                !
 ! A29   A(14,13,16)           108.5223         estimate D2E/DX2                !
 ! A30   A(15,13,16)           107.5471         estimate D2E/DX2                !
 ! A31   A(8,17,18)            107.8229         estimate D2E/DX2                !
 ! D1    D(2,1,5,6)           -174.6967         estimate D2E/DX2                !
 ! D2    D(2,1,5,7)            -58.7712         estimate D2E/DX2                !
 ! D3    D(2,1,5,8)             64.7164         estimate D2E/DX2                !
 ! D4    D(3,1,5,6)             63.9333         estimate D2E/DX2                !
 ! D5    D(3,1,5,7)            179.8588         estimate D2E/DX2                !
 ! D6    D(3,1,5,8)            -56.6536         estimate D2E/DX2                !
 ! D7    D(4,1,5,6)            -55.5577         estimate D2E/DX2                !
 ! D8    D(4,1,5,7)             60.3679         estimate D2E/DX2                !
 ! D9    D(4,1,5,8)           -176.1445         estimate D2E/DX2                !
 ! D10   D(1,5,8,9)            176.3542         estimate D2E/DX2                !
 ! D11   D(1,5,8,10)           -62.4307         estimate D2E/DX2                !
 ! D12   D(1,5,8,17)            60.1345         estimate D2E/DX2                !
 ! D13   D(6,5,8,9)             56.3573         estimate D2E/DX2                !
 ! D14   D(6,5,8,10)           177.5724         estimate D2E/DX2                !
 ! D15   D(6,5,8,17)           -59.8624         estimate D2E/DX2                !
 ! D16   D(7,5,8,9)            -60.4684         estimate D2E/DX2                !
 ! D17   D(7,5,8,10)            60.7467         estimate D2E/DX2                !
 ! D18   D(7,5,8,17)          -176.6881         estimate D2E/DX2                !
 ! D19   D(5,8,10,11)           63.3827         estimate D2E/DX2                !
 ! D20   D(5,8,10,12)          -54.9782         estimate D2E/DX2                !
 ! D21   D(5,8,10,13)         -176.5333         estimate D2E/DX2                !
 ! D22   D(9,8,10,11)         -176.2691         estimate D2E/DX2                !
 ! D23   D(9,8,10,12)           65.37           estimate D2E/DX2                !
 ! D24   D(9,8,10,13)          -56.1852         estimate D2E/DX2                !
 ! D25   D(17,8,10,11)         -58.0131         estimate D2E/DX2                !
 ! D26   D(17,8,10,12)        -176.374          estimate D2E/DX2                !
 ! D27   D(17,8,10,13)          62.0708         estimate D2E/DX2                !
 ! D28   D(5,8,17,18)          167.4352         estimate D2E/DX2                !
 ! D29   D(9,8,17,18)           50.878          estimate D2E/DX2                !
 ! D30   D(10,8,17,18)         -68.6181         estimate D2E/DX2                !
 ! D31   D(8,10,13,14)          56.9637         estimate D2E/DX2                !
 ! D32   D(8,10,13,15)         176.6412         estimate D2E/DX2                !
 ! D33   D(8,10,13,16)         -64.1926         estimate D2E/DX2                !
 ! D34   D(11,10,13,14)        178.7773         estimate D2E/DX2                !
 ! D35   D(11,10,13,15)        -61.5452         estimate D2E/DX2                !
 ! D36   D(11,10,13,16)         57.621          estimate D2E/DX2                !
 ! D37   D(12,10,13,14)        -64.9724         estimate D2E/DX2                !
 ! D38   D(12,10,13,15)         54.7051         estimate D2E/DX2                !
 ! D39   D(12,10,13,16)        173.8713         estimate D2E/DX2                !
 --------------------------------------------------------------------------------
 Trust Radius=3.00D-01 FncErr=1.00D-07 GrdErr=1.00D-07 EigMax=2.50D+02 EigMin=1.00D-04
 Number of steps in this run=     97 maximum allowed number of steps=    108.
 GradGradGradGradGradGradGradGradGradGradGradGradGradGradGradGradGradGrad

 Leave Link  103 at Sun Sep 19 19:55:12 2021, MaxMem=   524288000 cpu:               0.0 elap:               0.1
 (Enter /opt/gaussian/g16_legacy/l202.exe)
                          Input orientation:                          
 ---------------------------------------------------------------------
 Center     Atomic      Atomic             Coordinates (Angstroms)
 Number     Number       Type             X           Y           Z
 ---------------------------------------------------------------------
      1          6           0       -2.288800    1.130100    2.482100
      2          1           0       -2.064600    1.635500    3.425900
      3          1           0       -1.946300    0.092900    2.554300
      4          1           0       -3.376900    1.115900    2.366800
      5          6           0       -1.649300    1.847400    1.298600
      6          1           0       -1.992200    1.346100    0.384400
      7          1           0       -2.018300    2.878800    1.259200
      8          6           0       -0.114700    1.844200    1.311100
      9          1           0        0.233400    2.325000    0.389300
     10          6           0        0.469500    2.577100    2.524500
     11          1           0        0.183100    2.066700    3.451700
     12          1           0        0.066100    3.595400    2.566700
     13          6           0        1.991000    2.650900    2.500300
     14          1           0        2.347600    3.133000    1.584900
     15          1           0        2.350700    3.233400    3.354300
     16          1           0        2.440800    1.655600    2.566900
     17          8           0        0.331900    0.491200    1.284300
     18          1           0        1.284700    0.496100    1.090800
 ---------------------------------------------------------------------
                    Distance matrix (angstroms):
                    1          2          3          4          5
     1  C    0.000000
     2  H    1.093825   0.000000
     3  H    1.094670   1.775752   0.000000
     4  H    1.094284   1.764599   1.768701   0.000000
     5  C    1.524517   2.177793   2.177903   2.158876   0.000000
     6  H    2.129548   3.056095   2.506209   2.429052   1.097563
     7  H    2.150955   2.498505   3.073061   2.486039   1.096129
     8  C    2.570582   2.884102   2.822651   3.505264   1.534654
     9  H    3.488422   3.870033   3.797445   4.290302   2.144642
    10  C    3.115096   2.849701   3.465289   4.117617   2.554331
    11  H    2.815605   2.288833   3.039006   3.841175   2.835775
    12  H    3.410339   3.019820   4.039482   4.247603   2.757930
    13  C    4.542010   4.282016   4.695595   5.584657   3.916820
    14  H    5.129599   5.009920   5.349722   6.119637   4.208319
    15  H    5.168130   4.696093   5.382095   6.185820   4.706049
    16  H    4.759460   4.586602   4.657127   5.846105   4.286524
    17  O    2.951438   3.411610   2.638511   3.913726   2.400966
    18  H    3.886846   4.238954   3.569841   4.872663   3.236904
                    6          7          8          9         10
     6  H    0.000000
     7  H    1.764972   0.000000
     8  C    2.152181   2.167206   0.000000
     9  H    2.431371   2.476605   1.096384   0.000000
    10  C    3.486453   2.807340   1.533223   2.162956   0.000000
    11  H    3.828776   3.211343   2.172639   3.073686   1.096464
    12  H    3.749451   2.562771   2.162388   2.526455   1.096106
    13  C    4.695255   4.203184   2.549301   2.766169   1.523481
    14  H    4.844386   4.385405   2.792650   2.559720   2.172356
    15  H    5.589543   4.858328   3.490378   3.754913   2.158289
    16  H    4.950817   4.805192   2.853626   3.172168   2.176461
    17  O    2.634789   3.350329   1.425054   2.042927   2.430640
    18  H    3.458262   4.076203   1.955563   2.223108   2.655298
                   11         12         13         14         15
    11  H    0.000000
    12  H    1.770265   0.000000
    13  C    2.124842   2.145164   0.000000
    14  H    3.050737   2.526457   1.094322   0.000000
    15  H    2.463568   2.443513   1.094535   1.772249   0.000000
    16  H    2.459488   3.066272   1.094248   1.776435   1.765664
    17  O    2.683648   3.369163   2.982545   3.336542   3.984986
    18  H    3.042064   3.642654   2.669965   2.885677   3.708450
                   16         17         18
    16  H    0.000000
    17  O    2.729166   0.000000
    18  H    2.204513   0.972262   0.000000
 Stoichiometry    C5H12O
 Framework group  C1[X(C5H12O)]
 Deg. of freedom    48
 Full point group                 C1      NOp   1
 Largest Abelian subgroup         C1      NOp   1
 Largest concise Abelian subgroup C1      NOp   1
                         Standard orientation:                         
 ---------------------------------------------------------------------
 Center     Atomic      Atomic             Coordinates (Angstroms)
 Number     Number       Type             X           Y           Z
 ---------------------------------------------------------------------
      1          6           0       -2.120854   -0.526921   -0.589021
      2          1           0       -1.658964   -1.421411   -1.016804
      3          1           0       -2.096018    0.269088   -1.340058
      4          1           0       -3.169949   -0.763143   -0.386394
      5          6           0       -1.425244   -0.100429    0.698761
      6          1           0       -1.995473    0.737479    1.119939
      7          1           0       -1.473510   -0.920898    1.424020
      8          6           0        0.031691    0.344620    0.513185
      9          1           0        0.408004    0.688417    1.483880
     10          6           0        0.931102   -0.777876   -0.017696
     11          1           0        0.605133   -1.085827   -1.018267
     12          1           0        0.854864   -1.650887    0.640702
     13          6           0        2.394601   -0.368406   -0.124922
     14          1           0        2.780040   -0.027105    0.840733
     15          1           0        2.998556   -1.221196   -0.450492
     16          1           0        2.533129    0.432726   -0.857298
     17          8           0        0.051214    1.459741   -0.373890
     18          1           0        0.936705    1.858905   -0.330683
 ---------------------------------------------------------------------
 Rotational constants (GHZ):           5.6924061           2.1603712           1.8849393
 Leave Link  202 at Sun Sep 19 19:55:12 2021, MaxMem=   524288000 cpu:               0.0 elap:               0.1
 (Enter /opt/gaussian/g16_legacy/l301.exe)
 Standard basis: 6-31G(d,p) (6D, 7F)
 Ernie: Thresh=  0.10000D-02 Tol=  0.10000D-05 Strict=F.
 There are   150 symmetry adapted cartesian basis functions of A   symmetry.
 There are   150 symmetry adapted basis functions of A   symmetry.
   150 basis functions,   252 primitive gaussians,   150 cartesian basis functions
    25 alpha electrons       25 beta electrons
       nuclear repulsion energy       261.0005997988 Hartrees.
 IExCor=    0 DFT=F Ex=HF Corr=None ExCW=0 ScaHFX=  1.000000
 ScaDFX=  1.000000  1.000000  1.000000  1.000000 ScalE2=  1.000000  1.000000
 IRadAn=      5 IRanWt=     -1 IRanGd=            0 ICorTp=0 IEmpDi=  4
 NAtoms=   18 NActive=   18 NUniq=   18 SFac= 1.00D+00 NAtFMM=   60 NAOKFM=F Big=F
 Integral buffers will be    131072 words long.
 Raffenetti 1 integral format.
 Two-electron integral symmetry is turned on.
 Leave Link  301 at Sun Sep 19 19:55:12 2021, MaxMem=   524288000 cpu:               0.0 elap:               0.1
 (Enter /opt/gaussian/g16_legacy/l302.exe)
 NPDir=0 NMtPBC=     1 NCelOv=     1 NCel=       1 NClECP=     1 NCelD=      1
         NCelK=      1 NCelE2=     1 NClLst=     1 CellRange=     0.0.
 One-electron integrals computed using PRISM.
 One-electron integral symmetry used in STVInt
 NBasis=   150 RedAO= T EigKep=  3.49D-03  NBF=   150
 NBsUse=   150 1.00D-06 EigRej= -1.00D+00 NBFU=   150
 Leave Link  302 at Sun Sep 19 19:55:12 2021, MaxMem=   524288000 cpu:               0.1 elap:               0.3
 (Enter /opt/gaussian/g16_legacy/l303.exe)
 DipDrv:  MaxL=1.
 Leave Link  303 at Sun Sep 19 19:55:13 2021, MaxMem=   524288000 cpu:               0.0 elap:               0.1
 (Enter /opt/gaussian/g16_legacy/l401.exe)
 ExpMin= 1.61D-01 ExpMax= 5.48D+03 ExpMxC= 8.25D+02 IAcc=3 IRadAn=         5 AccDes= 0.00D+00
 Harris functional with IExCor=  205 and IRadAn=       5 diagonalized for initial guess.
 HarFok:  IExCor=  205 AccDes= 0.00D+00 IRadAn=         5 IDoV= 1 UseB2=F ITyADJ=14
 ICtDFT=  3500011 ScaDFX=  1.000000  1.000000  1.000000  1.000000
 FoFCou: FMM=F IPFlag=           0 FMFlag=      100000 FMFlg1=           0
         NFxFlg=           0 DoJE=T BraDBF=F KetDBF=T FulRan=T
         wScrn=  0.000000 ICntrl=       500 IOpCl=  0 I1Cent=   200000004 NGrid=           0
         NMat0=    1 NMatS0=      1 NMatT0=    0 NMatD0=    1 NMtDS0=    0 NMtDT0=    0
 Petite list used in FoFCou.
 Harris En= -271.796466694292    
 JPrj=0 DoOrth=F DoCkMO=F.
 Leave Link  401 at Sun Sep 19 19:55:16 2021, MaxMem=   524288000 cpu:               2.8 elap:               3.0
 (Enter /opt/gaussian/g16_legacy/l502.exe)
 Keep R1 ints in memory in canonical form, NReq=65856006.
 FoFCou: FMM=F IPFlag=           0 FMFlag=           0 FMFlg1=           0
         NFxFlg=           0 DoJE=F BraDBF=F KetDBF=F FulRan=T
         wScrn=  0.000000 ICntrl=       600 IOpCl=  0 I1Cent=           0 NGrid=           0
         NMat0=    1 NMatS0=  11325 NMatT0=    0 NMatD0=    1 NMtDS0=    0 NMtDT0=    0
 Symmetry not used in FoFCou.
 Two-electron integral symmetry not used.
 Closed shell SCF:
 Using DIIS extrapolation, IDIIS=  1040.
 NGot=   524288000 LenX=   460106785 LenY=   460083844
 Requested convergence on RMS density matrix=1.00D-08 within 128 cycles.
 Requested convergence on MAX density matrix=1.00D-06.
 Requested convergence on             energy=1.00D-06.
 No special actions if energy rises.

 Cycle   1  Pass 1  IDiag  1:
 E= -270.822393834334    
 DIIS: error= 5.59D-02 at cycle   1 NSaved=   1.
 NSaved= 1 IEnMin= 1 EnMin= -270.822393834334     IErMin= 1 ErrMin= 5.59D-02
 ErrMax= 5.59D-02  0.00D+00 EMaxC= 1.00D-01 BMatC= 5.18D-01 BMatP= 5.18D-01
 IDIUse=3 WtCom= 4.41D-01 WtEn= 5.59D-01
 Coeff-Com:  0.100D+01
 Coeff-En:   0.100D+01
 Coeff:      0.100D+01
 Gap=     0.590 Goal=   None    Shift=    0.000
 GapD=    0.590 DampG=2.000 DampE=0.500 DampFc=1.0000 IDamp=-1.
 RMSDP=4.92D-03 MaxDP=1.18D-01              OVMax= 1.24D-01

 Cycle   2  Pass 1  IDiag  1:
 E= -271.137114905353     Delta-E=       -0.314721071019 Rises=F Damp=F
 DIIS: error= 1.53D-02 at cycle   2 NSaved=   2.
 NSaved= 2 IEnMin= 2 EnMin= -271.137114905353     IErMin= 2 ErrMin= 1.53D-02
 ErrMax= 1.53D-02  0.00D+00 EMaxC= 1.00D-01 BMatC= 7.50D-02 BMatP= 5.18D-01
 IDIUse=3 WtCom= 8.47D-01 WtEn= 1.53D-01
 Coeff-Com:  0.222D+00 0.778D+00
 Coeff-En:   0.000D+00 0.100D+01
 Coeff:      0.188D+00 0.812D+00
 Gap=     0.661 Goal=   None    Shift=    0.000
 RMSDP=1.90D-03 MaxDP=3.36D-02 DE=-3.15D-01 OVMax= 4.67D-02

 Cycle   3  Pass 1  IDiag  1:
 E= -271.199825380134     Delta-E=       -0.062710474781 Rises=F Damp=F
 DIIS: error= 2.88D-03 at cycle   3 NSaved=   3.
 NSaved= 3 IEnMin= 3 EnMin= -271.199825380134     IErMin= 3 ErrMin= 2.88D-03
 ErrMax= 2.88D-03  0.00D+00 EMaxC= 1.00D-01 BMatC= 3.37D-03 BMatP= 7.50D-02
 IDIUse=3 WtCom= 9.71D-01 WtEn= 2.88D-02
 Coeff-Com: -0.238D-01 0.130D+00 0.893D+00
 Coeff-En:   0.000D+00 0.000D+00 0.100D+01
 Coeff:     -0.231D-01 0.127D+00 0.897D+00
 Gap=     0.629 Goal=   None    Shift=    0.000
 RMSDP=3.27D-04 MaxDP=1.04D-02 DE=-6.27D-02 OVMax= 1.00D-02

 Cycle   4  Pass 1  IDiag  1:
 E= -271.202987168941     Delta-E=       -0.003161788807 Rises=F Damp=F
 DIIS: error= 6.99D-04 at cycle   4 NSaved=   4.
 NSaved= 4 IEnMin= 4 EnMin= -271.202987168941     IErMin= 4 ErrMin= 6.99D-04
 ErrMax= 6.99D-04  0.00D+00 EMaxC= 1.00D-01 BMatC= 1.00D-04 BMatP= 3.37D-03
 IDIUse=3 WtCom= 9.93D-01 WtEn= 6.99D-03
 Coeff-Com: -0.672D-02 0.820D-02 0.157D+00 0.841D+00
 Coeff-En:   0.000D+00 0.000D+00 0.000D+00 0.100D+01
 Coeff:     -0.668D-02 0.815D-02 0.156D+00 0.842D+00
 Gap=     0.631 Goal=   None    Shift=    0.000
 RMSDP=8.29D-05 MaxDP=2.45D-03 DE=-3.16D-03 OVMax= 1.94D-03

 Cycle   5  Pass 1  IDiag  1:
 E= -271.203085877917     Delta-E=       -0.000098708976 Rises=F Damp=F
 DIIS: error= 1.75D-04 at cycle   5 NSaved=   5.
 NSaved= 5 IEnMin= 5 EnMin= -271.203085877917     IErMin= 5 ErrMin= 1.75D-04
 ErrMax= 1.75D-04  0.00D+00 EMaxC= 1.00D-01 BMatC= 1.17D-05 BMatP= 1.00D-04
 IDIUse=3 WtCom= 9.98D-01 WtEn= 1.75D-03
 Coeff-Com:  0.193D-02-0.150D-01-0.847D-01 0.116D+00 0.982D+00
 Coeff-En:   0.000D+00 0.000D+00 0.000D+00 0.000D+00 0.100D+01
 Coeff:      0.192D-02-0.149D-01-0.845D-01 0.116D+00 0.982D+00
 Gap=     0.631 Goal=   None    Shift=    0.000
 RMSDP=3.35D-05 MaxDP=7.81D-04 DE=-9.87D-05 OVMax= 8.09D-04

 Cycle   6  Pass 1  IDiag  1:
 E= -271.203100768731     Delta-E=       -0.000014890814 Rises=F Damp=F
 DIIS: error= 4.56D-05 at cycle   6 NSaved=   6.
 NSaved= 6 IEnMin= 6 EnMin= -271.203100768731     IErMin= 6 ErrMin= 4.56D-05
 ErrMax= 4.56D-05  0.00D+00 EMaxC= 1.00D-01 BMatC= 3.79D-07 BMatP= 1.17D-05
 IDIUse=1 WtCom= 1.00D+00 WtEn= 0.00D+00
 Coeff-Com:  0.636D-03-0.279D-02-0.198D-01-0.303D-01 0.118D+00 0.934D+00
 Coeff:      0.636D-03-0.279D-02-0.198D-01-0.303D-01 0.118D+00 0.934D+00
 Gap=     0.631 Goal=   None    Shift=    0.000
 RMSDP=7.25D-06 MaxDP=1.38D-04 DE=-1.49D-05 OVMax= 1.68D-04

 Cycle   7  Pass 1  IDiag  1:
 E= -271.203101325408     Delta-E=       -0.000000556677 Rises=F Damp=F
 DIIS: error= 8.76D-06 at cycle   7 NSaved=   7.
 NSaved= 7 IEnMin= 7 EnMin= -271.203101325408     IErMin= 7 ErrMin= 8.76D-06
 ErrMax= 8.76D-06  0.00D+00 EMaxC= 1.00D-01 BMatC= 2.13D-08 BMatP= 3.79D-07
 IDIUse=1 WtCom= 1.00D+00 WtEn= 0.00D+00
 Coeff-Com:  0.784D-05 0.201D-03 0.960D-03-0.101D-01-0.259D-01 0.121D+00
 Coeff-Com:  0.914D+00
 Coeff:      0.784D-05 0.201D-03 0.960D-03-0.101D-01-0.259D-01 0.121D+00
 Coeff:      0.914D+00
 Gap=     0.631 Goal=   None    Shift=    0.000
 RMSDP=1.77D-06 MaxDP=3.88D-05 DE=-5.57D-07 OVMax= 4.62D-05

 Cycle   8  Pass 1  IDiag  1:
 E= -271.203101357711     Delta-E=       -0.000000032302 Rises=F Damp=F
 DIIS: error= 2.69D-06 at cycle   8 NSaved=   8.
 NSaved= 8 IEnMin= 8 EnMin= -271.203101357711     IErMin= 8 ErrMin= 2.69D-06
 ErrMax= 2.69D-06  0.00D+00 EMaxC= 1.00D-01 BMatC= 1.83D-09 BMatP= 2.13D-08
 IDIUse=1 WtCom= 1.00D+00 WtEn= 0.00D+00
 Coeff-Com: -0.522D-04 0.245D-03 0.180D-02 0.219D-02-0.101D-01-0.825D-01
 Coeff-Com:  0.149D-01 0.107D+01
 Coeff:     -0.522D-04 0.245D-03 0.180D-02 0.219D-02-0.101D-01-0.825D-01
 Coeff:      0.149D-01 0.107D+01
 Gap=     0.631 Goal=   None    Shift=    0.000
 RMSDP=5.92D-07 MaxDP=1.39D-05 DE=-3.23D-08 OVMax= 1.77D-05

 Cycle   9  Pass 1  IDiag  1:
 E= -271.203101361347     Delta-E=       -0.000000003636 Rises=F Damp=F
 DIIS: error= 8.28D-07 at cycle   9 NSaved=   9.
 NSaved= 9 IEnMin= 9 EnMin= -271.203101361347     IErMin= 9 ErrMin= 8.28D-07
 ErrMax= 8.28D-07  0.00D+00 EMaxC= 1.00D-01 BMatC= 1.17D-10 BMatP= 1.83D-09
 IDIUse=1 WtCom= 1.00D+00 WtEn= 0.00D+00
 Coeff-Com:  0.205D-05-0.271D-04-0.175D-03 0.435D-03 0.241D-02-0.569D-03
 Coeff-Com: -0.591D-01-0.805D-01 0.114D+01
 Coeff:      0.205D-05-0.271D-04-0.175D-03 0.435D-03 0.241D-02-0.569D-03
 Coeff:     -0.591D-01-0.805D-01 0.114D+01
 Gap=     0.631 Goal=   None    Shift=    0.000
 RMSDP=1.65D-07 MaxDP=4.06D-06 DE=-3.64D-09 OVMax= 5.42D-06

 Cycle  10  Pass 1  IDiag  1:
 E= -271.203101361635     Delta-E=       -0.000000000289 Rises=F Damp=F
 DIIS: error= 2.53D-07 at cycle  10 NSaved=  10.
 NSaved=10 IEnMin=10 EnMin= -271.203101361635     IErMin=10 ErrMin= 2.53D-07
 ErrMax= 2.53D-07  0.00D+00 EMaxC= 1.00D-01 BMatC= 9.64D-12 BMatP= 1.17D-10
 IDIUse=1 WtCom= 1.00D+00 WtEn= 0.00D+00
 Coeff-Com:  0.387D-05-0.186D-04-0.141D-03-0.190D-03 0.836D-03 0.682D-02
 Coeff-Com: -0.167D-02-0.890D-01-0.596D-02 0.109D+01
 Coeff:      0.387D-05-0.186D-04-0.141D-03-0.190D-03 0.836D-03 0.682D-02
 Coeff:     -0.167D-02-0.890D-01-0.596D-02 0.109D+01
 Gap=     0.631 Goal=   None    Shift=    0.000
 RMSDP=4.90D-08 MaxDP=1.41D-06 DE=-2.89D-10 OVMax= 1.64D-06

 Cycle  11  Pass 1  IDiag  1:
 E= -271.203101361659     Delta-E=       -0.000000000024 Rises=F Damp=F
 DIIS: error= 4.90D-08 at cycle  11 NSaved=  11.
 NSaved=11 IEnMin=11 EnMin= -271.203101361659     IErMin=11 ErrMin= 4.90D-08
 ErrMax= 4.90D-08  0.00D+00 EMaxC= 1.00D-01 BMatC= 7.35D-13 BMatP= 9.64D-12
 IDIUse=1 WtCom= 1.00D+00 WtEn= 0.00D+00
 Coeff-Com:  0.914D-07 0.730D-06 0.261D-05-0.487D-04-0.109D-03 0.518D-03
 Coeff-Com:  0.410D-02-0.778D-03-0.826D-01 0.102D+00 0.977D+00
 Coeff:      0.914D-07 0.730D-06 0.261D-05-0.487D-04-0.109D-03 0.518D-03
 Coeff:      0.410D-02-0.778D-03-0.826D-01 0.102D+00 0.977D+00
 Gap=     0.631 Goal=   None    Shift=    0.000
 RMSDP=1.05D-08 MaxDP=3.69D-07 DE=-2.41D-11 OVMax= 3.57D-07

 Cycle  12  Pass 1  IDiag  1:
 E= -271.203101361659     Delta-E=       -0.000000000000 Rises=F Damp=F
 DIIS: error= 2.19D-08 at cycle  12 NSaved=  12.
 NSaved=12 IEnMin=12 EnMin= -271.203101361659     IErMin=12 ErrMin= 2.19D-08
 ErrMax= 2.19D-08  0.00D+00 EMaxC= 1.00D-01 BMatC= 5.27D-14 BMatP= 7.35D-13
 IDIUse=1 WtCom= 1.00D+00 WtEn= 0.00D+00
 Coeff-Com: -0.340D-06 0.166D-05 0.123D-04 0.217D-04-0.687D-04-0.678D-03
 Coeff-Com: -0.115D-03 0.827D-02 0.394D-02-0.984D-01-0.623D-01 0.115D+01
 Coeff:     -0.340D-06 0.166D-05 0.123D-04 0.217D-04-0.687D-04-0.678D-03
 Coeff:     -0.115D-03 0.827D-02 0.394D-02-0.984D-01-0.623D-01 0.115D+01
 Gap=     0.631 Goal=   None    Shift=    0.000
 RMSDP=3.74D-09 MaxDP=1.43D-07 DE=-2.27D-13 OVMax= 1.48D-07

 SCF Done:  E(RHF) =  -271.203101362     A.U. after   12 cycles
            NFock= 12  Conv=0.37D-08     -V/T= 2.0017
 KE= 2.707455728543D+02 PE=-1.155889880221D+03 EE= 3.529406062061D+02
 Leave Link  502 at Sun Sep 19 19:55:19 2021, MaxMem=   524288000 cpu:               3.2 elap:               3.4
 (Enter /opt/gaussian/g16_legacy/l801.exe)
 ExpMin= 1.61D-01 ExpMax= 5.48D+03 ExpMxC= 8.25D+02 IAcc=3 IRadAn=         5 AccDes= 0.00D+00
 HarFok:  IExCor=  205 AccDes= 0.00D+00 IRadAn=         5 IDoV=-2 UseB2=F ITyADJ=14
 ICtDFT= 12500011 ScaDFX=  1.000000  1.000000  1.000000  1.000000
 Largest valence mixing into a core orbital is  2.03D-04
 Largest core mixing into a valence orbital is  3.26D-05
 Range of M.O.s used for correlation:     7   150
 NBasis=   150 NAE=    25 NBE=    25 NFC=     6 NFV=     0
 NROrb=    144 NOA=    19 NOB=    19 NVA=   125 NVB=   125
 Leave Link  801 at Sun Sep 19 19:55:20 2021, MaxMem=   524288000 cpu:               0.6 elap:               0.8
 (Enter /opt/gaussian/g16_legacy/l906.exe)
 Frozen-core derivative calculation, NFC=   6 NFV=   0.
 FulOut=F Deriv=T AODrv=T NAtomX=    18
   MMem=         315  MDisk=          19 MDiskD=          19
  W3Min=      562500 MinDsk=      807575 NBas6D=         150
 NBas2D=       11523    NTT=       11325    LW2=     2040000
    MDV=   524000771 MDiskM=       48333 NBas2p=       11036
 Fully direct method using O(ONN) memory.
 IMap=   1   2   3   4   5   6   7   8   9  10  11  12  13  14  15  16  17  18  19  20
 IMap=  21  22  23  24  25
 JobTyp=1 Pass  1:  I=   7 to  25 NPSUse=  1 ParTrn=F ParDer=F DoDerP=T.
 Spin components of T(2) and E(2):
     alpha-alpha T2 =       0.3392967252D-01 E2=     -0.1061520215D+00
     alpha-beta  T2 =       0.2152614906D+00 E2=     -0.7041703708D+00
     beta-beta   T2 =       0.3392967252D-01 E2=     -0.1061520215D+00
 The integrals were generated   1 times.
 ANorm=    0.1132749238D+01
 E2 =    -0.9164744137D+00 EUMP2 =    -0.27211957577533D+03
 Leave Link  906 at Sun Sep 19 19:55:40 2021, MaxMem=   524288000 cpu:              19.9 elap:              20.0
 (Enter /opt/gaussian/g16_legacy/l1002.exe)
 Minotr:  Closed shell wavefunction.
          Computing MP2/KS-MP2 derivatives.
          Using Z-Vector for PSCF gradient.
          Skipping F1 and S1 gradient terms here.
          IDoAtm=111111111111111111
          Frozen-core window.
          Direct CPHF calculation.
          Differentiating once with respect to electric field.
                with respect to dipole field.
          Differentiating once with respect to nuclear coordinates.
          Requested convergence is 1.0D-10 RMS, and 1.0D-09 maximum.
          NewPWx=F KeepS1=T KeepF1=T KeepIn=T MapXYZ=F SortEE=F KeepMc=T.
 Keep R1 ints in memory in canonical form, NReq=65858022.
 FoFCou: FMM=F IPFlag=           0 FMFlag=           0 FMFlg1=           0
         NFxFlg=           0 DoJE=F BraDBF=F KetDBF=F FulRan=T
         wScrn=  0.000000 ICntrl=       600 IOpCl=  0 I1Cent=           0 NGrid=           0
         NMat0=    1 NMatS0=  11325 NMatT0=    0 NMatD0=    1 NMtDS0=    0 NMtDT0=    0
 Symmetry not used in FoFCou.
 Two-electron integral symmetry not used.
          MDV=     524288000 using IRadAn=       5.
          Solving linear equations separately, MaxMat=       0.
          There are     1 degrees of freedom in the 1st order CPHF.  IDoFFX=0 NUNeed=     1.
 LinEq1:  Iter=  0 NonCon=     1 RMS=2.93D-03 Max=2.14D-02 NDo=     1
 AX will form     1 AO Fock derivatives at one time.
 LinEq1:  Iter=  1 NonCon=     1 RMS=8.91D-04 Max=7.59D-03 NDo=     1
 LinEq1:  Iter=  2 NonCon=     1 RMS=1.99D-04 Max=2.17D-03 NDo=     1
 LinEq1:  Iter=  3 NonCon=     1 RMS=7.23D-05 Max=7.09D-04 NDo=     1
 LinEq1:  Iter=  4 NonCon=     1 RMS=1.67D-05 Max=1.62D-04 NDo=     1
 LinEq1:  Iter=  5 NonCon=     1 RMS=4.01D-06 Max=4.06D-05 NDo=     1
 LinEq1:  Iter=  6 NonCon=     1 RMS=1.11D-06 Max=1.09D-05 NDo=     1
 LinEq1:  Iter=  7 NonCon=     1 RMS=3.17D-07 Max=2.82D-06 NDo=     1
 LinEq1:  Iter=  8 NonCon=     1 RMS=7.54D-08 Max=9.33D-07 NDo=     1
 LinEq1:  Iter=  9 NonCon=     1 RMS=1.89D-08 Max=2.23D-07 NDo=     1
 LinEq1:  Iter= 10 NonCon=     1 RMS=5.45D-09 Max=4.74D-08 NDo=     1
 LinEq1:  Iter= 11 NonCon=     1 RMS=1.52D-09 Max=1.37D-08 NDo=     1
 LinEq1:  Iter= 12 NonCon=     1 RMS=2.97D-10 Max=2.88D-09 NDo=     1
 LinEq1:  Iter= 13 NonCon=     0 RMS=6.45D-11 Max=6.87D-10 NDo=     1
 Linear equations converged to 1.000D-10 1.000D-09 after    13 iterations.
 End of Minotr F.D. properties file   721 does not exist.
 End of Minotr F.D. properties file   722 does not exist.
 End of Minotr F.D. properties file   788 does not exist.
 Leave Link 1002 at Sun Sep 19 19:55:44 2021, MaxMem=   524288000 cpu:               3.4 elap:               3.7
 (Enter /opt/gaussian/g16_legacy/l601.exe)
 Copying SCF densities to generalized density rwf, IOpCl= 0 IROHF=0.

 **********************************************************************

            Population analysis using the SCF density.

 **********************************************************************

 Orbital symmetries:
       Occupied  (A) (A) (A) (A) (A) (A) (A) (A) (A) (A) (A) (A)
                 (A) (A) (A) (A) (A) (A) (A) (A) (A) (A) (A) (A)
                 (A)
       Virtual   (A) (A) (A) (A) (A) (A) (A) (A) (A) (A) (A) (A)
                 (A) (A) (A) (A) (A) (A) (A) (A) (A) (A) (A) (A)
                 (A) (A) (A) (A) (A) (A) (A) (A) (A) (A) (A) (A)
                 (A) (A) (A) (A) (A) (A) (A) (A) (A) (A) (A) (A)
                 (A) (A) (A) (A) (A) (A) (A) (A) (A) (A) (A) (A)
                 (A) (A) (A) (A) (A) (A) (A) (A) (A) (A) (A) (A)
                 (A) (A) (A) (A) (A) (A) (A) (A) (A) (A) (A) (A)
                 (A) (A) (A) (A) (A) (A) (A) (A) (A) (A) (A) (A)
                 (A) (A) (A) (A) (A) (A) (A) (A) (A) (A) (A) (A)
                 (A) (A) (A) (A) (A) (A) (A) (A) (A) (A) (A) (A)
                 (A) (A) (A) (A) (A)
 The electronic state is 1-A.
 Alpha  occ. eigenvalues --  -20.55405 -11.27455 -11.22031 -11.21881 -11.21617
 Alpha  occ. eigenvalues --  -11.20496  -1.34993  -1.06661  -1.01803  -0.91527
 Alpha  occ. eigenvalues --   -0.83731  -0.76578  -0.69550  -0.63254  -0.60973
 Alpha  occ. eigenvalues --   -0.58961  -0.57541  -0.53624  -0.52792  -0.50579
 Alpha  occ. eigenvalues --   -0.49588  -0.48284  -0.47001  -0.44763  -0.42069
 Alpha virt. eigenvalues --    0.21021   0.25323   0.26593   0.27293   0.29381
 Alpha virt. eigenvalues --    0.31059   0.32422   0.32585   0.33213   0.34542
 Alpha virt. eigenvalues --    0.36309   0.37436   0.40913   0.41991   0.43794
 Alpha virt. eigenvalues --    0.45011   0.46482   0.68938   0.71890   0.74937
 Alpha virt. eigenvalues --    0.75826   0.76846   0.80297   0.81211   0.89742
 Alpha virt. eigenvalues --    0.90952   0.93313   0.94397   0.95839   1.03232
 Alpha virt. eigenvalues --    1.05574   1.08665   1.09701   1.09960   1.13200
 Alpha virt. eigenvalues --    1.13625   1.15691   1.16047   1.16575   1.18815
 Alpha virt. eigenvalues --    1.19455   1.20869   1.21566   1.23814   1.25293
 Alpha virt. eigenvalues --    1.30274   1.35021   1.44006   1.51393   1.53287
 Alpha virt. eigenvalues --    1.55928   1.61926   1.70681   1.78292   1.81367
 Alpha virt. eigenvalues --    1.86973   1.88497   1.90530   1.95189   1.96985
 Alpha virt. eigenvalues --    2.00687   2.04868   2.08788   2.17500   2.19468
 Alpha virt. eigenvalues --    2.20430   2.26156   2.30352   2.33760   2.35796
 Alpha virt. eigenvalues --    2.36746   2.38231   2.40969   2.41302   2.42812
 Alpha virt. eigenvalues --    2.44767   2.45471   2.48121   2.53388   2.57221
 Alpha virt. eigenvalues --    2.58918   2.60255   2.62860   2.66634   2.69407
 Alpha virt. eigenvalues --    2.72965   2.73923   2.79585   2.84875   2.85812
 Alpha virt. eigenvalues --    2.93444   2.97115   2.98959   3.01079   3.03596
 Alpha virt. eigenvalues --    3.05930   3.07263   3.10355   3.15905   3.17878
 Alpha virt. eigenvalues --    3.20594   3.23014   3.23612   3.25318   3.27357
 Alpha virt. eigenvalues --    3.34738   3.34886   3.55219   3.57966   3.66720
 Alpha virt. eigenvalues --    3.67880   3.72624   3.77836   3.81258   3.83987
 Alpha virt. eigenvalues --    3.86064   3.87157   3.93434   3.94633   4.35057
 Alpha virt. eigenvalues --    4.74227   4.83415   4.98801   5.06005   5.14330
          Condensed to atoms (all electrons):
               1          2          3          4          5          6
     1  C    4.937765   0.401052   0.405564   0.403752   0.328625  -0.043831
     2  H    0.401052   0.597017  -0.028672  -0.030669  -0.038956   0.004535
     3  H    0.405564  -0.028672   0.548014  -0.028791  -0.036050  -0.002478
     4  H    0.403752  -0.030669  -0.028791   0.589638  -0.038418  -0.004405
     5  C    0.328625  -0.038956  -0.036050  -0.038418   4.977848   0.409088
     6  H   -0.043831   0.004535  -0.002478  -0.004405   0.409088   0.582263
     7  H   -0.041576  -0.003427   0.004198  -0.003134   0.403607  -0.028270
     8  C   -0.049844  -0.004446  -0.005851   0.004603   0.372702  -0.039214
     9  H    0.004880  -0.000128   0.000097  -0.000068  -0.048611  -0.005709
    10  C   -0.007513   0.001342   0.000314  -0.000049  -0.059615   0.005280
    11  H    0.000159  -0.002385   0.000475   0.000045  -0.005148  -0.000116
    12  H    0.000598   0.000230   0.000009  -0.000028  -0.002969  -0.000082
    13  C   -0.000027   0.000016  -0.000037   0.000001   0.004435  -0.000108
    14  H   -0.000001  -0.000003   0.000000   0.000000  -0.000098  -0.000004
    15  H    0.000002   0.000003   0.000000  -0.000000  -0.000083   0.000002
    16  H    0.000015   0.000005  -0.000000  -0.000000  -0.000095  -0.000001
    17  O   -0.000554   0.000066   0.004138  -0.000007  -0.055897   0.001695
    18  H   -0.000115  -0.000019  -0.000152   0.000004   0.005854  -0.000169
               7          8          9         10         11         12
     1  C   -0.041576  -0.049844   0.004880  -0.007513   0.000159   0.000598
     2  H   -0.003427  -0.004446  -0.000128   0.001342  -0.002385   0.000230
     3  H    0.004198  -0.005851   0.000097   0.000314   0.000475   0.000009
     4  H   -0.003134   0.004603  -0.000068  -0.000049   0.000045  -0.000028
     5  C    0.403607   0.372702  -0.048611  -0.059615  -0.005148  -0.002969
     6  H   -0.028270  -0.039214  -0.005709   0.005280  -0.000116  -0.000082
     7  H    0.601094  -0.039793  -0.000824  -0.001960   0.000417   0.000765
     8  C   -0.039793   4.743948   0.423287   0.347334  -0.033184  -0.038077
     9  H   -0.000824   0.423287   0.632492  -0.059161   0.004586   0.001337
    10  C   -0.001960   0.347334  -0.059161   5.046198   0.406412   0.392765
    11  H    0.000417  -0.033184   0.004586   0.406412   0.576286  -0.027816
    12  H    0.000765  -0.038077   0.001337   0.392765  -0.027816   0.605255
    13  C   -0.000126  -0.049367  -0.005873   0.329702  -0.044829  -0.040521
    14  H    0.000008  -0.003759   0.003307  -0.042504   0.004697  -0.002835
    15  H   -0.000002   0.004177  -0.000086  -0.036903  -0.002774  -0.003875
    16  H   -0.000003  -0.005076   0.000768  -0.040287  -0.003687   0.004899
    17  O    0.002592   0.193319  -0.039251  -0.057629   0.000267   0.003295
    18  H   -0.000174  -0.023924  -0.006103  -0.005292  -0.000161  -0.000085
              13         14         15         16         17         18
     1  C   -0.000027  -0.000001   0.000002   0.000015  -0.000554  -0.000115
     2  H    0.000016  -0.000003   0.000003   0.000005   0.000066  -0.000019
     3  H   -0.000037   0.000000   0.000000  -0.000000   0.004138  -0.000152
     4  H    0.000001   0.000000  -0.000000  -0.000000  -0.000007   0.000004
     5  C    0.004435  -0.000098  -0.000083  -0.000095  -0.055897   0.005854
     6  H   -0.000108  -0.000004   0.000002  -0.000001   0.001695  -0.000169
     7  H   -0.000126   0.000008  -0.000002  -0.000003   0.002592  -0.000174
     8  C   -0.049367  -0.003759   0.004177  -0.005076   0.193319  -0.023924
     9  H   -0.005873   0.003307  -0.000086   0.000768  -0.039251  -0.006103
    10  C    0.329702  -0.042504  -0.036903  -0.040287  -0.057629  -0.005292
    11  H   -0.044829   0.004697  -0.002774  -0.003687   0.000267  -0.000161
    12  H   -0.040521  -0.002835  -0.003875   0.004899   0.003295  -0.000085
    13  C    4.954462   0.398704   0.407554   0.397352  -0.000910   0.003291
    14  H    0.398704   0.594624  -0.027275  -0.032481  -0.000061   0.000065
    15  H    0.407554  -0.027275   0.565216  -0.027779   0.000080  -0.000038
    16  H    0.397352  -0.032481  -0.027779   0.596142   0.003910   0.000501
    17  O   -0.000910  -0.000061   0.000080   0.003910   8.302470   0.305799
    18  H    0.003291   0.000065  -0.000038   0.000501   0.305799   0.376716
 Mulliken charges:
               1
     1  C   -0.338952
     2  H    0.104438
     3  H    0.139220
     4  H    0.107524
     5  C   -0.216218
     6  H    0.121523
     7  H    0.106608
     8  C    0.203167
     9  H    0.095058
    10  C   -0.218433
    11  H    0.126757
    12  H    0.107136
    13  C   -0.353721
    14  H    0.107615
    15  H    0.121780
    16  H    0.105816
    17  O   -0.663322
    18  H    0.344002
 Sum of Mulliken charges =  -0.00000
 Mulliken charges with hydrogens summed into heavy atoms:
               1
     1  C    0.012231
     5  C    0.011913
     8  C    0.298225
    10  C    0.015460
    13  C   -0.018509
    17  O   -0.319320
 Electronic spatial extent (au):  <R**2>=            747.3633
 Charge=             -0.0000 electrons
 Dipole moment (field-independent basis, Debye):
    X=              1.3193    Y=             -0.5768    Z=              0.8851  Tot=              1.6901
 Quadrupole moment (field-independent basis, Debye-Ang):
   XX=            -38.8318   YY=            -40.2424   ZZ=            -40.3729
   XY=              2.4948   XZ=             -0.7256   YZ=              0.7809
 Traceless Quadrupole moment (field-independent basis, Debye-Ang):
   XX=              0.9839   YY=             -0.4267   ZZ=             -0.5572
   XY=              2.4948   XZ=             -0.7256   YZ=              0.7809
 Octapole moment (field-independent basis, Debye-Ang**2):
  XXX=             -0.6703  YYY=              7.8299  ZZZ=             -0.8720  XYY=              7.3308
  XXY=              5.6049  XXZ=             -0.4304  XZZ=              1.2500  YZZ=              2.0083
  YYZ=              0.2090  XYZ=             -0.3667
 Hexadecapole moment (field-independent basis, Debye-Ang**3):
 XXXX=           -682.0265 YYYY=           -197.5667 ZZZZ=           -133.5351 XXXY=              0.7659
 XXXZ=             -4.3314 YYYX=             11.8976 YYYZ=             -3.2392 ZZZX=              0.4591
 ZZZY=             -2.4258 XXYY=           -138.6947 XXZZ=           -135.3965 YYZZ=            -54.6664
 XXYZ=             -1.7745 YYXZ=             -4.0468 ZZXY=              0.5314
 N-N= 2.610005997988D+02 E-N=-1.155889880065D+03  KE= 2.707455728543D+02
 No NMR shielding tensors so no spin-rotation constants.
 Leave Link  601 at Sun Sep 19 19:55:44 2021, MaxMem=   524288000 cpu:               0.1 elap:               0.4
 (Enter /opt/gaussian/g16_legacy/l701.exe)
 ... and contract with generalized density number  2.
 Compute integral first derivatives.
 Leave Link  701 at Sun Sep 19 19:55:45 2021, MaxMem=   524288000 cpu:               0.1 elap:               0.3
 (Enter /opt/gaussian/g16_legacy/l702.exe)
 L702 exits ... SP integral derivatives will be done elsewhere.
 Leave Link  702 at Sun Sep 19 19:55:45 2021, MaxMem=   524288000 cpu:               0.0 elap:               0.1
 (Enter /opt/gaussian/g16_legacy/l703.exe)
 Integral derivatives from FoFJK, PRISM(SPDF).
 Compute integral first derivatives, UseDBF=F ICtDFT=           0.
 Calling FoFJK, ICntrl=  10002127 FMM=F ISym2X=0 I1Cent= 0 IOpClX= 0 NMat=1 NMatS=1 NMatT=0.
 FoFJK:  IHMeth= 1 ICntrl=10002127 DoSepK=F KAlg= 0 I1Cent=           0 FoldK=F
 IRaf=         0 NMat=       1 IRICut=       1 DoRegI=T DoRafI=F ISym2E= 0 IDoP0=0 IntGTp=1.
 FoFCou: FMM=F IPFlag=           0 FMFlag=      100000 FMFlg1=         800
         NFxFlg=           0 DoJE=F BraDBF=F KetDBF=F FulRan=T
         wScrn=  0.000000 ICntrl=  10002127 IOpCl=  0 I1Cent=           0 NGrid=           0
         NMat0=    1 NMatS0=      1 NMatT0=    0 NMatD0=    1 NMtDS0=    0 NMtDT0=    0
 Symmetry not used in FoFCou.
 Leave Link  703 at Sun Sep 19 19:55:50 2021, MaxMem=   524288000 cpu:               5.0 elap:               5.3
 (Enter /opt/gaussian/g16_legacy/l716.exe)
 Dipole        = 4.88015254D-01-1.76658224D-01 2.99085366D-01
 ***** Axes restored to original set *****
 -------------------------------------------------------------------
 Center     Atomic                   Forces (Hartrees/Bohr)
 Number     Number              X              Y              Z
 -------------------------------------------------------------------
      1        6          -0.001519508   -0.002010850    0.005166041
      2        1          -0.000984763   -0.002317834   -0.002291790
      3        1           0.000123375    0.004948281   -0.000908172
      4        1           0.003000453    0.000184817    0.000622162
      5        6          -0.000011568   -0.007860140   -0.002862843
      6        1           0.003766045    0.003374486    0.001087184
      7        1           0.004213361   -0.001540891   -0.000933726
      8        6          -0.002943355    0.005713570    0.004254171
      9        1          -0.000443660    0.006085475    0.000666986
     10        6           0.001514204    0.000520115    0.000748393
     11        1          -0.003542083    0.000898936   -0.005356520
     12        1          -0.000808697   -0.002456275   -0.000550936
     13        6           0.003481441    0.002108112    0.000190484
     14        1           0.000150602   -0.000912333    0.002103801
     15        1           0.000689024   -0.002414863   -0.003554617
     16        1          -0.001309070    0.002843058    0.000004437
     17        8           0.003403206   -0.008282319   -0.000129131
     18        1          -0.008779007    0.001118656    0.001744076
 -------------------------------------------------------------------
 Cartesian Forces:  Max     0.008779007 RMS     0.003216089
 Leave Link  716 at Sun Sep 19 19:55:50 2021, MaxMem=   524288000 cpu:               0.0 elap:               0.3
 (Enter /opt/gaussian/g16_legacy/l103.exe)

 GradGradGradGradGradGradGradGradGradGradGradGradGradGradGradGradGradGrad
 Berny optimization.
 FormGI is forming the generalized inverse of G from B-inverse, IUseBI=4.
 Internal  Forces:  Max     0.008944742 RMS     0.002628503
 Search for a local minimum.
 Step number   1 out of a maximum of   97
 All quantities printed in internal units (Hartrees-Bohrs-Radians)
 RMS Force = .26285D-02 SwitMx=.10000D-02 MixMth= 1
 Mixed Optimization -- RFO/linear search
 Second derivative matrix not updated -- first step.
 ITU=  0
     Eigenvalues ---    0.00308   0.00326   0.00442   0.00455   0.01360
     Eigenvalues ---    0.03404   0.03563   0.04188   0.04765   0.04832
     Eigenvalues ---    0.04862   0.05470   0.05520   0.05684   0.05702
     Eigenvalues ---    0.07442   0.08375   0.08593   0.12221   0.12394
     Eigenvalues ---    0.16000   0.16000   0.16000   0.16000   0.16000
     Eigenvalues ---    0.16000   0.16000   0.16874   0.19861   0.21959
     Eigenvalues ---    0.21971   0.28998   0.29128   0.29936   0.30034
     Eigenvalues ---    0.33953   0.34076   0.34085   0.34114   0.34116
     Eigenvalues ---    0.34278   0.34294   0.34318   0.34322   0.34326
     Eigenvalues ---    0.34374   0.41708   0.52917
 RFO step:  Lambda=-3.23499436D-03 EMin= 3.07538308D-03
 Linear search not attempted -- first point.
 Iteration  1 RMS(Cart)=  0.03218625 RMS(Int)=  0.00045049
 Iteration  2 RMS(Cart)=  0.00050134 RMS(Int)=  0.00019543
 Iteration  3 RMS(Cart)=  0.00000011 RMS(Int)=  0.00019543
 ITry= 1 IFail=0 DXMaxC= 1.17D-01 DCOld= 1.00D+10 DXMaxT= 3.00D-01 DXLimC= 3.00D+00 Rises=F
 Variable       Old X    -DE/DX   Delta X   Delta X   Delta X     New X
                                 (Linear)    (Quad)   (Total)
    R1        2.06703  -0.00325   0.00000  -0.00937  -0.00937   2.05766
    R2        2.06863  -0.00471   0.00000  -0.01361  -0.01361   2.05502
    R3        2.06790  -0.00305   0.00000  -0.00881  -0.00881   2.05909
    R4        2.88092   0.00137   0.00000   0.00453   0.00453   2.88545
    R5        2.07409  -0.00362   0.00000  -0.01057  -0.01057   2.06352
    R6        2.07138  -0.00283   0.00000  -0.00823  -0.00823   2.06315
    R7        2.90008  -0.00860   0.00000  -0.02932  -0.02932   2.87076
    R8        2.07187   0.00197   0.00000   0.00572   0.00572   2.07758
    R9        2.89737  -0.00473   0.00000  -0.01606  -0.01606   2.88131
   R10        2.69296   0.00509   0.00000   0.01210   0.01210   2.70506
   R11        2.07202  -0.00402   0.00000  -0.01169  -0.01169   2.06032
   R12        2.07134  -0.00201   0.00000  -0.00582  -0.00582   2.06552
   R13        2.87896   0.00311   0.00000   0.01023   0.01023   2.88920
   R14        2.06797  -0.00211   0.00000  -0.00610  -0.00610   2.06187
   R15        2.06837  -0.00383   0.00000  -0.01107  -0.01107   2.05730
   R16        2.06783  -0.00312   0.00000  -0.00902  -0.00902   2.05881
   R17        1.83731  -0.00894   0.00000  -0.01680  -0.01680   1.82051
    A1        1.89310  -0.00005   0.00000  -0.00482  -0.00481   1.88829
    A2        1.87624  -0.00067   0.00000   0.00001  -0.00007   1.87618
    A3        1.94600   0.00166   0.00000   0.00983   0.00980   1.95580
    A4        1.88154   0.00104   0.00000   0.00696   0.00699   1.88853
    A5        1.94525  -0.00253   0.00000  -0.01762  -0.01760   1.92765
    A6        1.91922   0.00059   0.00000   0.00608   0.00605   1.92527
    A7        1.87619   0.00276   0.00000   0.03275   0.03263   1.90882
    A8        1.90648   0.00227   0.00000   0.01937   0.01912   1.92560
    A9        1.99562  -0.00102   0.00000  -0.00449  -0.00436   1.99125
   A10        1.86989  -0.00017   0.00000  -0.00033  -0.00122   1.86867
   A11        1.89467  -0.00167   0.00000  -0.01725  -0.01732   1.87735
   A12        1.91652  -0.00207   0.00000  -0.02881  -0.02884   1.88769
   A13        1.88570   0.00046   0.00000  -0.00291  -0.00267   1.88303
   A14        1.96759   0.00423   0.00000   0.00941   0.00944   1.97703
   A15        1.89147  -0.00741   0.00000  -0.04402  -0.04387   1.84760
   A16        1.91217  -0.00416   0.00000  -0.02831  -0.02858   1.88359
   A17        1.87659   0.00375   0.00000   0.05041   0.05052   1.92710
   A18        1.92764   0.00308   0.00000   0.01728   0.01719   1.94483
   A19        1.92537  -0.00328   0.00000  -0.03188  -0.03203   1.89334
   A20        1.91168  -0.00052   0.00000  -0.01208  -0.01221   1.89947
   A21        1.97264  -0.00010   0.00000   0.00160   0.00173   1.97437
   A22        1.87944  -0.00024   0.00000  -0.00583  -0.00662   1.87282
   A23        1.87218   0.00360   0.00000   0.03758   0.03759   1.90977
   A24        1.89986   0.00063   0.00000   0.01147   0.01141   1.91127
   A25        1.93914   0.00087   0.00000   0.00557   0.00552   1.94466
   A26        1.91941   0.00284   0.00000   0.01867   0.01863   1.93803
   A27        1.94496  -0.00081   0.00000  -0.00648  -0.00646   1.93851
   A28        1.88717  -0.00158   0.00000  -0.00675  -0.00686   1.88032
   A29        1.89407  -0.00031   0.00000  -0.00423  -0.00422   1.88985
   A30        1.87705  -0.00114   0.00000  -0.00750  -0.00746   1.86959
   A31        1.88186  -0.00214   0.00000  -0.01310  -0.01310   1.86876
    D1       -3.04903  -0.00142   0.00000  -0.00367  -0.00384  -3.05287
    D2       -1.02575   0.00106   0.00000   0.02374   0.02391  -1.00184
    D3        1.12951  -0.00062   0.00000  -0.00228  -0.00235   1.12716
    D4        1.11585  -0.00074   0.00000   0.00799   0.00784   1.12368
    D5        3.13913   0.00174   0.00000   0.03539   0.03558  -3.10847
    D6       -0.98879   0.00005   0.00000   0.00937   0.00932  -0.97947
    D7       -0.96966  -0.00081   0.00000   0.00656   0.00644  -0.96322
    D8        1.05362   0.00167   0.00000   0.03397   0.03419   1.08781
    D9       -3.07430  -0.00002   0.00000   0.00795   0.00793  -3.06637
   D10        3.07796   0.00127   0.00000   0.02017   0.02020   3.09816
   D11       -1.08962  -0.00096   0.00000  -0.01142  -0.01154  -1.10116
   D12        1.04954   0.00050   0.00000  -0.01448  -0.01458   1.03496
   D13        0.98362  -0.00040   0.00000  -0.00633  -0.00610   0.97752
   D14        3.09922  -0.00262   0.00000  -0.03792  -0.03783   3.06139
   D15       -1.04480  -0.00116   0.00000  -0.04097  -0.04088  -1.08567
   D16       -1.05537   0.00191   0.00000   0.02005   0.02007  -1.03531
   D17        1.06023  -0.00031   0.00000  -0.01155  -0.01167   1.04856
   D18       -3.08379   0.00115   0.00000  -0.01460  -0.01472  -3.09850
   D19        1.10624  -0.00330   0.00000  -0.03859  -0.03846   1.06777
   D20       -0.95955  -0.00071   0.00000  -0.00484  -0.00504  -0.96459
   D21       -3.08109  -0.00108   0.00000  -0.01196  -0.01205  -3.09314
   D22       -3.07648  -0.00282   0.00000  -0.05573  -0.05540  -3.13187
   D23        1.14092  -0.00023   0.00000  -0.02198  -0.02197   1.11895
   D24       -0.98062  -0.00060   0.00000  -0.02910  -0.02898  -1.00960
   D25       -1.01252   0.00109   0.00000  -0.00088  -0.00080  -1.01332
   D26       -3.07831   0.00367   0.00000   0.03287   0.03263  -3.04568
   D27        1.08334   0.00330   0.00000   0.02575   0.02562   1.10896
   D28        2.92230  -0.00120   0.00000   0.00288   0.00256   2.92486
   D29        0.88799   0.00012   0.00000   0.00248   0.00325   0.89124
   D30       -1.19761   0.00111   0.00000  -0.00373  -0.00418  -1.20179
   D31        0.99420   0.00022   0.00000  -0.00088  -0.00093   0.99327
   D32        3.08297   0.00065   0.00000   0.00641   0.00642   3.08939
   D33       -1.12037   0.00057   0.00000   0.00512   0.00509  -1.11528
   D34        3.12025  -0.00147   0.00000  -0.01387  -0.01397   3.10628
   D35       -1.07417  -0.00104   0.00000  -0.00657  -0.00662  -1.08078
   D36        1.00568  -0.00112   0.00000  -0.00787  -0.00795   0.99773
   D37       -1.13398   0.00050   0.00000   0.00526   0.00533  -1.12865
   D38        0.95478   0.00093   0.00000   0.01255   0.01269   0.96747
   D39        3.03463   0.00085   0.00000   0.01126   0.01136   3.04598
         Item               Value     Threshold  Converged?
 Maximum Force            0.008945     0.000450     NO 
 RMS     Force            0.002629     0.000300     NO 
 Maximum Displacement     0.117478     0.001800     NO 
 RMS     Displacement     0.032195     0.001200     NO 
 Predicted change in Energy=-1.666985D-03
 Lowest energy point so far.  Saving SCF results.
 GradGradGradGradGradGradGradGradGradGradGradGradGradGradGradGradGradGrad

 Leave Link  103 at Sun Sep 19 19:55:51 2021, MaxMem=   524288000 cpu:               0.0 elap:               0.2
 (Enter /opt/gaussian/g16_legacy/l202.exe)
                          Input orientation:                          
 ---------------------------------------------------------------------
 Center     Atomic      Atomic             Coordinates (Angstroms)
 Number     Number       Type             X           Y           Z
 ---------------------------------------------------------------------
      1          6           0       -2.272433    1.116287    2.483244
      2          1           0       -2.057039    1.606953    3.431129
      3          1           0       -1.904713    0.094380    2.538682
      4          1           0       -3.355684    1.082626    2.370494
      5          6           0       -1.639105    1.847707    1.301979
      6          1           0       -1.955791    1.373711    0.370618
      7          1           0       -1.983843    2.883066    1.267956
      8          6           0       -0.120082    1.854879    1.319316
      9          1           0        0.225654    2.364013    0.408300
     10          6           0        0.465292    2.591293    2.519239
     11          1           0        0.135915    2.087459    3.428284
     12          1           0        0.058162    3.605365    2.543822
     13          6           0        1.992725    2.654735    2.498094
     14          1           0        2.359499    3.122299    1.583026
     15          1           0        2.371675    3.231498    3.340090
     16          1           0        2.427136    1.658240    2.570516
     17          8           0        0.277799    0.479910    1.304463
     18          1           0        1.222533    0.460878    1.116846
 ---------------------------------------------------------------------
                    Distance matrix (angstroms):
                    1          2          3          4          5
     1  C    0.000000
     2  H    1.088868   0.000000
     3  H    1.087467   1.762822   0.000000
     4  H    1.089623   1.756800   1.763586   0.000000
     5  C    1.526914   2.183097   2.161976   2.161878   0.000000
     6  H    2.151678   3.071055   2.517896   2.458441   1.091969
     7  H    2.163727   2.512597   3.065579   2.517761   1.091773
     8  C    2.555946   2.876287   2.787673   3.488620   1.519139
     9  H    3.478886   3.862813   3.772032   4.279970   2.131328
    10  C    3.109996   2.857030   3.442656   4.110725   2.542269
    11  H    2.763406   2.244981   2.987962   3.784160   2.780171
    12  H    3.410404   3.042210   4.022428   4.248364   2.740849
    13  C    4.534161   4.285906   4.663378   5.576135   3.907963
    14  H    5.127306   5.021709   5.316491   6.119125   4.206234
    15  H    5.174557   4.718150   5.363885   6.193578   4.706924
    16  H    4.731519   4.566301   4.605604   5.814838   4.263730
    17  O    2.880657   3.353267   2.536787   3.834304   2.354867
    18  H    3.809382   4.174325   3.454795   4.787304   3.185364
                    6          7          8          9         10
     6  H    0.000000
     7  H    1.756176   0.000000
     8  C    2.121645   2.129181   0.000000
     9  H    2.396001   2.426995   1.099409   0.000000
    10  C    3.458428   2.765702   1.524725   2.136621   0.000000
    11  H    3.772796   3.129438   2.137142   3.033948   1.090275
    12  H    3.709327   2.513830   2.143686   2.475776   1.093024
    13  C    4.664543   4.168749   2.548184   2.752144   1.528896
    14  H    4.811364   4.361321   2.797180   2.551132   2.178643
    15  H    5.567415   4.835875   3.491055   3.735416   2.172086
    16  H    4.912286   4.759579   2.844730   3.165409   2.173027
    17  O    2.580673   3.300230   1.431458   2.087024   2.443108
    18  H    3.389966   4.021278   1.945983   2.262240   2.660600
                   11         12         13         14         15
    11  H    0.000000
    12  H    1.758510   0.000000
    13  C    2.152859   2.155997   0.000000
    14  H    3.069234   2.540203   1.091095   0.000000
    15  H    2.513012   2.475109   1.088677   1.760496   0.000000
    16  H    2.483886   3.066601   1.089477   1.767252   1.752273
    17  O    2.667389   3.369381   3.015890   3.375395   4.012398
    18  H    3.028078   3.644149   2.704450   2.931412   3.733588
                   16         17         18
    16  H    0.000000
    17  O    2.758804   0.000000
    18  H    2.235598   0.963372   0.000000
 Stoichiometry    C5H12O
 Framework group  C1[X(C5H12O)]
 Deg. of freedom    48
 Full point group                 C1      NOp   1
 RotChk:  IX=0 Diff= 3.87D-02
 Largest Abelian subgroup         C1      NOp   1
 Largest concise Abelian subgroup C1      NOp   1
                         Standard orientation:                         
 ---------------------------------------------------------------------
 Center     Atomic      Atomic             Coordinates (Angstroms)
 Number     Number       Type             X           Y           Z
 ---------------------------------------------------------------------
      1          6           0       -2.101389   -0.521755   -0.597680
      2          1           0       -1.643446   -1.394583   -1.060382
      3          1           0       -2.064544    0.298864   -1.310289
      4          1           0       -3.147305   -0.761923   -0.408849
      5          6           0       -1.404297   -0.130245    0.703185
      6          1           0       -1.950976    0.689093    1.174590
      7          1           0       -1.412950   -0.966716    1.404763
      8          6           0        0.034752    0.322200    0.523704
      9          1           0        0.420542    0.620013    1.509186
     10          6           0        0.945567   -0.769935   -0.026243
     11          1           0        0.576660   -1.065336   -1.008763
     12          1           0        0.877720   -1.646261    0.623489
     13          6           0        2.405829   -0.332039   -0.142036
     14          1           0        2.798178    0.004910    0.818701
     15          1           0        3.033493   -1.151747   -0.487484
     16          1           0        2.515381    0.480254   -0.859766
     17          8           0       -0.016866    1.451507   -0.354403
     18          1           0        0.849400    1.872025   -0.325556
 ---------------------------------------------------------------------
 Rotational constants (GHZ):           5.7551389           2.1701279           1.9035943
 Leave Link  202 at Sun Sep 19 19:55:51 2021, MaxMem=   524288000 cpu:               0.0 elap:               0.0
 (Enter /opt/gaussian/g16_legacy/l301.exe)
 Standard basis: 6-31G(d,p) (6D, 7F)
 Ernie: Thresh=  0.10000D-02 Tol=  0.10000D-05 Strict=F.
 There are   150 symmetry adapted cartesian basis functions of A   symmetry.
 There are   150 symmetry adapted basis functions of A   symmetry.
   150 basis functions,   252 primitive gaussians,   150 cartesian basis functions
    25 alpha electrons       25 beta electrons
       nuclear repulsion energy       261.9410383127 Hartrees.
 IExCor=    0 DFT=F Ex=HF Corr=None ExCW=0 ScaHFX=  1.000000
 ScaDFX=  1.000000  1.000000  1.000000  1.000000 ScalE2=  1.000000  1.000000
 IRadAn=      5 IRanWt=     -1 IRanGd=            0 ICorTp=0 IEmpDi=  4
 NAtoms=   18 NActive=   18 NUniq=   18 SFac= 1.00D+00 NAtFMM=   60 NAOKFM=F Big=F
 Integral buffers will be    131072 words long.
 Raffenetti 1 integral format.
 Two-electron integral symmetry is turned on.
 Leave Link  301 at Sun Sep 19 19:55:51 2021, MaxMem=   524288000 cpu:               0.0 elap:               0.0
 (Enter /opt/gaussian/g16_legacy/l302.exe)
 NPDir=0 NMtPBC=     1 NCelOv=     1 NCel=       1 NClECP=     1 NCelD=      1
         NCelK=      1 NCelE2=     1 NClLst=     1 CellRange=     0.0.
 One-electron integrals computed using PRISM.
 One-electron integral symmetry used in STVInt
 NBasis=   150 RedAO= T EigKep=  3.39D-03  NBF=   150
 NBsUse=   150 1.00D-06 EigRej= -1.00D+00 NBFU=   150
 Leave Link  302 at Sun Sep 19 19:55:51 2021, MaxMem=   524288000 cpu:               0.1 elap:               0.1
 (Enter /opt/gaussian/g16_legacy/l303.exe)
 DipDrv:  MaxL=1.
 Leave Link  303 at Sun Sep 19 19:55:51 2021, MaxMem=   524288000 cpu:               0.0 elap:               0.0
 (Enter /opt/gaussian/g16_legacy/l401.exe)
 Initial guess from the checkpoint file:  "06-PVA_004_gaussian.chk"
 B after Tr=     0.000000   -0.000000   -0.000000
         Rot=    0.999917   -0.010216   -0.002664   -0.007438 Ang=  -1.48 deg.
 Guess basis will be translated and rotated to current coordinates.
 JPrj=2 DoOrth=T DoCkMO=T.
 Generating alternative initial guess.
 ExpMin= 1.61D-01 ExpMax= 5.48D+03 ExpMxC= 8.25D+02 IAcc=2 IRadAn=         4 AccDes= 0.00D+00
 Harris functional with IExCor=  205 and IRadAn=       4 diagonalized for initial guess.
 HarFok:  IExCor=  205 AccDes= 0.00D+00 IRadAn=         4 IDoV= 1 UseB2=F ITyADJ=14
 ICtDFT=  3500011 ScaDFX=  1.000000  1.000000  1.000000  1.000000
 FoFCou: FMM=F IPFlag=           0 FMFlag=      100000 FMFlg1=           0
         NFxFlg=           0 DoJE=T BraDBF=F KetDBF=T FulRan=T
         wScrn=  0.000000 ICntrl=       500 IOpCl=  0 I1Cent=   200000004 NGrid=           0
         NMat0=    1 NMatS0=      1 NMatT0=    0 NMatD0=    1 NMtDS0=    0 NMtDT0=    0
 Petite list used in FoFCou.
 Harris En= -271.800846278899    
 Leave Link  401 at Sun Sep 19 19:55:52 2021, MaxMem=   524288000 cpu:               1.2 elap:               1.2
 (Enter /opt/gaussian/g16_legacy/l502.exe)
 Keep R1 ints in memory in canonical form, NReq=65856006.
 FoFCou: FMM=F IPFlag=           0 FMFlag=           0 FMFlg1=           0
         NFxFlg=           0 DoJE=F BraDBF=F KetDBF=F FulRan=T
         wScrn=  0.000000 ICntrl=       600 IOpCl=  0 I1Cent=           0 NGrid=           0
         NMat0=    1 NMatS0=  11325 NMatT0=    0 NMatD0=    1 NMtDS0=    0 NMtDT0=    0
 Symmetry not used in FoFCou.
 Two-electron integral symmetry not used.
 Closed shell SCF:
 Using DIIS extrapolation, IDIIS=  1040.
 NGot=   524288000 LenX=   460106785 LenY=   460083844
 Requested convergence on RMS density matrix=1.00D-08 within 128 cycles.
 Requested convergence on MAX density matrix=1.00D-06.
 Requested convergence on             energy=1.00D-06.
 No special actions if energy rises.

 Cycle   1  Pass 1  IDiag  1:
 E= -271.203138022040    
 DIIS: error= 1.45D-03 at cycle   1 NSaved=   1.
 NSaved= 1 IEnMin= 1 EnMin= -271.203138022040     IErMin= 1 ErrMin= 1.45D-03
 ErrMax= 1.45D-03  0.00D+00 EMaxC= 1.00D-01 BMatC= 8.45D-04 BMatP= 8.45D-04
 IDIUse=3 WtCom= 9.85D-01 WtEn= 1.45D-02
 Coeff-Com:  0.100D+01
 Coeff-En:   0.100D+01
 Coeff:      0.100D+01
 Gap=     2.113 Goal=   None    Shift=    0.000
 GapD=    2.113 DampG=2.000 DampE=1.000 DampFc=2.0000 IDamp=-1.
 RMSDP=1.99D-04 MaxDP=3.33D-03              OVMax= 5.38D-03

 Cycle   2  Pass 1  IDiag  1:
 E= -271.204187058685     Delta-E=       -0.001049036645 Rises=F Damp=F
 DIIS: error= 4.14D-04 at cycle   2 NSaved=   2.
 NSaved= 2 IEnMin= 2 EnMin= -271.204187058685     IErMin= 2 ErrMin= 4.14D-04
 ErrMax= 4.14D-04  0.00D+00 EMaxC= 1.00D-01 BMatC= 4.92D-05 BMatP= 8.45D-04
 IDIUse=3 WtCom= 9.96D-01 WtEn= 4.14D-03
 Coeff-Com: -0.198D+00 0.120D+01
 Coeff-En:   0.000D+00 0.100D+01
 Coeff:     -0.198D+00 0.120D+01
 Gap=     0.634 Goal=   None    Shift=    0.000
 RMSDP=6.80D-05 MaxDP=1.17D-03 DE=-1.05D-03 OVMax= 2.31D-03

 Cycle   3  Pass 1  IDiag  1:
 E= -271.204278528247     Delta-E=       -0.000091469562 Rises=F Damp=F
 DIIS: error= 1.11D-04 at cycle   3 NSaved=   3.
 NSaved= 3 IEnMin= 3 EnMin= -271.204278528247     IErMin= 3 ErrMin= 1.11D-04
 ErrMax= 1.11D-04  0.00D+00 EMaxC= 1.00D-01 BMatC= 3.24D-06 BMatP= 4.92D-05
 IDIUse=3 WtCom= 9.99D-01 WtEn= 1.11D-03
 Coeff-Com: -0.389D-01 0.526D-01 0.986D+00
 Coeff-En:   0.000D+00 0.000D+00 0.100D+01
 Coeff:     -0.388D-01 0.525D-01 0.986D+00
 Gap=     0.634 Goal=   None    Shift=    0.000
 RMSDP=2.05D-05 MaxDP=3.34D-04 DE=-9.15D-05 OVMax= 6.69D-04

 Cycle   4  Pass 1  IDiag  1:
 E= -271.204284264080     Delta-E=       -0.000005735833 Rises=F Damp=F
 DIIS: error= 3.80D-05 at cycle   4 NSaved=   4.
 NSaved= 4 IEnMin= 4 EnMin= -271.204284264080     IErMin= 4 ErrMin= 3.80D-05
 ErrMax= 3.80D-05  0.00D+00 EMaxC= 1.00D-01 BMatC= 4.17D-07 BMatP= 3.24D-06
 IDIUse=1 WtCom= 1.00D+00 WtEn= 0.00D+00
 Coeff-Com:  0.133D-01-0.108D+00 0.117D+00 0.978D+00
 Coeff:      0.133D-01-0.108D+00 0.117D+00 0.978D+00
 Gap=     0.634 Goal=   None    Shift=    0.000
 RMSDP=8.06D-06 MaxDP=1.37D-04 DE=-5.74D-06 OVMax= 2.23D-04

 Cycle   5  Pass 1  IDiag  1:
 E= -271.204284976079     Delta-E=       -0.000000712000 Rises=F Damp=F
 DIIS: error= 8.78D-06 at cycle   5 NSaved=   5.
 NSaved= 5 IEnMin= 5 EnMin= -271.204284976079     IErMin= 5 ErrMin= 8.78D-06
 ErrMax= 8.78D-06  0.00D+00 EMaxC= 1.00D-01 BMatC= 1.90D-08 BMatP= 4.17D-07
 IDIUse=1 WtCom= 1.00D+00 WtEn= 0.00D+00
 Coeff-Com:  0.262D-02-0.487D-02-0.617D-01 0.144D-01 0.105D+01
 Coeff:      0.262D-02-0.487D-02-0.617D-01 0.144D-01 0.105D+01
 Gap=     0.634 Goal=   None    Shift=    0.000
 RMSDP=2.15D-06 MaxDP=4.68D-05 DE=-7.12D-07 OVMax= 6.93D-05

 Cycle   6  Pass 1  IDiag  1:
 E= -271.204285017818     Delta-E=       -0.000000041738 Rises=F Damp=F
 DIIS: error= 2.28D-06 at cycle   6 NSaved=   6.
 NSaved= 6 IEnMin= 6 EnMin= -271.204285017818     IErMin= 6 ErrMin= 2.28D-06
 ErrMax= 2.28D-06  0.00D+00 EMaxC= 1.00D-01 BMatC= 1.74D-09 BMatP= 1.90D-08
 IDIUse=1 WtCom= 1.00D+00 WtEn= 0.00D+00
 Coeff-Com: -0.780D-03 0.642D-02-0.752D-02-0.589D-01 0.989D-02 0.105D+01
 Coeff:     -0.780D-03 0.642D-02-0.752D-02-0.589D-01 0.989D-02 0.105D+01
 Gap=     0.634 Goal=   None    Shift=    0.000
 RMSDP=5.73D-07 MaxDP=1.44D-05 DE=-4.17D-08 OVMax= 1.68D-05

 Cycle   7  Pass 1  IDiag  1:
 E= -271.204285021264     Delta-E=       -0.000000003446 Rises=F Damp=F
 DIIS: error= 1.02D-06 at cycle   7 NSaved=   7.
 NSaved= 7 IEnMin= 7 EnMin= -271.204285021264     IErMin= 7 ErrMin= 1.02D-06
 ErrMax= 1.02D-06  0.00D+00 EMaxC= 1.00D-01 BMatC= 2.55D-10 BMatP= 1.74D-09
 IDIUse=1 WtCom= 1.00D+00 WtEn= 0.00D+00
 Coeff-Com: -0.491D-03 0.188D-02 0.639D-02-0.140D-01-0.127D+00 0.195D+00
 Coeff-Com:  0.938D+00
 Coeff:     -0.491D-03 0.188D-02 0.639D-02-0.140D-01-0.127D+00 0.195D+00
 Coeff:      0.938D+00
 Gap=     0.634 Goal=   None    Shift=    0.000
 RMSDP=1.95D-07 MaxDP=6.43D-06 DE=-3.45D-09 OVMax= 6.04D-06

 Cycle   8  Pass 1  IDiag  1:
 E= -271.204285021689     Delta-E=       -0.000000000425 Rises=F Damp=F
 DIIS: error= 2.83D-07 at cycle   8 NSaved=   8.
 NSaved= 8 IEnMin= 8 EnMin= -271.204285021689     IErMin= 8 ErrMin= 2.83D-07
 ErrMax= 2.83D-07  0.00D+00 EMaxC= 1.00D-01 BMatC= 1.61D-11 BMatP= 2.55D-10
 IDIUse=1 WtCom= 1.00D+00 WtEn= 0.00D+00
 Coeff-Com:  0.636D-04-0.527D-03 0.715D-03 0.478D-02-0.138D-02-0.838D-01
 Coeff-Com:  0.248D-01 0.106D+01
 Coeff:      0.636D-04-0.527D-03 0.715D-03 0.478D-02-0.138D-02-0.838D-01
 Coeff:      0.248D-01 0.106D+01
 Gap=     0.634 Goal=   None    Shift=    0.000
 RMSDP=5.56D-08 MaxDP=1.25D-06 DE=-4.25D-10 OVMax= 1.91D-06

 Cycle   9  Pass 1  IDiag  1:
 E= -271.204285021717     Delta-E=       -0.000000000028 Rises=F Damp=F
 DIIS: error= 7.81D-08 at cycle   9 NSaved=   9.
 NSaved= 9 IEnMin= 9 EnMin= -271.204285021717     IErMin= 9 ErrMin= 7.81D-08
 ErrMax= 7.81D-08  0.00D+00 EMaxC= 1.00D-01 BMatC= 1.65D-12 BMatP= 1.61D-11
 IDIUse=1 WtCom= 1.00D+00 WtEn= 0.00D+00
 Coeff-Com:  0.565D-04-0.251D-03-0.530D-03 0.197D-02 0.122D-01-0.288D-01
 Coeff-Com: -0.895D-01 0.104D+00 0.100D+01
 Coeff:      0.565D-04-0.251D-03-0.530D-03 0.197D-02 0.122D-01-0.288D-01
 Coeff:     -0.895D-01 0.104D+00 0.100D+01
 Gap=     0.634 Goal=   None    Shift=    0.000
 RMSDP=1.75D-08 MaxDP=4.30D-07 DE=-2.79D-11 OVMax= 7.17D-07

 Cycle  10  Pass 1  IDiag  1:
 E= -271.204285021724     Delta-E=       -0.000000000007 Rises=F Damp=F
 DIIS: error= 3.08D-08 at cycle  10 NSaved=  10.
 NSaved=10 IEnMin=10 EnMin= -271.204285021724     IErMin=10 ErrMin= 3.08D-08
 ErrMax= 3.08D-08  0.00D+00 EMaxC= 1.00D-01 BMatC= 1.31D-13 BMatP= 1.65D-12
 IDIUse=1 WtCom= 1.00D+00 WtEn= 0.00D+00
 Coeff-Com: -0.443D-05 0.397D-04-0.764D-04-0.343D-03 0.347D-03 0.652D-02
 Coeff-Com: -0.415D-02-0.904D-01 0.449D-01 0.104D+01
 Coeff:     -0.443D-05 0.397D-04-0.764D-04-0.343D-03 0.347D-03 0.652D-02
 Coeff:     -0.415D-02-0.904D-01 0.449D-01 0.104D+01
 Gap=     0.634 Goal=   None    Shift=    0.000
 RMSDP=5.09D-09 MaxDP=1.30D-07 DE=-7.05D-12 OVMax= 2.16D-07

 SCF Done:  E(RHF) =  -271.204285022     A.U. after   10 cycles
            NFock= 10  Conv=0.51D-08     -V/T= 2.0013
 KE= 2.708491855100D+02 PE=-1.157852276561D+03 EE= 3.538577677164D+02
 Leave Link  502 at Sun Sep 19 19:55:55 2021, MaxMem=   524288000 cpu:               2.9 elap:               2.9
 (Enter /opt/gaussian/g16_legacy/l801.exe)
 ExpMin= 1.61D-01 ExpMax= 5.48D+03 ExpMxC= 8.25D+02 IAcc=3 IRadAn=         5 AccDes= 0.00D+00
 HarFok:  IExCor=  205 AccDes= 0.00D+00 IRadAn=         5 IDoV=-2 UseB2=F ITyADJ=14
 ICtDFT= 12500011 ScaDFX=  1.000000  1.000000  1.000000  1.000000
 Largest valence mixing into a core orbital is  2.02D-04
 Largest core mixing into a valence orbital is  3.24D-05
 Range of M.O.s used for correlation:     7   150
 NBasis=   150 NAE=    25 NBE=    25 NFC=     6 NFV=     0
 NROrb=    144 NOA=    19 NOB=    19 NVA=   125 NVB=   125
 Leave Link  801 at Sun Sep 19 19:55:56 2021, MaxMem=   524288000 cpu:               0.6 elap:               0.6
 (Enter /opt/gaussian/g16_legacy/l906.exe)
 Frozen-core derivative calculation, NFC=   6 NFV=   0.
 FulOut=F Deriv=T AODrv=T NAtomX=    18
   MMem=         315  MDisk=          19 MDiskD=          19
  W3Min=      562500 MinDsk=      807575 NBas6D=         150
 NBas2D=       11523    NTT=       11325    LW2=     2040000
    MDV=   524000365 MDiskM=       48333 NBas2p=       11035
 Fully direct method using O(ONN) memory.
 IMap=   1   2   3   4   5   6   7   8   9  10  11  12  13  14  15  16  17  18  19  20
 IMap=  21  22  23  24  25
 JobTyp=1 Pass  1:  I=   7 to  25 NPSUse=  1 ParTrn=F ParDer=F DoDerP=T.
 Spin components of T(2) and E(2):
     alpha-alpha T2 =       0.3391474167D-01 E2=     -0.1063077200D+00
     alpha-beta  T2 =       0.2145764226D+00 E2=     -0.7040054903D+00
     beta-beta   T2 =       0.3391474167D-01 E2=     -0.1063077200D+00
 The integrals were generated   1 times.
 ANorm=    0.1132433621D+01
 E2 =    -0.9166209303D+00 EUMP2 =    -0.27212090595199D+03
 Leave Link  906 at Sun Sep 19 19:56:15 2021, MaxMem=   524288000 cpu:              19.9 elap:              19.9
 (Enter /opt/gaussian/g16_legacy/l1002.exe)
 Minotr:  Closed shell wavefunction.
          Computing MP2/KS-MP2 derivatives.
          Using Z-Vector for PSCF gradient.
          Skipping F1 and S1 gradient terms here.
          IDoAtm=111111111111111111
          Frozen-core window.
          Direct CPHF calculation.
          Differentiating once with respect to electric field.
                with respect to dipole field.
          Differentiating once with respect to nuclear coordinates.
          Requested convergence is 1.0D-10 RMS, and 1.0D-09 maximum.
[...]
 ! D25   D(17,8,10,11)         -59.7858         -DE/DX =    0.0                 !
 ! D26   D(17,8,10,12)        -176.2365         -DE/DX =    0.0                 !
 ! D27   D(17,8,10,13)          62.0758         -DE/DX =    0.0                 !
 ! D28   D(5,8,17,18)          169.2796         -DE/DX =    0.0                 !
 ! D29   D(9,8,17,18)           53.0045         -DE/DX =    0.0                 !
 ! D30   D(10,8,17,18)         -66.3372         -DE/DX =    0.0                 !
 ! D31   D(8,10,13,14)          56.312          -DE/DX =    0.0                 !
 ! D32   D(8,10,13,15)         176.422          -DE/DX =    0.0                 !
 ! D33   D(8,10,13,16)         -64.32           -DE/DX =    0.0                 !
 ! D34   D(11,10,13,14)        177.8359         -DE/DX =    0.0                 !
 ! D35   D(11,10,13,15)        -62.0541         -DE/DX =    0.0                 !
 ! D36   D(11,10,13,16)         57.2039         -DE/DX =    0.0                 !
 ! D37   D(12,10,13,14)        -64.6745         -DE/DX =    0.0                 !
 ! D38   D(12,10,13,15)         55.4355         -DE/DX =    0.0                 !
 ! D39   D(12,10,13,16)        174.6936         -DE/DX =    0.0                 !
 --------------------------------------------------------------------------------
 Lowest energy point so far.  Saving SCF results.
 Largest change from initial coordinates is atom   15       0.054 Angstoms.
 GradGradGradGradGradGradGradGradGradGradGradGradGradGradGradGradGradGrad

 Leave Link  103 at Sun Sep 19 20:00:10 2021, MaxMem=   524288000 cpu:               0.0 elap:               0.1
 (Enter /opt/gaussian/g16_legacy/l202.exe)
                          Input orientation:                          
 ---------------------------------------------------------------------
 Center     Atomic      Atomic             Coordinates (Angstroms)
 Number     Number       Type             X           Y           Z
 ---------------------------------------------------------------------
      1          6           0       -2.277439    1.117309    2.484961
      2          1           0       -2.093021    1.634679    3.425194
      3          1           0       -1.874029    0.110378    2.563447
      4          1           0       -3.356796    1.045790    2.356042
      5          6           0       -1.647669    1.847911    1.303508
      6          1           0       -1.955784    1.365471    0.374244
      7          1           0       -2.003428    2.880421    1.260991
      8          6           0       -0.124313    1.864971    1.321657
      9          1           0        0.219050    2.378721    0.411643
     10          6           0        0.469264    2.591662    2.525166
     11          1           0        0.137192    2.094214    3.437086
     12          1           0        0.069627    3.609085    2.545386
     13          6           0        1.993371    2.640212    2.498051
     14          1           0        2.355232    3.099623    1.576923
     15          1           0        2.384757    3.217499    3.334109
     16          1           0        2.418360    1.639154    2.571682
     17          8           0        0.291304    0.493964    1.283260
     18          1           0        1.242023    0.484235    1.122752
 ---------------------------------------------------------------------
                    Distance matrix (angstroms):
                    1          2          3          4          5
     1  C    0.000000
     2  H    1.088908   0.000000
     3  H    1.087570   1.764670   0.000000
     4  H    1.089379   1.756986   1.765392   0.000000
     5  C    1.525195   2.178384   2.158172   2.161560   0.000000
     6  H    2.149459   3.065877   2.524787   2.447970   1.091428
     7  H    2.163735   2.498734   3.063703   2.529153   1.092908
     8  C    2.558950   2.890279   2.771668   3.491412   1.523560
     9  H    3.481704   3.870499   3.762528   4.282997   2.135842
    10  C    3.117645   2.879440   3.413101   4.130019   2.554804
    11  H    2.773325   2.277096   2.957002   3.804708   2.792589
    12  H    3.423641   3.057677   4.002383   4.283305   2.755558
    13  C    4.534228   4.309210   4.621809   5.584499   3.913035
    14  H    5.120131   5.034791   5.272140   6.119846   4.202946
    15  H    5.183428   4.750170   5.327793   6.215976   4.718005
    16  H    4.725502   4.591412   4.556515   5.809562   4.264321
    17  O    2.903634   3.402076   2.544541   3.842397   2.364995
    18  H    3.826619   4.212753   3.453282   4.794318   3.200408
                    6          7          8          9         10
     6  H    0.000000
     7  H    1.756037   0.000000
     8  C    2.121645   2.136796   0.000000
     9  H    2.399578   2.431564   1.099983   0.000000
    10  C    3.465670   2.792083   1.526056   2.138909   0.000000
    11  H    3.780558   3.152105   2.143823   3.039893   1.090561
    12  H    3.721552   2.545227   2.139406   2.467587   1.093283
    13  C    4.661689   4.190754   2.543518   2.751308   1.525121
    14  H    4.799852   4.375589   2.781667   2.537884   2.171189
    15  H    5.570557   4.864937   3.489230   3.732914   2.171445
    16  H    4.902731   4.776072   2.842312   3.170125   2.169887
    17  O    2.575896   3.310812   1.433134   2.077799   2.444247
    18  H    3.400413   4.036555   1.952657   2.267428   2.646729
                   11         12         13         14         15
    11  H    0.000000
    12  H    1.759127   0.000000
    13  C    2.150651   2.154471   0.000000
    14  H    3.064433   2.534060   1.091091   0.000000
    15  H    2.514741   2.476944   1.088777   1.761382   0.000000
    16  H    2.481881   3.065594   1.090024   1.768190   1.753168
    17  O    2.687661   3.368395   2.996520   3.336989   4.000771
    18  H    3.028007   3.628097   2.665372   2.878500   3.696847
                   16         17         18
    16  H    0.000000
    17  O    2.737856   0.000000
    18  H    2.194768   0.964222   0.000000
 Stoichiometry    C5H12O
 Framework group  C1[X(C5H12O)]
 Deg. of freedom    48
 Full point group                 C1      NOp   1
 RotChk:  IX=0 Diff= 4.05D-15
 Largest Abelian subgroup         C1      NOp   1
 Largest concise Abelian subgroup C1      NOp   1
                         Standard orientation:                         
 ---------------------------------------------------------------------
 Center     Atomic      Atomic             Coordinates (Angstroms)
 Number     Number       Type             X           Y           Z
 ---------------------------------------------------------------------
      1          6           0       -2.107916   -0.522058   -0.597899
      2          1           0       -1.675987   -1.428557   -1.019109
      3          1           0       -2.023317    0.272355   -1.335843
      4          1           0       -3.165321   -0.714420   -0.420031
      5          6           0       -1.415773   -0.114381    0.698619
      6          1           0       -1.953045    0.722958    1.147415
      7          1           0       -1.443654   -0.935413    1.419436
      8          6           0        0.033672    0.320213    0.521211
      9          1           0        0.417738    0.626747    1.505332
     10          6           0        0.944618   -0.778810   -0.018394
     11          1           0        0.576394   -1.094840   -0.995052
     12          1           0        0.877300   -1.641638    0.649635
     13          6           0        2.399509   -0.338140   -0.141263
     14          1           0        2.783408    0.019926    0.815235
     15          1           0        3.034484   -1.159906   -0.468285
     16          1           0        2.505805    0.461602   -0.874248
     17          8           0        0.006828    1.452935   -0.356338
     18          1           0        0.886913    1.846754   -0.347419
 ---------------------------------------------------------------------
 Rotational constants (GHZ):           5.7501743           2.1672978           1.8993066
 Leave Link  202 at Sun Sep 19 20:00:10 2021, MaxMem=   524288000 cpu:               0.0 elap:               0.0
 (Enter /opt/gaussian/g16_legacy/l601.exe)
 Copying SCF densities to generalized density rwf, IOpCl= 0 IROHF=0.

 **********************************************************************

            Population analysis using the SCF density.

 **********************************************************************

 Orbital symmetries:
       Occupied  (A) (A) (A) (A) (A) (A) (A) (A) (A) (A) (A) (A)
                 (A) (A) (A) (A) (A) (A) (A) (A) (A) (A) (A) (A)
                 (A)
       Virtual   (A) (A) (A) (A) (A) (A) (A) (A) (A) (A) (A) (A)
                 (A) (A) (A) (A) (A) (A) (A) (A) (A) (A) (A) (A)
                 (A) (A) (A) (A) (A) (A) (A) (A) (A) (A) (A) (A)
                 (A) (A) (A) (A) (A) (A) (A) (A) (A) (A) (A) (A)
                 (A) (A) (A) (A) (A) (A) (A) (A) (A) (A) (A) (A)
                 (A) (A) (A) (A) (A) (A) (A) (A) (A) (A) (A) (A)
                 (A) (A) (A) (A) (A) (A) (A) (A) (A) (A) (A) (A)
                 (A) (A) (A) (A) (A) (A) (A) (A) (A) (A) (A) (A)
                 (A) (A) (A) (A) (A) (A) (A) (A) (A) (A) (A) (A)
                 (A) (A) (A) (A) (A) (A) (A) (A) (A) (A) (A) (A)
                 (A) (A) (A) (A) (A)
 The electronic state is 1-A.
 Alpha  occ. eigenvalues --  -20.55382 -11.27296 -11.22025 -11.21829 -11.21324
 Alpha  occ. eigenvalues --  -11.20263  -1.34943  -1.06957  -1.01901  -0.91776
 Alpha  occ. eigenvalues --   -0.84196  -0.76437  -0.69751  -0.63351  -0.60935
 Alpha  occ. eigenvalues --   -0.58891  -0.57335  -0.53787  -0.52917  -0.50872
 Alpha  occ. eigenvalues --   -0.49837  -0.48250  -0.47069  -0.45018  -0.42181
 Alpha virt. eigenvalues --    0.21224   0.25373   0.26700   0.27507   0.29395
 Alpha virt. eigenvalues --    0.31179   0.32542   0.32827   0.33557   0.34541
 Alpha virt. eigenvalues --    0.36454   0.37734   0.41053   0.41815   0.43897
 Alpha virt. eigenvalues --    0.45204   0.46474   0.68925   0.71539   0.74925
 Alpha virt. eigenvalues --    0.75518   0.76771   0.80123   0.81180   0.90521
 Alpha virt. eigenvalues --    0.91354   0.92961   0.94534   0.96197   1.03833
 Alpha virt. eigenvalues --    1.05736   1.08736   1.09674   1.10079   1.13418
 Alpha virt. eigenvalues --    1.14034   1.15557   1.16669   1.16874   1.19249
 Alpha virt. eigenvalues --    1.19895   1.20651   1.21739   1.23609   1.25899
 Alpha virt. eigenvalues --    1.31294   1.34979   1.43633   1.51459   1.53866
 Alpha virt. eigenvalues --    1.56667   1.61872   1.70485   1.78537   1.81174
 Alpha virt. eigenvalues --    1.86889   1.88358   1.91534   1.95754   1.96986
 Alpha virt. eigenvalues --    2.01109   2.04758   2.09426   2.17918   2.19779
 Alpha virt. eigenvalues --    2.20143   2.27061   2.30103   2.34297   2.36206
 Alpha virt. eigenvalues --    2.36990   2.38866   2.40816   2.41991   2.43896
 Alpha virt. eigenvalues --    2.45160   2.46464   2.48697   2.53249   2.57277
 Alpha virt. eigenvalues --    2.58620   2.60933   2.63586   2.66776   2.69227
 Alpha virt. eigenvalues --    2.73191   2.74710   2.79791   2.85709   2.86750
 Alpha virt. eigenvalues --    2.93988   2.97575   2.98892   3.01757   3.04138
 Alpha virt. eigenvalues --    3.06614   3.09184   3.10697   3.16608   3.18792
 Alpha virt. eigenvalues --    3.21353   3.23326   3.24345   3.26714   3.28185
 Alpha virt. eigenvalues --    3.35532   3.36412   3.56349   3.59862   3.67486
 Alpha virt. eigenvalues --    3.69044   3.73300   3.79455   3.81778   3.85298
 Alpha virt. eigenvalues --    3.87392   3.88272   3.94254   3.95273   4.36394
 Alpha virt. eigenvalues --    4.74362   4.83618   4.98843   5.06854   5.14891
          Condensed to atoms (all electrons):
               1          2          3          4          5          6
     1  C    4.933765   0.401717   0.406869   0.404418   0.330329  -0.040814
     2  H    0.401717   0.596555  -0.029112  -0.030875  -0.038132   0.004281
     3  H    0.406869  -0.029112   0.543353  -0.027855  -0.037822  -0.002054
     4  H    0.404418  -0.030875  -0.027855   0.585683  -0.037757  -0.004414
     5  C    0.330329  -0.038132  -0.037822  -0.037757   4.975601   0.410751
     6  H   -0.040814   0.004281  -0.002054  -0.004414   0.410751   0.577247
     7  H   -0.039931  -0.003630   0.004243  -0.002593   0.403216  -0.028392
     8  C   -0.049664  -0.004188  -0.006595   0.004588   0.374553  -0.041002
     9  H    0.004969  -0.000139   0.000128  -0.000068  -0.049105  -0.006315
    10  C   -0.007668   0.001204   0.000292  -0.000034  -0.057817   0.005535
    11  H    0.000406  -0.002454   0.000538   0.000044  -0.005624  -0.000127
    12  H    0.000601   0.000222   0.000012  -0.000026  -0.003137  -0.000098
    13  C   -0.000044   0.000016  -0.000044   0.000001   0.004474  -0.000118
    14  H   -0.000000  -0.000003   0.000000   0.000000  -0.000092  -0.000004
    15  H    0.000002   0.000003   0.000000  -0.000000  -0.000080   0.000002
    16  H    0.000016   0.000005  -0.000000  -0.000000  -0.000108  -0.000001
    17  O   -0.002302   0.000099   0.005039   0.000009  -0.062964   0.001584
    18  H   -0.000044  -0.000023  -0.000196   0.000005   0.006255  -0.000185
               7          8          9         10         11         12
     1  C   -0.039931  -0.049664   0.004969  -0.007668   0.000406   0.000601
     2  H   -0.003630  -0.004188  -0.000139   0.001204  -0.002454   0.000222
     3  H    0.004243  -0.006595   0.000128   0.000292   0.000538   0.000012
     4  H   -0.002593   0.004588  -0.000068  -0.000034   0.000044  -0.000026
     5  C    0.403216   0.374553  -0.049105  -0.057817  -0.005624  -0.003137
     6  H   -0.028392  -0.041002  -0.006315   0.005535  -0.000127  -0.000098
     7  H    0.605749  -0.043010  -0.000942  -0.002103   0.000427   0.000955
     8  C   -0.043010   4.754630   0.421491   0.348119  -0.036173  -0.039301
     9  H   -0.000942   0.421491   0.636770  -0.063414   0.005152   0.001009
    10  C   -0.002103   0.348119  -0.063414   5.041547   0.406032   0.393670
    11  H    0.000427  -0.036173   0.005152   0.406032   0.576090  -0.028304
    12  H    0.000955  -0.039301   0.001009   0.393670  -0.028304   0.604118
    13  C   -0.000128  -0.049724  -0.006097   0.331268  -0.041176  -0.039473
    14  H    0.000007  -0.003886   0.003456  -0.042174   0.004431  -0.002745
    15  H   -0.000002   0.004085  -0.000093  -0.034981  -0.002445  -0.003557
    16  H   -0.000002  -0.005215   0.000769  -0.040708  -0.003389   0.004843
    17  O    0.003019   0.197359  -0.036033  -0.055330   0.000458   0.003312
    18  H   -0.000201  -0.024343  -0.005302  -0.005376  -0.000208  -0.000072
              13         14         15         16         17         18
     1  C   -0.000044  -0.000000   0.000002   0.000016  -0.002302  -0.000044
     2  H    0.000016  -0.000003   0.000003   0.000005   0.000099  -0.000023
     3  H   -0.000044   0.000000   0.000000  -0.000000   0.005039  -0.000196
     4  H    0.000001   0.000000  -0.000000  -0.000000   0.000009   0.000005
     5  C    0.004474  -0.000092  -0.000080  -0.000108  -0.062964   0.006255
     6  H   -0.000118  -0.000004   0.000002  -0.000001   0.001584  -0.000185
     7  H   -0.000128   0.000007  -0.000002  -0.000002   0.003019  -0.000201
     8  C   -0.049724  -0.003886   0.004085  -0.005215   0.197359  -0.024343
     9  H   -0.006097   0.003456  -0.000093   0.000769  -0.036033  -0.005302
    10  C    0.331268  -0.042174  -0.034981  -0.040708  -0.055330  -0.005376
    11  H   -0.041176   0.004431  -0.002445  -0.003389   0.000458  -0.000208
    12  H   -0.039473  -0.002745  -0.003557   0.004843   0.003312  -0.000072
    13  C    4.949068   0.399781   0.407974   0.397627  -0.001198   0.003326
    14  H    0.399781   0.592275  -0.027891  -0.032596  -0.000065   0.000044
    15  H    0.407974  -0.027891   0.561360  -0.028288   0.000081  -0.000043
    16  H    0.397627  -0.032596  -0.028288   0.596271   0.003759   0.000746
    17  O   -0.001198  -0.000065   0.000081   0.003759   8.298659   0.307070
    18  H    0.003326   0.000044  -0.000043   0.000746   0.307070   0.377144
 Mulliken charges:
               1
     1  C   -0.342624
     2  H    0.104455
     3  H    0.143205
     4  H    0.108874
     5  C   -0.212541
     6  H    0.124124
     7  H    0.103318
     8  C    0.198277
     9  H    0.093763
    10  C   -0.218060
    11  H    0.126320
    12  H    0.107972
    13  C   -0.355534
    14  H    0.109464
    15  H    0.123871
    16  H    0.106273
    17  O   -0.662557
    18  H    0.341402
 Sum of Mulliken charges =  -0.00000
 Mulliken charges with hydrogens summed into heavy atoms:
               1
     1  C    0.013911
     5  C    0.014901
     8  C    0.292039
    10  C    0.016231
    13  C   -0.015926
    17  O   -0.321155
 Electronic spatial extent (au):  <R**2>=            742.8067
 Charge=              0.0000 electrons
 Dipole moment (field-independent basis, Debye):
    X=              1.3948    Y=             -0.6036    Z=              0.8167  Tot=              1.7253
 Quadrupole moment (field-independent basis, Debye-Ang):
   XX=            -38.8210   YY=            -40.3317   ZZ=            -40.2347
   XY=              2.4579   XZ=             -0.6998   YZ=              0.6349
 Traceless Quadrupole moment (field-independent basis, Debye-Ang):
   XX=              0.9748   YY=             -0.5358   ZZ=             -0.4389
   XY=              2.4579   XZ=             -0.6998   YZ=              0.6349
 Octapole moment (field-independent basis, Debye-Ang**2):
  XXX=             -0.0999  YYY=              7.6576  ZZZ=             -0.7568  XYY=              7.0108
  XXY=              5.1358  XXZ=             -0.4498  XZZ=              1.2186  YZZ=              2.1368
  YYZ=             -0.1299  XYZ=             -0.6748
 Hexadecapole moment (field-independent basis, Debye-Ang**3):
 XXXX=           -674.0807 YYYY=           -194.6668 ZZZZ=           -134.0143 XXXY=             -0.7575
 XXXZ=             -3.8714 YYYX=             11.3827 YYYZ=             -3.6857 ZZZX=              0.4387
 ZZZY=             -2.4190 XXYY=           -138.4418 XXZZ=           -134.9088 YYZZ=            -54.0709
 XXYZ=             -1.1349 YYXZ=             -3.8700 ZZXY=              0.3863
 N-N= 2.617727800898D+02 E-N=-1.157501844655D+03  KE= 2.708378069952D+02
 No NMR shielding tensors so no spin-rotation constants.
 Leave Link  601 at Sun Sep 19 20:00:11 2021, MaxMem=   524288000 cpu:               0.1 elap:               0.3
 (Enter /opt/gaussian/g16_legacy/l9999.exe)
 1\1\GINC-TRUENO92\FOpt\RMP2-FC\6-31G(d,p)\C5H12O1\JRAMOS\19-Sep-2021\0
 \\#p opt mp2/6-31g(d,p)\\Conformer number 004. Energy MM = 2.201 kcal/
 mol\\0,1\C,-2.277439052,1.1173089917,2.484960618\H,-2.0930213238,1.634
 6793355,3.425193743\H,-1.8740293508,0.1103784006,2.563446867\H,-3.3567
 958687,1.0457900511,2.3560424442\C,-1.6476691521,1.8479114635,1.303507
 6147\H,-1.9557836998,1.3654706245,0.3742435965\H,-2.0034283105,2.88042
 13412,1.2609910117\C,-0.1243129269,1.8649706666,1.321657058\H,0.219049
 5053,2.37872085,0.4116425421\C,0.4692640999,2.5916623167,2.5251660512\
 H,0.1371920695,2.0942143695,3.4370858093\H,0.0696268352,3.609084856,2.
 5453859887\C,1.9933706591,2.640211792,2.4980514395\H,2.3552320696,3.09
 96228344,1.5769234958\H,2.3847567975,3.2174994222,3.3341087409\H,2.418
 3599115,1.639154373,2.5716815431\O,0.2913044959,0.4939635619,1.2832597
 236\H,1.2420232413,0.4842347494,1.1227517126\\Version=EM64L-G16RevA.03
 \State=1-A\HF=-271.2044552\MP2=-272.1210454\RMSD=4.583e-09\RMSF=4.190e
 -06\Dipole=0.4011511,0.4600686,-0.0396347\PG=C01 [X(C5H12O1)]\\@


 COMMON SENSE IS NOT SO COMMON.   -- VOLTAIRE
 Job cpu time:       0 days  0 hours  4 minutes 54.3 seconds.
 Elapsed time:       0 days  0 hours  4 minutes 57.5 seconds.
 File lengths (MBytes):  RWF=     15 Int=      0 D2E=      0 Chk=      4 Scr=      1
 Normal termination of Gaussian 16 at Sun Sep 19 20:00:11 2021.
