 Entering Gaussian System, Link 0=/opt/gaussian/g16_legacy/g16
 Input=06-PVA_002_gaussian.com
 Output=06-PVA_002_gaussian.log
 Initial command:
 /opt/gaussian/g16_legacy/l1.exe "/scratch-local/jramos/2661749/Gau-19043.inp" -scrdir="/scratch-local/jramos/2661749/"
 Entering Link 1 = /opt/gaussian/g16_legacy/l1.exe PID=     19050.
  
 Copyright (c) 1988,1990,1992,1993,1995,1998,2003,2009,2016,
            Gaussian, Inc.  All Rights Reserved.
  
 This is part of the Gaussian(R) 16 program.  It is based on
 the Gaussian(R) 09 system (copyright 2009, Gaussian, Inc.),
 the Gaussian(R) 03 system (copyright 2003, Gaussian, Inc.),
 the Gaussian(R) 98 system (copyright 1998, Gaussian, Inc.),
 the Gaussian(R) 94 system (copyright 1995, Gaussian, Inc.),
 the Gaussian 92(TM) system (copyright 1992, Gaussian, Inc.),
 the Gaussian 90(TM) system (copyright 1990, Gaussian, Inc.),
 the Gaussian 88(TM) system (copyright 1988, Gaussian, Inc.),
 the Gaussian 86(TM) system (copyright 1986, Carnegie Mellon
 University), and the Gaussian 82(TM) system (copyright 1983,
 Carnegie Mellon University). Gaussian is a federally registered
 trademark of Gaussian, Inc.
  
 This software contains proprietary and confidential information,
 including trade secrets, belonging to Gaussian, Inc.
  
 This software is provided under written license and may be
 used, copied, transmitted, or stored only in accord with that
 written license.
  
 The following legend is applicable only to US Government
 contracts under FAR:
  
                    RESTRICTED RIGHTS LEGEND
  
 Use, reproduction and disclosure by the US Government is
 subject to restrictions as set forth in subparagraphs (a)
 and (c) of the Commercial Computer Software - Restricted
 Rights clause in FAR 52.227-19.
  
 Gaussian, Inc.
 340 Quinnipiac St., Bldg. 40, Wallingford CT 06492
  
  
 ---------------------------------------------------------------
 Warning -- This program may not be used in any manner that
 competes with the business of Gaussian, Inc. or will provide
 assistance to any competitor of Gaussian, Inc.  The licensee
 of this program is prohibited from giving any competitor of
 Gaussian, Inc. access to this program.  By using this program,
 the user acknowledges that Gaussian, Inc. is engaged in the
 business of creating and licensing software in the field of
 computational chemistry and represents and warrants to the
 licensee that it is not a competitor of Gaussian, Inc. and that
 it will not use this program in any manner prohibited above.
 ---------------------------------------------------------------
  

 Cite this work as:
 Gaussian 16, Revision A.03,
 M. J. Frisch, G. W. Trucks, H. B. Schlegel, G. E. Scuseria, 
 M. A. Robb, J. R. Cheeseman, G. Scalmani, V. Barone, 
 G. A. Petersson, H. Nakatsuji, X. Li, M. Caricato, A. V. Marenich, 
 J. Bloino, B. G. Janesko, R. Gomperts, B. Mennucci, H. P. Hratchian, 
 J. V. Ortiz, A. F. Izmaylov, J. L. Sonnenberg, D. Williams-Young, 
 F. Ding, F. Lipparini, F. Egidi, J. Goings, B. Peng, A. Petrone, 
 T. Henderson, D. Ranasinghe, V. G. Zakrzewski, J. Gao, N. Rega, 
 G. Zheng, W. Liang, M. Hada, M. Ehara, K. Toyota, R. Fukuda, 
 J. Hasegawa, M. Ishida, T. Nakajima, Y. Honda, O. Kitao, H. Nakai, 
 T. Vreven, K. Throssell, J. A. Montgomery, Jr., J. E. Peralta, 
 F. Ogliaro, M. J. Bearpark, J. J. Heyd, E. N. Brothers, K. N. Kudin, 
 V. N. Staroverov, T. A. Keith, R. Kobayashi, J. Normand, 
 K. Raghavachari, A. P. Rendell, J. C. Burant, S. S. Iyengar, 
 J. Tomasi, M. Cossi, J. M. Millam, M. Klene, C. Adamo, R. Cammi, 
 J. W. Ochterski, R. L. Martin, K. Morokuma, O. Farkas, 
 J. B. Foresman, and D. J. Fox, Gaussian, Inc., Wallingford CT, 2016.
 
 ******************************************
 Gaussian 16:  EM64L-G16RevA.03 25-Dec-2016
                19-Sep-2021 
 ******************************************
 %chk=06-PVA_002_gaussian.chk
 %nproc=1
 Will use up to    1 processors via shared memory.
 %mem=4000Mb
 ---------------------
 #p opt mp2/6-31g(d,p)
 ---------------------
 1/18=20,19=15,38=1/1,3;
 2/9=110,12=2,17=6,18=5,40=1/2;
 3/5=1,6=6,7=101,11=9,25=1,30=1,71=1/1,2,3;
 4//1;
 5/5=2,38=5/2;
 8/6=4,10=2/1;
 9/15=2,16=-3/6;
 10/5=1/2;
 6/7=2,8=2,9=2,10=2/1;
 7/12=2/1,2,3,16;
 1/18=20,19=15/3(2);
 2/9=110/2;
 99//99;
 2/9=110/2;
 3/5=1,6=6,7=101,11=9,25=1,30=1,71=1/1,2,3;
 4/5=5,16=3,69=1/1;
 5/5=2,38=5/2;
 8/6=4,10=2/1;
 9/15=2,16=-3/6;
 10/5=1/2;
 7/12=2/1,2,3,16;
 1/18=20,19=15/3(-8);
 2/9=110/2;
 6/7=2,8=2,9=2,10=2/1;
 99//99;
 Leave Link    1 at Sun Sep 19 19:55:12 2021, MaxMem=   524288000 cpu:               0.0 elap:               0.1
 (Enter /opt/gaussian/g16_legacy/l101.exe)
 ------------------------------------------------
 Conformer number 002. Energy MM = 1.659 kcal/mol
 ------------------------------------------------
 Symbolic Z-matrix:
 Charge =  0 Multiplicity = 1
 C                    -2.1851    1.0767   -0.0364 
 H                    -1.8475    0.0358   -0.0469 
 H                    -1.8274    1.5654   -0.9485 
 H                    -3.2796    1.0746   -0.0602 
 C                    -1.6906    1.8118    1.2035 
 H                    -2.1215    2.818     1.1993 
 H                    -2.0747    1.2887    2.0877 
 C                    -0.161     1.8833    1.2671 
 H                     0.2239    2.3625    0.359 
 C                     0.3562    2.626     2.5054 
 H                     1.4517    2.5614    2.5251 
 H                     0.0172    2.1151    3.4151 
 C                    -0.0475    4.0906    2.5591 
 H                    -1.1275    4.206     2.6861 
 H                     0.437     4.5821    3.4092 
 H                     0.2543    4.6153    1.6474 
 O                     0.3521    0.5506    1.3012 
 H                     1.323     0.6098    1.2961 
 
 ITRead=  0  0  0  0  0  0  0  0  0  0  0  0  0  0  0  0  0  0
 MicOpt= -1 -1 -1 -1 -1 -1 -1 -1 -1 -1 -1 -1 -1 -1 -1 -1 -1 -1
 NAtoms=     18 NQM=       18 NQMF=       0 NMMI=      0 NMMIF=      0
                NMic=       0 NMicF=      0.
                    Isotopes and Nuclear Properties:
 (Nuclear quadrupole moments (NQMom) in fm**2, nuclear magnetic moments (NMagM)
  in nuclear magnetons)

  Atom         1           2           3           4           5           6           7           8           9          10
 IAtWgt=          12           1           1           1          12           1           1          12           1          12
 AtmWgt=  12.0000000   1.0078250   1.0078250   1.0078250  12.0000000   1.0078250   1.0078250  12.0000000   1.0078250  12.0000000
 NucSpn=           0           1           1           1           0           1           1           0           1           0
 AtZEff=  -0.0000000  -0.0000000  -0.0000000  -0.0000000  -0.0000000  -0.0000000  -0.0000000  -0.0000000  -0.0000000  -0.0000000
 NQMom=    0.0000000   0.0000000   0.0000000   0.0000000   0.0000000   0.0000000   0.0000000   0.0000000   0.0000000   0.0000000
 NMagM=    0.0000000   2.7928460   2.7928460   2.7928460   0.0000000   2.7928460   2.7928460   0.0000000   2.7928460   0.0000000
 AtZNuc=   6.0000000   1.0000000   1.0000000   1.0000000   6.0000000   1.0000000   1.0000000   6.0000000   1.0000000   6.0000000

  Atom        11          12          13          14          15          16          17          18
 IAtWgt=           1           1          12           1           1           1          16           1
 AtmWgt=   1.0078250   1.0078250  12.0000000   1.0078250   1.0078250   1.0078250  15.9949146   1.0078250
 NucSpn=           1           1           0           1           1           1           0           1
 AtZEff=  -0.0000000  -0.0000000  -0.0000000  -0.0000000  -0.0000000  -0.0000000  -0.0000000  -0.0000000
 NQMom=    0.0000000   0.0000000   0.0000000   0.0000000   0.0000000   0.0000000   0.0000000   0.0000000
 NMagM=    2.7928460   2.7928460   0.0000000   2.7928460   2.7928460   2.7928460   0.0000000   2.7928460
 AtZNuc=   1.0000000   1.0000000   6.0000000   1.0000000   1.0000000   1.0000000   8.0000000   1.0000000
 Leave Link  101 at Sun Sep 19 19:55:12 2021, MaxMem=   524288000 cpu:               0.1 elap:               0.3
 (Enter /opt/gaussian/g16_legacy/l103.exe)

 GradGradGradGradGradGradGradGradGradGradGradGradGradGradGradGradGradGrad
 Berny optimization.
 Initialization pass.
                           ----------------------------
                           !    Initial Parameters    !
                           ! (Angstroms and Degrees)  !
 --------------------------                            --------------------------
 ! Name  Definition              Value          Derivative Info.                !
 --------------------------------------------------------------------------------
 ! R1    R(1,2)                  1.0943         estimate D2E/DX2                !
 ! R2    R(1,3)                  1.0949         estimate D2E/DX2                !
 ! R3    R(1,4)                  1.0948         estimate D2E/DX2                !
 ! R4    R(1,5)                  1.5239         estimate D2E/DX2                !
 ! R5    R(5,6)                  1.0946         estimate D2E/DX2                !
 ! R6    R(5,7)                  1.0968         estimate D2E/DX2                !
 ! R7    R(5,8)                  1.5326         estimate D2E/DX2                !
 ! R8    R(8,9)                  1.0966         estimate D2E/DX2                !
 ! R9    R(8,10)                 1.5338         estimate D2E/DX2                !
 ! R10   R(8,17)                 1.4285         estimate D2E/DX2                !
 ! R11   R(10,11)                1.0976         estimate D2E/DX2                !
 ! R12   R(10,12)                1.097          estimate D2E/DX2                !
 ! R13   R(10,13)                1.5202         estimate D2E/DX2                !
 ! R14   R(13,14)                1.0935         estimate D2E/DX2                !
 ! R15   R(13,15)                1.095          estimate D2E/DX2                !
 ! R16   R(13,16)                1.0943         estimate D2E/DX2                !
 ! R17   R(17,18)                0.9727         estimate D2E/DX2                !
 ! A1    A(2,1,3)              108.4082         estimate D2E/DX2                !
 ! A2    A(2,1,4)              107.842          estimate D2E/DX2                !
 ! A3    A(2,1,5)              111.5018         estimate D2E/DX2                !
 ! A4    A(3,1,4)              108.0217         estimate D2E/DX2                !
 ! A5    A(3,1,5)              110.885          estimate D2E/DX2                !
 ! A6    A(4,1,5)              110.0618         estimate D2E/DX2                !
 ! A7    A(1,5,6)              108.2138         estimate D2E/DX2                !
 ! A8    A(1,5,7)              108.1932         estimate D2E/DX2                !
 ! A9    A(1,5,8)              112.342          estimate D2E/DX2                !
 ! A10   A(6,5,7)              107.677          estimate D2E/DX2                !
 ! A11   A(6,5,8)              110.4976         estimate D2E/DX2                !
 ! A12   A(7,5,8)              109.7741         estimate D2E/DX2                !
 ! A13   A(5,8,9)              109.6544         estimate D2E/DX2                !
 ! A14   A(5,8,10)             113.119          estimate D2E/DX2                !
 ! A15   A(5,8,17)             108.4188         estimate D2E/DX2                !
 ! A16   A(9,8,10)             109.7933         estimate D2E/DX2                !
 ! A17   A(9,8,17)             107.5415         estimate D2E/DX2                !
 ! A18   A(10,8,17)            108.1417         estimate D2E/DX2                !
 ! A19   A(8,10,11)            108.8177         estimate D2E/DX2                !
 ! A20   A(8,10,12)            109.8629         estimate D2E/DX2                !
 ! A21   A(8,10,13)            113.9223         estimate D2E/DX2                !
 ! A22   A(11,10,12)           105.4344         estimate D2E/DX2                !
 ! A23   A(11,10,13)           108.7313         estimate D2E/DX2                !
 ! A24   A(12,10,13)           109.7143         estimate D2E/DX2                !
 ! A25   A(10,13,14)           111.5952         estimate D2E/DX2                !
 ! A26   A(10,13,15)           110.0219         estimate D2E/DX2                !
 ! A27   A(10,13,16)           111.0555         estimate D2E/DX2                !
 ! A28   A(14,13,15)           107.4252         estimate D2E/DX2                !
 ! A29   A(14,13,16)           108.5735         estimate D2E/DX2                !
 ! A30   A(15,13,16)           108.0318         estimate D2E/DX2                !
 ! A31   A(8,17,18)            107.5549         estimate D2E/DX2                !
 ! D1    D(2,1,5,6)           -175.6208         estimate D2E/DX2                !
 ! D2    D(2,1,5,7)            -59.221          estimate D2E/DX2                !
 ! D3    D(2,1,5,8)             62.1172         estimate D2E/DX2                !
 ! D4    D(3,1,5,6)             63.4761         estimate D2E/DX2                !
 ! D5    D(3,1,5,7)            179.8759         estimate D2E/DX2                !
 ! D6    D(3,1,5,8)            -58.7859         estimate D2E/DX2                !
 ! D7    D(4,1,5,6)            -55.9873         estimate D2E/DX2                !
 ! D8    D(4,1,5,7)             60.4125         estimate D2E/DX2                !
 ! D9    D(4,1,5,8)           -178.2494         estimate D2E/DX2                !
 ! D10   D(1,5,8,9)             56.7994         estimate D2E/DX2                !
 ! D11   D(1,5,8,10)           179.7186         estimate D2E/DX2                !
 ! D12   D(1,5,8,17)           -60.3467         estimate D2E/DX2                !
 ! D13   D(6,5,8,9)            -64.1589         estimate D2E/DX2                !
 ! D14   D(6,5,8,10)            58.7602         estimate D2E/DX2                !
 ! D15   D(6,5,8,17)           178.6949         estimate D2E/DX2                !
 ! D16   D(7,5,8,9)            177.2283         estimate D2E/DX2                !
 ! D17   D(7,5,8,10)           -59.8525         estimate D2E/DX2                !
 ! D18   D(7,5,8,17)            60.0822         estimate D2E/DX2                !
 ! D19   D(5,8,10,11)          175.2207         estimate D2E/DX2                !
 ! D20   D(5,8,10,12)           60.2562         estimate D2E/DX2                !
 ! D21   D(5,8,10,13)          -63.2916         estimate D2E/DX2                !
 ! D22   D(9,8,10,11)          -61.9372         estimate D2E/DX2                !
 ! D23   D(9,8,10,12)         -176.9017         estimate D2E/DX2                !
 ! D24   D(9,8,10,13)           59.5505         estimate D2E/DX2                !
 ! D25   D(17,8,10,11)          55.1275         estimate D2E/DX2                !
 ! D26   D(17,8,10,12)         -59.8369         estimate D2E/DX2                !
 ! D27   D(17,8,10,13)         176.6153         estimate D2E/DX2                !
 ! D28   D(5,8,17,18)          177.2004         estimate D2E/DX2                !
 ! D29   D(9,8,17,18)           58.7068         estimate D2E/DX2                !
 ! D30   D(10,8,17,18)         -59.8018         estimate D2E/DX2                !
 ! D31   D(8,10,13,14)          66.6104         estimate D2E/DX2                !
 ! D32   D(8,10,13,15)        -174.2443         estimate D2E/DX2                !
 ! D33   D(8,10,13,16)         -54.6857         estimate D2E/DX2                !
 ! D34   D(11,10,13,14)       -171.854          estimate D2E/DX2                !
 ! D35   D(11,10,13,15)        -52.7087         estimate D2E/DX2                !
 ! D36   D(11,10,13,16)         66.8499         estimate D2E/DX2                !
 ! D37   D(12,10,13,14)        -57.018          estimate D2E/DX2                !
 ! D38   D(12,10,13,15)         62.1273         estimate D2E/DX2                !
 ! D39   D(12,10,13,16)       -178.314          estimate D2E/DX2                !
 --------------------------------------------------------------------------------
 Trust Radius=3.00D-01 FncErr=1.00D-07 GrdErr=1.00D-07 EigMax=2.50D+02 EigMin=1.00D-04
 Number of steps in this run=     97 maximum allowed number of steps=    108.
 GradGradGradGradGradGradGradGradGradGradGradGradGradGradGradGradGradGrad

 Leave Link  103 at Sun Sep 19 19:55:12 2021, MaxMem=   524288000 cpu:               0.0 elap:               0.1
 (Enter /opt/gaussian/g16_legacy/l202.exe)
                          Input orientation:                          
 ---------------------------------------------------------------------
 Center     Atomic      Atomic             Coordinates (Angstroms)
 Number     Number       Type             X           Y           Z
 ---------------------------------------------------------------------
      1          6           0       -2.185100    1.076700   -0.036400
      2          1           0       -1.847500    0.035800   -0.046900
      3          1           0       -1.827400    1.565400   -0.948500
      4          1           0       -3.279600    1.074600   -0.060200
      5          6           0       -1.690600    1.811800    1.203500
      6          1           0       -2.121500    2.818000    1.199300
      7          1           0       -2.074700    1.288700    2.087700
      8          6           0       -0.161000    1.883300    1.267100
      9          1           0        0.223900    2.362500    0.359000
     10          6           0        0.356200    2.626000    2.505400
     11          1           0        1.451700    2.561400    2.525100
     12          1           0        0.017200    2.115100    3.415100
     13          6           0       -0.047500    4.090600    2.559100
     14          1           0       -1.127500    4.206000    2.686100
     15          1           0        0.437000    4.582100    3.409200
     16          1           0        0.254300    4.615300    1.647400
     17          8           0        0.352100    0.550600    1.301200
     18          1           0        1.323000    0.609800    1.296100
 ---------------------------------------------------------------------
                    Distance matrix (angstroms):
                    1          2          3          4          5
     1  C    0.000000
     2  H    1.094329   0.000000
     3  H    1.094853   1.775658   0.000000
     4  H    1.094761   1.769235   1.771679   0.000000
     5  C    1.523894   2.177681   2.170376   2.159936   0.000000
     6  H    2.136147   3.060838   2.503707   2.442740   1.094592
     7  H    2.137506   2.485537   3.058796   2.472063   1.096803
     8  C    2.539035   2.825621   2.790490   3.484449   1.532590
     9  H    2.759149   3.141494   2.559835   3.756185   2.163738
    10  C    3.913986   4.252019   4.221659   4.712556   2.558761
    11  H    4.689555   4.886569   4.879591   5.592812   3.490355
    12  H    4.223891   4.448150   4.769248   4.901963   2.810649
    13  C    4.515479   5.145157   4.674178   5.138430   3.119352
    14  H    4.280542   5.037684   4.546751   4.688215   2.871825
    15  H    5.570942   6.150806   5.763466   6.176764   4.131145
    16  H    4.616010   5.316017   4.513764   5.285916   3.440828
    17  O    2.916048   2.630710   3.292596   3.913723   2.402664
    18  H    3.781576   3.490730   3.984523   4.820738   3.245792
                    6          7          8          9         10
     6  H    0.000000
     7  H    1.769238   0.000000
     8  C    2.172975   2.165452   0.000000
     9  H    2.532683   3.070018   1.096552   0.000000
    10  C    2.807447   2.805730   1.533782   2.166557   0.000000
    11  H    3.819862   3.774464   2.154805   2.497808   1.097580
    12  H    3.158778   2.611699   2.167808   3.073057   1.097039
    13  C    2.787480   3.490330   2.560141   2.810770   1.520168
    14  H    2.263880   3.125046   2.888359   3.261927   2.174952
    15  H    3.813349   4.347584   3.497101   3.778327   2.156319
    16  H    3.012558   4.084651   2.789431   2.595382   2.168839
    17  O    3.357109   2.655698   1.428469   2.046255   2.399458
    18  H    4.092688   3.554139   1.955735   2.271153   2.542080
                   11         12         13         14         15
    11  H    0.000000
    12  H    1.746160   0.000000
    13  C    2.141777   2.153955   0.000000
    14  H    3.063152   2.492718   1.093548   0.000000
    15  H    2.427854   2.502470   1.094981   1.764082   0.000000
    16  H    2.534291   3.071153   1.094345   1.776456   1.771559
    17  O    2.598147   2.651111   3.778041   4.179607   4.550150
    18  H    2.309924   2.908815   3.948342   4.568337   4.585777
                   16         17         18
    16  H    0.000000
    17  O    4.080589   0.000000
    18  H    4.160476   0.972717   0.000000
 Stoichiometry    C5H12O
 Framework group  C1[X(C5H12O)]
 Deg. of freedom    48
 Full point group                 C1      NOp   1
 Largest Abelian subgroup         C1      NOp   1
 Largest concise Abelian subgroup C1      NOp   1
                         Standard orientation:                         
 ---------------------------------------------------------------------
 Center     Atomic      Atomic             Coordinates (Angstroms)
 Number     Number       Type             X           Y           Z
 ---------------------------------------------------------------------
      1          6           0       -2.282192   -0.732728    0.146432
      2          1           0       -2.796071    0.195760   -0.120766
      3          1           0       -2.316724   -0.846109    1.234851
      4          1           0       -2.838513   -1.564013   -0.298510
      5          6           0       -0.843180   -0.738923   -0.355026
      6          1           0       -0.406438   -1.716910   -0.129355
      7          1           0       -0.860156   -0.625449   -1.445811
      8          6           0       -0.003689    0.380787    0.269746
      9          1           0       -0.028614    0.294498    1.362613
     10          6           0        1.450547    0.386789   -0.217745
     11          1           0        1.961753    1.261648    0.204121
     12          1           0        1.478545    0.528537   -1.305228
     13          6           0        2.231408   -0.862559    0.156816
     14          1           0        1.845747   -1.747410   -0.357140
     15          1           0        3.281844   -0.748304   -0.130432
     16          1           0        2.192803   -1.041620    1.235721
     17          8           0       -0.594114    1.634536   -0.076715
     18          1           0       -0.078629    2.332891    0.362320
 ---------------------------------------------------------------------
 Rotational constants (GHZ):           5.0742224           2.2761109           1.7071803
 Leave Link  202 at Sun Sep 19 19:55:12 2021, MaxMem=   524288000 cpu:               0.0 elap:               0.1
 (Enter /opt/gaussian/g16_legacy/l301.exe)
 Standard basis: 6-31G(d,p) (6D, 7F)
 Ernie: Thresh=  0.10000D-02 Tol=  0.10000D-05 Strict=F.
 There are   150 symmetry adapted cartesian basis functions of A   symmetry.
 There are   150 symmetry adapted basis functions of A   symmetry.
   150 basis functions,   252 primitive gaussians,   150 cartesian basis functions
    25 alpha electrons       25 beta electrons
       nuclear repulsion energy       258.8874386021 Hartrees.
 IExCor=    0 DFT=F Ex=HF Corr=None ExCW=0 ScaHFX=  1.000000
 ScaDFX=  1.000000  1.000000  1.000000  1.000000 ScalE2=  1.000000  1.000000
 IRadAn=      5 IRanWt=     -1 IRanGd=            0 ICorTp=0 IEmpDi=  4
 NAtoms=   18 NActive=   18 NUniq=   18 SFac= 1.00D+00 NAtFMM=   60 NAOKFM=F Big=F
 Integral buffers will be    131072 words long.
 Raffenetti 1 integral format.
 Two-electron integral symmetry is turned on.
 Leave Link  301 at Sun Sep 19 19:55:12 2021, MaxMem=   524288000 cpu:               0.1 elap:               0.1
 (Enter /opt/gaussian/g16_legacy/l302.exe)
 NPDir=0 NMtPBC=     1 NCelOv=     1 NCel=       1 NClECP=     1 NCelD=      1
         NCelK=      1 NCelE2=     1 NClLst=     1 CellRange=     0.0.
 One-electron integrals computed using PRISM.
 One-electron integral symmetry used in STVInt
 NBasis=   150 RedAO= T EigKep=  3.22D-03  NBF=   150
 NBsUse=   150 1.00D-06 EigRej= -1.00D+00 NBFU=   150
 Leave Link  302 at Sun Sep 19 19:55:13 2021, MaxMem=   524288000 cpu:               0.1 elap:               0.4
 (Enter /opt/gaussian/g16_legacy/l303.exe)
 DipDrv:  MaxL=1.
 Leave Link  303 at Sun Sep 19 19:55:13 2021, MaxMem=   524288000 cpu:               0.0 elap:               0.3
 (Enter /opt/gaussian/g16_legacy/l401.exe)
 ExpMin= 1.61D-01 ExpMax= 5.48D+03 ExpMxC= 8.25D+02 IAcc=3 IRadAn=         5 AccDes= 0.00D+00
 Harris functional with IExCor=  205 and IRadAn=       5 diagonalized for initial guess.
 HarFok:  IExCor=  205 AccDes= 0.00D+00 IRadAn=         5 IDoV= 1 UseB2=F ITyADJ=14
 ICtDFT=  3500011 ScaDFX=  1.000000  1.000000  1.000000  1.000000
 FoFCou: FMM=F IPFlag=           0 FMFlag=      100000 FMFlg1=           0
         NFxFlg=           0 DoJE=T BraDBF=F KetDBF=T FulRan=T
         wScrn=  0.000000 ICntrl=       500 IOpCl=  0 I1Cent=   200000004 NGrid=           0
         NMat0=    1 NMatS0=      1 NMatT0=    0 NMatD0=    1 NMtDS0=    0 NMtDT0=    0
 Petite list used in FoFCou.
 Harris En= -271.796718038462    
 JPrj=0 DoOrth=F DoCkMO=F.
 Leave Link  401 at Sun Sep 19 19:55:16 2021, MaxMem=   524288000 cpu:               2.9 elap:               3.2
 (Enter /opt/gaussian/g16_legacy/l502.exe)
 Keep R1 ints in memory in canonical form, NReq=65856006.
 FoFCou: FMM=F IPFlag=           0 FMFlag=           0 FMFlg1=           0
         NFxFlg=           0 DoJE=F BraDBF=F KetDBF=F FulRan=T
         wScrn=  0.000000 ICntrl=       600 IOpCl=  0 I1Cent=           0 NGrid=           0
         NMat0=    1 NMatS0=  11325 NMatT0=    0 NMatD0=    1 NMtDS0=    0 NMtDT0=    0
 Symmetry not used in FoFCou.
 Two-electron integral symmetry not used.
 Closed shell SCF:
 Using DIIS extrapolation, IDIIS=  1040.
 NGot=   524288000 LenX=   460106785 LenY=   460083844
 Requested convergence on RMS density matrix=1.00D-08 within 128 cycles.
 Requested convergence on MAX density matrix=1.00D-06.
 Requested convergence on             energy=1.00D-06.
 No special actions if energy rises.

 Cycle   1  Pass 1  IDiag  1:
 E= -270.823027684666    
 DIIS: error= 5.95D-02 at cycle   1 NSaved=   1.
 NSaved= 1 IEnMin= 1 EnMin= -270.823027684666     IErMin= 1 ErrMin= 5.95D-02
 ErrMax= 5.95D-02  0.00D+00 EMaxC= 1.00D-01 BMatC= 5.18D-01 BMatP= 5.18D-01
 IDIUse=3 WtCom= 4.05D-01 WtEn= 5.95D-01
 Coeff-Com:  0.100D+01
 Coeff-En:   0.100D+01
 Coeff:      0.100D+01
 Gap=     0.631 Goal=   None    Shift=    0.000
 GapD=    0.631 DampG=2.000 DampE=0.500 DampFc=1.0000 IDamp=-1.
 RMSDP=4.91D-03 MaxDP=1.17D-01              OVMax= 1.29D-01

 Cycle   2  Pass 1  IDiag  1:
 E= -271.139129746475     Delta-E=       -0.316102061809 Rises=F Damp=F
 DIIS: error= 1.58D-02 at cycle   2 NSaved=   2.
 NSaved= 2 IEnMin= 2 EnMin= -271.139129746475     IErMin= 2 ErrMin= 1.58D-02
 ErrMax= 1.58D-02  0.00D+00 EMaxC= 1.00D-01 BMatC= 7.34D-02 BMatP= 5.18D-01
 IDIUse=3 WtCom= 8.42D-01 WtEn= 1.58D-01
 Coeff-Com:  0.219D+00 0.781D+00
 Coeff-En:   0.000D+00 0.100D+01
 Coeff:      0.185D+00 0.815D+00
 Gap=     0.674 Goal=   None    Shift=    0.000
 RMSDP=1.83D-03 MaxDP=3.44D-02 DE=-3.16D-01 OVMax= 4.43D-02

 Cycle   3  Pass 1  IDiag  1:
 E= -271.200663453076     Delta-E=       -0.061533706602 Rises=F Damp=F
 DIIS: error= 2.96D-03 at cycle   3 NSaved=   3.
 NSaved= 3 IEnMin= 3 EnMin= -271.200663453076     IErMin= 3 ErrMin= 2.96D-03
 ErrMax= 2.96D-03  0.00D+00 EMaxC= 1.00D-01 BMatC= 3.03D-03 BMatP= 7.34D-02
 IDIUse=3 WtCom= 9.70D-01 WtEn= 2.96D-02
 Coeff-Com: -0.251D-01 0.123D+00 0.902D+00
 Coeff-En:   0.000D+00 0.000D+00 0.100D+01
 Coeff:     -0.244D-01 0.119D+00 0.905D+00
 Gap=     0.637 Goal=   None    Shift=    0.000
 RMSDP=3.13D-04 MaxDP=8.73D-03 DE=-6.15D-02 OVMax= 9.87D-03

 Cycle   4  Pass 1  IDiag  1:
 E= -271.203585551745     Delta-E=       -0.002922098669 Rises=F Damp=F
 DIIS: error= 5.40D-04 at cycle   4 NSaved=   4.
 NSaved= 4 IEnMin= 4 EnMin= -271.203585551745     IErMin= 4 ErrMin= 5.40D-04
 ErrMax= 5.40D-04  0.00D+00 EMaxC= 1.00D-01 BMatC= 7.98D-05 BMatP= 3.03D-03
 IDIUse=3 WtCom= 9.95D-01 WtEn= 5.40D-03
 Coeff-Com: -0.570D-02 0.440D-02 0.129D+00 0.872D+00
 Coeff-En:   0.000D+00 0.000D+00 0.000D+00 0.100D+01
 Coeff:     -0.567D-02 0.438D-02 0.129D+00 0.873D+00
 Gap=     0.639 Goal=   None    Shift=    0.000
 RMSDP=7.72D-05 MaxDP=2.04D-03 DE=-2.92D-03 OVMax= 1.97D-03

 Cycle   5  Pass 1  IDiag  1:
 E= -271.203668004024     Delta-E=       -0.000082452279 Rises=F Damp=F
 DIIS: error= 1.58D-04 at cycle   5 NSaved=   5.
 NSaved= 5 IEnMin= 5 EnMin= -271.203668004024     IErMin= 5 ErrMin= 1.58D-04
 ErrMax= 1.58D-04  0.00D+00 EMaxC= 1.00D-01 BMatC= 1.10D-05 BMatP= 7.98D-05
 IDIUse=3 WtCom= 9.98D-01 WtEn= 1.58D-03
 Coeff-Com:  0.235D-02-0.159D-01-0.963D-01 0.143D+00 0.967D+00
 Coeff-En:   0.000D+00 0.000D+00 0.000D+00 0.000D+00 0.100D+01
 Coeff:      0.235D-02-0.159D-01-0.962D-01 0.142D+00 0.967D+00
 Gap=     0.639 Goal=   None    Shift=    0.000
 RMSDP=3.16D-05 MaxDP=6.16D-04 DE=-8.25D-05 OVMax= 7.46D-04

 Cycle   6  Pass 1  IDiag  1:
 E= -271.203681853996     Delta-E=       -0.000013849972 Rises=F Damp=F
 DIIS: error= 3.36D-05 at cycle   6 NSaved=   6.
 NSaved= 6 IEnMin= 6 EnMin= -271.203681853996     IErMin= 6 ErrMin= 3.36D-05
 ErrMax= 3.36D-05  0.00D+00 EMaxC= 1.00D-01 BMatC= 2.96D-07 BMatP= 1.10D-05
 IDIUse=1 WtCom= 1.00D+00 WtEn= 0.00D+00
 Coeff-Com:  0.547D-03-0.243D-02-0.172D-01-0.234D-01 0.109D+00 0.933D+00
 Coeff:      0.547D-03-0.243D-02-0.172D-01-0.234D-01 0.109D+00 0.933D+00
 Gap=     0.639 Goal=   None    Shift=    0.000
 RMSDP=6.27D-06 MaxDP=9.75D-05 DE=-1.38D-05 OVMax= 1.41D-04

 Cycle   7  Pass 1  IDiag  1:
 E= -271.203682277065     Delta-E=       -0.000000423068 Rises=F Damp=F
 DIIS: error= 9.02D-06 at cycle   7 NSaved=   7.
 NSaved= 7 IEnMin= 7 EnMin= -271.203682277065     IErMin= 7 ErrMin= 9.02D-06
 ErrMax= 9.02D-06  0.00D+00 EMaxC= 1.00D-01 BMatC= 2.17D-08 BMatP= 2.96D-07
 IDIUse=1 WtCom= 1.00D+00 WtEn= 0.00D+00
 Coeff-Com: -0.299D-04 0.392D-03 0.229D-02-0.128D-01-0.335D-01 0.153D+00
 Coeff-Com:  0.890D+00
 Coeff:     -0.299D-04 0.392D-03 0.229D-02-0.128D-01-0.335D-01 0.153D+00
 Coeff:      0.890D+00
 Gap=     0.639 Goal=   None    Shift=    0.000
 RMSDP=1.69D-06 MaxDP=3.68D-05 DE=-4.23D-07 OVMax= 4.06D-05

 Cycle   8  Pass 1  IDiag  1:
 E= -271.203682309031     Delta-E=       -0.000000031967 Rises=F Damp=F
 DIIS: error= 2.65D-06 at cycle   8 NSaved=   8.
 NSaved= 8 IEnMin= 8 EnMin= -271.203682309031     IErMin= 8 ErrMin= 2.65D-06
 ErrMax= 2.65D-06  0.00D+00 EMaxC= 1.00D-01 BMatC= 1.45D-09 BMatP= 2.17D-08
 IDIUse=1 WtCom= 1.00D+00 WtEn= 0.00D+00
 Coeff-Com: -0.399D-04 0.180D-03 0.134D-02 0.216D-02-0.663D-02-0.844D-01
 Coeff-Com: -0.440D-01 0.113D+01
 Coeff:     -0.399D-04 0.180D-03 0.134D-02 0.216D-02-0.663D-02-0.844D-01
 Coeff:     -0.440D-01 0.113D+01
 Gap=     0.639 Goal=   None    Shift=    0.000
 RMSDP=6.00D-07 MaxDP=1.54D-05 DE=-3.20D-08 OVMax= 1.72D-05

 Cycle   9  Pass 1  IDiag  1:
 E= -271.203682312193     Delta-E=       -0.000000003162 Rises=F Damp=F
 DIIS: error= 8.55D-07 at cycle   9 NSaved=   9.
 NSaved= 9 IEnMin= 9 EnMin= -271.203682312193     IErMin= 9 ErrMin= 8.55D-07
 ErrMax= 8.55D-07  0.00D+00 EMaxC= 1.00D-01 BMatC= 8.88D-11 BMatP= 1.45D-09
 IDIUse=1 WtCom= 1.00D+00 WtEn= 0.00D+00
 Coeff-Com:  0.284D-05-0.301D-04-0.193D-03 0.441D-03 0.229D-02-0.105D-02
 Coeff-Com: -0.436D-01-0.930D-01 0.114D+01
 Coeff:      0.284D-05-0.301D-04-0.193D-03 0.441D-03 0.229D-02-0.105D-02
 Coeff:     -0.436D-01-0.930D-01 0.114D+01
 Gap=     0.639 Goal=   None    Shift=    0.000
 RMSDP=1.50D-07 MaxDP=4.49D-06 DE=-3.16D-09 OVMax= 4.59D-06

 Cycle  10  Pass 1  IDiag  1:
 E= -271.203682312413     Delta-E=       -0.000000000220 Rises=F Damp=F
 DIIS: error= 2.28D-07 at cycle  10 NSaved=  10.
 NSaved=10 IEnMin=10 EnMin= -271.203682312413     IErMin=10 ErrMin= 2.28D-07
 ErrMax= 2.28D-07  0.00D+00 EMaxC= 1.00D-01 BMatC= 8.43D-12 BMatP= 8.88D-11
 IDIUse=1 WtCom= 1.00D+00 WtEn= 0.00D+00
 Coeff-Com:  0.340D-05-0.166D-04-0.125D-03-0.177D-03 0.744D-03 0.760D-02
 Coeff-Com:  0.521D-03-0.109D+00 0.855D-01 0.102D+01
 Coeff:      0.340D-05-0.166D-04-0.125D-03-0.177D-03 0.744D-03 0.760D-02
 Coeff:      0.521D-03-0.109D+00 0.855D-01 0.102D+01
 Gap=     0.639 Goal=   None    Shift=    0.000
 RMSDP=4.32D-08 MaxDP=1.39D-06 DE=-2.20D-10 OVMax= 1.27D-06

 Cycle  11  Pass 1  IDiag  1:
 E= -271.203682312427     Delta-E=       -0.000000000013 Rises=F Damp=F
 DIIS: error= 5.55D-08 at cycle  11 NSaved=  11.
 NSaved=11 IEnMin=11 EnMin= -271.203682312427     IErMin=11 ErrMin= 5.55D-08
 ErrMax= 5.55D-08  0.00D+00 EMaxC= 1.00D-01 BMatC= 5.42D-13 BMatP= 8.43D-12
 IDIUse=1 WtCom= 1.00D+00 WtEn= 0.00D+00
 Coeff-Com: -0.235D-06 0.233D-05 0.142D-04-0.410D-04-0.167D-03 0.188D-03
 Coeff-Com:  0.323D-02 0.521D-02-0.819D-01 0.288D-01 0.104D+01
 Coeff:     -0.235D-06 0.233D-05 0.142D-04-0.410D-04-0.167D-03 0.188D-03
 Coeff:      0.323D-02 0.521D-02-0.819D-01 0.288D-01 0.104D+01
 Gap=     0.639 Goal=   None    Shift=    0.000
 RMSDP=1.00D-08 MaxDP=3.49D-07 DE=-1.34D-11 OVMax= 3.44D-07

 Cycle  12  Pass 1  IDiag  1:
 E= -271.203682312426     Delta-E=        0.000000000001 Rises=F Damp=F
 DIIS: error= 1.19D-08 at cycle  12 NSaved=  12.
 NSaved=12 IEnMin=11 EnMin= -271.203682312427     IErMin=12 ErrMin= 1.19D-08
 ErrMax= 1.19D-08  0.00D+00 EMaxC= 1.00D-01 BMatC= 3.43D-14 BMatP= 5.42D-13
 IDIUse=1 WtCom= 1.00D+00 WtEn= 0.00D+00
 Coeff-Com: -0.201D-06 0.894D-06 0.689D-05 0.188D-04-0.303D-04-0.587D-03
 Coeff-Com: -0.520D-03 0.724D-02 0.528D-02-0.761D-01-0.159D+00 0.122D+01
 Coeff:     -0.201D-06 0.894D-06 0.689D-05 0.188D-04-0.303D-04-0.587D-03
 Coeff:     -0.520D-03 0.724D-02 0.528D-02-0.761D-01-0.159D+00 0.122D+01
 Gap=     0.639 Goal=   None    Shift=    0.000
 RMSDP=3.30D-09 MaxDP=1.15D-07 DE= 9.09D-13 OVMax= 1.30D-07

 SCF Done:  E(RHF) =  -271.203682312     A.U. after   12 cycles
            NFock= 12  Conv=0.33D-08     -V/T= 2.0017
 KE= 2.707472483084D+02 PE=-1.151682983978D+03 EE= 3.508446147553D+02
 Leave Link  502 at Sun Sep 19 19:55:20 2021, MaxMem=   524288000 cpu:               3.2 elap:               3.4
 (Enter /opt/gaussian/g16_legacy/l801.exe)
 ExpMin= 1.61D-01 ExpMax= 5.48D+03 ExpMxC= 8.25D+02 IAcc=3 IRadAn=         5 AccDes= 0.00D+00
 HarFok:  IExCor=  205 AccDes= 0.00D+00 IRadAn=         5 IDoV=-2 UseB2=F ITyADJ=14
 ICtDFT= 12500011 ScaDFX=  1.000000  1.000000  1.000000  1.000000
 Largest valence mixing into a core orbital is  2.03D-04
 Largest core mixing into a valence orbital is  3.29D-05
 Range of M.O.s used for correlation:     7   150
 NBasis=   150 NAE=    25 NBE=    25 NFC=     6 NFV=     0
 NROrb=    144 NOA=    19 NOB=    19 NVA=   125 NVB=   125
 Leave Link  801 at Sun Sep 19 19:55:21 2021, MaxMem=   524288000 cpu:               0.6 elap:               0.8
 (Enter /opt/gaussian/g16_legacy/l906.exe)
 Frozen-core derivative calculation, NFC=   6 NFV=   0.
 FulOut=F Deriv=T AODrv=T NAtomX=    18
   MMem=         316  MDisk=          19 MDiskD=          19
  W3Min=      562500 MinDsk=      807575 NBas6D=         150
 NBas2D=       11523    NTT=       11325    LW2=     2040000
    MDV=   524001612 MDiskM=       48333 NBas2p=       11012
 Fully direct method using O(ONN) memory.
 IMap=   1   2   3   4   5   6   7   8   9  10  11  12  13  14  15  16  17  18  19  20
 IMap=  21  22  23  24  25
 JobTyp=1 Pass  1:  I=   7 to  25 NPSUse=  1 ParTrn=F ParDer=F DoDerP=T.
 Spin components of T(2) and E(2):
     alpha-alpha T2 =       0.3389029492D-01 E2=     -0.1060367360D+00
     alpha-beta  T2 =       0.2151732016D+00 E2=     -0.7038872736D+00
     beta-beta   T2 =       0.3389029492D-01 E2=     -0.1060367360D+00
 The integrals were generated   1 times.
 ANorm=    0.1132675501D+01
 E2 =    -0.9159607455D+00 EUMP2 =    -0.27211964305794D+03
 Leave Link  906 at Sun Sep 19 19:55:41 2021, MaxMem=   524288000 cpu:              20.6 elap:              20.7
 (Enter /opt/gaussian/g16_legacy/l1002.exe)
 Minotr:  Closed shell wavefunction.
          Computing MP2/KS-MP2 derivatives.
          Using Z-Vector for PSCF gradient.
          Skipping F1 and S1 gradient terms here.
          IDoAtm=111111111111111111
          Frozen-core window.
          Direct CPHF calculation.
          Differentiating once with respect to electric field.
                with respect to dipole field.
          Differentiating once with respect to nuclear coordinates.
          Requested convergence is 1.0D-10 RMS, and 1.0D-09 maximum.
          NewPWx=F KeepS1=T KeepF1=T KeepIn=T MapXYZ=F SortEE=F KeepMc=T.
 Keep R1 ints in memory in canonical form, NReq=65858022.
 FoFCou: FMM=F IPFlag=           0 FMFlag=           0 FMFlg1=           0
         NFxFlg=           0 DoJE=F BraDBF=F KetDBF=F FulRan=T
         wScrn=  0.000000 ICntrl=       600 IOpCl=  0 I1Cent=           0 NGrid=           0
         NMat0=    1 NMatS0=  11325 NMatT0=    0 NMatD0=    1 NMtDS0=    0 NMtDT0=    0
 Symmetry not used in FoFCou.
 Two-electron integral symmetry not used.
          MDV=     524288000 using IRadAn=       5.
          Solving linear equations separately, MaxMat=       0.
          There are     1 degrees of freedom in the 1st order CPHF.  IDoFFX=0 NUNeed=     1.
 LinEq1:  Iter=  0 NonCon=     1 RMS=2.91D-03 Max=2.08D-02 NDo=     1
 AX will form     1 AO Fock derivatives at one time.
 LinEq1:  Iter=  1 NonCon=     1 RMS=8.98D-04 Max=7.87D-03 NDo=     1
 LinEq1:  Iter=  2 NonCon=     1 RMS=1.99D-04 Max=2.45D-03 NDo=     1
 LinEq1:  Iter=  3 NonCon=     1 RMS=7.24D-05 Max=7.89D-04 NDo=     1
 LinEq1:  Iter=  4 NonCon=     1 RMS=1.58D-05 Max=1.22D-04 NDo=     1
 LinEq1:  Iter=  5 NonCon=     1 RMS=3.73D-06 Max=3.37D-05 NDo=     1
 LinEq1:  Iter=  6 NonCon=     1 RMS=1.04D-06 Max=8.52D-06 NDo=     1
 LinEq1:  Iter=  7 NonCon=     1 RMS=2.79D-07 Max=2.98D-06 NDo=     1
 LinEq1:  Iter=  8 NonCon=     1 RMS=5.49D-08 Max=4.67D-07 NDo=     1
 LinEq1:  Iter=  9 NonCon=     1 RMS=1.28D-08 Max=1.60D-07 NDo=     1
 LinEq1:  Iter= 10 NonCon=     1 RMS=4.04D-09 Max=4.66D-08 NDo=     1
 LinEq1:  Iter= 11 NonCon=     1 RMS=1.00D-09 Max=1.04D-08 NDo=     1
 LinEq1:  Iter= 12 NonCon=     1 RMS=1.74D-10 Max=2.09D-09 NDo=     1
 LinEq1:  Iter= 13 NonCon=     0 RMS=3.77D-11 Max=5.13D-10 NDo=     1
 Linear equations converged to 1.000D-10 1.000D-09 after    13 iterations.
 End of Minotr F.D. properties file   721 does not exist.
 End of Minotr F.D. properties file   722 does not exist.
 End of Minotr F.D. properties file   788 does not exist.
 Leave Link 1002 at Sun Sep 19 19:55:45 2021, MaxMem=   524288000 cpu:               3.6 elap:               3.7
 (Enter /opt/gaussian/g16_legacy/l601.exe)
 Copying SCF densities to generalized density rwf, IOpCl= 0 IROHF=0.

 **********************************************************************

            Population analysis using the SCF density.

 **********************************************************************

 Orbital symmetries:
       Occupied  (A) (A) (A) (A) (A) (A) (A) (A) (A) (A) (A) (A)
                 (A) (A) (A) (A) (A) (A) (A) (A) (A) (A) (A) (A)
                 (A)
       Virtual   (A) (A) (A) (A) (A) (A) (A) (A) (A) (A) (A) (A)
                 (A) (A) (A) (A) (A) (A) (A) (A) (A) (A) (A) (A)
                 (A) (A) (A) (A) (A) (A) (A) (A) (A) (A) (A) (A)
                 (A) (A) (A) (A) (A) (A) (A) (A) (A) (A) (A) (A)
                 (A) (A) (A) (A) (A) (A) (A) (A) (A) (A) (A) (A)
                 (A) (A) (A) (A) (A) (A) (A) (A) (A) (A) (A) (A)
                 (A) (A) (A) (A) (A) (A) (A) (A) (A) (A) (A) (A)
                 (A) (A) (A) (A) (A) (A) (A) (A) (A) (A) (A) (A)
                 (A) (A) (A) (A) (A) (A) (A) (A) (A) (A) (A) (A)
                 (A) (A) (A) (A) (A) (A) (A) (A) (A) (A) (A) (A)
                 (A) (A) (A) (A) (A)
 The electronic state is 1-A.
 Alpha  occ. eigenvalues --  -20.55237 -11.27486 -11.22040 -11.21761 -11.21696
 Alpha  occ. eigenvalues --  -11.20525  -1.34785  -1.06882  -1.01734  -0.90964
 Alpha  occ. eigenvalues --   -0.83664  -0.77653  -0.69349  -0.62117  -0.60907
 Alpha  occ. eigenvalues --   -0.58434  -0.57613  -0.55210  -0.52401  -0.49687
 Alpha  occ. eigenvalues --   -0.49188  -0.48959  -0.47183  -0.44675  -0.42174
 Alpha virt. eigenvalues --    0.21775   0.24428   0.25989   0.27449   0.28934
 Alpha virt. eigenvalues --    0.31023   0.32318   0.32944   0.33513   0.34113
 Alpha virt. eigenvalues --    0.35631   0.37087   0.42121   0.42759   0.43955
 Alpha virt. eigenvalues --    0.44234   0.47207   0.69851   0.72095   0.73405
 Alpha virt. eigenvalues --    0.76555   0.77713   0.79592   0.79995   0.89849
 Alpha virt. eigenvalues --    0.91649   0.92798   0.94749   0.96539   1.03583
 Alpha virt. eigenvalues --    1.05170   1.07342   1.10686   1.11806   1.12068
 Alpha virt. eigenvalues --    1.13967   1.14611   1.15927   1.17350   1.17806
 Alpha virt. eigenvalues --    1.19535   1.19838   1.21761   1.23735   1.25004
 Alpha virt. eigenvalues --    1.30896   1.33836   1.40285   1.53299   1.55136
 Alpha virt. eigenvalues --    1.55879   1.66834   1.70582   1.76348   1.82482
 Alpha virt. eigenvalues --    1.84803   1.87229   1.91002   1.94665   1.97735
 Alpha virt. eigenvalues --    2.00069   2.08355   2.11146   2.15790   2.17378
 Alpha virt. eigenvalues --    2.20864   2.23992   2.30375   2.34044   2.35845
 Alpha virt. eigenvalues --    2.36207   2.38895   2.39146   2.40312   2.43528
 Alpha virt. eigenvalues --    2.44859   2.45926   2.48704   2.55191   2.56396
 Alpha virt. eigenvalues --    2.57397   2.59371   2.61125   2.67248   2.69032
 Alpha virt. eigenvalues --    2.72291   2.80575   2.81418   2.82798   2.85449
 Alpha virt. eigenvalues --    2.91405   2.95966   2.97198   3.02552   3.06913
 Alpha virt. eigenvalues --    3.07013   3.09106   3.12570   3.13283   3.18827
 Alpha virt. eigenvalues --    3.20985   3.23396   3.24499   3.25380   3.27701
 Alpha virt. eigenvalues --    3.33146   3.35072   3.55831   3.57245   3.64693
 Alpha virt. eigenvalues --    3.68812   3.71412   3.77451   3.81519   3.83683
 Alpha virt. eigenvalues --    3.85226   3.88245   3.93892   3.94577   4.38484
 Alpha virt. eigenvalues --    4.73306   4.83186   4.95265   5.05302   5.14226
          Condensed to atoms (all electrons):
               1          2          3          4          5          6
     1  C    4.926432   0.405676   0.399762   0.402982   0.335860  -0.041609
     2  H    0.405676   0.547212  -0.028013  -0.029187  -0.035145   0.004196
     3  H    0.399762  -0.028013   0.598298  -0.030021  -0.041489  -0.002931
     4  H    0.402982  -0.029187  -0.030021   0.593203  -0.039828  -0.003838
     5  C    0.335860  -0.035145  -0.041489  -0.039828   4.994064   0.405963
     6  H   -0.041609   0.004196  -0.002931  -0.003838   0.405963   0.595237
     7  H   -0.042176  -0.002907   0.004552  -0.003168   0.403420  -0.028522
     8  C   -0.051515  -0.005543  -0.004766   0.004709   0.359662  -0.037721
     9  H   -0.006370   0.000498   0.002921  -0.000108  -0.049510   0.000343
    10  C    0.004734  -0.000012  -0.000033  -0.000081  -0.059503  -0.003739
    11  H   -0.000114  -0.000003   0.000002   0.000002   0.004859  -0.000069
    12  H   -0.000125   0.000010   0.000001  -0.000001  -0.006282   0.000453
    13  C   -0.000126  -0.000006  -0.000001  -0.000001  -0.002054  -0.001420
    14  H   -0.000005  -0.000001   0.000008   0.000003   0.000316  -0.001910
    15  H    0.000003   0.000000  -0.000000  -0.000000   0.000005   0.000101
    16  H   -0.000044   0.000000  -0.000000   0.000000  -0.000127   0.000352
    17  O    0.000074   0.003919   0.000091   0.000045  -0.055056   0.002436
    18  H   -0.000141  -0.000203  -0.000033   0.000006   0.006370  -0.000179
               7          8          9         10         11         12
     1  C   -0.042176  -0.051515  -0.006370   0.004734  -0.000114  -0.000125
     2  H   -0.002907  -0.005543   0.000498  -0.000012  -0.000003   0.000010
     3  H    0.004552  -0.004766   0.002921  -0.000033   0.000002   0.000001
     4  H   -0.003168   0.004709  -0.000108  -0.000081   0.000002  -0.000001
     5  C    0.403420   0.359662  -0.049510  -0.059503   0.004859  -0.006282
     6  H   -0.028522  -0.037721   0.000343  -0.003739  -0.000069   0.000453
     7  H    0.581363  -0.038328   0.004876  -0.004880  -0.000049   0.002847
     8  C   -0.038328   4.730811   0.413007   0.377208  -0.042375  -0.035068
     9  H    0.004876   0.413007   0.637432  -0.056661  -0.004144   0.004875
    10  C   -0.004880   0.377208  -0.056661   5.021245   0.406143   0.403115
    11  H   -0.000049  -0.042375  -0.004144   0.406143   0.616454  -0.033513
    12  H    0.002847  -0.035068   0.004875   0.403115  -0.033513   0.578015
    13  C    0.000434  -0.051683   0.001128   0.306571  -0.040390  -0.037808
    14  H    0.000359  -0.004348   0.000170  -0.038012   0.004456  -0.003744
    15  H   -0.000037   0.004107  -0.000176  -0.033695  -0.004958  -0.002685
    16  H    0.000041  -0.003880   0.002978  -0.042042  -0.002682   0.004433
    17  O    0.000938   0.191564  -0.039760  -0.049227  -0.001755   0.001615
    18  H   -0.000156  -0.026165  -0.004988  -0.004387   0.004148  -0.000415
              13         14         15         16         17         18
     1  C   -0.000126  -0.000005   0.000003  -0.000044   0.000074  -0.000141
     2  H   -0.000006  -0.000001   0.000000   0.000000   0.003919  -0.000203
     3  H   -0.000001   0.000008  -0.000000  -0.000000   0.000091  -0.000033
     4  H   -0.000001   0.000003  -0.000000   0.000000   0.000045   0.000006
     5  C   -0.002054   0.000316   0.000005  -0.000127  -0.055056   0.006370
     6  H   -0.001420  -0.001910   0.000101   0.000352   0.002436  -0.000179
     7  H    0.000434   0.000359  -0.000037   0.000041   0.000938  -0.000156
     8  C   -0.051683  -0.004348   0.004107  -0.003880   0.191564  -0.026165
     9  H    0.001128   0.000170  -0.000176   0.002978  -0.039760  -0.004988
    10  C    0.306571  -0.038012  -0.033695  -0.042042  -0.049227  -0.004387
    11  H   -0.040390   0.004456  -0.004958  -0.002682  -0.001755   0.004148
    12  H   -0.037808  -0.003744  -0.002685   0.004433   0.001615  -0.000415
    13  C    4.959199   0.404927   0.401308   0.400771   0.003430  -0.000052
    14  H    0.404927   0.580503  -0.029328  -0.030280  -0.000029   0.000005
    15  H    0.401308  -0.029328   0.578322  -0.028800  -0.000058  -0.000005
    16  H    0.400771  -0.030280  -0.028800   0.589997  -0.000005   0.000001
    17  O    0.003430  -0.000029  -0.000058  -0.000005   8.303836   0.304775
    18  H   -0.000052   0.000005  -0.000005   0.000001   0.304775   0.383663
 Mulliken charges:
               1
     1  C   -0.333296
     2  H    0.139509
     3  H    0.101653
     4  H    0.105283
     5  C   -0.221528
     6  H    0.112858
     7  H    0.121394
     8  C    0.220325
     9  H    0.093489
    10  C   -0.226744
    11  H    0.093988
    12  H    0.124279
    13  C   -0.344224
    14  H    0.116909
    15  H    0.115896
    16  H    0.109287
    17  O   -0.666834
    18  H    0.337756
 Sum of Mulliken charges =  -0.00000
 Mulliken charges with hydrogens summed into heavy atoms:
               1
     1  C    0.013149
     5  C    0.012725
     8  C    0.313814
    10  C   -0.008477
    13  C   -0.002132
    17  O   -0.329078
 Electronic spatial extent (au):  <R**2>=            773.6668
 Charge=              0.0000 electrons
 Dipole moment (field-independent basis, Debye):
    X=              1.4428    Y=             -0.2184    Z=              0.8730  Tot=              1.7004
 Quadrupole moment (field-independent basis, Debye-Ang):
   XX=            -41.6708   YY=            -38.5392   ZZ=            -39.6433
   XY=              2.8587   XZ=              0.0189   YZ=              2.4095
 Traceless Quadrupole moment (field-independent basis, Debye-Ang):
   XX=             -1.7197   YY=              1.4119   ZZ=              0.3078
   XY=              2.8587   XZ=              0.0189   YZ=              2.4095
 Octapole moment (field-independent basis, Debye-Ang**2):
  XXX=              0.2993  YYY=             17.5382  ZZZ=              0.3518  XYY=              3.3950
  XXY=              2.1888  XXZ=             -1.7580  XZZ=             -0.5707  YZZ=              2.8382
  YYZ=              4.6496  XYZ=             -0.2662
 Hexadecapole moment (field-independent basis, Debye-Ang**3):
 XXXX=           -682.4205 YYYY=           -237.4382 ZZZZ=            -86.7450 XXXY=             -1.9209
 XXXZ=              0.6688 YYYX=              6.0903 YYYZ=             13.9067 ZZZX=             -0.0630
 ZZZY=              0.1221 XXYY=           -164.3291 XXZZ=           -129.1158 YYZZ=            -60.6185
 XXYZ=              1.8267 YYXZ=              0.7074 ZZXY=             -0.4988
 N-N= 2.588874386021D+02 E-N=-1.151682983805D+03  KE= 2.707472483084D+02
 No NMR shielding tensors so no spin-rotation constants.
 Leave Link  601 at Sun Sep 19 19:55:45 2021, MaxMem=   524288000 cpu:               0.1 elap:               0.1
 (Enter /opt/gaussian/g16_legacy/l701.exe)
 ... and contract with generalized density number  2.
 Compute integral first derivatives.
 Leave Link  701 at Sun Sep 19 19:55:45 2021, MaxMem=   524288000 cpu:               0.1 elap:               0.1
 (Enter /opt/gaussian/g16_legacy/l702.exe)
 L702 exits ... SP integral derivatives will be done elsewhere.
 Leave Link  702 at Sun Sep 19 19:55:45 2021, MaxMem=   524288000 cpu:               0.0 elap:               0.0
 (Enter /opt/gaussian/g16_legacy/l703.exe)
 Integral derivatives from FoFJK, PRISM(SPDF).
 Compute integral first derivatives, UseDBF=F ICtDFT=           0.
 Calling FoFJK, ICntrl=  10002127 FMM=F ISym2X=0 I1Cent= 0 IOpClX= 0 NMat=1 NMatS=1 NMatT=0.
 FoFJK:  IHMeth= 1 ICntrl=10002127 DoSepK=F KAlg= 0 I1Cent=           0 FoldK=F
 IRaf=         0 NMat=       1 IRICut=       1 DoRegI=T DoRafI=F ISym2E= 0 IDoP0=0 IntGTp=1.
 FoFCou: FMM=F IPFlag=           0 FMFlag=      100000 FMFlg1=         800
         NFxFlg=           0 DoJE=F BraDBF=F KetDBF=F FulRan=T
         wScrn=  0.000000 ICntrl=  10002127 IOpCl=  0 I1Cent=           0 NGrid=           0
         NMat0=    1 NMatS0=      1 NMatT0=    0 NMatD0=    1 NMtDS0=    0 NMtDT0=    0
 Symmetry not used in FoFCou.
 Leave Link  703 at Sun Sep 19 19:55:51 2021, MaxMem=   524288000 cpu:               5.0 elap:               5.2
 (Enter /opt/gaussian/g16_legacy/l716.exe)
 Dipole        = 5.12686079D-01-4.32440589D-02 3.14863521D-01
 ***** Axes restored to original set *****
 -------------------------------------------------------------------
 Center     Atomic                   Forces (Hartrees/Bohr)
 Number     Number              X              Y              Z
 -------------------------------------------------------------------
      1        6          -0.002904054   -0.004044580   -0.003872569
      2        1           0.000244978    0.005182722    0.000525738
      3        1          -0.001047365   -0.001808253    0.002257568
      4        1           0.003220297    0.000121975   -0.001110772
      5        6           0.003228868   -0.006504164   -0.004016109
      6        1           0.004551511   -0.001236002    0.002093892
      7        1           0.004624454    0.003417808    0.000439038
      8        6           0.002985263    0.001053288    0.012515336
      9        1          -0.003154575    0.006324847   -0.000515448
     10        6          -0.000417281    0.002468474    0.000074995
     11        1          -0.001673251   -0.000460290   -0.002414315
     12        1          -0.001345669   -0.001355404   -0.005401495
     13        6          -0.000003945    0.005549521    0.003557730
     14        1           0.003573506    0.000171866   -0.001196521
     15        1          -0.001912024   -0.000193981   -0.003480081
     16        1          -0.001454013   -0.000723498    0.002383101
     17        8           0.000210141   -0.009013242   -0.001792316
     18        1          -0.008726839    0.001048914   -0.000047771
 -------------------------------------------------------------------
 Cartesian Forces:  Max     0.012515336 RMS     0.003664623
 Leave Link  716 at Sun Sep 19 19:55:51 2021, MaxMem=   524288000 cpu:               0.0 elap:               0.1
 (Enter /opt/gaussian/g16_legacy/l103.exe)

 GradGradGradGradGradGradGradGradGradGradGradGradGradGradGradGradGradGrad
 Berny optimization.
 FormGI is forming the generalized inverse of G from B-inverse, IUseBI=4.
 Internal  Forces:  Max     0.011515362 RMS     0.003087501
 Search for a local minimum.
 Step number   1 out of a maximum of   97
 All quantities printed in internal units (Hartrees-Bohrs-Radians)
 RMS Force = .30875D-02 SwitMx=.10000D-02 MixMth= 1
 Mixed Optimization -- RFO/linear search
 Second derivative matrix not updated -- first step.
 ITU=  0
     Eigenvalues ---    0.00319   0.00335   0.00450   0.00499   0.01315
     Eigenvalues ---    0.03407   0.03624   0.04121   0.04815   0.04876
     Eigenvalues ---    0.04882   0.05531   0.05534   0.05693   0.05727
     Eigenvalues ---    0.07557   0.08268   0.08609   0.12141   0.12400
     Eigenvalues ---    0.16000   0.16000   0.16000   0.16000   0.16000
     Eigenvalues ---    0.16000   0.16000   0.16754   0.19559   0.21893
     Eigenvalues ---    0.21944   0.29077   0.29185   0.29995   0.30350
     Eigenvalues ---    0.33951   0.34012   0.34038   0.34066   0.34243
     Eigenvalues ---    0.34258   0.34268   0.34287   0.34315   0.34317
     Eigenvalues ---    0.34406   0.41210   0.52826
 RFO step:  Lambda=-4.77149964D-03 EMin= 3.19081620D-03
 Linear search not attempted -- first point.
 Iteration  1 RMS(Cart)=  0.03928318 RMS(Int)=  0.00078210
 Iteration  2 RMS(Cart)=  0.00093440 RMS(Int)=  0.00037828
 Iteration  3 RMS(Cart)=  0.00000036 RMS(Int)=  0.00037828
 ITry= 1 IFail=0 DXMaxC= 1.47D-01 DCOld= 1.00D+10 DXMaxT= 3.00D-01 DXLimC= 3.00D+00 Rises=F
 Variable       Old X    -DE/DX   Delta X   Delta X   Delta X     New X
                                 (Linear)    (Quad)   (Total)
    R1        2.06798  -0.00486   0.00000  -0.01397  -0.01397   2.05402
    R2        2.06897  -0.00303   0.00000  -0.00872  -0.00872   2.06025
    R3        2.06880  -0.00320   0.00000  -0.00920  -0.00920   2.05960
    R4        2.87974   0.00221   0.00000   0.00726   0.00726   2.88700
    R5        2.06848  -0.00294   0.00000  -0.00845  -0.00845   2.06003
    R6        2.07266  -0.00290   0.00000  -0.00839  -0.00839   2.06427
    R7        2.89618  -0.01152   0.00000  -0.03882  -0.03882   2.85736
    R8        2.07218   0.00208   0.00000   0.00603   0.00603   2.07821
    R9        2.89843  -0.00368   0.00000  -0.01244  -0.01244   2.88599
   R10        2.69942   0.00433   0.00000   0.01038   0.01038   2.70980
   R11        2.07413  -0.00169   0.00000  -0.00490  -0.00490   2.06923
   R12        2.07310  -0.00343   0.00000  -0.00995  -0.00995   2.06315
   R13        2.87270   0.00462   0.00000   0.01498   0.01498   2.88768
   R14        2.06651  -0.00365   0.00000  -0.01046  -0.01046   2.05604
   R15        2.06921  -0.00363   0.00000  -0.01047  -0.01047   2.05874
   R16        2.06801  -0.00273   0.00000  -0.00786  -0.00786   2.06016
   R17        1.83817  -0.00865   0.00000  -0.01622  -0.01622   1.82195
    A1        1.89208   0.00007   0.00000  -0.00663  -0.00672   1.88536
    A2        1.88220   0.00075   0.00000   0.00913   0.00919   1.89139
    A3        1.94607  -0.00231   0.00000  -0.01539  -0.01541   1.93066
    A4        1.88534  -0.00094   0.00000  -0.00304  -0.00309   1.88225
    A5        1.93531   0.00056   0.00000   0.00098   0.00091   1.93622
    A6        1.92094   0.00188   0.00000   0.01522   0.01523   1.93617
    A7        1.88869   0.00240   0.00000   0.03045   0.03037   1.91906
    A8        1.88833   0.00276   0.00000   0.03207   0.03199   1.92032
    A9        1.96074   0.00059   0.00000   0.00444   0.00469   1.96543
   A10        1.87932   0.00011   0.00000  -0.00271  -0.00425   1.87507
   A11        1.92855  -0.00260   0.00000  -0.02852  -0.02880   1.89975
   A12        1.91592  -0.00311   0.00000  -0.03403  -0.03428   1.88164
   A13        1.91383  -0.00028   0.00000  -0.02735  -0.02723   1.88660
   A14        1.97430   0.00323   0.00000   0.00684   0.00727   1.98157
   A15        1.89226  -0.01002   0.00000  -0.05764  -0.05757   1.83469
   A16        1.91625  -0.00367   0.00000  -0.01940  -0.02048   1.89577
   A17        1.87695   0.00353   0.00000   0.04971   0.04875   1.92570
   A18        1.88743   0.00730   0.00000   0.05117   0.05102   1.93845
   A19        1.89923  -0.00219   0.00000  -0.01765  -0.01780   1.88143
   A20        1.91747  -0.00446   0.00000  -0.03699  -0.03713   1.88034
   A21        1.98832   0.00443   0.00000   0.01740   0.01753   2.00585
   A22        1.84018   0.00178   0.00000   0.01640   0.01587   1.85604
   A23        1.89772  -0.00082   0.00000   0.00419   0.00426   1.90198
   A24        1.91488   0.00108   0.00000   0.01679   0.01693   1.93181
   A25        1.94770   0.00023   0.00000   0.00074   0.00071   1.94841
   A26        1.92024   0.00214   0.00000   0.01571   0.01567   1.93591
   A27        1.93828   0.00049   0.00000   0.00088   0.00086   1.93915
   A28        1.87492  -0.00075   0.00000  -0.00050  -0.00056   1.87436
   A29        1.89496  -0.00100   0.00000  -0.01107  -0.01107   1.88389
   A30        1.88551  -0.00123   0.00000  -0.00634  -0.00637   1.87914
   A31        1.87719  -0.00290   0.00000  -0.01763  -0.01763   1.85956
    D1       -3.06516  -0.00206   0.00000  -0.03397  -0.03410  -3.09926
    D2       -1.03360   0.00081   0.00000  -0.00400  -0.00378  -1.03738
    D3        1.08415  -0.00083   0.00000  -0.02201  -0.02198   1.06217
    D4        1.10787  -0.00096   0.00000  -0.01573  -0.01591   1.09196
    D5        3.13943   0.00191   0.00000   0.01424   0.01441  -3.12935
    D6       -1.02601   0.00027   0.00000  -0.00377  -0.00380  -1.02981
    D7       -0.97716  -0.00136   0.00000  -0.02238  -0.02258  -0.99974
    D8        1.05440   0.00151   0.00000   0.00759   0.00774   1.06214
    D9       -3.11104  -0.00013   0.00000  -0.01042  -0.01047  -3.12150
   D10        0.99134   0.00055   0.00000   0.04743   0.04777   1.03911
   D11        3.13668  -0.00214   0.00000   0.00688   0.00687  -3.13963
   D12       -1.05325   0.00221   0.00000   0.03604   0.03569  -1.01756
   D13       -1.11978  -0.00109   0.00000   0.02553   0.02619  -1.09359
   D14        1.02556  -0.00378   0.00000  -0.01502  -0.01470   1.01086
   D15        3.11881   0.00056   0.00000   0.01414   0.01412   3.13293
   D16        3.09322   0.00230   0.00000   0.06753   0.06756  -3.12241
   D17       -1.04462  -0.00039   0.00000   0.02698   0.02667  -1.01796
   D18        1.04863   0.00395   0.00000   0.05614   0.05549   1.10412
   D19        3.05818  -0.00227   0.00000  -0.00951  -0.00938   3.04880
   D20        1.05167  -0.00075   0.00000   0.00086   0.00063   1.05230
   D21       -1.10465  -0.00195   0.00000  -0.00531  -0.00531  -1.10996
   D22       -1.08101  -0.00307   0.00000  -0.05449  -0.05412  -1.13512
   D23       -3.08752  -0.00155   0.00000  -0.04412  -0.04410  -3.13162
   D24        1.03935  -0.00275   0.00000  -0.05029  -0.05005   0.98930
   D25        0.96216   0.00330   0.00000   0.02357   0.02356   0.98572
   D26       -1.04435   0.00482   0.00000   0.03394   0.03357  -1.01078
   D27        3.08252   0.00362   0.00000   0.02777   0.02762   3.11014
   D28        3.09273  -0.00206   0.00000  -0.01523  -0.01545   3.07728
   D29        1.02463   0.00174   0.00000   0.02095   0.02266   1.04729
   D30       -1.04374   0.00023   0.00000  -0.01070  -0.01220  -1.05594
   D31        1.16257  -0.00089   0.00000  -0.00933  -0.00933   1.15324
   D32       -3.04114  -0.00027   0.00000   0.00083   0.00086  -3.04028
   D33       -0.95445  -0.00011   0.00000   0.00369   0.00372  -0.95073
   D34       -2.99942  -0.00133   0.00000  -0.01726  -0.01729  -3.01671
   D35       -0.91994  -0.00071   0.00000  -0.00710  -0.00711  -0.92705
   D36        1.16675  -0.00055   0.00000  -0.00423  -0.00424   1.16251
   D37       -0.99515   0.00092   0.00000   0.01366   0.01364  -0.98151
   D38        1.08433   0.00154   0.00000   0.02382   0.02383   1.10815
   D39       -3.11217   0.00170   0.00000   0.02668   0.02669  -3.08548
         Item               Value     Threshold  Converged?
 Maximum Force            0.011515     0.000450     NO 
 RMS     Force            0.003088     0.000300     NO 
 Maximum Displacement     0.146876     0.001800     NO 
 RMS     Displacement     0.039298     0.001200     NO 
 Predicted change in Energy=-2.502888D-03
 Lowest energy point so far.  Saving SCF results.
 GradGradGradGradGradGradGradGradGradGradGradGradGradGradGradGradGradGrad

 Leave Link  103 at Sun Sep 19 19:55:51 2021, MaxMem=   524288000 cpu:               0.0 elap:               0.1
 (Enter /opt/gaussian/g16_legacy/l202.exe)
                          Input orientation:                          
 ---------------------------------------------------------------------
 Center     Atomic      Atomic             Coordinates (Angstroms)
 Number     Number       Type             X           Y           Z
 ---------------------------------------------------------------------
      1          6           0       -2.164920    1.059158   -0.034671
      2          1           0       -1.799391    0.035531   -0.031069
      3          1           0       -1.812461    1.539987   -0.947465
      4          1           0       -3.253999    1.034837   -0.069097
      5          6           0       -1.674518    1.809896    1.202210
      6          1           0       -2.081994    2.820973    1.209590
      7          1           0       -2.025363    1.309036    2.107364
      8          6           0       -0.166299    1.890551    1.273315
      9          1           0        0.190675    2.411932    0.373222
     10          6           0        0.347260    2.634950    2.503950
     11          1           0        1.439301    2.555069    2.511896
     12          1           0       -0.006332    2.100217    3.387693
     13          6           0       -0.043526    4.110588    2.573656
     14          1           0       -1.117541    4.235877    2.694326
     15          1           0        0.438531    4.601159    3.418547
     16          1           0        0.256647    4.639334    1.668763
     17          8           0        0.281656    0.528355    1.270755
     18          1           0        1.245276    0.556248    1.256316
 ---------------------------------------------------------------------
                    Distance matrix (angstroms):
                    1          2          3          4          5
     1  C    0.000000
     2  H    1.086939   0.000000
     3  H    1.090237   1.761630   0.000000
     4  H    1.089894   1.765203   1.762027   0.000000
     5  C    1.527736   2.164473   2.170941   2.170645   0.000000
     6  H    2.158484   3.062317   2.523184   2.489762   1.090123
     7  H    2.161072   2.499155   3.070936   2.514302   1.092363
     8  C    2.529136   2.794549   2.786505   3.473933   1.512047
     9  H    2.746853   3.125875   2.552852   3.736016   2.128054
    10  C    3.903687   4.217986   4.216113   4.706379   2.542209
    11  H    4.659739   4.827408   4.855052   5.567737   3.459253
    12  H    4.178024   4.377890   4.729647   4.861252   2.764682
    13  C    4.540364   5.145263   4.704828   5.172187   3.135949
    14  H    4.316941   5.053277   4.584036   4.737892   2.902071
    15  H    5.590031   6.144355   5.787901   6.206214   4.143461
    16  H    4.645787   5.320876   4.553220   5.323269   3.457281
    17  O    2.823406   2.503672   3.213911   3.814784   2.339586
    18  H    3.680898   3.346417   3.895401   4.714790   3.178012
                    6          7          8          9         10
     6  H    0.000000
     7  H    1.759307   0.000000
     8  C    2.130642   2.118943   0.000000
     9  H    2.455983   3.022326   1.099744   0.000000
    10  C    2.758849   2.746756   1.527198   2.148083   0.000000
    11  H    3.763805   3.704072   2.133921   2.480622   1.094988
    12  H    3.093865   2.518273   2.130761   3.036942   1.091773
    13  C    2.771125   3.463206   2.575756   2.789658   1.528097
    14  H    2.266400   3.120107   2.902532   3.228891   2.178268
    15  H    3.794944   4.316022   3.509307   3.758744   2.170437
    16  H    2.997753   4.060891   2.809105   2.577616   2.173317
    17  O    3.293430   2.575212   1.433962   2.088469   2.441888
    18  H    4.025158   3.462378   1.942472   2.309892   2.585349
                   11         12         13         14         15
    11  H    0.000000
    12  H    1.750362   0.000000
    13  C    2.149937   2.169247   0.000000
    14  H    3.065263   2.505312   1.088010   0.000000
    15  H    2.451538   2.540387   1.089441   1.754789   0.000000
    16  H    2.540414   3.077499   1.090188   1.761520   1.759626
    17  O    2.643510   2.652379   3.825661   4.210704   4.607098
    18  H    2.368420   2.914298   4.003714   4.603309   4.656972
                   16         17         18
    16  H    0.000000
    17  O    4.130277   0.000000
    18  H    4.221267   0.964133   0.000000
 Stoichiometry    C5H12O
 Framework group  C1[X(C5H12O)]
 Deg. of freedom    48
 Full point group                 C1      NOp   1
 RotChk:  IX=0 Diff= 4.31D-02
 Largest Abelian subgroup         C1      NOp   1
 Largest concise Abelian subgroup C1      NOp   1
                         Standard orientation:                         
 ---------------------------------------------------------------------
 Center     Atomic      Atomic             Coordinates (Angstroms)
 Number     Number       Type             X           Y           Z
 ---------------------------------------------------------------------
      1          6           0       -2.255382   -0.768228    0.142321
      2          1           0       -2.763252    0.159431   -0.108587
      3          1           0       -2.294157   -0.891902    1.224826
      4          1           0       -2.806001   -1.593939   -0.308111
      5          6           0       -0.810310   -0.741337   -0.352675
      6          1           0       -0.324301   -1.692237   -0.133698
      7          1           0       -0.788533   -0.604541   -1.436220
      8          6           0       -0.002954    0.374846    0.270703
      9          1           0       -0.005235    0.230316    1.360906
     10          6           0        1.445232    0.422924   -0.211770
     11          1           0        1.912501    1.314045    0.220158
     12          1           0        1.430784    0.576850   -1.292541
     13          6           0        2.284852   -0.802165    0.147777
     14          1           0        1.930493   -1.695231   -0.362742
     15          1           0        3.326608   -0.656639   -0.135856
     16          1           0        2.257882   -0.995511    1.220343
     17          8           0       -0.701220    1.579004   -0.073788
     18          1           0       -0.235652    2.301086    0.363700
 ---------------------------------------------------------------------
 Rotational constants (GHZ):           5.2659174           2.2499895           1.7108294
 Leave Link  202 at Sun Sep 19 19:55:51 2021, MaxMem=   524288000 cpu:               0.0 elap:               0.0
 (Enter /opt/gaussian/g16_legacy/l301.exe)
 Standard basis: 6-31G(d,p) (6D, 7F)
 Ernie: Thresh=  0.10000D-02 Tol=  0.10000D-05 Strict=F.
 There are   150 symmetry adapted cartesian basis functions of A   symmetry.
 There are   150 symmetry adapted basis functions of A   symmetry.
   150 basis functions,   252 primitive gaussians,   150 cartesian basis functions
    25 alpha electrons       25 beta electrons
       nuclear repulsion energy       259.7284883982 Hartrees.
 IExCor=    0 DFT=F Ex=HF Corr=None ExCW=0 ScaHFX=  1.000000
 ScaDFX=  1.000000  1.000000  1.000000  1.000000 ScalE2=  1.000000  1.000000
 IRadAn=      5 IRanWt=     -1 IRanGd=            0 ICorTp=0 IEmpDi=  4
 NAtoms=   18 NActive=   18 NUniq=   18 SFac= 1.00D+00 NAtFMM=   60 NAOKFM=F Big=F
 Integral buffers will be    131072 words long.
 Raffenetti 1 integral format.
 Two-electron integral symmetry is turned on.
 Leave Link  301 at Sun Sep 19 19:55:51 2021, MaxMem=   524288000 cpu:               0.0 elap:               0.0
 (Enter /opt/gaussian/g16_legacy/l302.exe)
 NPDir=0 NMtPBC=     1 NCelOv=     1 NCel=       1 NClECP=     1 NCelD=      1
         NCelK=      1 NCelE2=     1 NClLst=     1 CellRange=     0.0.
 One-electron integrals computed using PRISM.
 One-electron integral symmetry used in STVInt
 NBasis=   150 RedAO= T EigKep=  3.19D-03  NBF=   150
 NBsUse=   150 1.00D-06 EigRej= -1.00D+00 NBFU=   150
 Leave Link  302 at Sun Sep 19 19:55:51 2021, MaxMem=   524288000 cpu:               0.1 elap:               0.1
 (Enter /opt/gaussian/g16_legacy/l303.exe)
 DipDrv:  MaxL=1.
 Leave Link  303 at Sun Sep 19 19:55:51 2021, MaxMem=   524288000 cpu:               0.0 elap:               0.0
 (Enter /opt/gaussian/g16_legacy/l401.exe)
 Initial guess from the checkpoint file:  "06-PVA_002_gaussian.chk"
 B after Tr=    -0.000000    0.000000   -0.000000
         Rot=    0.999869   -0.003106   -0.000320   -0.015861 Ang=  -1.85 deg.
 Guess basis will be translated and rotated to current coordinates.
 JPrj=2 DoOrth=T DoCkMO=T.
 Generating alternative initial guess.
 ExpMin= 1.61D-01 ExpMax= 5.48D+03 ExpMxC= 8.25D+02 IAcc=2 IRadAn=         4 AccDes= 0.00D+00
 Harris functional with IExCor=  205 and IRadAn=       4 diagonalized for initial guess.
 HarFok:  IExCor=  205 AccDes= 0.00D+00 IRadAn=         4 IDoV= 1 UseB2=F ITyADJ=14
 ICtDFT=  3500011 ScaDFX=  1.000000  1.000000  1.000000  1.000000
 FoFCou: FMM=F IPFlag=           0 FMFlag=      100000 FMFlg1=           0
         NFxFlg=           0 DoJE=T BraDBF=F KetDBF=T FulRan=T
         wScrn=  0.000000 ICntrl=       500 IOpCl=  0 I1Cent=   200000004 NGrid=           0
         NMat0=    1 NMatS0=      1 NMatT0=    0 NMatD0=    1 NMtDS0=    0 NMtDT0=    0
 Petite list used in FoFCou.
 Harris En= -271.800753618435    
 Leave Link  401 at Sun Sep 19 19:55:53 2021, MaxMem=   524288000 cpu:               1.3 elap:               1.3
 (Enter /opt/gaussian/g16_legacy/l502.exe)
 Keep R1 ints in memory in canonical form, NReq=65856006.
 FoFCou: FMM=F IPFlag=           0 FMFlag=           0 FMFlg1=           0
         NFxFlg=           0 DoJE=F BraDBF=F KetDBF=F FulRan=T
         wScrn=  0.000000 ICntrl=       600 IOpCl=  0 I1Cent=           0 NGrid=           0
         NMat0=    1 NMatS0=  11325 NMatT0=    0 NMatD0=    1 NMtDS0=    0 NMtDT0=    0
 Symmetry not used in FoFCou.
 Two-electron integral symmetry not used.
 Closed shell SCF:
 Using DIIS extrapolation, IDIIS=  1040.
 NGot=   524288000 LenX=   460106785 LenY=   460083844
 Requested convergence on RMS density matrix=1.00D-08 within 128 cycles.
 Requested convergence on MAX density matrix=1.00D-06.
 Requested convergence on             energy=1.00D-06.
 No special actions if energy rises.

 Cycle   1  Pass 1  IDiag  1:
 E= -271.203261870591    
 DIIS: error= 2.06D-03 at cycle   1 NSaved=   1.
 NSaved= 1 IEnMin= 1 EnMin= -271.203261870591     IErMin= 1 ErrMin= 2.06D-03
 ErrMax= 2.06D-03  0.00D+00 EMaxC= 1.00D-01 BMatC= 1.24D-03 BMatP= 1.24D-03
 IDIUse=3 WtCom= 9.79D-01 WtEn= 2.06D-02
 Coeff-Com:  0.100D+01
 Coeff-En:   0.100D+01
 Coeff:      0.100D+01
 Gap=     2.194 Goal=   None    Shift=    0.000
 GapD=    2.194 DampG=2.000 DampE=1.000 DampFc=2.0000 IDamp=-1.
 RMSDP=2.56D-04 MaxDP=5.18D-03              OVMax= 6.21D-03

 Cycle   2  Pass 1  IDiag  1:
 E= -271.204810176217     Delta-E=       -0.001548305626 Rises=F Damp=F
 DIIS: error= 3.94D-04 at cycle   2 NSaved=   2.
 NSaved= 2 IEnMin= 2 EnMin= -271.204810176217     IErMin= 2 ErrMin= 3.94D-04
 ErrMax= 3.94D-04  0.00D+00 EMaxC= 1.00D-01 BMatC= 7.28D-05 BMatP= 1.24D-03
 IDIUse=3 WtCom= 9.96D-01 WtEn= 3.94D-03
 Coeff-Com: -0.203D+00 0.120D+01
 Coeff-En:   0.000D+00 0.100D+01
 Coeff:     -0.202D+00 0.120D+01
 Gap=     0.645 Goal=   None    Shift=    0.000
 RMSDP=8.71D-05 MaxDP=1.78D-03 DE=-1.55D-03 OVMax= 2.63D-03

 Cycle   3  Pass 1  IDiag  1:
 E= -271.204947907490     Delta-E=       -0.000137731273 Rises=F Damp=F
 DIIS: error= 1.58D-04 at cycle   3 NSaved=   3.
 NSaved= 3 IEnMin= 3 EnMin= -271.204947907490     IErMin= 3 ErrMin= 1.58D-04
 ErrMax= 1.58D-04  0.00D+00 EMaxC= 1.00D-01 BMatC= 5.00D-06 BMatP= 7.28D-05
 IDIUse=3 WtCom= 9.98D-01 WtEn= 1.58D-03
 Coeff-Com: -0.361D-01 0.388D-01 0.997D+00
 Coeff-En:   0.000D+00 0.000D+00 0.100D+01
 Coeff:     -0.360D-01 0.387D-01 0.997D+00
 Gap=     0.645 Goal=   None    Shift=    0.000
 RMSDP=2.48D-05 MaxDP=6.88D-04 DE=-1.38D-04 OVMax= 7.48D-04

 Cycle   4  Pass 1  IDiag  1:
 E= -271.204956843216     Delta-E=       -0.000008935726 Rises=F Damp=F
 DIIS: error= 5.59D-05 at cycle   4 NSaved=   4.
 NSaved= 4 IEnMin= 4 EnMin= -271.204956843216     IErMin= 4 ErrMin= 5.59D-05
 ErrMax= 5.59D-05  0.00D+00 EMaxC= 1.00D-01 BMatC= 7.86D-07 BMatP= 5.00D-06
 IDIUse=1 WtCom= 1.00D+00 WtEn= 0.00D+00
 Coeff-Com:  0.153D-01-0.122D+00 0.154D+00 0.953D+00
 Coeff:      0.153D-01-0.122D+00 0.154D+00 0.953D+00
 Gap=     0.645 Goal=   None    Shift=    0.000
 RMSDP=1.01D-05 MaxDP=2.58D-04 DE=-8.94D-06 OVMax= 2.80D-04

 Cycle   5  Pass 1  IDiag  1:
 E= -271.204958118962     Delta-E=       -0.000001275747 Rises=F Damp=F
 DIIS: error= 1.31D-05 at cycle   5 NSaved=   5.
 NSaved= 5 IEnMin= 5 EnMin= -271.204958118962     IErMin= 5 ErrMin= 1.31D-05
 ErrMax= 1.31D-05  0.00D+00 EMaxC= 1.00D-01 BMatC= 4.77D-08 BMatP= 7.86D-07
 IDIUse=1 WtCom= 1.00D+00 WtEn= 0.00D+00
 Coeff-Com:  0.328D-02-0.804D-02-0.681D-01 0.426D-01 0.103D+01
 Coeff:      0.328D-02-0.804D-02-0.681D-01 0.426D-01 0.103D+01
 Gap=     0.645 Goal=   None    Shift=    0.000
 RMSDP=2.78D-06 MaxDP=7.98D-05 DE=-1.28D-06 OVMax= 9.10D-05

 Cycle   6  Pass 1  IDiag  1:
 E= -271.204958211379     Delta-E=       -0.000000092417 Rises=F Damp=F
 DIIS: error= 5.94D-06 at cycle   6 NSaved=   6.
 NSaved= 6 IEnMin= 6 EnMin= -271.204958211379     IErMin= 6 ErrMin= 5.94D-06
 ErrMax= 5.94D-06  0.00D+00 EMaxC= 1.00D-01 BMatC= 5.98D-09 BMatP= 4.77D-08
 IDIUse=1 WtCom= 1.00D+00 WtEn= 0.00D+00
 Coeff-Com: -0.829D-03 0.913D-02-0.224D-01-0.726D-01 0.145D+00 0.941D+00
 Coeff:     -0.829D-03 0.913D-02-0.224D-01-0.726D-01 0.145D+00 0.941D+00
 Gap=     0.645 Goal=   None    Shift=    0.000
 RMSDP=9.05D-07 MaxDP=2.61D-05 DE=-9.24D-08 OVMax= 3.66D-05

 Cycle   7  Pass 1  IDiag  1:
 E= -271.204958221509     Delta-E=       -0.000000010130 Rises=F Damp=F
 DIIS: error= 1.75D-06 at cycle   7 NSaved=   7.
 NSaved= 7 IEnMin= 7 EnMin= -271.204958221509     IErMin= 7 ErrMin= 1.75D-06
 ErrMax= 1.75D-06  0.00D+00 EMaxC= 1.00D-01 BMatC= 6.91D-10 BMatP= 5.98D-09
 IDIUse=1 WtCom= 1.00D+00 WtEn= 0.00D+00
 Coeff-Com: -0.543D-03 0.202D-02 0.740D-02-0.137D-01-0.133D+00 0.741D-01
 Coeff-Com:  0.106D+01
 Coeff:     -0.543D-03 0.202D-02 0.740D-02-0.137D-01-0.133D+00 0.741D-01
 Coeff:      0.106D+01
 Gap=     0.645 Goal=   None    Shift=    0.000
 RMSDP=3.80D-07 MaxDP=1.13D-05 DE=-1.01D-08 OVMax= 1.86D-05

 Cycle   8  Pass 1  IDiag  1:
 E= -271.204958222956     Delta-E=       -0.000000001446 Rises=F Damp=F
 DIIS: error= 4.72D-07 at cycle   8 NSaved=   8.
 NSaved= 8 IEnMin= 8 EnMin= -271.204958222956     IErMin= 8 ErrMin= 4.72D-07
 ErrMax= 4.72D-07  0.00D+00 EMaxC= 1.00D-01 BMatC= 3.35D-11 BMatP= 6.91D-10
 IDIUse=1 WtCom= 1.00D+00 WtEn= 0.00D+00
 Coeff-Com:  0.122D-03-0.864D-03 0.672D-03 0.664D-02 0.598D-02-0.710D-01
 Coeff-Com: -0.113D+00 0.117D+01
 Coeff:      0.122D-03-0.864D-03 0.672D-03 0.664D-02 0.598D-02-0.710D-01
 Coeff:     -0.113D+00 0.117D+01
 Gap=     0.645 Goal=   None    Shift=    0.000
 RMSDP=1.05D-07 MaxDP=2.14D-06 DE=-1.45D-09 OVMax= 5.18D-06

 Cycle   9  Pass 1  IDiag  1:
 E= -271.204958223041     Delta-E=       -0.000000000085 Rises=F Damp=F
 DIIS: error= 1.45D-07 at cycle   9 NSaved=   9.
 NSaved= 9 IEnMin= 9 EnMin= -271.204958223041     IErMin= 9 ErrMin= 1.45D-07
 ErrMax= 1.45D-07  0.00D+00 EMaxC= 1.00D-01 BMatC= 3.01D-12 BMatP= 3.35D-11
 IDIUse=1 WtCom= 1.00D+00 WtEn= 0.00D+00
 Coeff-Com:  0.551D-04-0.236D-03-0.549D-03 0.170D-02 0.112D-01-0.124D-01
 Coeff-Com: -0.925D-01 0.817D-01 0.101D+01
 Coeff:      0.551D-04-0.236D-03-0.549D-03 0.170D-02 0.112D-01-0.124D-01
 Coeff:     -0.925D-01 0.817D-01 0.101D+01
 Gap=     0.645 Goal=   None    Shift=    0.000
 RMSDP=2.77D-08 MaxDP=6.36D-07 DE=-8.52D-11 OVMax= 1.40D-06

 Cycle  10  Pass 1  IDiag  1:
 E= -271.204958223042     Delta-E=       -0.000000000002 Rises=F Damp=F
 DIIS: error= 4.28D-08 at cycle  10 NSaved=  10.
 NSaved=10 IEnMin=10 EnMin= -271.204958223042     IErMin=10 ErrMin= 4.28D-08
 ErrMax= 4.28D-08  0.00D+00 EMaxC= 1.00D-01 BMatC= 2.51D-13 BMatP= 3.01D-12
 IDIUse=1 WtCom= 1.00D+00 WtEn= 0.00D+00
 Coeff-Com: -0.103D-04 0.720D-04-0.641D-04-0.543D-03-0.477D-03 0.555D-02
 Coeff-Com:  0.103D-01-0.105D+00 0.168D-01 0.107D+01
 Coeff:     -0.103D-04 0.720D-04-0.641D-04-0.543D-03-0.477D-03 0.555D-02
 Coeff:      0.103D-01-0.105D+00 0.168D-01 0.107D+01
 Gap=     0.645 Goal=   None    Shift=    0.000
 RMSDP=8.52D-09 MaxDP=2.22D-07 DE=-1.59D-12 OVMax= 3.69D-07

 SCF Done:  E(RHF) =  -271.204958223     A.U. after   10 cycles
            NFock= 10  Conv=0.85D-08     -V/T= 2.0013
 KE= 2.708431404709D+02 PE=-1.153428209848D+03 EE= 3.516516227562D+02
 Leave Link  502 at Sun Sep 19 19:55:55 2021, MaxMem=   524288000 cpu:               3.0 elap:               2.9
 (Enter /opt/gaussian/g16_legacy/l801.exe)
 ExpMin= 1.61D-01 ExpMax= 5.48D+03 ExpMxC= 8.25D+02 IAcc=3 IRadAn=         5 AccDes= 0.00D+00
 HarFok:  IExCor=  205 AccDes= 0.00D+00 IRadAn=         5 IDoV=-2 UseB2=F ITyADJ=14
 ICtDFT= 12500011 ScaDFX=  1.000000  1.000000  1.000000  1.000000
 Largest valence mixing into a core orbital is  2.02D-04
 Largest core mixing into a valence orbital is  3.26D-05
 Range of M.O.s used for correlation:     7   150
 NBasis=   150 NAE=    25 NBE=    25 NFC=     6 NFV=     0
 NROrb=    144 NOA=    19 NOB=    19 NVA=   125 NVB=   125
 Leave Link  801 at Sun Sep 19 19:55:56 2021, MaxMem=   524288000 cpu:               0.6 elap:               0.6
 (Enter /opt/gaussian/g16_legacy/l906.exe)
 Frozen-core derivative calculation, NFC=   6 NFV=   0.
 FulOut=F Deriv=T AODrv=T NAtomX=    18
   MMem=         316  MDisk=          19 MDiskD=          19
  W3Min=      562500 MinDsk=      807575 NBas6D=         150
 NBas2D=       11523    NTT=       11325    LW2=     2040000
    MDV=   524001272 MDiskM=       48333 NBas2p=       11001
 Fully direct method using O(ONN) memory.
 IMap=   1   2   3   4   5   6   7   8   9  10  11  12  13  14  15  16  17  18  19  20
 IMap=  21  22  23  24  25
 JobTyp=1 Pass  1:  I=   7 to  25 NPSUse=  1 ParTrn=F ParDer=F DoDerP=T.
 Spin components of T(2) and E(2):
     alpha-alpha T2 =       0.3391823207D-01 E2=     -0.1062660929D+00
     alpha-beta  T2 =       0.2146494705D+00 E2=     -0.7039407903D+00
     beta-beta   T2 =       0.3391823207D-01 E2=     -0.1062660929D+00
 The integrals were generated   1 times.
 ANorm=    0.1132468955D+01
 E2 =    -0.9164729761D+00 EUMP2 =    -0.27212143119916D+03
 Leave Link  906 at Sun Sep 19 19:56:17 2021, MaxMem=   524288000 cpu:              20.5 elap:              20.5
 (Enter /opt/gaussian/g16_legacy/l1002.exe)
 Minotr:  Closed shell wavefunction.
          Computing MP2/KS-MP2 derivatives.
          Using Z-Vector for PSCF gradient.
          Skipping F1 and S1 gradient terms here.
          IDoAtm=111111111111111111
          Frozen-core window.
          Direct CPHF calculation.
          Differentiating once with respect to electric field.
                with respect to dipole field.
          Differentiating once with respect to nuclear coordinates.
          Requested convergence is 1.0D-10 RMS, and 1.0D-09 maximum.
[...]
 ! D26   D(17,8,10,12)         -59.4766         -DE/DX =    0.0                 !
 ! D27   D(17,8,10,13)         176.8147         -DE/DX =    0.0                 !
 ! D28   D(5,8,17,18)          177.6978         -DE/DX =    0.0                 !
 ! D29   D(9,8,17,18)           60.7294         -DE/DX =    0.0                 !
 ! D30   D(10,8,17,18)         -58.983          -DE/DX =    0.0                 !
 ! D31   D(8,10,13,14)          66.6238         -DE/DX =    0.0                 !
 ! D32   D(8,10,13,15)        -173.4448         -DE/DX =    0.0                 !
 ! D33   D(8,10,13,16)         -53.7928         -DE/DX =    0.0                 !
 ! D34   D(11,10,13,14)       -172.5259         -DE/DX =    0.0                 !
 ! D35   D(11,10,13,15)        -52.5944         -DE/DX =    0.0                 !
 ! D36   D(11,10,13,16)         67.0575         -DE/DX =    0.0                 !
 ! D37   D(12,10,13,14)        -55.6153         -DE/DX =    0.0                 !
 ! D38   D(12,10,13,15)         64.3161         -DE/DX =    0.0                 !
 ! D39   D(12,10,13,16)       -176.0319         -DE/DX =    0.0                 !
 --------------------------------------------------------------------------------
 Lowest energy point so far.  Saving SCF results.
 Largest change from initial coordinates is atom   18       0.105 Angstoms.
 GradGradGradGradGradGradGradGradGradGradGradGradGradGradGradGradGradGrad

 Leave Link  103 at Sun Sep 19 19:59:45 2021, MaxMem=   524288000 cpu:               0.0 elap:               0.4
 (Enter /opt/gaussian/g16_legacy/l202.exe)
                          Input orientation:                          
 ---------------------------------------------------------------------
 Center     Atomic      Atomic             Coordinates (Angstroms)
 Number     Number       Type             X           Y           Z
 ---------------------------------------------------------------------
      1          6           0       -2.172635    1.060490   -0.034451
      2          1           0       -1.795752    0.041269   -0.035176
      3          1           0       -1.824836    1.551010   -0.944284
      4          1           0       -3.261170    1.030098   -0.065479
      5          6           0       -1.682837    1.808129    1.200030
      6          1           0       -2.095493    2.818403    1.209286
      7          1           0       -2.032594    1.307202    2.106404
      8          6           0       -0.167550    1.894556    1.272136
      9          1           0        0.195539    2.419836    0.375073
     10          6           0        0.344896    2.628653    2.508304
     11          1           0        1.436322    2.543879    2.521865
     12          1           0       -0.019694    2.098436    3.390798
     13          6           0       -0.039395    4.103389    2.568234
     14          1           0       -1.113235    4.233422    2.688741
     15          1           0        0.448890    4.596068    3.407801
     16          1           0        0.261620    4.621636    1.657027
     17          8           0        0.303167    0.541896    1.267300
     18          1           0        1.267759    0.575325    1.275689
 ---------------------------------------------------------------------
                    Distance matrix (angstroms):
                    1          2          3          4          5
     1  C    0.000000
     2  H    1.086671   0.000000
     3  H    1.090583   1.762566   0.000000
     4  H    1.089401   1.768092   1.762584   0.000000
     5  C    1.524077   2.158768   2.164338   2.167482   0.000000
     6  H    2.154783   3.057941   2.513444   2.486335   1.091340
     7  H    2.159569   2.499009   3.067459   2.510629   1.093056
     8  C    2.534404   2.791913   2.788752   3.479509   1.519461
     9  H    2.761119   3.129077   2.564659   3.751572   2.140802
    10  C    3.906750   4.212626   4.217749   4.709930   2.548831
    11  H    4.664736   4.821599   4.861597   5.572460   3.466659
    12  H    4.176699   4.373056   4.727700   4.857402   2.765825
    13  C    4.536950   5.134525   4.694701   5.173141   3.137053
    14  H    4.313420   5.045760   4.571715   4.739265   2.902197
    15  H    5.587647   6.135039   5.777789   6.208410   4.146217
    16  H    4.633407   5.298688   4.533085   5.317539   3.450446
    17  O    2.844835   2.520422   3.230760   3.836552   2.356286
    18  H    3.713242   3.374712   3.929934   4.745181   3.198679
                    6          7          8          9         10
     6  H    0.000000
     7  H    1.758552   0.000000
     8  C    2.138786   2.125882   0.000000
     9  H    2.470545   3.033156   1.101124   0.000000
    10  C    2.771092   2.749584   1.526305   2.148624   0.000000
    11  H    3.777823   3.706124   2.134443   2.482669   1.094798
    12  H    3.096173   2.515449   2.133578   3.040431   1.092178
    13  C    2.779473   3.464792   2.564222   2.774797   1.525161
    14  H    2.270660   3.122034   2.893333   3.217924   2.175772
    15  H    3.803610   4.320652   3.498461   3.741338   2.165787
    16  H    3.001351   4.055962   2.787345   2.548666   2.168776
    17  O    3.307479   2.597223   1.432232   2.081901   2.428248
    18  H    4.043176   3.481101   1.949486   2.315812   2.566548
                   11         12         13         14         15
    11  H    0.000000
    12  H    1.753125   0.000000
    13  C    2.147547   2.167218   0.000000
    14  H    3.063109   2.499376   1.088376   0.000000
    15  H    2.443641   2.541264   1.089049   1.757496   0.000000
    16  H    2.538689   3.074352   1.090637   1.762205   1.760946
    17  O    2.620288   2.652603   3.807100   4.201672   4.586861
    18  H    2.335931   2.907076   3.978260   4.587757   4.624156
                   16         17         18
    16  H    0.000000
    17  O    4.098524   0.000000
    18  H    4.186928   0.965208   0.000000
 Stoichiometry    C5H12O
 Framework group  C1[X(C5H12O)]
 Deg. of freedom    48
 Full point group                 C1      NOp   1
 RotChk:  IX=0 Diff= 1.32D-15
 Largest Abelian subgroup         C1      NOp   1
 Largest concise Abelian subgroup C1      NOp   1
                         Standard orientation:                         
 ---------------------------------------------------------------------
 Center     Atomic      Atomic             Coordinates (Angstroms)
 Number     Number       Type             X           Y           Z
 ---------------------------------------------------------------------
      1          6           0       -2.265874   -0.753681    0.141888
      2          1           0       -2.759266    0.182774   -0.104016
      3          1           0       -2.299864   -0.880490    1.224540
      4          1           0       -2.825943   -1.572135   -0.308944
      5          6           0       -0.824361   -0.741636   -0.352790
      6          1           0       -0.349119   -1.699080   -0.132629
      7          1           0       -0.800185   -0.610029   -1.437624
      8          6           0        0.001128    0.372267    0.268941
      9          1           0        0.004817    0.236256    1.361627
     10          6           0        1.445525    0.410438   -0.222863
     11          1           0        1.920773    1.302692    0.197379
     12          1           0        1.429445    0.547121   -1.306335
     13          6           0        2.270636   -0.815716    0.153770
     14          1           0        1.911107   -1.711147   -0.349723
     15          1           0        3.314992   -0.678469   -0.122837
     16          1           0        2.231743   -0.996150    1.228675
     17          8           0       -0.670044    1.592135   -0.066821
     18          1           0       -0.180475    2.311550    0.350782
 ---------------------------------------------------------------------
 Rotational constants (GHZ):           5.2319581           2.2563745           1.7118597
 Leave Link  202 at Sun Sep 19 19:59:45 2021, MaxMem=   524288000 cpu:               0.0 elap:               0.1
 (Enter /opt/gaussian/g16_legacy/l601.exe)
 Copying SCF densities to generalized density rwf, IOpCl= 0 IROHF=0.

 **********************************************************************

            Population analysis using the SCF density.

 **********************************************************************

 Orbital symmetries:
       Occupied  (A) (A) (A) (A) (A) (A) (A) (A) (A) (A) (A) (A)
                 (A) (A) (A) (A) (A) (A) (A) (A) (A) (A) (A) (A)
                 (A)
       Virtual   (A) (A) (A) (A) (A) (A) (A) (A) (A) (A) (A) (A)
                 (A) (A) (A) (A) (A) (A) (A) (A) (A) (A) (A) (A)
                 (A) (A) (A) (A) (A) (A) (A) (A) (A) (A) (A) (A)
                 (A) (A) (A) (A) (A) (A) (A) (A) (A) (A) (A) (A)
                 (A) (A) (A) (A) (A) (A) (A) (A) (A) (A) (A) (A)
                 (A) (A) (A) (A) (A) (A) (A) (A) (A) (A) (A) (A)
                 (A) (A) (A) (A) (A) (A) (A) (A) (A) (A) (A) (A)
                 (A) (A) (A) (A) (A) (A) (A) (A) (A) (A) (A) (A)
                 (A) (A) (A) (A) (A) (A) (A) (A) (A) (A) (A) (A)
                 (A) (A) (A) (A) (A) (A) (A) (A) (A) (A) (A) (A)
                 (A) (A) (A) (A) (A)
 The electronic state is 1-A.
 Alpha  occ. eigenvalues --  -20.55412 -11.27287 -11.22085 -11.21810 -11.21267
 Alpha  occ. eigenvalues --  -11.20210  -1.34984  -1.07179  -1.01744  -0.91300
 Alpha  occ. eigenvalues --   -0.84016  -0.77503  -0.69711  -0.62258  -0.60849
 Alpha  occ. eigenvalues --   -0.58506  -0.57300  -0.55122  -0.52726  -0.49964
 Alpha  occ. eigenvalues --   -0.49259  -0.49136  -0.47127  -0.44768  -0.42431
 Alpha virt. eigenvalues --    0.21963   0.24481   0.26384   0.27310   0.29250
 Alpha virt. eigenvalues --    0.30986   0.32398   0.33245   0.33847   0.34243
 Alpha virt. eigenvalues --    0.35989   0.37271   0.41879   0.42589   0.44118
 Alpha virt. eigenvalues --    0.44803   0.47206   0.69883   0.71830   0.73310
 Alpha virt. eigenvalues --    0.76499   0.77456   0.79730   0.80148   0.90355
 Alpha virt. eigenvalues --    0.91655   0.93068   0.94483   0.96581   1.03560
 Alpha virt. eigenvalues --    1.05286   1.07466   1.10904   1.11998   1.12260
 Alpha virt. eigenvalues --    1.14431   1.14995   1.16116   1.17399   1.18185
 Alpha virt. eigenvalues --    1.19784   1.20288   1.22053   1.23580   1.25615
 Alpha virt. eigenvalues --    1.30480   1.33940   1.40404   1.53249   1.55131
 Alpha virt. eigenvalues --    1.56515   1.67389   1.71011   1.75872   1.83085
 Alpha virt. eigenvalues --    1.83309   1.89421   1.92081   1.94270   1.97442
 Alpha virt. eigenvalues --    2.00498   2.07650   2.12125   2.14763   2.17984
 Alpha virt. eigenvalues --    2.21845   2.24466   2.30990   2.34591   2.36065
 Alpha virt. eigenvalues --    2.36349   2.38860   2.40142   2.41433   2.44665
 Alpha virt. eigenvalues --    2.44950   2.46411   2.49147   2.55012   2.56694
 Alpha virt. eigenvalues --    2.57409   2.59800   2.61985   2.67471   2.68991
 Alpha virt. eigenvalues --    2.73879   2.80361   2.81572   2.83354   2.85964
 Alpha virt. eigenvalues --    2.91833   2.96222   2.97776   3.02956   3.07623
 Alpha virt. eigenvalues --    3.08290   3.09344   3.12929   3.14535   3.19355
 Alpha virt. eigenvalues --    3.21797   3.24153   3.25308   3.26504   3.29374
 Alpha virt. eigenvalues --    3.34165   3.36589   3.57080   3.59073   3.64846
 Alpha virt. eigenvalues --    3.69794   3.71748   3.78871   3.82308   3.85075
 Alpha virt. eigenvalues --    3.86167   3.89103   3.94395   3.95688   4.40098
 Alpha virt. eigenvalues --    4.73677   4.83373   4.95649   5.05745   5.15014
          Condensed to atoms (all electrons):
               1          2          3          4          5          6
     1  C    4.916334   0.407163   0.400283   0.403509   0.339694  -0.038931
     2  H    0.407163   0.541856  -0.028343  -0.028246  -0.036216   0.004167
     3  H    0.400283  -0.028343   0.599120  -0.030686  -0.041706  -0.002929
     4  H    0.403509  -0.028246  -0.030686   0.589630  -0.038537  -0.003366
     5  C    0.339694  -0.036216  -0.041706  -0.038537   4.995672   0.405464
     6  H   -0.038931   0.004167  -0.002929  -0.003366   0.405464   0.601585
     7  H   -0.039435  -0.002663   0.004427  -0.003071   0.403200  -0.029339
     8  C   -0.050746  -0.006141  -0.004611   0.004610   0.362290  -0.041171
     9  H   -0.006603   0.000518   0.003033  -0.000118  -0.052396  -0.000075
    10  C    0.004738  -0.000004  -0.000039  -0.000077  -0.059438  -0.003650
    11  H   -0.000123  -0.000004   0.000002   0.000002   0.005211  -0.000086
    12  H   -0.000145   0.000012   0.000002  -0.000001  -0.007360   0.000486
    13  C   -0.000118  -0.000007  -0.000001  -0.000001  -0.001941  -0.001385
    14  H   -0.000011  -0.000001   0.000007   0.000003   0.000500  -0.001848
    15  H    0.000002   0.000000  -0.000000  -0.000000   0.000001   0.000104
    16  H   -0.000043   0.000000  -0.000001   0.000000  -0.000133   0.000347
    17  O   -0.002082   0.004612   0.000122   0.000090  -0.064116   0.002963
    18  H   -0.000056  -0.000243  -0.000046   0.000006   0.007039  -0.000213
               7          8          9         10         11         12
     1  C   -0.039435  -0.050746  -0.006603   0.004738  -0.000123  -0.000145
     2  H   -0.002663  -0.006141   0.000518  -0.000004  -0.000004   0.000012
     3  H    0.004427  -0.004611   0.003033  -0.000039   0.000002   0.000002
     4  H   -0.003071   0.004610  -0.000118  -0.000077   0.000002  -0.000001
     5  C    0.403200   0.362290  -0.052396  -0.059438   0.005211  -0.007360
     6  H   -0.029339  -0.041171  -0.000075  -0.003650  -0.000086   0.000486
     7  H    0.585912  -0.042025   0.005611  -0.006114  -0.000057   0.003699
     8  C   -0.042025   4.738775   0.410821   0.377065  -0.044247  -0.039013
     9  H    0.005611   0.410821   0.645528  -0.060478  -0.004307   0.005556
    10  C   -0.006114   0.377065  -0.060478   5.019364   0.406589   0.401699
    11  H   -0.000057  -0.044247  -0.004307   0.406589   0.612971  -0.031802
    12  H    0.003699  -0.039013   0.005556   0.401699  -0.031802   0.579124
    13  C    0.000462  -0.049441   0.000758   0.309898  -0.039690  -0.035957
    14  H    0.000350  -0.004148   0.000165  -0.037553   0.004345  -0.003592
    15  H   -0.000039   0.003914  -0.000184  -0.032661  -0.004804  -0.002444
    16  H    0.000045  -0.004089   0.003386  -0.041860  -0.002420   0.004320
    17  O    0.000885   0.198330  -0.036657  -0.045199  -0.001780   0.001974
    18  H   -0.000187  -0.026992  -0.004434  -0.004094   0.004181  -0.000453
              13         14         15         16         17         18
     1  C   -0.000118  -0.000011   0.000002  -0.000043  -0.002082  -0.000056
     2  H   -0.000007  -0.000001   0.000000   0.000000   0.004612  -0.000243
     3  H   -0.000001   0.000007  -0.000000  -0.000001   0.000122  -0.000046
     4  H   -0.000001   0.000003  -0.000000   0.000000   0.000090   0.000006
     5  C   -0.001941   0.000500   0.000001  -0.000133  -0.064116   0.007039
     6  H   -0.001385  -0.001848   0.000104   0.000347   0.002963  -0.000213
     7  H    0.000462   0.000350  -0.000039   0.000045   0.000885  -0.000187
     8  C   -0.049441  -0.004148   0.003914  -0.004089   0.198330  -0.026992
     9  H    0.000758   0.000165  -0.000184   0.003386  -0.036657  -0.004434
    10  C    0.309898  -0.037553  -0.032661  -0.041860  -0.045199  -0.004094
    11  H   -0.039690   0.004345  -0.004804  -0.002420  -0.001780   0.004181
    12  H   -0.035957  -0.003592  -0.002444   0.004320   0.001974  -0.000453
    13  C    4.951359   0.405159   0.402867   0.401064   0.003092  -0.000041
    14  H    0.405159   0.577818  -0.029078  -0.030941  -0.000030   0.000006
    15  H    0.402867  -0.029078   0.572618  -0.029273  -0.000047  -0.000005
    16  H    0.401064  -0.030941  -0.029273   0.588815  -0.000004   0.000000
    17  O    0.003092  -0.000030  -0.000047  -0.000004   8.295426   0.305799
    18  H   -0.000041   0.000006  -0.000005   0.000000   0.305799   0.384079
 Mulliken charges:
               1
     1  C   -0.333431
     2  H    0.143538
     3  H    0.101365
     4  H    0.106252
     5  C   -0.217227
     6  H    0.107875
     7  H    0.118339
     8  C    0.216821
     9  H    0.089876
    10  C   -0.228186
    11  H    0.096020
    12  H    0.123895
    13  C   -0.346077
    14  H    0.118849
    15  H    0.119030
    16  H    0.110786
    17  O   -0.663376
    18  H    0.335651
 Sum of Mulliken charges =  -0.00000
 Mulliken charges with hydrogens summed into heavy atoms:
               1
     1  C    0.017724
     5  C    0.008988
     8  C    0.306697
    10  C   -0.008271
    13  C    0.002588
    17  O   -0.327725
 Electronic spatial extent (au):  <R**2>=            770.9029
 Charge=             -0.0000 electrons
 Dipole moment (field-independent basis, Debye):
    X=              1.5370    Y=             -0.1115    Z=              0.8449  Tot=              1.7574
 Quadrupole moment (field-independent basis, Debye-Ang):
   XX=            -41.6878   YY=            -38.2538   ZZ=            -39.7338
   XY=              2.5281   XZ=             -0.0304   YZ=              2.1867
 Traceless Quadrupole moment (field-independent basis, Debye-Ang):
   XX=             -1.7960   YY=              1.6380   ZZ=              0.1580
   XY=              2.5281   XZ=             -0.0304   YZ=              2.1867
 Octapole moment (field-independent basis, Debye-Ang**2):
  XXX=              0.4668  YYY=             18.0350  ZZZ=              0.3321  XYY=              2.7766
  XXY=              1.4690  XXZ=             -1.3242  XZZ=             -0.6116  YZZ=              2.7071
  YYZ=              4.4049  XYZ=             -0.3532
 Hexadecapole moment (field-independent basis, Debye-Ang**3):
 XXXX=           -682.9590 YYYY=           -229.8145 ZZZZ=            -86.7211 XXXY=             -2.4759
 XXXZ=              0.7318 YYYX=              2.5480 YYYZ=             13.0163 ZZZX=             -0.1006
 ZZZY=             -0.1661 XXYY=           -163.2273 XXZZ=           -129.9288 YYZZ=            -59.4682
 XXYZ=              1.7881 YYXZ=              0.3495 ZZXY=             -0.8571
 N-N= 2.596742720587D+02 E-N=-1.153318483486D+03  KE= 2.708382932065D+02
 No NMR shielding tensors so no spin-rotation constants.
 Leave Link  601 at Sun Sep 19 19:59:46 2021, MaxMem=   524288000 cpu:               0.1 elap:               0.4
 (Enter /opt/gaussian/g16_legacy/l9999.exe)
 1\1\GINC-TRUENO95\FOpt\RMP2-FC\6-31G(d,p)\C5H12O1\JRAMOS\19-Sep-2021\0
 \\#p opt mp2/6-31g(d,p)\\Conformer number 002. Energy MM = 1.659 kcal/
 mol\\0,1\C,-2.1726351726,1.0604902546,-0.0344505948\H,-1.7957520405,0.
 0412692079,-0.0351758072\H,-1.8248355586,1.5510099971,-0.9442839029\H,
 -3.2611695509,1.0300978384,-0.0654785129\C,-1.6828371532,1.8081292796,
 1.2000304186\H,-2.095493384,2.8184029231,1.209285717\H,-2.0325938761,1
 .3072024502,2.1064042693\C,-0.1675502797,1.8945563697,1.2721363763\H,0
 .1955385102,2.4198363294,0.3750730556\C,0.3448955733,2.6286530981,2.50
 83035968\H,1.4363217343,2.5438793028,2.5218649663\H,-0.0196943716,2.09
 84364721,3.3907981346\C,-0.0393948913,4.1033886345,2.5682343329\H,-1.1
 132346371,4.2334219226,2.6887406011\H,0.448889879,4.5960681269,3.40780
 08863\H,0.2616196698,4.6216364481,1.657027176\O,0.3031665257,0.5418960
 634,1.2672999794\H,1.2677590233,0.5753252817,1.2756893077\\Version=EM6
 4L-G16RevA.03\State=1-A\HF=-271.2053925\MP2=-272.121641\RMSD=6.316e-09
 \RMSF=3.920e-06\Dipole=0.3898158,0.4846796,0.0672326\PG=C01 [X(C5H12O1
 )]\\@


 IT IS NOT EASY TO DESCRIBE
     THE SEA WITH THE MOUTH

                   -- KOKYU
 Job cpu time:       0 days  0 hours  4 minutes 29.4 seconds.
 Elapsed time:       0 days  0 hours  4 minutes 32.8 seconds.
 File lengths (MBytes):  RWF=     15 Int=      0 D2E=      0 Chk=      4 Scr=      1
 Normal termination of Gaussian 16 at Sun Sep 19 19:59:46 2021.
