 Entering Gaussian System, Link 0=/opt/gaussian/g16_legacy/g16
 Input=06-PVA_005_gaussian.com
 Output=06-PVA_005_gaussian.log
 Initial command:
 /opt/gaussian/g16_legacy/l1.exe "/scratch-local/jramos/2661752/Gau-30539.inp" -scrdir="/scratch-local/jramos/2661752/"
 Entering Link 1 = /opt/gaussian/g16_legacy/l1.exe PID=     30541.
  
 Copyright (c) 1988,1990,1992,1993,1995,1998,2003,2009,2016,
            Gaussian, Inc.  All Rights Reserved.
  
 This is part of the Gaussian(R) 16 program.  It is based on
 the Gaussian(R) 09 system (copyright 2009, Gaussian, Inc.),
 the Gaussian(R) 03 system (copyright 2003, Gaussian, Inc.),
 the Gaussian(R) 98 system (copyright 1998, Gaussian, Inc.),
 the Gaussian(R) 94 system (copyright 1995, Gaussian, Inc.),
 the Gaussian 92(TM) system (copyright 1992, Gaussian, Inc.),
 the Gaussian 90(TM) system (copyright 1990, Gaussian, Inc.),
 the Gaussian 88(TM) system (copyright 1988, Gaussian, Inc.),
 the Gaussian 86(TM) system (copyright 1986, Carnegie Mellon
 University), and the Gaussian 82(TM) system (copyright 1983,
 Carnegie Mellon University). Gaussian is a federally registered
 trademark of Gaussian, Inc.
  
 This software contains proprietary and confidential information,
 including trade secrets, belonging to Gaussian, Inc.
  
 This software is provided under written license and may be
 used, copied, transmitted, or stored only in accord with that
 written license.
  
 The following legend is applicable only to US Government
 contracts under FAR:
  
                    RESTRICTED RIGHTS LEGEND
  
 Use, reproduction and disclosure by the US Government is
 subject to restrictions as set forth in subparagraphs (a)
 and (c) of the Commercial Computer Software - Restricted
 Rights clause in FAR 52.227-19.
  
 Gaussian, Inc.
 340 Quinnipiac St., Bldg. 40, Wallingford CT 06492
  
  
 ---------------------------------------------------------------
 Warning -- This program may not be used in any manner that
 competes with the business of Gaussian, Inc. or will provide
 assistance to any competitor of Gaussian, Inc.  The licensee
 of this program is prohibited from giving any competitor of
 Gaussian, Inc. access to this program.  By using this program,
 the user acknowledges that Gaussian, Inc. is engaged in the
 business of creating and licensing software in the field of
 computational chemistry and represents and warrants to the
 licensee that it is not a competitor of Gaussian, Inc. and that
 it will not use this program in any manner prohibited above.
 ---------------------------------------------------------------
  

 Cite this work as:
 Gaussian 16, Revision A.03,
 M. J. Frisch, G. W. Trucks, H. B. Schlegel, G. E. Scuseria, 
 M. A. Robb, J. R. Cheeseman, G. Scalmani, V. Barone, 
 G. A. Petersson, H. Nakatsuji, X. Li, M. Caricato, A. V. Marenich, 
 J. Bloino, B. G. Janesko, R. Gomperts, B. Mennucci, H. P. Hratchian, 
 J. V. Ortiz, A. F. Izmaylov, J. L. Sonnenberg, D. Williams-Young, 
 F. Ding, F. Lipparini, F. Egidi, J. Goings, B. Peng, A. Petrone, 
 T. Henderson, D. Ranasinghe, V. G. Zakrzewski, J. Gao, N. Rega, 
 G. Zheng, W. Liang, M. Hada, M. Ehara, K. Toyota, R. Fukuda, 
 J. Hasegawa, M. Ishida, T. Nakajima, Y. Honda, O. Kitao, H. Nakai, 
 T. Vreven, K. Throssell, J. A. Montgomery, Jr., J. E. Peralta, 
 F. Ogliaro, M. J. Bearpark, J. J. Heyd, E. N. Brothers, K. N. Kudin, 
 V. N. Staroverov, T. A. Keith, R. Kobayashi, J. Normand, 
 K. Raghavachari, A. P. Rendell, J. C. Burant, S. S. Iyengar, 
 J. Tomasi, M. Cossi, J. M. Millam, M. Klene, C. Adamo, R. Cammi, 
 J. W. Ochterski, R. L. Martin, K. Morokuma, O. Farkas, 
 J. B. Foresman, and D. J. Fox, Gaussian, Inc., Wallingford CT, 2016.
 
 ******************************************
 Gaussian 16:  EM64L-G16RevA.03 25-Dec-2016
                19-Sep-2021 
 ******************************************
 %chk=06-PVA_005_gaussian.chk
 %nproc=1
 Will use up to    1 processors via shared memory.
 %mem=4000Mb
 ---------------------
 #p opt mp2/6-31g(d,p)
 ---------------------
 1/18=20,19=15,38=1/1,3;
 2/9=110,12=2,17=6,18=5,40=1/2;
 3/5=1,6=6,7=101,11=9,25=1,30=1,71=1/1,2,3;
 4//1;
 5/5=2,38=5/2;
 8/6=4,10=2/1;
 9/15=2,16=-3/6;
 10/5=1/2;
 6/7=2,8=2,9=2,10=2/1;
 7/12=2/1,2,3,16;
 1/18=20,19=15/3(2);
 2/9=110/2;
 99//99;
 2/9=110/2;
 3/5=1,6=6,7=101,11=9,25=1,30=1,71=1/1,2,3;
 4/5=5,16=3,69=1/1;
 5/5=2,38=5/2;
 8/6=4,10=2/1;
 9/15=2,16=-3/6;
 10/5=1/2;
 7/12=2/1,2,3,16;
 1/18=20,19=15/3(-8);
 2/9=110/2;
 6/7=2,8=2,9=2,10=2/1;
 99//99;
 Leave Link    1 at Sun Sep 19 19:55:11 2021, MaxMem=   524288000 cpu:               0.0 elap:               0.1
 (Enter /opt/gaussian/g16_legacy/l101.exe)
 ------------------------------------------------
 Conformer number 005. Energy MM = 2.137 kcal/mol
 ------------------------------------------------
 Symbolic Z-matrix:
 Charge =  0 Multiplicity = 1
 C                    -2.2852    1.1038    2.4792 
 H                    -2.0519    1.6415    3.4017 
 H                    -1.924     0.0755    2.5729 
 H                    -3.3746    1.0682    2.3897 
 C                    -1.6873    1.7892    1.2577 
 H                    -1.9861    1.2129    0.3729 
 H                    -2.1264    2.7863    1.1468 
 C                    -0.1559    1.8852    1.283 
 H                     0.1765    2.3583    0.3515 
 C                     0.4265    2.6528    2.4771 
 H                     1.5216    2.6403    2.4056 
 H                     0.1968    2.1332    3.4133 
 C                    -0.0447    4.0967    2.5563 
 H                    -1.1277    4.1653    2.6864 
 H                     0.4208    4.5951    3.4127 
 H                     0.2355    4.6478    1.6545 
 O                     0.3703    0.5561    1.2886 
 H                     1.341     0.626     1.2542 
 
 ITRead=  0  0  0  0  0  0  0  0  0  0  0  0  0  0  0  0  0  0
 MicOpt= -1 -1 -1 -1 -1 -1 -1 -1 -1 -1 -1 -1 -1 -1 -1 -1 -1 -1
 NAtoms=     18 NQM=       18 NQMF=       0 NMMI=      0 NMMIF=      0
                NMic=       0 NMicF=      0.
                    Isotopes and Nuclear Properties:
 (Nuclear quadrupole moments (NQMom) in fm**2, nuclear magnetic moments (NMagM)
  in nuclear magnetons)

  Atom         1           2           3           4           5           6           7           8           9          10
 IAtWgt=          12           1           1           1          12           1           1          12           1          12
 AtmWgt=  12.0000000   1.0078250   1.0078250   1.0078250  12.0000000   1.0078250   1.0078250  12.0000000   1.0078250  12.0000000
 NucSpn=           0           1           1           1           0           1           1           0           1           0
 AtZEff=  -0.0000000  -0.0000000  -0.0000000  -0.0000000  -0.0000000  -0.0000000  -0.0000000  -0.0000000  -0.0000000  -0.0000000
 NQMom=    0.0000000   0.0000000   0.0000000   0.0000000   0.0000000   0.0000000   0.0000000   0.0000000   0.0000000   0.0000000
 NMagM=    0.0000000   2.7928460   2.7928460   2.7928460   0.0000000   2.7928460   2.7928460   0.0000000   2.7928460   0.0000000
 AtZNuc=   6.0000000   1.0000000   1.0000000   1.0000000   6.0000000   1.0000000   1.0000000   6.0000000   1.0000000   6.0000000

  Atom        11          12          13          14          15          16          17          18
 IAtWgt=           1           1          12           1           1           1          16           1
 AtmWgt=   1.0078250   1.0078250  12.0000000   1.0078250   1.0078250   1.0078250  15.9949146   1.0078250
 NucSpn=           1           1           0           1           1           1           0           1
 AtZEff=  -0.0000000  -0.0000000  -0.0000000  -0.0000000  -0.0000000  -0.0000000  -0.0000000  -0.0000000
 NQMom=    0.0000000   0.0000000   0.0000000   0.0000000   0.0000000   0.0000000   0.0000000   0.0000000
 NMagM=    2.7928460   2.7928460   0.0000000   2.7928460   2.7928460   2.7928460   0.0000000   2.7928460
 AtZNuc=   1.0000000   1.0000000   6.0000000   1.0000000   1.0000000   1.0000000   8.0000000   1.0000000
 Leave Link  101 at Sun Sep 19 19:55:12 2021, MaxMem=   524288000 cpu:               0.1 elap:               0.3
 (Enter /opt/gaussian/g16_legacy/l103.exe)

 GradGradGradGradGradGradGradGradGradGradGradGradGradGradGradGradGradGrad
 Berny optimization.
 Initialization pass.
                           ----------------------------
                           !    Initial Parameters    !
                           ! (Angstroms and Degrees)  !
 --------------------------                            --------------------------
 ! Name  Definition              Value          Derivative Info.                !
 --------------------------------------------------------------------------------
 ! R1    R(1,2)                  1.093          estimate D2E/DX2                !
 ! R2    R(1,3)                  1.0939         estimate D2E/DX2                !
 ! R3    R(1,4)                  1.0936         estimate D2E/DX2                !
 ! R4    R(1,5)                  1.5229         estimate D2E/DX2                !
 ! R5    R(5,6)                  1.0974         estimate D2E/DX2                !
 ! R6    R(5,7)                  1.0951         estimate D2E/DX2                !
 ! R7    R(5,8)                  1.5346         estimate D2E/DX2                !
 ! R8    R(8,9)                  1.0964         estimate D2E/DX2                !
 ! R9    R(8,10)                 1.5344         estimate D2E/DX2                !
 ! R10   R(8,17)                 1.4295         estimate D2E/DX2                !
 ! R11   R(10,11)                1.0975         estimate D2E/DX2                !
 ! R12   R(10,12)                1.0951         estimate D2E/DX2                !
 ! R13   R(10,13)                1.5209         estimate D2E/DX2                !
 ! R14   R(13,14)                1.0929         estimate D2E/DX2                !
 ! R15   R(13,15)                1.0948         estimate D2E/DX2                !
 ! R16   R(13,16)                1.0934         estimate D2E/DX2                !
 ! R17   R(17,18)                0.9738         estimate D2E/DX2                !
 ! A1    A(2,1,3)              108.6436         estimate D2E/DX2                !
 ! A2    A(2,1,4)              107.3204         estimate D2E/DX2                !
 ! A3    A(2,1,5)              111.8246         estimate D2E/DX2                !
 ! A4    A(3,1,4)              107.7773         estimate D2E/DX2                !
 ! A5    A(3,1,5)              111.231          estimate D2E/DX2                !
 ! A6    A(4,1,5)              109.882          estimate D2E/DX2                !
 ! A7    A(1,5,6)              107.6646         estimate D2E/DX2                !
 ! A8    A(1,5,7)              109.4858         estimate D2E/DX2                !
 ! A9    A(1,5,8)              113.9981         estimate D2E/DX2                !
 ! A10   A(6,5,7)              106.6977         estimate D2E/DX2                !
 ! A11   A(6,5,8)              108.5333         estimate D2E/DX2                !
 ! A12   A(7,5,8)              110.1714         estimate D2E/DX2                !
 ! A13   A(5,8,9)              108.3932         estimate D2E/DX2                !
 ! A14   A(5,8,10)             115.0179         estimate D2E/DX2                !
 ! A15   A(5,8,17)             108.0131         estimate D2E/DX2                !
 ! A16   A(9,8,10)             109.2843         estimate D2E/DX2                !
 ! A17   A(9,8,17)             107.0341         estimate D2E/DX2                !
 ! A18   A(10,8,17)            108.8063         estimate D2E/DX2                !
 ! A19   A(8,10,11)            108.8046         estimate D2E/DX2                !
 ! A20   A(8,10,12)            110.3855         estimate D2E/DX2                !
 ! A21   A(8,10,13)            113.4452         estimate D2E/DX2                !
 ! A22   A(11,10,12)           105.0456         estimate D2E/DX2                !
 ! A23   A(11,10,13)           108.8652         estimate D2E/DX2                !
 ! A24   A(12,10,13)           109.9351         estimate D2E/DX2                !
 ! A25   A(10,13,14)           111.8875         estimate D2E/DX2                !
 ! A26   A(10,13,15)           109.9505         estimate D2E/DX2                !
 ! A27   A(10,13,16)           110.8651         estimate D2E/DX2                !
 ! A28   A(14,13,15)           107.4362         estimate D2E/DX2                !
 ! A29   A(14,13,16)           108.6921         estimate D2E/DX2                !
 ! A30   A(15,13,16)           107.8647         estimate D2E/DX2                !
 ! A31   A(8,17,18)            107.4605         estimate D2E/DX2                !
 ! D1    D(2,1,5,6)           -178.3667         estimate D2E/DX2                !
 ! D2    D(2,1,5,7)            -62.7375         estimate D2E/DX2                !
 ! D3    D(2,1,5,8)             61.1742         estimate D2E/DX2                !
 ! D4    D(3,1,5,6)             59.9639         estimate D2E/DX2                !
 ! D5    D(3,1,5,7)            175.593          estimate D2E/DX2                !
 ! D6    D(3,1,5,8)            -60.4952         estimate D2E/DX2                !
 ! D7    D(4,1,5,6)            -59.2983         estimate D2E/DX2                !
 ! D8    D(4,1,5,7)             56.3309         estimate D2E/DX2                !
 ! D9    D(4,1,5,8)           -179.7574         estimate D2E/DX2                !
 ! D10   D(1,5,8,9)            178.0171         estimate D2E/DX2                !
 ! D11   D(1,5,8,10)           -59.3499         estimate D2E/DX2                !
 ! D12   D(1,5,8,17)            62.3748         estimate D2E/DX2                !
 ! D13   D(6,5,8,9)             58.0455         estimate D2E/DX2                !
 ! D14   D(6,5,8,10)          -179.3215         estimate D2E/DX2                !
 ! D15   D(6,5,8,17)           -57.5968         estimate D2E/DX2                !
 ! D16   D(7,5,8,9)            -58.4414         estimate D2E/DX2                !
 ! D17   D(7,5,8,10)            64.1916         estimate D2E/DX2                !
 ! D18   D(7,5,8,17)          -174.0837         estimate D2E/DX2                !
 ! D19   D(5,8,10,11)          178.7879         estimate D2E/DX2                !
 ! D20   D(5,8,10,12)           64.0111         estimate D2E/DX2                !
 ! D21   D(5,8,10,13)          -59.8807         estimate D2E/DX2                !
 ! D22   D(9,8,10,11)          -59.0582         estimate D2E/DX2                !
 ! D23   D(9,8,10,12)         -173.835          estimate D2E/DX2                !
 ! D24   D(9,8,10,13)           62.2732         estimate D2E/DX2                !
 ! D25   D(17,8,10,11)          57.494          estimate D2E/DX2                !
 ! D26   D(17,8,10,12)         -57.2829         estimate D2E/DX2                !
 ! D27   D(17,8,10,13)         178.8253         estimate D2E/DX2                !
 ! D28   D(5,8,17,18)          176.8868         estimate D2E/DX2                !
 ! D29   D(9,8,17,18)           60.3578         estimate D2E/DX2                !
 ! D30   D(10,8,17,18)         -57.6264         estimate D2E/DX2                !
 ! D31   D(8,10,13,14)          61.944          estimate D2E/DX2                !
 ! D32   D(8,10,13,15)        -178.757          estimate D2E/DX2                !
 ! D33   D(8,10,13,16)         -59.5728         estimate D2E/DX2                !
 ! D34   D(11,10,13,14)       -176.7586         estimate D2E/DX2                !
 ! D35   D(11,10,13,15)        -57.4596         estimate D2E/DX2                !
 ! D36   D(11,10,13,16)         61.7246         estimate D2E/DX2                !
 ! D37   D(12,10,13,14)        -62.1928         estimate D2E/DX2                !
 ! D38   D(12,10,13,15)         57.1062         estimate D2E/DX2                !
 ! D39   D(12,10,13,16)        176.2904         estimate D2E/DX2                !
 --------------------------------------------------------------------------------
 Trust Radius=3.00D-01 FncErr=1.00D-07 GrdErr=1.00D-07 EigMax=2.50D+02 EigMin=1.00D-04
 Number of steps in this run=     97 maximum allowed number of steps=    108.
 GradGradGradGradGradGradGradGradGradGradGradGradGradGradGradGradGradGrad

 Leave Link  103 at Sun Sep 19 19:55:12 2021, MaxMem=   524288000 cpu:               0.0 elap:               0.1
 (Enter /opt/gaussian/g16_legacy/l202.exe)
                          Input orientation:                          
 ---------------------------------------------------------------------
 Center     Atomic      Atomic             Coordinates (Angstroms)
 Number     Number       Type             X           Y           Z
 ---------------------------------------------------------------------
      1          6           0       -2.285200    1.103800    2.479200
      2          1           0       -2.051900    1.641500    3.401700
      3          1           0       -1.924000    0.075500    2.572900
      4          1           0       -3.374600    1.068200    2.389700
      5          6           0       -1.687300    1.789200    1.257700
      6          1           0       -1.986100    1.212900    0.372900
      7          1           0       -2.126400    2.786300    1.146800
      8          6           0       -0.155900    1.885200    1.283000
      9          1           0        0.176500    2.358300    0.351500
     10          6           0        0.426500    2.652800    2.477100
     11          1           0        1.521600    2.640300    2.405600
     12          1           0        0.196800    2.133200    3.413300
     13          6           0       -0.044700    4.096700    2.556300
     14          1           0       -1.127700    4.165300    2.686400
     15          1           0        0.420800    4.595100    3.412700
     16          1           0        0.235500    4.647800    1.654500
     17          8           0        0.370300    0.556100    1.288600
     18          1           0        1.341000    0.626000    1.254200
 ---------------------------------------------------------------------
                    Distance matrix (angstroms):
                    1          2          3          4          5
     1  C    0.000000
     2  H    1.092958   0.000000
     3  H    1.093913   1.776408   0.000000
     4  H    1.093650   1.761350   1.767274   0.000000
     5  C    1.522931   2.179790   2.173142   2.155979   0.000000
     6  H    2.130226   3.059683   2.477405   2.452825   1.097394
     7  H    2.152049   2.529959   3.069717   2.460624   1.095133
     8  C    2.564254   2.853611   2.839900   3.500329   1.534615
     9  H    3.487240   3.844904   3.815481   4.292893   2.149145
    10  C    3.122935   2.831974   3.489485   4.119097   2.588608
    11  H    4.105846   3.841838   4.298645   5.142424   3.512703
    12  H    2.844737   2.301859   3.072164   3.864826   2.883536
    13  C    3.739416   3.282005   4.438704   4.504198   3.115935
    14  H    3.279561   2.781253   4.168146   3.837788   2.828460
    15  H    4.514757   3.852028   5.160439   5.281156   4.118396
    16  H    4.426510   4.162060   5.139341   5.136816   3.467882
    17  O    2.961281   3.392689   2.672867   3.936870   2.399001
    18  H    3.857233   4.141831   3.564021   4.870501   3.244017
                    6          7          8          9         10
     6  H    0.000000
     7  H    1.759032   0.000000
     8  C    2.151721   2.171037   0.000000
     9  H    2.447292   2.473668   1.096360   0.000000
    10  C    3.510215   2.881808   1.534364   2.160418   0.000000
    11  H    4.298058   3.861839   2.155090   2.471466   1.097503
    12  H    3.854353   3.310713   2.173495   3.070131   1.095088
    13  C    4.105188   2.835016   2.554289   2.816400   1.520904
    14  H    3.847830   2.295520   2.848295   3.227684   2.178761
    15  H    5.145175   3.859312   3.494533   3.799198   2.155901
    16  H    4.286787   3.049838   2.814812   2.634976   2.166374
    17  O    2.611994   3.350733   1.429484   2.040500   2.410776
    18  H    3.491523   4.086722   1.956304   2.274157   2.537659
                   11         12         13         14         15
    11  H    0.000000
    12  H    1.740030   0.000000
    13  C    2.144087   2.155946   0.000000
    14  H    3.069734   2.532215   1.092941   0.000000
    15  H    2.459117   2.472070   1.094767   1.763545   0.000000
    16  H    2.499652   3.068890   1.093374   1.776496   1.768723
    17  O    2.630032   2.651735   3.783535   4.150202   4.563756
    18  H    2.327175   2.870986   3.957447   4.546682   4.610818
                   16         17         18
    16  H    0.000000
    17  O    4.110239   0.000000
    18  H    4.190137   0.973821   0.000000
 Stoichiometry    C5H12O
 Framework group  C1[X(C5H12O)]
 Deg. of freedom    48
 Full point group                 C1      NOp   1
 Largest Abelian subgroup         C1      NOp   1
 Largest concise Abelian subgroup C1      NOp   1
                         Standard orientation:                         
 ---------------------------------------------------------------------
 Center     Atomic      Atomic             Coordinates (Angstroms)
 Number     Number       Type             X           Y           Z
 ---------------------------------------------------------------------
      1          6           0       -1.552008   -1.205184   -0.529320
      2          1           0       -0.784598   -1.579630   -1.211543
      3          1           0       -2.176179   -0.485067   -1.066432
      4          1           0       -2.183935   -2.053852   -0.252730
      5          6           0       -0.943678   -0.583325    0.720698
      6          1           0       -1.769267   -0.259037    1.366851
      7          1           0       -0.390444   -1.347576    1.276727
      8          6           0       -0.040151    0.624998    0.440277
      9          1           0        0.317210    1.019569    1.398720
     10          6           0        1.161647    0.339243   -0.469833
     11          1           0        1.721773    1.271154   -0.619214
     12          1           0        0.822390    0.048126   -1.469519
     13          6           0        2.104003   -0.717211    0.086061
     14          1           0        1.609058   -1.684881    0.200796
     15          1           0        2.949028   -0.859697   -0.595221
     16          1           0        2.503583   -0.410747    1.056568
     17          8           0       -0.840714    1.645632   -0.160414
     18          1           0       -0.271789    2.425453   -0.288990
 ---------------------------------------------------------------------
 Rotational constants (GHZ):           4.0293154           2.7643232           1.9943744
 Leave Link  202 at Sun Sep 19 19:55:12 2021, MaxMem=   524288000 cpu:               0.0 elap:               0.1
 (Enter /opt/gaussian/g16_legacy/l301.exe)
 Standard basis: 6-31G(d,p) (6D, 7F)
 Ernie: Thresh=  0.10000D-02 Tol=  0.10000D-05 Strict=F.
 There are   150 symmetry adapted cartesian basis functions of A   symmetry.
 There are   150 symmetry adapted basis functions of A   symmetry.
   150 basis functions,   252 primitive gaussians,   150 cartesian basis functions
    25 alpha electrons       25 beta electrons
       nuclear repulsion energy       262.0872849244 Hartrees.
 IExCor=    0 DFT=F Ex=HF Corr=None ExCW=0 ScaHFX=  1.000000
 ScaDFX=  1.000000  1.000000  1.000000  1.000000 ScalE2=  1.000000  1.000000
 IRadAn=      5 IRanWt=     -1 IRanGd=            0 ICorTp=0 IEmpDi=  4
 NAtoms=   18 NActive=   18 NUniq=   18 SFac= 1.00D+00 NAtFMM=   60 NAOKFM=F Big=F
 Integral buffers will be    131072 words long.
 Raffenetti 1 integral format.
 Two-electron integral symmetry is turned on.
 Leave Link  301 at Sun Sep 19 19:55:12 2021, MaxMem=   524288000 cpu:               0.1 elap:               0.1
 (Enter /opt/gaussian/g16_legacy/l302.exe)
 NPDir=0 NMtPBC=     1 NCelOv=     1 NCel=       1 NClECP=     1 NCelD=      1
         NCelK=      1 NCelE2=     1 NClLst=     1 CellRange=     0.0.
 One-electron integrals computed using PRISM.
 One-electron integral symmetry used in STVInt
 NBasis=   150 RedAO= T EigKep=  3.42D-03  NBF=   150
 NBsUse=   150 1.00D-06 EigRej= -1.00D+00 NBFU=   150
 Leave Link  302 at Sun Sep 19 19:55:12 2021, MaxMem=   524288000 cpu:               0.1 elap:               0.3
 (Enter /opt/gaussian/g16_legacy/l303.exe)
 DipDrv:  MaxL=1.
 Leave Link  303 at Sun Sep 19 19:55:13 2021, MaxMem=   524288000 cpu:               0.0 elap:               0.1
 (Enter /opt/gaussian/g16_legacy/l401.exe)
 ExpMin= 1.61D-01 ExpMax= 5.48D+03 ExpMxC= 8.25D+02 IAcc=3 IRadAn=         5 AccDes= 0.00D+00
 Harris functional with IExCor=  205 and IRadAn=       5 diagonalized for initial guess.
 HarFok:  IExCor=  205 AccDes= 0.00D+00 IRadAn=         5 IDoV= 1 UseB2=F ITyADJ=14
 ICtDFT=  3500011 ScaDFX=  1.000000  1.000000  1.000000  1.000000
 FoFCou: FMM=F IPFlag=           0 FMFlag=      100000 FMFlg1=           0
         NFxFlg=           0 DoJE=T BraDBF=F KetDBF=T FulRan=T
         wScrn=  0.000000 ICntrl=       500 IOpCl=  0 I1Cent=   200000004 NGrid=           0
         NMat0=    1 NMatS0=      1 NMatT0=    0 NMatD0=    1 NMtDS0=    0 NMtDT0=    0
 Petite list used in FoFCou.
 Harris En= -271.796257152679    
 JPrj=0 DoOrth=F DoCkMO=F.
 Leave Link  401 at Sun Sep 19 19:55:16 2021, MaxMem=   524288000 cpu:               2.9 elap:               3.0
 (Enter /opt/gaussian/g16_legacy/l502.exe)
 Keep R1 ints in memory in canonical form, NReq=65856006.
 FoFCou: FMM=F IPFlag=           0 FMFlag=           0 FMFlg1=           0
         NFxFlg=           0 DoJE=F BraDBF=F KetDBF=F FulRan=T
         wScrn=  0.000000 ICntrl=       600 IOpCl=  0 I1Cent=           0 NGrid=           0
         NMat0=    1 NMatS0=  11325 NMatT0=    0 NMatD0=    1 NMtDS0=    0 NMtDT0=    0
 Symmetry not used in FoFCou.
 Two-electron integral symmetry not used.
 Closed shell SCF:
 Using DIIS extrapolation, IDIIS=  1040.
 NGot=   524288000 LenX=   460106785 LenY=   460083844
 Requested convergence on RMS density matrix=1.00D-08 within 128 cycles.
 Requested convergence on MAX density matrix=1.00D-06.
 Requested convergence on             energy=1.00D-06.
 No special actions if energy rises.

 Cycle   1  Pass 1  IDiag  1:
 E= -270.821049635600    
 DIIS: error= 6.02D-02 at cycle   1 NSaved=   1.
 NSaved= 1 IEnMin= 1 EnMin= -270.821049635600     IErMin= 1 ErrMin= 6.02D-02
 ErrMax= 6.02D-02  0.00D+00 EMaxC= 1.00D-01 BMatC= 5.19D-01 BMatP= 5.19D-01
 IDIUse=3 WtCom= 3.98D-01 WtEn= 6.02D-01
 Coeff-Com:  0.100D+01
 Coeff-En:   0.100D+01
 Coeff:      0.100D+01
 Gap=     0.596 Goal=   None    Shift=    0.000
 GapD=    0.596 DampG=2.000 DampE=0.500 DampFc=1.0000 IDamp=-1.
 RMSDP=4.96D-03 MaxDP=1.13D-01              OVMax= 1.32D-01

 Cycle   2  Pass 1  IDiag  1:
 E= -271.133531066036     Delta-E=       -0.312481430437 Rises=F Damp=F
 DIIS: error= 1.59D-02 at cycle   2 NSaved=   2.
 NSaved= 2 IEnMin= 2 EnMin= -271.133531066036     IErMin= 2 ErrMin= 1.59D-02
 ErrMax= 1.59D-02  0.00D+00 EMaxC= 1.00D-01 BMatC= 7.79D-02 BMatP= 5.19D-01
 IDIUse=3 WtCom= 8.41D-01 WtEn= 1.59D-01
 Coeff-Com:  0.226D+00 0.774D+00
 Coeff-En:   0.000D+00 0.100D+01
 Coeff:      0.190D+00 0.810D+00
 Gap=     0.666 Goal=   None    Shift=    0.000
 RMSDP=1.90D-03 MaxDP=3.46D-02 DE=-3.12D-01 OVMax= 4.72D-02

 Cycle   3  Pass 1  IDiag  1:
 E= -271.198891330871     Delta-E=       -0.065360264835 Rises=F Damp=F
 DIIS: error= 3.79D-03 at cycle   3 NSaved=   3.
 NSaved= 3 IEnMin= 3 EnMin= -271.198891330871     IErMin= 3 ErrMin= 3.79D-03
 ErrMax= 3.79D-03  0.00D+00 EMaxC= 1.00D-01 BMatC= 3.47D-03 BMatP= 7.79D-02
 IDIUse=3 WtCom= 9.62D-01 WtEn= 3.79D-02
 Coeff-Com: -0.249D-01 0.131D+00 0.894D+00
 Coeff-En:   0.000D+00 0.000D+00 0.100D+01
 Coeff:     -0.239D-01 0.126D+00 0.898D+00
 Gap=     0.630 Goal=   None    Shift=    0.000
 RMSDP=3.40D-04 MaxDP=8.08D-03 DE=-6.54D-02 OVMax= 1.00D-02

 Cycle   4  Pass 1  IDiag  1:
 E= -271.202242971054     Delta-E=       -0.003351640183 Rises=F Damp=F
 DIIS: error= 3.88D-04 at cycle   4 NSaved=   4.
 NSaved= 4 IEnMin= 4 EnMin= -271.202242971054     IErMin= 4 ErrMin= 3.88D-04
 ErrMax= 3.88D-04  0.00D+00 EMaxC= 1.00D-01 BMatC= 6.96D-05 BMatP= 3.47D-03
 IDIUse=3 WtCom= 9.96D-01 WtEn= 3.88D-03
 Coeff-Com: -0.469D-02-0.827D-03 0.904D-01 0.915D+00
 Coeff-En:   0.000D+00 0.000D+00 0.000D+00 0.100D+01
 Coeff:     -0.467D-02-0.823D-03 0.900D-01 0.915D+00
 Gap=     0.632 Goal=   None    Shift=    0.000
 RMSDP=7.85D-05 MaxDP=2.04D-03 DE=-3.35D-03 OVMax= 1.81D-03

 Cycle   5  Pass 1  IDiag  1:
 E= -271.202320670341     Delta-E=       -0.000077699287 Rises=F Damp=F
 DIIS: error= 1.89D-04 at cycle   5 NSaved=   5.
 NSaved= 5 IEnMin= 5 EnMin= -271.202320670341     IErMin= 5 ErrMin= 1.89D-04
 ErrMax= 1.89D-04  0.00D+00 EMaxC= 1.00D-01 BMatC= 9.99D-06 BMatP= 6.96D-05
 IDIUse=3 WtCom= 9.98D-01 WtEn= 1.89D-03
 Coeff-Com:  0.181D-02-0.145D-01-0.783D-01 0.160D+00 0.931D+00
 Coeff-En:   0.000D+00 0.000D+00 0.000D+00 0.000D+00 0.100D+01
 Coeff:      0.181D-02-0.145D-01-0.781D-01 0.159D+00 0.931D+00
 Gap=     0.632 Goal=   None    Shift=    0.000
 RMSDP=2.84D-05 MaxDP=6.48D-04 DE=-7.77D-05 OVMax= 8.32D-04

 Cycle   6  Pass 1  IDiag  1:
 E= -271.202332979510     Delta-E=       -0.000012309169 Rises=F Damp=F
 DIIS: error= 4.04D-05 at cycle   6 NSaved=   6.
 NSaved= 6 IEnMin= 6 EnMin= -271.202332979510     IErMin= 6 ErrMin= 4.04D-05
 ErrMax= 4.04D-05  0.00D+00 EMaxC= 1.00D-01 BMatC= 4.41D-07 BMatP= 9.99D-06
 IDIUse=1 WtCom= 1.00D+00 WtEn= 0.00D+00
 Coeff-Com:  0.612D-03-0.271D-02-0.189D-01-0.346D-01 0.145D+00 0.911D+00
 Coeff:      0.612D-03-0.271D-02-0.189D-01-0.346D-01 0.145D+00 0.911D+00
 Gap=     0.632 Goal=   None    Shift=    0.000
 RMSDP=7.19D-06 MaxDP=1.76D-04 DE=-1.23D-05 OVMax= 1.73D-04

 Cycle   7  Pass 1  IDiag  1:
 E= -271.202333561496     Delta-E=       -0.000000581986 Rises=F Damp=F
 DIIS: error= 8.28D-06 at cycle   7 NSaved=   7.
 NSaved= 7 IEnMin= 7 EnMin= -271.202333561496     IErMin= 7 ErrMin= 8.28D-06
 ErrMax= 8.28D-06  0.00D+00 EMaxC= 1.00D-01 BMatC= 2.04D-08 BMatP= 4.41D-07
 IDIUse=1 WtCom= 1.00D+00 WtEn= 0.00D+00
 Coeff-Com:  0.908D-05 0.203D-03 0.838D-03-0.128D-01-0.199D-01 0.115D+00
 Coeff-Com:  0.916D+00
 Coeff:      0.908D-05 0.203D-03 0.838D-03-0.128D-01-0.199D-01 0.115D+00
 Coeff:      0.916D+00
 Gap=     0.632 Goal=   None    Shift=    0.000
 RMSDP=1.68D-06 MaxDP=3.30D-05 DE=-5.82D-07 OVMax= 4.24D-05

 Cycle   8  Pass 1  IDiag  1:
 E= -271.202333592423     Delta-E=       -0.000000030927 Rises=F Damp=F
 DIIS: error= 2.60D-06 at cycle   8 NSaved=   8.
 NSaved= 8 IEnMin= 8 EnMin= -271.202333592423     IErMin= 8 ErrMin= 2.60D-06
 ErrMax= 2.60D-06  0.00D+00 EMaxC= 1.00D-01 BMatC= 1.86D-09 BMatP= 2.04D-08
 IDIUse=1 WtCom= 1.00D+00 WtEn= 0.00D+00
 Coeff-Com: -0.488D-04 0.241D-03 0.171D-02 0.211D-02-0.126D-01-0.761D-01
 Coeff-Com:  0.406D-01 0.104D+01
 Coeff:     -0.488D-04 0.241D-03 0.171D-02 0.211D-02-0.126D-01-0.761D-01
 Coeff:      0.406D-01 0.104D+01
 Gap=     0.632 Goal=   None    Shift=    0.000
 RMSDP=5.80D-07 MaxDP=1.76D-05 DE=-3.09D-08 OVMax= 1.65D-05

 Cycle   9  Pass 1  IDiag  1:
 E= -271.202333595981     Delta-E=       -0.000000003557 Rises=F Damp=F
 DIIS: error= 1.08D-06 at cycle   9 NSaved=   9.
 NSaved= 9 IEnMin= 9 EnMin= -271.202333595981     IErMin= 9 ErrMin= 1.08D-06
 ErrMax= 1.08D-06  0.00D+00 EMaxC= 1.00D-01 BMatC= 1.30D-10 BMatP= 1.86D-09
 IDIUse=1 WtCom= 1.00D+00 WtEn= 0.00D+00
 Coeff-Com: -0.959D-06-0.159D-04-0.727D-04 0.744D-03 0.182D-02-0.575D-02
 Coeff-Com: -0.646D-01-0.275D-01 0.110D+01
 Coeff:     -0.959D-06-0.159D-04-0.727D-04 0.744D-03 0.182D-02-0.575D-02
 Coeff:     -0.646D-01-0.275D-01 0.110D+01
 Gap=     0.632 Goal=   None    Shift=    0.000
 RMSDP=1.74D-07 MaxDP=6.09D-06 DE=-3.56D-09 OVMax= 5.63D-06

 Cycle  10  Pass 1  IDiag  1:
 E= -271.202333596299     Delta-E=       -0.000000000318 Rises=F Damp=F
 DIIS: error= 3.15D-07 at cycle  10 NSaved=  10.
 NSaved=10 IEnMin=10 EnMin= -271.202333596299     IErMin=10 ErrMin= 3.15D-07
 ErrMax= 3.15D-07  0.00D+00 EMaxC= 1.00D-01 BMatC= 1.10D-11 BMatP= 1.30D-10
 IDIUse=1 WtCom= 1.00D+00 WtEn= 0.00D+00
 Coeff-Com:  0.368D-05-0.176D-04-0.131D-03-0.255D-03 0.963D-03 0.705D-02
 Coeff-Com:  0.251D-03-0.898D-01-0.725D-01 0.115D+01
 Coeff:      0.368D-05-0.176D-04-0.131D-03-0.255D-03 0.963D-03 0.705D-02
 Coeff:      0.251D-03-0.898D-01-0.725D-01 0.115D+01
 Gap=     0.632 Goal=   None    Shift=    0.000
 RMSDP=5.92D-08 MaxDP=2.06D-06 DE=-3.18D-10 OVMax= 1.94D-06

 Cycle  11  Pass 1  IDiag  1:
 E= -271.202333596328     Delta-E=       -0.000000000029 Rises=F Damp=F
 DIIS: error= 5.98D-08 at cycle  11 NSaved=  11.
 NSaved=11 IEnMin=11 EnMin= -271.202333596328     IErMin=11 ErrMin= 5.98D-08
 ErrMax= 5.98D-08  0.00D+00 EMaxC= 1.00D-01 BMatC= 8.03D-13 BMatP= 1.10D-11
 IDIUse=1 WtCom= 1.00D+00 WtEn= 0.00D+00
 Coeff-Com:  0.282D-06-0.123D-07-0.393D-05-0.752D-04-0.544D-04 0.927D-03
 Coeff-Com:  0.441D-02-0.513D-02-0.783D-01 0.984D-01 0.980D+00
 Coeff:      0.282D-06-0.123D-07-0.393D-05-0.752D-04-0.544D-04 0.927D-03
 Coeff:      0.441D-02-0.513D-02-0.783D-01 0.984D-01 0.980D+00
 Gap=     0.632 Goal=   None    Shift=    0.000
 RMSDP=1.19D-08 MaxDP=3.66D-07 DE=-2.85D-11 OVMax= 5.04D-07

 Cycle  12  Pass 1  IDiag  1:
 E= -271.202333596337     Delta-E=       -0.000000000009 Rises=F Damp=F
 DIIS: error= 1.72D-08 at cycle  12 NSaved=  12.
 NSaved=12 IEnMin=12 EnMin= -271.202333596337     IErMin=12 ErrMin= 1.72D-08
 ErrMax= 1.72D-08  0.00D+00 EMaxC= 1.00D-01 BMatC= 6.57D-14 BMatP= 8.03D-13
 IDIUse=1 WtCom= 1.00D+00 WtEn= 0.00D+00
 Coeff-Com: -0.372D-06 0.176D-05 0.131D-04 0.327D-04-0.903D-04-0.787D-03
 Coeff-Com: -0.497D-03 0.924D-02 0.148D-01-0.121D+00-0.998D-01 0.120D+01
 Coeff:     -0.372D-06 0.176D-05 0.131D-04 0.327D-04-0.903D-04-0.787D-03
 Coeff:     -0.497D-03 0.924D-02 0.148D-01-0.121D+00-0.998D-01 0.120D+01
 Gap=     0.632 Goal=   None    Shift=    0.000
 RMSDP=4.53D-09 MaxDP=1.47D-07 DE=-8.75D-12 OVMax= 2.19D-07

 SCF Done:  E(RHF) =  -271.202333596     A.U. after   12 cycles
            NFock= 12  Conv=0.45D-08     -V/T= 2.0017
 KE= 2.707502125045D+02 PE=-1.158079606720D+03 EE= 3.540397756950D+02
 Leave Link  502 at Sun Sep 19 19:55:19 2021, MaxMem=   524288000 cpu:               3.2 elap:               3.4
 (Enter /opt/gaussian/g16_legacy/l801.exe)
 ExpMin= 1.61D-01 ExpMax= 5.48D+03 ExpMxC= 8.25D+02 IAcc=3 IRadAn=         5 AccDes= 0.00D+00
 HarFok:  IExCor=  205 AccDes= 0.00D+00 IRadAn=         5 IDoV=-2 UseB2=F ITyADJ=14
 ICtDFT= 12500011 ScaDFX=  1.000000  1.000000  1.000000  1.000000
 Largest valence mixing into a core orbital is  2.03D-04
 Largest core mixing into a valence orbital is  3.32D-05
 Range of M.O.s used for correlation:     7   150
 NBasis=   150 NAE=    25 NBE=    25 NFC=     6 NFV=     0
 NROrb=    144 NOA=    19 NOB=    19 NVA=   125 NVB=   125
 Leave Link  801 at Sun Sep 19 19:55:20 2021, MaxMem=   524288000 cpu:               0.6 elap:               0.8
 (Enter /opt/gaussian/g16_legacy/l906.exe)
 Frozen-core derivative calculation, NFC=   6 NFV=   0.
 FulOut=F Deriv=T AODrv=T NAtomX=    18
   MMem=         309  MDisk=          19 MDiskD=          19
  W3Min=      562500 MinDsk=      807575 NBas6D=         150
 NBas2D=       11523    NTT=       11325    LW2=     2040000
    MDV=   523998935 MDiskM=       48333 NBas2p=       11262
 Fully direct method using O(ONN) memory.
 IMap=   1   2   3   4   5   6   7   8   9  10  11  12  13  14  15  16  17  18  19  20
 IMap=  21  22  23  24  25
 JobTyp=1 Pass  1:  I=   7 to  25 NPSUse=  1 ParTrn=F ParDer=F DoDerP=T.
 Spin components of T(2) and E(2):
     alpha-alpha T2 =       0.3397032671D-01 E2=     -0.1062301259D+00
     alpha-beta  T2 =       0.2153377383D+00 E2=     -0.7043523757D+00
     beta-beta   T2 =       0.3397032671D-01 E2=     -0.1062301259D+00
 The integrals were generated   1 times.
 ANorm=    0.1132818782D+01
 E2 =    -0.9168126275D+00 EUMP2 =    -0.27211914622383D+03
 Leave Link  906 at Sun Sep 19 19:55:41 2021, MaxMem=   524288000 cpu:              20.5 elap:              20.6
 (Enter /opt/gaussian/g16_legacy/l1002.exe)
 Minotr:  Closed shell wavefunction.
          Computing MP2/KS-MP2 derivatives.
          Using Z-Vector for PSCF gradient.
          Skipping F1 and S1 gradient terms here.
          IDoAtm=111111111111111111
          Frozen-core window.
          Direct CPHF calculation.
          Differentiating once with respect to electric field.
                with respect to dipole field.
          Differentiating once with respect to nuclear coordinates.
          Requested convergence is 1.0D-10 RMS, and 1.0D-09 maximum.
          NewPWx=F KeepS1=T KeepF1=T KeepIn=T MapXYZ=F SortEE=F KeepMc=T.
 Keep R1 ints in memory in canonical form, NReq=65858022.
 FoFCou: FMM=F IPFlag=           0 FMFlag=           0 FMFlg1=           0
         NFxFlg=           0 DoJE=F BraDBF=F KetDBF=F FulRan=T
         wScrn=  0.000000 ICntrl=       600 IOpCl=  0 I1Cent=           0 NGrid=           0
         NMat0=    1 NMatS0=  11325 NMatT0=    0 NMatD0=    1 NMtDS0=    0 NMtDT0=    0
 Symmetry not used in FoFCou.
 Two-electron integral symmetry not used.
          MDV=     524288000 using IRadAn=       5.
          Solving linear equations separately, MaxMat=       0.
          There are     1 degrees of freedom in the 1st order CPHF.  IDoFFX=0 NUNeed=     1.
 LinEq1:  Iter=  0 NonCon=     1 RMS=2.90D-03 Max=2.59D-02 NDo=     1
 AX will form     1 AO Fock derivatives at one time.
 LinEq1:  Iter=  1 NonCon=     1 RMS=9.06D-04 Max=1.02D-02 NDo=     1
 LinEq1:  Iter=  2 NonCon=     1 RMS=2.00D-04 Max=2.27D-03 NDo=     1
 LinEq1:  Iter=  3 NonCon=     1 RMS=6.89D-05 Max=7.95D-04 NDo=     1
 LinEq1:  Iter=  4 NonCon=     1 RMS=1.67D-05 Max=1.56D-04 NDo=     1
 LinEq1:  Iter=  5 NonCon=     1 RMS=4.26D-06 Max=4.24D-05 NDo=     1
 LinEq1:  Iter=  6 NonCon=     1 RMS=1.05D-06 Max=8.23D-06 NDo=     1
 LinEq1:  Iter=  7 NonCon=     1 RMS=2.96D-07 Max=2.02D-06 NDo=     1
 LinEq1:  Iter=  8 NonCon=     1 RMS=6.68D-08 Max=5.84D-07 NDo=     1
 LinEq1:  Iter=  9 NonCon=     1 RMS=1.54D-08 Max=1.11D-07 NDo=     1
 LinEq1:  Iter= 10 NonCon=     1 RMS=4.13D-09 Max=3.88D-08 NDo=     1
 LinEq1:  Iter= 11 NonCon=     1 RMS=1.19D-09 Max=1.20D-08 NDo=     1
 LinEq1:  Iter= 12 NonCon=     1 RMS=2.00D-10 Max=2.02D-09 NDo=     1
 LinEq1:  Iter= 13 NonCon=     0 RMS=4.21D-11 Max=5.00D-10 NDo=     1
 Linear equations converged to 1.000D-10 1.000D-09 after    13 iterations.
 End of Minotr F.D. properties file   721 does not exist.
 End of Minotr F.D. properties file   722 does not exist.
 End of Minotr F.D. properties file   788 does not exist.
 Leave Link 1002 at Sun Sep 19 19:55:44 2021, MaxMem=   524288000 cpu:               3.5 elap:               3.5
 (Enter /opt/gaussian/g16_legacy/l601.exe)
 Copying SCF densities to generalized density rwf, IOpCl= 0 IROHF=0.

 **********************************************************************

            Population analysis using the SCF density.

 **********************************************************************

 Orbital symmetries:
       Occupied  (A) (A) (A) (A) (A) (A) (A) (A) (A) (A) (A) (A)
                 (A) (A) (A) (A) (A) (A) (A) (A) (A) (A) (A) (A)
                 (A)
       Virtual   (A) (A) (A) (A) (A) (A) (A) (A) (A) (A) (A) (A)
                 (A) (A) (A) (A) (A) (A) (A) (A) (A) (A) (A) (A)
                 (A) (A) (A) (A) (A) (A) (A) (A) (A) (A) (A) (A)
                 (A) (A) (A) (A) (A) (A) (A) (A) (A) (A) (A) (A)
                 (A) (A) (A) (A) (A) (A) (A) (A) (A) (A) (A) (A)
                 (A) (A) (A) (A) (A) (A) (A) (A) (A) (A) (A) (A)
                 (A) (A) (A) (A) (A) (A) (A) (A) (A) (A) (A) (A)
                 (A) (A) (A) (A) (A) (A) (A) (A) (A) (A) (A) (A)
                 (A) (A) (A) (A) (A) (A) (A) (A) (A) (A) (A) (A)
                 (A) (A) (A) (A) (A) (A) (A) (A) (A) (A) (A) (A)
                 (A) (A) (A) (A) (A)
 The electronic state is 1-A.
 Alpha  occ. eigenvalues --  -20.55172 -11.27453 -11.22091 -11.21808 -11.21695
 Alpha  occ. eigenvalues --  -11.20579  -1.34649  -1.07010  -1.01407  -0.91136
 Alpha  occ. eigenvalues --   -0.84859  -0.76090  -0.69032  -0.64471  -0.59211
 Alpha  occ. eigenvalues --   -0.58459  -0.57135  -0.56037  -0.51679  -0.51006
 Alpha  occ. eigenvalues --   -0.49522  -0.48050  -0.47135  -0.44792  -0.42014
 Alpha virt. eigenvalues --    0.21166   0.24020   0.27061   0.27482   0.29409
 Alpha virt. eigenvalues --    0.30370   0.31303   0.33344   0.34423   0.35826
 Alpha virt. eigenvalues --    0.36637   0.37864   0.40189   0.40948   0.43220
 Alpha virt. eigenvalues --    0.44455   0.48893   0.69850   0.72008   0.73484
 Alpha virt. eigenvalues --    0.76147   0.78249   0.78566   0.82996   0.90131
 Alpha virt. eigenvalues --    0.90586   0.92497   0.95053   0.95414   1.00037
 Alpha virt. eigenvalues --    1.06585   1.08447   1.10385   1.11266   1.12404
 Alpha virt. eigenvalues --    1.13482   1.14290   1.15103   1.16833   1.19194
 Alpha virt. eigenvalues --    1.19980   1.21498   1.22999   1.23508   1.26064
 Alpha virt. eigenvalues --    1.30698   1.33679   1.40251   1.48745   1.55686
 Alpha virt. eigenvalues --    1.58442   1.70100   1.72524   1.72677   1.77075
 Alpha virt. eigenvalues --    1.80165   1.86302   1.92652   1.95278   2.00124
 Alpha virt. eigenvalues --    2.04627   2.07221   2.09688   2.14644   2.18116
 Alpha virt. eigenvalues --    2.22299   2.25225   2.26195   2.34655   2.36283
 Alpha virt. eigenvalues --    2.37104   2.39197   2.40940   2.41553   2.43063
 Alpha virt. eigenvalues --    2.44574   2.48119   2.49283   2.54071   2.56777
 Alpha virt. eigenvalues --    2.57683   2.58821   2.61284   2.69196   2.71509
 Alpha virt. eigenvalues --    2.71707   2.74714   2.79216   2.80421   2.85384
 Alpha virt. eigenvalues --    2.94950   2.96064   2.97998   3.00764   3.03516
 Alpha virt. eigenvalues --    3.05473   3.07965   3.12010   3.13966   3.19803
 Alpha virt. eigenvalues --    3.21112   3.23352   3.24335   3.25376   3.26202
 Alpha virt. eigenvalues --    3.33091   3.36212   3.55532   3.58574   3.66521
 Alpha virt. eigenvalues --    3.71275   3.72441   3.77928   3.81248   3.83295
 Alpha virt. eigenvalues --    3.86026   3.87936   3.92736   3.95096   4.38157
 Alpha virt. eigenvalues --    4.71721   4.84070   5.00167   5.06217   5.13072
          Condensed to atoms (all electrons):
               1          2          3          4          5          6
     1  C    4.938363   0.400693   0.406226   0.403768   0.325627  -0.043481
     2  H    0.400693   0.598170  -0.028457  -0.030892  -0.038389   0.004475
     3  H    0.406226  -0.028457   0.547248  -0.028852  -0.036229  -0.003112
     4  H    0.403768  -0.030892  -0.028852   0.589768  -0.038806  -0.003628
     5  C    0.325627  -0.038389  -0.036229  -0.038806   4.997746   0.410573
     6  H   -0.043481   0.004475  -0.003112  -0.003628   0.410573   0.574627
     7  H   -0.041483  -0.003029   0.004230  -0.003642   0.404689  -0.029011
     8  C   -0.052866  -0.004902  -0.004992   0.004644   0.359872  -0.037055
     9  H    0.005090  -0.000127   0.000076  -0.000071  -0.052920  -0.005386
    10  C   -0.006523   0.000850   0.000161  -0.000082  -0.052892   0.004804
    11  H   -0.000053   0.000059  -0.000033   0.000001   0.004621  -0.000088
    12  H    0.001317  -0.002503   0.000337   0.000013  -0.006121  -0.000129
    13  C    0.000138  -0.000131   0.000025   0.000002  -0.002369  -0.000099
    14  H    0.000278   0.000592  -0.000020  -0.000002  -0.000196   0.000036
    15  H   -0.000036   0.000009   0.000002  -0.000000   0.000001   0.000003
    16  H    0.000067  -0.000024  -0.000001   0.000001  -0.000325  -0.000034
    17  O    0.000814  -0.000009   0.004045   0.000010  -0.057589   0.001037
    18  H   -0.000159  -0.000021  -0.000179   0.000005   0.006495  -0.000166
               7          8          9         10         11         12
     1  C   -0.041483  -0.052866   0.005090  -0.006523  -0.000053   0.001317
     2  H   -0.003029  -0.004902  -0.000127   0.000850   0.000059  -0.002503
     3  H    0.004230  -0.004992   0.000076   0.000161  -0.000033   0.000337
     4  H   -0.003642   0.004644  -0.000071  -0.000082   0.000001   0.000013
     5  C    0.404689   0.359872  -0.052920  -0.052892   0.004621  -0.006121
     6  H   -0.029011  -0.037055  -0.005386   0.004804  -0.000088  -0.000129
     7  H    0.599018  -0.037163  -0.000742  -0.002429  -0.000106   0.000389
     8  C   -0.037163   4.731807   0.423271   0.360883  -0.040326  -0.033322
     9  H   -0.000742   0.423271   0.633418  -0.058847  -0.004897   0.004786
    10  C   -0.002429   0.360883  -0.058847   5.039296   0.406440   0.404946
    11  H   -0.000106  -0.040326  -0.004897   0.406440   0.613232  -0.034964
    12  H    0.000389  -0.033322   0.004786   0.404946  -0.034964   0.576949
    13  C   -0.000973  -0.051275   0.001173   0.306389  -0.039485  -0.037768
    14  H   -0.002233  -0.004828   0.000200  -0.038267   0.004391  -0.003241
    15  H    0.000079   0.003982  -0.000184  -0.033916  -0.003981  -0.003387
    16  H    0.000293  -0.002982   0.002758  -0.041486  -0.003618   0.004453
    17  O    0.002516   0.193921  -0.038848  -0.050457  -0.001560   0.001525
    18  H   -0.000183  -0.026521  -0.004577  -0.004674   0.003944  -0.000418
              13         14         15         16         17         18
     1  C    0.000138   0.000278  -0.000036   0.000067   0.000814  -0.000159
     2  H   -0.000131   0.000592   0.000009  -0.000024  -0.000009  -0.000021
     3  H    0.000025  -0.000020   0.000002  -0.000001   0.004045  -0.000179
     4  H    0.000002  -0.000002  -0.000000   0.000001   0.000010   0.000005
     5  C   -0.002369  -0.000196   0.000001  -0.000325  -0.057589   0.006495
     6  H   -0.000099   0.000036   0.000003  -0.000034   0.001037  -0.000166
     7  H   -0.000973  -0.002233   0.000079   0.000293   0.002516  -0.000183
     8  C   -0.051275  -0.004828   0.003982  -0.002982   0.193921  -0.026521
     9  H    0.001173   0.000200  -0.000184   0.002758  -0.038848  -0.004577
    10  C    0.306389  -0.038267  -0.033916  -0.041486  -0.050457  -0.004674
    11  H   -0.039485   0.004391  -0.003981  -0.003618  -0.001560   0.003944
    12  H   -0.037768  -0.003241  -0.003387   0.004453   0.001525  -0.000418
    13  C    4.956970   0.405424   0.401324   0.401136   0.003394  -0.000029
    14  H    0.405424   0.579865  -0.029307  -0.030199  -0.000015   0.000005
    15  H    0.401324  -0.029307   0.578442  -0.028980  -0.000057  -0.000004
    16  H    0.401136  -0.030199  -0.028980   0.588157  -0.000012  -0.000000
    17  O    0.003394  -0.000015  -0.000057  -0.000012   8.303390   0.304402
    18  H   -0.000029   0.000005  -0.000004  -0.000000   0.304402   0.384862
 Mulliken charges:
               1
     1  C   -0.337779
     2  H    0.103635
     3  H    0.139525
     4  H    0.107762
     5  C   -0.223790
     6  H    0.126634
     7  H    0.109780
     8  C    0.217853
     9  H    0.095827
    10  C   -0.234196
    11  H    0.096423
    12  H    0.127139
    13  C   -0.343847
    14  H    0.117516
    15  H    0.116011
    16  H    0.110797
    17  O   -0.666507
    18  H    0.337219
 Sum of Mulliken charges =  -0.00000
 Mulliken charges with hydrogens summed into heavy atoms:
               1
     1  C    0.013143
     5  C    0.012624
     8  C    0.313679
    10  C   -0.010635
    13  C    0.000477
    17  O   -0.329288
 Electronic spatial extent (au):  <R**2>=            711.5917
 Charge=              0.0000 electrons
 Dipole moment (field-independent basis, Debye):
    X=              1.6672    Y=              0.0998    Z=              0.3491  Tot=              1.7063
 Quadrupole moment (field-independent basis, Debye-Ang):
   XX=            -42.0525   YY=            -37.5100   ZZ=            -40.1275
   XY=              3.2737   XZ=             -0.7661   YZ=             -0.1738
 Traceless Quadrupole moment (field-independent basis, Debye-Ang):
   XX=             -2.1558   YY=              2.3866   ZZ=             -0.2308
   XY=              3.2737   XZ=             -0.7661   YZ=             -0.1738
 Octapole moment (field-independent basis, Debye-Ang**2):
  XXX=             -2.8892  YYY=             21.2510  ZZZ=             -0.4129  XYY=              3.8816
  XXY=             -0.3012  XXZ=             -0.0090  XZZ=             -0.3484  YZZ=              3.0606
  YYZ=             -1.2958  XYZ=              0.5184
 Hexadecapole moment (field-independent basis, Debye-Ang**3):
 XXXX=           -510.2752 YYYY=           -262.0542 ZZZZ=           -135.4893 XXXY=              0.4013
 XXXZ=             -4.1537 YYYX=              3.3423 YYYZ=             -9.6931 ZZZX=              0.2249
 ZZZY=             -0.1415 XXYY=           -143.7524 XXZZ=           -105.4390 YYZZ=            -74.2160
 XXYZ=             -0.0363 YYXZ=             -1.3099 ZZXY=             -2.7309
 N-N= 2.620872849244D+02 E-N=-1.158079606530D+03  KE= 2.707502125045D+02
 No NMR shielding tensors so no spin-rotation constants.
 Leave Link  601 at Sun Sep 19 19:55:44 2021, MaxMem=   524288000 cpu:               0.1 elap:               0.1
 (Enter /opt/gaussian/g16_legacy/l701.exe)
 ... and contract with generalized density number  2.
 Compute integral first derivatives.
 Leave Link  701 at Sun Sep 19 19:55:45 2021, MaxMem=   524288000 cpu:               0.1 elap:               0.2
 (Enter /opt/gaussian/g16_legacy/l702.exe)
 L702 exits ... SP integral derivatives will be done elsewhere.
 Leave Link  702 at Sun Sep 19 19:55:45 2021, MaxMem=   524288000 cpu:               0.0 elap:               0.1
 (Enter /opt/gaussian/g16_legacy/l703.exe)
 Integral derivatives from FoFJK, PRISM(SPDF).
 Compute integral first derivatives, UseDBF=F ICtDFT=           0.
 Calling FoFJK, ICntrl=  10002127 FMM=F ISym2X=0 I1Cent= 0 IOpClX= 0 NMat=1 NMatS=1 NMatT=0.
 FoFJK:  IHMeth= 1 ICntrl=10002127 DoSepK=F KAlg= 0 I1Cent=           0 FoldK=F
 IRaf=         0 NMat=       1 IRICut=       1 DoRegI=T DoRafI=F ISym2E= 0 IDoP0=0 IntGTp=1.
 FoFCou: FMM=F IPFlag=           0 FMFlag=      100000 FMFlg1=         800
         NFxFlg=           0 DoJE=F BraDBF=F KetDBF=F FulRan=T
         wScrn=  0.000000 ICntrl=  10002127 IOpCl=  0 I1Cent=           0 NGrid=           0
         NMat0=    1 NMatS0=      1 NMatT0=    0 NMatD0=    1 NMtDS0=    0 NMtDT0=    0
 Symmetry not used in FoFCou.
 Leave Link  703 at Sun Sep 19 19:55:50 2021, MaxMem=   524288000 cpu:               5.1 elap:               5.5
 (Enter /opt/gaussian/g16_legacy/l716.exe)
 Dipole        = 5.91657896D-01 6.63172662D-02 1.10082486D-01
 ***** Axes restored to original set *****
 -------------------------------------------------------------------
 Center     Atomic                   Forces (Hartrees/Bohr)
 Number     Number              X              Y              Z
 -------------------------------------------------------------------
      1        6          -0.002614513   -0.002323879    0.004219814
      2        1          -0.000368022   -0.001822534   -0.001676770
      3        1           0.000418220    0.004760853   -0.000278773
      4        1           0.002438289   -0.000092846    0.000469161
      5        6           0.002121985   -0.005548023   -0.000628610
      6        1           0.004274791    0.003510167    0.001012623
      7        1           0.004124846   -0.001409103   -0.000688665
      8        6           0.005247460    0.000035429    0.002529291
      9        1          -0.002139634    0.006769940    0.000269888
     10        6          -0.002856470    0.001563613   -0.000155829
     11        1          -0.002045243   -0.000488330   -0.002641368
     12        1          -0.002143542   -0.001326794   -0.004576466
     13        6           0.001659117    0.004971789    0.004050381
     14        1           0.002965093   -0.000221522   -0.000961355
     15        1          -0.001697087   -0.000081600   -0.003343567
     16        1          -0.002017936   -0.000578464    0.001674878
     17        8           0.002286406   -0.008414071    0.000051140
     18        1          -0.009653760    0.000695377    0.000674224
 -------------------------------------------------------------------
 Cartesian Forces:  Max     0.009653760 RMS     0.003135817
 Leave Link  716 at Sun Sep 19 19:55:50 2021, MaxMem=   524288000 cpu:               0.0 elap:               0.2
 (Enter /opt/gaussian/g16_legacy/l103.exe)

 GradGradGradGradGradGradGradGradGradGradGradGradGradGradGradGradGradGrad
 Berny optimization.
 FormGI is forming the generalized inverse of G from B-inverse, IUseBI=4.
 Internal  Forces:  Max     0.010230860 RMS     0.002831872
 Search for a local minimum.
 Step number   1 out of a maximum of   97
 All quantities printed in internal units (Hartrees-Bohrs-Radians)
 RMS Force = .28319D-02 SwitMx=.10000D-02 MixMth= 1
 Mixed Optimization -- RFO/linear search
 Second derivative matrix not updated -- first step.
 ITU=  0
     Eigenvalues ---    0.00308   0.00311   0.00463   0.00489   0.01302
     Eigenvalues ---    0.03422   0.03422   0.03931   0.04744   0.04810
     Eigenvalues ---    0.04837   0.05466   0.05507   0.05713   0.05737
     Eigenvalues ---    0.07754   0.08544   0.08561   0.12356   0.12372
     Eigenvalues ---    0.16000   0.16000   0.16000   0.16000   0.16000
     Eigenvalues ---    0.16000   0.16000   0.17233   0.19706   0.21867
     Eigenvalues ---    0.21946   0.29001   0.29024   0.30086   0.30280
     Eigenvalues ---    0.33960   0.33972   0.34088   0.34226   0.34231
     Eigenvalues ---    0.34268   0.34364   0.34394   0.34426   0.34473
     Eigenvalues ---    0.34475   0.41064   0.52604
 RFO step:  Lambda=-4.13351156D-03 EMin= 3.08062386D-03
 Linear search not attempted -- first point.
 Iteration  1 RMS(Cart)=  0.03793365 RMS(Int)=  0.00064451
 Iteration  2 RMS(Cart)=  0.00072981 RMS(Int)=  0.00032107
 Iteration  3 RMS(Cart)=  0.00000023 RMS(Int)=  0.00032107
 ITry= 1 IFail=0 DXMaxC= 1.26D-01 DCOld= 1.00D+10 DXMaxT= 3.00D-01 DXLimC= 3.00D+00 Rises=F
 Variable       Old X    -DE/DX   Delta X   Delta X   Delta X     New X
                                 (Linear)    (Quad)   (Total)
    R1        2.06539  -0.00239   0.00000  -0.00685  -0.00685   2.05854
    R2        2.06720  -0.00436   0.00000  -0.01254  -0.01254   2.05466
    R3        2.06670  -0.00246   0.00000  -0.00708  -0.00708   2.05962
    R4        2.87792   0.00201   0.00000   0.00658   0.00658   2.88450
    R5        2.07377  -0.00382   0.00000  -0.01112  -0.01112   2.06265
    R6        2.06950  -0.00287   0.00000  -0.00828  -0.00828   2.06122
    R7        2.90000  -0.01023   0.00000  -0.03478  -0.03478   2.86522
    R8        2.07182   0.00204   0.00000   0.00592   0.00592   2.07774
    R9        2.89953  -0.00504   0.00000  -0.01713  -0.01713   2.88240
   R10        2.70133   0.00447   0.00000   0.01077   0.01077   2.71210
   R11        2.07398  -0.00186   0.00000  -0.00542  -0.00542   2.06856
   R12        2.06942  -0.00283   0.00000  -0.00818  -0.00818   2.06124
   R13        2.87409   0.00368   0.00000   0.01197   0.01197   2.88607
   R14        2.06536  -0.00307   0.00000  -0.00879  -0.00879   2.05657
   R15        2.06881  -0.00337   0.00000  -0.00973  -0.00973   2.05908
   R16        2.06618  -0.00219   0.00000  -0.00629  -0.00629   2.05989
   R17        1.84026  -0.00960   0.00000  -0.01810  -0.01810   1.82215
    A1        1.89619  -0.00029   0.00000  -0.00908  -0.00914   1.88705
    A2        1.87309  -0.00035   0.00000   0.00246   0.00240   1.87550
    A3        1.95171   0.00080   0.00000   0.00318   0.00312   1.95482
    A4        1.88107   0.00083   0.00000   0.00821   0.00825   1.88932
    A5        1.94135  -0.00185   0.00000  -0.01370  -0.01371   1.92764
    A6        1.91780   0.00091   0.00000   0.00957   0.00956   1.92736
    A7        1.87910   0.00300   0.00000   0.03299   0.03289   1.91199
    A8        1.91089   0.00168   0.00000   0.01798   0.01782   1.92871
    A9        1.98964  -0.00031   0.00000  -0.00152  -0.00136   1.98828
   A10        1.86223   0.00008   0.00000   0.00159   0.00064   1.86286
   A11        1.89426  -0.00264   0.00000  -0.02691  -0.02699   1.86727
   A12        1.92285  -0.00172   0.00000  -0.02312  -0.02318   1.89967
   A13        1.89182   0.00121   0.00000  -0.00901  -0.00895   1.88286
   A14        2.00744   0.00016   0.00000  -0.01462  -0.01463   1.99281
   A15        1.88518  -0.00798   0.00000  -0.04946  -0.04897   1.83622
   A16        1.90737  -0.00310   0.00000  -0.02023  -0.02141   1.88596
   A17        1.86810   0.00342   0.00000   0.06263   0.06246   1.93055
   A18        1.89903   0.00651   0.00000   0.03666   0.03588   1.93491
   A19        1.89900  -0.00283   0.00000  -0.02390  -0.02403   1.87496
   A20        1.92659  -0.00401   0.00000  -0.03140  -0.03157   1.89502
   A21        1.97999   0.00492   0.00000   0.01919   0.01933   1.99932
   A22        1.83339   0.00204   0.00000   0.01930   0.01879   1.85218
   A23        1.90006  -0.00074   0.00000   0.00334   0.00346   1.90351
   A24        1.91873   0.00039   0.00000   0.01347   0.01362   1.93235
   A25        1.95280  -0.00081   0.00000  -0.00714  -0.00715   1.94565
   A26        1.91900   0.00230   0.00000   0.01785   0.01780   1.93680
   A27        1.93496   0.00097   0.00000   0.00422   0.00415   1.93912
   A28        1.87512  -0.00044   0.00000   0.00046   0.00047   1.87558
   A29        1.89704  -0.00094   0.00000  -0.01274  -0.01276   1.88428
   A30        1.88259  -0.00117   0.00000  -0.00292  -0.00303   1.87957
   A31        1.87554  -0.00254   0.00000  -0.01549  -0.01549   1.86005
    D1       -3.11309  -0.00168   0.00000   0.00588   0.00574  -3.10735
    D2       -1.09498   0.00093   0.00000   0.03515   0.03532  -1.05966
    D3        1.06769  -0.00026   0.00000   0.01762   0.01761   1.08530
    D4        1.04657  -0.00056   0.00000   0.02505   0.02487   1.07144
    D5        3.06468   0.00206   0.00000   0.05432   0.05446   3.11914
    D6       -1.05584   0.00087   0.00000   0.03679   0.03675  -1.01910
    D7       -1.03495  -0.00101   0.00000   0.01729   0.01717  -1.01778
    D8        0.98316   0.00160   0.00000   0.04656   0.04675   1.02991
    D9       -3.13736   0.00041   0.00000   0.02903   0.02904  -3.10832
   D10        3.10698   0.00160   0.00000   0.04572   0.04581  -3.13040
   D11       -1.03585  -0.00140   0.00000   0.00230   0.00201  -1.03384
   D12        1.08865   0.00114   0.00000   0.00276   0.00289   1.09153
   D13        1.01308  -0.00014   0.00000   0.02383   0.02410   1.03719
   D14       -3.12975  -0.00314   0.00000  -0.01959  -0.01969   3.13374
   D15       -1.00525  -0.00061   0.00000  -0.01913  -0.01882  -1.02407
   D16       -1.02000   0.00225   0.00000   0.05035   0.05033  -0.96966
   D17        1.12036  -0.00075   0.00000   0.00693   0.00654   1.12689
   D18       -3.03833   0.00178   0.00000   0.00739   0.00741  -3.03092
   D19        3.12044  -0.00207   0.00000  -0.00162  -0.00176   3.11868
   D20        1.11720  -0.00072   0.00000   0.00594   0.00544   1.12264
   D21       -1.04512  -0.00178   0.00000  -0.00174  -0.00202  -1.04714
   D22       -1.03076  -0.00276   0.00000  -0.03936  -0.03892  -1.06968
   D23       -3.03399  -0.00141   0.00000  -0.03180  -0.03172  -3.06572
   D24        1.08687  -0.00247   0.00000  -0.03948  -0.03918   1.04769
   D25        1.00346   0.00327   0.00000   0.04490   0.04511   1.04857
   D26       -0.99978   0.00462   0.00000   0.05247   0.05231  -0.94747
   D27        3.12109   0.00356   0.00000   0.04479   0.04485  -3.11725
   D28        3.08726   0.00020   0.00000   0.02001   0.01969   3.10695
   D29        1.05344   0.00104   0.00000   0.02315   0.02469   1.07813
   D30       -1.00577  -0.00061   0.00000  -0.00667  -0.00789  -1.01366
   D31        1.08113  -0.00042   0.00000   0.01948   0.01952   1.10065
   D32       -3.11990   0.00004   0.00000   0.02733   0.02733  -3.09257
   D33       -1.03974   0.00067   0.00000   0.03778   0.03783  -1.00191
   D34       -3.08502  -0.00129   0.00000   0.00410   0.00410  -3.08092
   D35       -1.00286  -0.00084   0.00000   0.01196   0.01191  -0.99095
   D36        1.07730  -0.00021   0.00000   0.02240   0.02241   1.09971
   D37       -1.08547   0.00095   0.00000   0.03629   0.03629  -1.04918
   D38        0.99669   0.00140   0.00000   0.04414   0.04410   1.04079
   D39        3.07685   0.00203   0.00000   0.05459   0.05460   3.13144
         Item               Value     Threshold  Converged?
 Maximum Force            0.010231     0.000450     NO 
 RMS     Force            0.002832     0.000300     NO 
 Maximum Displacement     0.125591     0.001800     NO 
 RMS     Displacement     0.037800     0.001200     NO 
 Predicted change in Energy=-2.188845D-03
 Lowest energy point so far.  Saving SCF results.
 GradGradGradGradGradGradGradGradGradGradGradGradGradGradGradGradGradGrad

 Leave Link  103 at Sun Sep 19 19:55:51 2021, MaxMem=   524288000 cpu:               0.0 elap:               0.2
 (Enter /opt/gaussian/g16_legacy/l202.exe)
                          Input orientation:                          
 ---------------------------------------------------------------------
 Center     Atomic      Atomic             Coordinates (Angstroms)
 Number     Number       Type             X           Y           Z
 ---------------------------------------------------------------------
      1          6           0       -2.260084    1.109970    2.484858
      2          1           0       -2.042089    1.657424    3.401055
      3          1           0       -1.864769    0.102644    2.590656
      4          1           0       -3.344135    1.043391    2.393805
      5          6           0       -1.662999    1.790753    1.256053
      6          1           0       -1.934115    1.229784    0.359836
      7          1           0       -2.075992    2.793141    1.136064
      8          6           0       -0.149846    1.884107    1.279367
      9          1           0        0.170900    2.397199    0.361355
     10          6           0        0.410340    2.653454    2.471357
     11          1           0        1.501851    2.632523    2.391416
     12          1           0        0.162960    2.109082    3.383618
     13          6           0       -0.055183    4.104976    2.565351
     14          1           0       -1.132190    4.169601    2.707677
     15          1           0        0.416797    4.612194    3.406322
     16          1           0        0.198084    4.657731    1.660629
     17          8           0        0.311132    0.524987    1.285930
     18          1           0        1.274540    0.561239    1.268752
 ---------------------------------------------------------------------
                    Distance matrix (angstroms):
                    1          2          3          4          5
     1  C    0.000000
     2  H    1.089332   0.000000
     3  H    1.087277   1.762251   0.000000
     4  H    1.089904   1.756961   1.764165   0.000000
     5  C    1.526414   2.182320   2.161386   2.163157   0.000000
     6  H    2.153214   3.073035   2.500362   2.481920   1.091510
     7  H    2.164763   2.534006   3.065816   2.500344   1.090753
     8  C    2.550608   2.851934   2.798938   3.486009   1.516209
     9  H    3.475041   3.832019   3.791928   4.280084   2.128720
    10  C    3.084427   2.805499   3.420086   4.085878   2.553420
    11  H    4.059441   3.811785   4.215936   5.099895   3.466108
    12  H    2.770765   2.250898   2.960789   3.796728   2.821701
    13  C    3.719964   3.261397   4.392482   4.496658   3.107244
    14  H    3.268507   2.760385   4.134066   3.842448   2.836880
    15  H    4.503372   3.844062   5.119266   5.282627   4.112145
    16  H    4.394150   4.129080   5.086171   5.113543   3.441930
    17  O    2.896686   3.360628   2.572009   3.854492   2.345261
    18  H    3.778041   4.092477   3.437005   4.778114   3.184494
                    6          7          8          9         10
     6  H    0.000000
     7  H    1.751211   0.000000
     8  C    2.111229   2.134693   0.000000
     9  H    2.407061   2.409454   1.099494   0.000000
    10  C    3.461477   2.825663   1.525301   2.138950   0.000000
    11  H    4.230940   3.795085   2.127178   2.438844   1.094635
    12  H    3.783403   3.245357   2.139237   3.035976   1.090760
    13  C    4.081838   2.801329   2.568068   2.797358   1.527241
    14  H    3.846812   2.292461   2.868545   3.216315   2.175764
    15  H    5.123334   3.831060   3.505350   3.773392   2.170452
    16  H    4.241362   2.987188   2.821242   2.607462   2.172432
    17  O    2.528937   3.296262   1.435184   2.092770   2.438329
    18  H    3.401256   4.028034   1.943957   2.326401   2.563292
                   11         12         13         14         15
    11  H    0.000000
    12  H    1.746735   0.000000
    13  C    2.150053   2.168119   0.000000
    14  H    3.066073   2.525875   1.088290   0.000000
    15  H    2.475171   2.516051   1.089618   1.755947   0.000000
    16  H    2.517007   3.076611   1.090047   1.761877   1.759929
    17  O    2.661131   2.632795   3.819349   4.169863   4.605701
    18  H    2.366910   2.846768   4.000926   4.569807   4.659953
                   16         17         18
    16  H    0.000000
    17  O    4.151235   0.000000
    18  H    4.253654   0.964243   0.000000
 Stoichiometry    C5H12O
 Framework group  C1[X(C5H12O)]
 Deg. of freedom    48
 Full point group                 C1      NOp   1
 RotChk:  IX=0 Diff= 7.71D-02
 Largest Abelian subgroup         C1      NOp   1
 Largest concise Abelian subgroup C1      NOp   1
                         Standard orientation:                         
 ---------------------------------------------------------------------
 Center     Atomic      Atomic             Coordinates (Angstroms)
 Number     Number       Type             X           Y           Z
 ---------------------------------------------------------------------
      1          6           0       -1.464580   -1.270357   -0.518032
      2          1           0       -0.683102   -1.623281   -1.189880
      3          1           0       -2.092502   -0.572596   -1.066680
      4          1           0       -2.072230   -2.132027   -0.242033
      5          6           0       -0.888921   -0.603162    0.728326
      6          1           0       -1.703052   -0.296957    1.387737
      7          1           0       -0.277125   -1.308997    1.291570
      8          6           0       -0.064739    0.635766    0.437344
      9          1           0        0.307785    1.026078    1.395347
     10          6           0        1.135251    0.388674   -0.471234
     11          1           0        1.632923    1.351257   -0.626095
     12          1           0        0.770996    0.075038   -1.450370
     13          6           0        2.148825   -0.614739    0.074929
     14          1           0        1.709589   -1.604185    0.186487
     15          1           0        3.003114   -0.709827   -0.594710
     16          1           0        2.524771   -0.302070    1.049149
     17          8           0       -0.979326    1.563472   -0.164857
     18          1           0       -0.481568    2.372691   -0.329673
 ---------------------------------------------------------------------
 Rotational constants (GHZ):           4.1341356           2.7577719           2.0156174
 Leave Link  202 at Sun Sep 19 19:55:51 2021, MaxMem=   524288000 cpu:               0.0 elap:               0.0
 (Enter /opt/gaussian/g16_legacy/l301.exe)
 Standard basis: 6-31G(d,p) (6D, 7F)
 Ernie: Thresh=  0.10000D-02 Tol=  0.10000D-05 Strict=F.
 There are   150 symmetry adapted cartesian basis functions of A   symmetry.
 There are   150 symmetry adapted basis functions of A   symmetry.
   150 basis functions,   252 primitive gaussians,   150 cartesian basis functions
    25 alpha electrons       25 beta electrons
       nuclear repulsion energy       263.2474341069 Hartrees.
 IExCor=    0 DFT=F Ex=HF Corr=None ExCW=0 ScaHFX=  1.000000
 ScaDFX=  1.000000  1.000000  1.000000  1.000000 ScalE2=  1.000000  1.000000
 IRadAn=      5 IRanWt=     -1 IRanGd=            0 ICorTp=0 IEmpDi=  4
 NAtoms=   18 NActive=   18 NUniq=   18 SFac= 1.00D+00 NAtFMM=   60 NAOKFM=F Big=F
 Integral buffers will be    131072 words long.
 Raffenetti 1 integral format.
 Two-electron integral symmetry is turned on.
 Leave Link  301 at Sun Sep 19 19:55:51 2021, MaxMem=   524288000 cpu:               0.0 elap:               0.0
 (Enter /opt/gaussian/g16_legacy/l302.exe)
 NPDir=0 NMtPBC=     1 NCelOv=     1 NCel=       1 NClECP=     1 NCelD=      1
         NCelK=      1 NCelE2=     1 NClLst=     1 CellRange=     0.0.
 One-electron integrals computed using PRISM.
 One-electron integral symmetry used in STVInt
 NBasis=   150 RedAO= T EigKep=  3.35D-03  NBF=   150
 NBsUse=   150 1.00D-06 EigRej= -1.00D+00 NBFU=   150
 Leave Link  302 at Sun Sep 19 19:55:51 2021, MaxMem=   524288000 cpu:               0.1 elap:               0.1
 (Enter /opt/gaussian/g16_legacy/l303.exe)
 DipDrv:  MaxL=1.
 Leave Link  303 at Sun Sep 19 19:55:51 2021, MaxMem=   524288000 cpu:               0.0 elap:               0.0
 (Enter /opt/gaussian/g16_legacy/l401.exe)
 Initial guess from the checkpoint file:  "06-PVA_005_gaussian.chk"
 B after Tr=     0.000000    0.000000   -0.000000
         Rot=    0.999575    0.003861   -0.003185   -0.028721 Ang=   3.34 deg.
 Guess basis will be translated and rotated to current coordinates.
 JPrj=2 DoOrth=T DoCkMO=T.
 Generating alternative initial guess.
 ExpMin= 1.61D-01 ExpMax= 5.48D+03 ExpMxC= 8.25D+02 IAcc=2 IRadAn=         4 AccDes= 0.00D+00
 Harris functional with IExCor=  205 and IRadAn=       4 diagonalized for initial guess.
 HarFok:  IExCor=  205 AccDes= 0.00D+00 IRadAn=         4 IDoV= 1 UseB2=F ITyADJ=14
 ICtDFT=  3500011 ScaDFX=  1.000000  1.000000  1.000000  1.000000
 FoFCou: FMM=F IPFlag=           0 FMFlag=      100000 FMFlg1=           0
         NFxFlg=           0 DoJE=T BraDBF=F KetDBF=T FulRan=T
         wScrn=  0.000000 ICntrl=       500 IOpCl=  0 I1Cent=   200000004 NGrid=           0
         NMat0=    1 NMatS0=      1 NMatT0=    0 NMatD0=    1 NMtDS0=    0 NMtDT0=    0
 Petite list used in FoFCou.
 Harris En= -271.800351320854    
 Leave Link  401 at Sun Sep 19 19:55:52 2021, MaxMem=   524288000 cpu:               1.2 elap:               1.2
 (Enter /opt/gaussian/g16_legacy/l502.exe)
 Keep R1 ints in memory in canonical form, NReq=65856006.
 FoFCou: FMM=F IPFlag=           0 FMFlag=           0 FMFlg1=           0
         NFxFlg=           0 DoJE=F BraDBF=F KetDBF=F FulRan=T
         wScrn=  0.000000 ICntrl=       600 IOpCl=  0 I1Cent=           0 NGrid=           0
         NMat0=    1 NMatS0=  11325 NMatT0=    0 NMatD0=    1 NMtDS0=    0 NMtDT0=    0
 Symmetry not used in FoFCou.
 Two-electron integral symmetry not used.
 Closed shell SCF:
 Using DIIS extrapolation, IDIIS=  1040.
 NGot=   524288000 LenX=   460106785 LenY=   460083844
 Requested convergence on RMS density matrix=1.00D-08 within 128 cycles.
 Requested convergence on MAX density matrix=1.00D-06.
 Requested convergence on             energy=1.00D-06.
 No special actions if energy rises.

 Cycle   1  Pass 1  IDiag  1:
 E= -271.201814839208    
 DIIS: error= 2.02D-03 at cycle   1 NSaved=   1.
 NSaved= 1 IEnMin= 1 EnMin= -271.201814839208     IErMin= 1 ErrMin= 2.02D-03
 ErrMax= 2.02D-03  0.00D+00 EMaxC= 1.00D-01 BMatC= 1.15D-03 BMatP= 1.15D-03
 IDIUse=3 WtCom= 9.80D-01 WtEn= 2.02D-02
 Coeff-Com:  0.100D+01
 Coeff-En:   0.100D+01
 Coeff:      0.100D+01
 Gap=     2.137 Goal=   None    Shift=    0.000
 GapD=    2.137 DampG=2.000 DampE=1.000 DampFc=2.0000 IDamp=-1.
 RMSDP=2.34D-04 MaxDP=4.73D-03              OVMax= 6.56D-03

 Cycle   2  Pass 1  IDiag  1:
 E= -271.203232908968     Delta-E=       -0.001418069760 Rises=F Damp=F
 DIIS: error= 4.46D-04 at cycle   2 NSaved=   2.
 NSaved= 2 IEnMin= 2 EnMin= -271.203232908968     IErMin= 2 ErrMin= 4.46D-04
 ErrMax= 4.46D-04  0.00D+00 EMaxC= 1.00D-01 BMatC= 6.79D-05 BMatP= 1.15D-03
 IDIUse=3 WtCom= 9.96D-01 WtEn= 4.46D-03
 Coeff-Com: -0.203D+00 0.120D+01
 Coeff-En:   0.000D+00 0.100D+01
 Coeff:     -0.202D+00 0.120D+01
 Gap=     0.637 Goal=   None    Shift=    0.000
 RMSDP=8.28D-05 MaxDP=1.43D-03 DE=-1.42D-03 OVMax= 2.64D-03

 Cycle   3  Pass 1  IDiag  1:
 E= -271.203362699118     Delta-E=       -0.000129790151 Rises=F Damp=F
 DIIS: error= 1.05D-04 at cycle   3 NSaved=   3.
 NSaved= 3 IEnMin= 3 EnMin= -271.203362699118     IErMin= 3 ErrMin= 1.05D-04
 ErrMax= 1.05D-04  0.00D+00 EMaxC= 1.00D-01 BMatC= 4.66D-06 BMatP= 6.79D-05
 IDIUse=3 WtCom= 9.99D-01 WtEn= 1.05D-03
 Coeff-Com: -0.367D-01 0.360D-01 0.100D+01
 Coeff-En:   0.000D+00 0.000D+00 0.100D+01
 Coeff:     -0.367D-01 0.360D-01 0.100D+01
 Gap=     0.638 Goal=   None    Shift=    0.000
 RMSDP=2.45D-05 MaxDP=4.41D-04 DE=-1.30D-04 OVMax= 7.57D-04

 Cycle   4  Pass 1  IDiag  1:
 E= -271.203371333390     Delta-E=       -0.000008634272 Rises=F Damp=F
 DIIS: error= 5.64D-05 at cycle   4 NSaved=   4.
 NSaved= 4 IEnMin= 4 EnMin= -271.203371333390     IErMin= 4 ErrMin= 5.64D-05
 ErrMax= 5.64D-05  0.00D+00 EMaxC= 1.00D-01 BMatC= 6.60D-07 BMatP= 4.66D-06
 IDIUse=1 WtCom= 1.00D+00 WtEn= 0.00D+00
 Coeff-Com:  0.156D-01-0.121D+00 0.129D+00 0.977D+00
 Coeff:      0.156D-01-0.121D+00 0.129D+00 0.977D+00
 Gap=     0.638 Goal=   None    Shift=    0.000
 RMSDP=1.03D-05 MaxDP=2.44D-04 DE=-8.63D-06 OVMax= 2.74D-04

 Cycle   5  Pass 1  IDiag  1:
 E= -271.203372511405     Delta-E=       -0.000001178015 Rises=F Damp=F
 DIIS: error= 1.49D-05 at cycle   5 NSaved=   5.
 NSaved= 5 IEnMin= 5 EnMin= -271.203372511405     IErMin= 5 ErrMin= 1.49D-05
 ErrMax= 1.49D-05  0.00D+00 EMaxC= 1.00D-01 BMatC= 3.16D-08 BMatP= 6.60D-07
 IDIUse=1 WtCom= 1.00D+00 WtEn= 0.00D+00
 Coeff-Com:  0.192D-02 0.145D-02-0.710D-01-0.279D-01 0.110D+01
 Coeff:      0.192D-02 0.145D-02-0.710D-01-0.279D-01 0.110D+01
 Gap=     0.638 Goal=   None    Shift=    0.000
 RMSDP=2.89D-06 MaxDP=9.84D-05 DE=-1.18D-06 OVMax= 9.13D-05

 Cycle   6  Pass 1  IDiag  1:
 E= -271.203372592179     Delta-E=       -0.000000080775 Rises=F Damp=F
 DIIS: error= 6.18D-06 at cycle   6 NSaved=   6.
 NSaved= 6 IEnMin= 6 EnMin= -271.203372592179     IErMin= 6 ErrMin= 6.18D-06
 ErrMax= 6.18D-06  0.00D+00 EMaxC= 1.00D-01 BMatC= 3.11D-09 BMatP= 3.16D-08
 IDIUse=1 WtCom= 1.00D+00 WtEn= 0.00D+00
 Coeff-Com: -0.122D-02 0.793D-02-0.245D-02-0.635D-01-0.993D-01 0.116D+01
 Coeff:     -0.122D-02 0.793D-02-0.245D-02-0.635D-01-0.993D-01 0.116D+01
 Gap=     0.638 Goal=   None    Shift=    0.000
 RMSDP=9.09D-07 MaxDP=3.65D-05 DE=-8.08D-08 OVMax= 3.72D-05

 Cycle   7  Pass 1  IDiag  1:
 E= -271.203372600096     Delta-E=       -0.000000007917 Rises=F Damp=F
 DIIS: error= 1.47D-06 at cycle   7 NSaved=   7.
 NSaved= 7 IEnMin= 7 EnMin= -271.203372600096     IErMin= 7 ErrMin= 1.47D-06
 ErrMax= 1.47D-06  0.00D+00 EMaxC= 1.00D-01 BMatC= 4.58D-10 BMatP= 3.11D-09
 IDIUse=1 WtCom= 1.00D+00 WtEn= 0.00D+00
 Coeff-Com: -0.463D-03 0.142D-02 0.771D-02-0.985D-02-0.144D+00 0.233D+00
 Coeff-Com:  0.912D+00
 Coeff:     -0.463D-03 0.142D-02 0.771D-02-0.985D-02-0.144D+00 0.233D+00
 Coeff:      0.912D+00
 Gap=     0.638 Goal=   None    Shift=    0.000
 RMSDP=2.66D-07 MaxDP=1.11D-05 DE=-7.92D-09 OVMax= 1.21D-05

 Cycle   8  Pass 1  IDiag  1:
 E= -271.203372600941     Delta-E=       -0.000000000845 Rises=F Damp=F
 DIIS: error= 6.13D-07 at cycle   8 NSaved=   8.
 NSaved= 8 IEnMin= 8 EnMin= -271.203372600941     IErMin= 8 ErrMin= 6.13D-07
 ErrMax= 6.13D-07  0.00D+00 EMaxC= 1.00D-01 BMatC= 3.80D-11 BMatP= 4.58D-10
 IDIUse=1 WtCom= 1.00D+00 WtEn= 0.00D+00
 Coeff-Com:  0.142D-03-0.925D-03 0.404D-03 0.763D-02 0.941D-02-0.127D+00
 Coeff-Com:  0.239D-01 0.109D+01
 Coeff:      0.142D-03-0.925D-03 0.404D-03 0.763D-02 0.941D-02-0.127D+00
 Coeff:      0.239D-01 0.109D+01
 Gap=     0.638 Goal=   None    Shift=    0.000
 RMSDP=9.76D-08 MaxDP=3.58D-06 DE=-8.45D-10 OVMax= 4.52D-06

 Cycle   9  Pass 1  IDiag  1:
 E= -271.203372601016     Delta-E=       -0.000000000075 Rises=F Damp=F
 DIIS: error= 1.19D-07 at cycle   9 NSaved=   9.
 NSaved= 9 IEnMin= 9 EnMin= -271.203372601016     IErMin= 9 ErrMin= 1.19D-07
 ErrMax= 1.19D-07  0.00D+00 EMaxC= 1.00D-01 BMatC= 2.89D-12 BMatP= 3.80D-11
 IDIUse=1 WtCom= 1.00D+00 WtEn= 0.00D+00
 Coeff-Com:  0.504D-04-0.199D-03-0.597D-03 0.155D-02 0.123D-01-0.294D-01
 Coeff-Com: -0.741D-01 0.766D-01 0.101D+01
 Coeff:      0.504D-04-0.199D-03-0.597D-03 0.155D-02 0.123D-01-0.294D-01
 Coeff:     -0.741D-01 0.766D-01 0.101D+01
 Gap=     0.638 Goal=   None    Shift=    0.000
 RMSDP=2.61D-08 MaxDP=1.01D-06 DE=-7.47D-11 OVMax= 1.29D-06

 Cycle  10  Pass 1  IDiag  1:
 E= -271.203372601032     Delta-E=       -0.000000000016 Rises=F Damp=F
 DIIS: error= 4.17D-08 at cycle  10 NSaved=  10.
 NSaved=10 IEnMin=10 EnMin= -271.203372601032     IErMin=10 ErrMin= 4.17D-08
 ErrMax= 4.17D-08  0.00D+00 EMaxC= 1.00D-01 BMatC= 2.76D-13 BMatP= 2.89D-12
 IDIUse=1 WtCom= 1.00D+00 WtEn= 0.00D+00
 Coeff-Com: -0.103D-04 0.701D-04-0.608D-04-0.550D-03-0.576D-03 0.993D-02
 Coeff-Com: -0.359D-02-0.942D-01 0.461D-01 0.104D+01
 Coeff:     -0.103D-04 0.701D-04-0.608D-04-0.550D-03-0.576D-03 0.993D-02
 Coeff:     -0.359D-02-0.942D-01 0.461D-01 0.104D+01
 Gap=     0.638 Goal=   None    Shift=    0.000
 RMSDP=7.98D-09 MaxDP=3.12D-07 DE=-1.56D-11 OVMax= 3.72D-07

 SCF Done:  E(RHF) =  -271.203372601     A.U. after   10 cycles
            NFock= 10  Conv=0.80D-08     -V/T= 2.0013
 KE= 2.708501357214D+02 PE=-1.160466800665D+03 EE= 3.551658582352D+02
 Leave Link  502 at Sun Sep 19 19:55:55 2021, MaxMem=   524288000 cpu:               2.9 elap:               2.9
 (Enter /opt/gaussian/g16_legacy/l801.exe)
 ExpMin= 1.61D-01 ExpMax= 5.48D+03 ExpMxC= 8.25D+02 IAcc=3 IRadAn=         5 AccDes= 0.00D+00
 HarFok:  IExCor=  205 AccDes= 0.00D+00 IRadAn=         5 IDoV=-2 UseB2=F ITyADJ=14
 ICtDFT= 12500011 ScaDFX=  1.000000  1.000000  1.000000  1.000000
 Largest valence mixing into a core orbital is  2.02D-04
 Largest core mixing into a valence orbital is  3.30D-05
 Range of M.O.s used for correlation:     7   150
 NBasis=   150 NAE=    25 NBE=    25 NFC=     6 NFV=     0
 NROrb=    144 NOA=    19 NOB=    19 NVA=   125 NVB=   125
 Leave Link  801 at Sun Sep 19 19:55:56 2021, MaxMem=   524288000 cpu:               0.6 elap:               0.6
 (Enter /opt/gaussian/g16_legacy/l906.exe)
 Frozen-core derivative calculation, NFC=   6 NFV=   0.
 FulOut=F Deriv=T AODrv=T NAtomX=    18
   MMem=         308  MDisk=          19 MDiskD=          19
  W3Min=      562500 MinDsk=      807575 NBas6D=         150
 NBas2D=       11523    NTT=       11325    LW2=     2040000
    MDV=   523998267 MDiskM=       48333 NBas2p=       11295
 Fully direct method using O(ONN) memory.
 IMap=   1   2   3   4   5   6   7   8   9  10  11  12  13  14  15  16  17  18  19  20
 IMap=  21  22  23  24  25
 JobTyp=1 Pass  1:  I=   7 to  25 NPSUse=  1 ParTrn=F ParDer=F DoDerP=T.
 Spin components of T(2) and E(2):
     alpha-alpha T2 =       0.3399170334D-01 E2=     -0.1064657145D+00
     alpha-beta  T2 =       0.2147755694D+00 E2=     -0.7044028585D+00
     beta-beta   T2 =       0.3399170334D-01 E2=     -0.1064657145D+00
 The integrals were generated   1 times.
 ANorm=    0.1132589500D+01
 E2 =    -0.9173342875D+00 EUMP2 =    -0.27212070688850D+03
 Leave Link  906 at Sun Sep 19 19:56:16 2021, MaxMem=   524288000 cpu:              20.6 elap:              20.6
 (Enter /opt/gaussian/g16_legacy/l1002.exe)
 Minotr:  Closed shell wavefunction.
          Computing MP2/KS-MP2 derivatives.
          Using Z-Vector for PSCF gradient.
          Skipping F1 and S1 gradient terms here.
          IDoAtm=111111111111111111
          Frozen-core window.
          Direct CPHF calculation.
          Differentiating once with respect to electric field.
                with respect to dipole field.
          Differentiating once with respect to nuclear coordinates.
          Requested convergence is 1.0D-10 RMS, and 1.0D-09 maximum.
[...]
 ! D26   D(17,8,10,12)         -55.2695         -DE/DX =    0.0                 !
 ! D27   D(17,8,10,13)        -179.0656         -DE/DX =    0.0                 !
 ! D28   D(5,8,17,18)         -177.8905         -DE/DX =    0.0                 !
 ! D29   D(9,8,17,18)           65.8996         -DE/DX =    0.0                 !
 ! D30   D(10,8,17,18)         -53.2892         -DE/DX =    0.0                 !
 ! D31   D(8,10,13,14)          66.5763         -DE/DX =    0.0                 !
 ! D32   D(8,10,13,15)        -173.4439         -DE/DX =    0.0                 !
 ! D33   D(8,10,13,16)         -53.6481         -DE/DX =    0.0                 !
 ! D34   D(11,10,13,14)       -172.9041         -DE/DX =    0.0                 !
 ! D35   D(11,10,13,15)        -52.9243         -DE/DX =    0.0                 !
 ! D36   D(11,10,13,16)         66.8714         -DE/DX =    0.0                 !
 ! D37   D(12,10,13,14)        -56.139          -DE/DX =    0.0                 !
 ! D38   D(12,10,13,15)         63.8408         -DE/DX =    0.0                 !
 ! D39   D(12,10,13,16)       -176.3634         -DE/DX =    0.0                 !
 --------------------------------------------------------------------------------
 Lowest energy point so far.  Saving SCF results.
 Largest change from initial coordinates is atom    3       0.196 Angstoms.
 GradGradGradGradGradGradGradGradGradGradGradGradGradGradGradGradGradGrad

 Leave Link  103 at Sun Sep 19 19:59:46 2021, MaxMem=   524288000 cpu:               0.0 elap:               0.0
 (Enter /opt/gaussian/g16_legacy/l202.exe)
                          Input orientation:                          
 ---------------------------------------------------------------------
 Center     Atomic      Atomic             Coordinates (Angstroms)
 Number     Number       Type             X           Y           Z
 ---------------------------------------------------------------------
      1          6           0       -2.268358    1.140416    2.485458
      2          1           0       -2.126795    1.754448    3.374313
      3          1           0       -1.803969    0.172573    2.660912
      4          1           0       -3.339705    0.989044    2.358917
      5          6           0       -1.669787    1.794386    1.245145
      6          1           0       -1.937532    1.213345    0.360922
      7          1           0       -2.084766    2.794024    1.101712
      8          6           0       -0.149658    1.887845    1.269589
      9          1           0        0.172148    2.410976    0.357117
     10          6           0        0.420560    2.635238    2.471797
     11          1           0        1.512164    2.623312    2.387262
     12          1           0        0.175780    2.078525    3.377431
     13          6           0       -0.057027    4.078866    2.582242
     14          1           0       -1.124220    4.128924    2.792633
     15          1           0        0.463883    4.600394    3.383933
     16          1           0        0.127764    4.622830    1.655225
     17          8           0        0.325643    0.536632    1.245289
     18          1           0        1.289075    0.572421    1.294201
 ---------------------------------------------------------------------
                    Distance matrix (angstroms):
                    1          2          3          4          5
     1  C    0.000000
     2  H    1.089558   0.000000
     3  H    1.087732   1.765073   0.000000
     4  H    1.089363   1.757277   1.765307   0.000000
     5  C    1.524579   2.178028   2.157007   2.162797   0.000000
     6  H    2.151377   3.067432   2.528043   2.451201   1.091397
     7  H    2.163996   2.499440   3.062998   2.532467   1.091813
     8  C    2.554579   2.890800   2.759471   3.488678   1.523195
     9  H    3.478538   3.849628   3.771334   4.285115   2.135767
    10  C    3.076517   2.842418   3.324005   4.106372   2.565396
    11  H    4.062139   3.869265   4.132523   5.119792   3.480856
    12  H    2.765768   2.325271   2.839975   3.818766   2.834343
    13  C    3.678837   3.211579   4.279850   4.513630   3.099624
    14  H    3.214745   2.642280   4.016481   3.867213   2.853494
    15  H    4.499316   3.848521   5.027077   5.344136   4.123184
    16  H    4.307887   4.033102   4.954572   5.071777   3.376307
    17  O    2.937927   3.468468   2.582978   3.857411   2.358747
    18  H    3.794343   4.170398   3.405099   4.767892   3.201635
                    6          7          8          9         10
     6  H    0.000000
     7  H    1.751854   0.000000
     8  C    2.115920   2.143358   0.000000
     9  H    2.425919   2.407240   1.099923   0.000000
    10  C    3.469607   2.859895   1.526123   2.140998   0.000000
    11  H    4.241988   3.823569   2.133485   2.441765   1.094937
    12  H    3.783379   3.286473   2.141324   3.038558   1.090880
    13  C    4.084333   2.820374   2.555819   2.790261   1.524582
    14  H    3.882692   2.358775   2.879561   3.250177   2.172643
    15  H    5.135903   3.868736   3.493538   3.747036   2.166958
    16  H    4.191092   2.923388   2.775936   2.565024   2.168649
    17  O    2.522302   3.305526   1.432578   2.079802   2.432588
    18  H    3.419471   4.044177   1.949589   2.346473   2.529084
                   11         12         13         14         15
    11  H    0.000000
    12  H    1.750186   0.000000
    13  C    2.149189   2.165153   0.000000
    14  H    3.062958   2.497223   1.088885   0.000000
    15  H    2.449714   2.538280   1.089058   1.758974   0.000000
    16  H    2.539785   3.072748   1.090598   1.762131   1.761224
    17  O    2.658227   2.635513   3.805431   4.171444   4.594244
    18  H    2.334675   2.801361   3.970667   4.551703   4.612211
                   16         17         18
    16  H    0.000000
    17  O    4.111474   0.000000
    18  H    4.229041   0.965336   0.000000
 Stoichiometry    C5H12O
 Framework group  C1[X(C5H12O)]
 Deg. of freedom    48
 Full point group                 C1      NOp   1
 RotChk:  IX=0 Diff= 9.62D-16
 Largest Abelian subgroup         C1      NOp   1
 Largest concise Abelian subgroup C1      NOp   1
                         Standard orientation:                         
 ---------------------------------------------------------------------
 Center     Atomic      Atomic             Coordinates (Angstroms)
 Number     Number       Type             X           Y           Z
 ---------------------------------------------------------------------
      1          6           0       -1.445690   -1.284611   -0.523379
      2          1           0       -0.645988   -1.731693   -1.113065
      3          1           0       -1.973715   -0.569256   -1.149972
      4          1           0       -2.138238   -2.080934   -0.253271
      5          6           0       -0.909311   -0.594810    0.725947
      6          1           0       -1.743576   -0.268904    1.349594
      7          1           0       -0.322290   -1.292815    1.326157
      8          6           0       -0.065623    0.639589    0.435135
      9          1           0        0.304588    1.030369    1.394335
     10          6           0        1.136387    0.387233   -0.470701
     11          1           0        1.651451    1.342110   -0.618373
     12          1           0        0.775125    0.077252   -1.452241
     13          6           0        2.123293   -0.632794    0.085993
     14          1           0        1.683123   -1.627758    0.130352
     15          1           0        3.014385   -0.691837   -0.537318
     16          1           0        2.438704   -0.360535    1.093860
     17          8           0       -0.955711    1.589632   -0.162729
     18          1           0       -0.432217    2.369305   -0.386199
 ---------------------------------------------------------------------
 Rotational constants (GHZ):           4.0635498           2.7985862           2.0209064
 Leave Link  202 at Sun Sep 19 19:59:46 2021, MaxMem=   524288000 cpu:               0.0 elap:               0.0
 (Enter /opt/gaussian/g16_legacy/l601.exe)
 Copying SCF densities to generalized density rwf, IOpCl= 0 IROHF=0.

 **********************************************************************

            Population analysis using the SCF density.

 **********************************************************************

 Orbital symmetries:
       Occupied  (A) (A) (A) (A) (A) (A) (A) (A) (A) (A) (A) (A)
                 (A) (A) (A) (A) (A) (A) (A) (A) (A) (A) (A) (A)
                 (A)
       Virtual   (A) (A) (A) (A) (A) (A) (A) (A) (A) (A) (A) (A)
                 (A) (A) (A) (A) (A) (A) (A) (A) (A) (A) (A) (A)
                 (A) (A) (A) (A) (A) (A) (A) (A) (A) (A) (A) (A)
                 (A) (A) (A) (A) (A) (A) (A) (A) (A) (A) (A) (A)
                 (A) (A) (A) (A) (A) (A) (A) (A) (A) (A) (A) (A)
                 (A) (A) (A) (A) (A) (A) (A) (A) (A) (A) (A) (A)
                 (A) (A) (A) (A) (A) (A) (A) (A) (A) (A) (A) (A)
                 (A) (A) (A) (A) (A) (A) (A) (A) (A) (A) (A) (A)
                 (A) (A) (A) (A) (A) (A) (A) (A) (A) (A) (A) (A)
                 (A) (A) (A) (A) (A) (A) (A) (A) (A) (A) (A) (A)
                 (A) (A) (A) (A) (A)
 The electronic state is 1-A.
 Alpha  occ. eigenvalues --  -20.55365 -11.27268 -11.22069 -11.21845 -11.21270
 Alpha  occ. eigenvalues --  -11.20383  -1.34909  -1.07365  -1.01375  -0.91428
 Alpha  occ. eigenvalues --   -0.85291  -0.75915  -0.69337  -0.64651  -0.59096
 Alpha  occ. eigenvalues --   -0.58549  -0.57163  -0.56135  -0.51861  -0.51039
 Alpha  occ. eigenvalues --   -0.49764  -0.48191  -0.47282  -0.44810  -0.42250
 Alpha virt. eigenvalues --    0.21439   0.24067   0.26790   0.28191   0.29331
 Alpha virt. eigenvalues --    0.30410   0.32203   0.33520   0.34819   0.35626
 Alpha virt. eigenvalues --    0.36408   0.37433   0.40029   0.40921   0.43033
 Alpha virt. eigenvalues --    0.45173   0.48759   0.70180   0.71658   0.73601
 Alpha virt. eigenvalues --    0.76365   0.78124   0.78733   0.82760   0.89665
 Alpha virt. eigenvalues --    0.91096   0.93822   0.95146   0.96016   1.00524
 Alpha virt. eigenvalues --    1.06475   1.08978   1.10459   1.11110   1.12864
 Alpha virt. eigenvalues --    1.14014   1.14369   1.14928   1.17086   1.18887
 Alpha virt. eigenvalues --    1.20369   1.21507   1.22961   1.23448   1.26343
 Alpha virt. eigenvalues --    1.30805   1.33895   1.40931   1.48316   1.55624
 Alpha virt. eigenvalues --    1.58628   1.68929   1.72640   1.74898   1.78228
 Alpha virt. eigenvalues --    1.79913   1.85479   1.93940   1.95440   1.99544
 Alpha virt. eigenvalues --    2.05917   2.07502   2.10541   2.14391   2.17936
 Alpha virt. eigenvalues --    2.22340   2.26057   2.27578   2.34091   2.36874
 Alpha virt. eigenvalues --    2.37914   2.39829   2.41094   2.42190   2.43999
 Alpha virt. eigenvalues --    2.45160   2.49016   2.50186   2.54265   2.57396
 Alpha virt. eigenvalues --    2.57678   2.58995   2.62160   2.68825   2.71466
 Alpha virt. eigenvalues --    2.73307   2.75431   2.79609   2.81003   2.86242
 Alpha virt. eigenvalues --    2.94423   2.96998   2.98968   3.01197   3.03178
 Alpha virt. eigenvalues --    3.05328   3.08802   3.12959   3.14943   3.19647
 Alpha virt. eigenvalues --    3.22000   3.23894   3.24925   3.25998   3.28271
 Alpha virt. eigenvalues --    3.34948   3.36929   3.56652   3.60252   3.67142
 Alpha virt. eigenvalues --    3.72116   3.72388   3.78838   3.82083   3.84296
 Alpha virt. eigenvalues --    3.87528   3.88783   3.93024   3.95946   4.39277
 Alpha virt. eigenvalues --    4.72421   4.84479   5.00367   5.06484   5.14088
          Condensed to atoms (all electrons):
               1          2          3          4          5          6
     1  C    4.937761   0.400952   0.406906   0.404986   0.327008  -0.040510
     2  H    0.400952   0.599411  -0.029416  -0.030703  -0.037888   0.004236
     3  H    0.406906  -0.029416   0.545278  -0.027696  -0.039134  -0.002052
     4  H    0.404986  -0.030703  -0.027696   0.582813  -0.037401  -0.004306
     5  C    0.327008  -0.037888  -0.039134  -0.037401   5.002200   0.412106
     6  H   -0.040510   0.004236  -0.002052  -0.004306   0.412106   0.570511
     7  H   -0.039750  -0.003901   0.004272  -0.002361   0.403281  -0.028641
     8  C   -0.051313  -0.004431  -0.005651   0.004495   0.362503  -0.040004
     9  H    0.005142  -0.000144   0.000152  -0.000076  -0.054760  -0.005622
    10  C   -0.007260   0.000909  -0.000256  -0.000042  -0.054576   0.005417
    11  H   -0.000068   0.000061  -0.000055   0.000002   0.005205  -0.000113
    12  H    0.001513  -0.002654   0.000599   0.000017  -0.007228  -0.000148
    13  C   -0.000244  -0.000305   0.000075   0.000002  -0.002594  -0.000121
    14  H    0.000120   0.000743  -0.000027  -0.000004   0.000220   0.000029
    15  H   -0.000033   0.000008   0.000002   0.000000   0.000022   0.000003
    16  H    0.000112  -0.000034  -0.000002   0.000000  -0.000593  -0.000043
    17  O   -0.001332   0.000110   0.005550   0.000005  -0.065944   0.000718
    18  H   -0.000095  -0.000020  -0.000277   0.000008   0.007027  -0.000192
               7          8          9         10         11         12
     1  C   -0.039750  -0.051313   0.005142  -0.007260  -0.000068   0.001513
     2  H   -0.003901  -0.004431  -0.000144   0.000909   0.000061  -0.002654
     3  H    0.004272  -0.005651   0.000152  -0.000256  -0.000055   0.000599
     4  H   -0.002361   0.004495  -0.000076  -0.000042   0.000002   0.000017
     5  C    0.403281   0.362503  -0.054760  -0.054576   0.005205  -0.007228
     6  H   -0.028641  -0.040004  -0.005622   0.005417  -0.000113  -0.000148
     7  H    0.602334  -0.039081  -0.000867  -0.002831  -0.000128   0.000448
     8  C   -0.039081   4.734079   0.421166   0.361602  -0.043052  -0.036672
     9  H   -0.000867   0.421166   0.637020  -0.062063  -0.005398   0.005326
    10  C   -0.002831   0.361602  -0.062063   5.041615   0.406494   0.404208
    11  H   -0.000128  -0.043052  -0.005398   0.406494   0.612855  -0.033224
    12  H    0.000448  -0.036672   0.005326   0.404208  -0.033224   0.576565
    13  C   -0.000580  -0.048828   0.000796   0.309652  -0.039083  -0.035794
    14  H   -0.002074  -0.004279   0.000171  -0.038152   0.004344  -0.003853
    15  H    0.000079   0.003766  -0.000207  -0.032468  -0.004599  -0.002469
    16  H    0.000351  -0.003383   0.003215  -0.042117  -0.002540   0.004319
    17  O    0.002939   0.202055  -0.035191  -0.047155  -0.001675   0.001761
    18  H   -0.000214  -0.028208  -0.003321  -0.004661   0.004145  -0.000456
              13         14         15         16         17         18
     1  C   -0.000244   0.000120  -0.000033   0.000112  -0.001332  -0.000095
     2  H   -0.000305   0.000743   0.000008  -0.000034   0.000110  -0.000020
     3  H    0.000075  -0.000027   0.000002  -0.000002   0.005550  -0.000277
     4  H    0.000002  -0.000004   0.000000   0.000000   0.000005   0.000008
     5  C   -0.002594   0.000220   0.000022  -0.000593  -0.065944   0.007027
     6  H   -0.000121   0.000029   0.000003  -0.000043   0.000718  -0.000192
     7  H   -0.000580  -0.002074   0.000079   0.000351   0.002939  -0.000214
     8  C   -0.048828  -0.004279   0.003766  -0.003383   0.202055  -0.028208
     9  H    0.000796   0.000171  -0.000207   0.003215  -0.035191  -0.003321
    10  C    0.309652  -0.038152  -0.032468  -0.042117  -0.047155  -0.004661
    11  H   -0.039083   0.004344  -0.004599  -0.002540  -0.001675   0.004145
    12  H   -0.035794  -0.003853  -0.002469   0.004319   0.001761  -0.000456
    13  C    4.949116   0.405620   0.402769   0.401710   0.003169   0.000006
    14  H    0.405620   0.577631  -0.029004  -0.030871  -0.000022   0.000006
    15  H    0.402769  -0.029004   0.572666  -0.029331  -0.000049  -0.000006
    16  H    0.401710  -0.030871  -0.029331   0.587695  -0.000003   0.000002
    17  O    0.003169  -0.000022  -0.000049  -0.000003   8.291745   0.306163
    18  H    0.000006   0.000006  -0.000006   0.000002   0.306163   0.384969
 Mulliken charges:
               1
     1  C   -0.343896
     2  H    0.103064
     3  H    0.141733
     4  H    0.110262
     5  C   -0.219454
     6  H    0.128734
     7  H    0.106726
     8  C    0.215236
     9  H    0.094661
    10  C   -0.238317
    11  H    0.096830
    12  H    0.127741
    13  C   -0.345369
    14  H    0.119404
    15  H    0.118852
    16  H    0.111512
    17  O   -0.662843
    18  H    0.335124
 Sum of Mulliken charges =  -0.00000
 Mulliken charges with hydrogens summed into heavy atoms:
               1
     1  C    0.011163
     5  C    0.016006
     8  C    0.309897
    10  C   -0.013746
    13  C    0.004399
    17  O   -0.327719
 Electronic spatial extent (au):  <R**2>=            703.5901
 Charge=             -0.0000 electrons
 Dipole moment (field-independent basis, Debye):
    X=              1.7274    Y=              0.1868    Z=              0.1822  Tot=              1.7470
 Quadrupole moment (field-independent basis, Debye-Ang):
   XX=            -42.3430   YY=            -37.4498   ZZ=            -39.9799
   XY=              2.8668   XZ=             -0.5524   YZ=             -0.6143
 Traceless Quadrupole moment (field-independent basis, Debye-Ang):
   XX=             -2.4188   YY=              2.4745   ZZ=             -0.0557
   XY=              2.8668   XZ=             -0.5524   YZ=             -0.6143
 Octapole moment (field-independent basis, Debye-Ang**2):
  XXX=             -1.8518  YYY=             20.7229  ZZZ=             -0.3695  XYY=              2.5513
  XXY=             -1.2503  XXZ=              0.0619  XZZ=             -0.7957  YZZ=              3.3733
  YYZ=             -2.6352  XYZ=              0.6822
 Hexadecapole moment (field-independent basis, Debye-Ang**3):
 XXXX=           -498.4946 YYYY=           -264.1407 ZZZZ=           -135.2083 XXXY=              0.8072
 XXXZ=             -4.6485 YYYX=             -1.6312 YYYZ=            -11.9838 ZZZX=              1.2344
 ZZZY=             -0.8751 XXYY=           -141.2259 XXZZ=           -103.8657 YYZZ=            -73.5206
 XXYZ=             -0.2923 YYXZ=             -0.1176 ZZXY=             -3.2628
 N-N= 2.632498407209D+02 E-N=-1.160456775115D+03  KE= 2.708414782492D+02
 No NMR shielding tensors so no spin-rotation constants.
 Leave Link  601 at Sun Sep 19 19:59:47 2021, MaxMem=   524288000 cpu:               0.1 elap:               0.1
 (Enter /opt/gaussian/g16_legacy/l9999.exe)
 1\1\GINC-TRUENO92\FOpt\RMP2-FC\6-31G(d,p)\C5H12O1\JRAMOS\19-Sep-2021\0
 \\#p opt mp2/6-31g(d,p)\\Conformer number 005. Energy MM = 2.137 kcal/
 mol\\0,1\C,-2.2683580877,1.1404164541,2.4854584466\H,-2.1267948512,1.7
 544475827,3.374312692\H,-1.8039690133,0.1725733269,2.6609124004\H,-3.3
 397050723,0.9890437673,2.3589171041\C,-1.6697868073,1.7943863632,1.245
 1446987\H,-1.9375317897,1.2133448668,0.3609215245\H,-2.0847655182,2.79
 40236403,1.1017121264\C,-0.1496583152,1.8878449182,1.2695890708\H,0.17
 21482914,2.4109761889,0.3571173878\C,0.4205599053,2.6352382837,2.47179
 74498\H,1.5121639278,2.6233123804,2.3872623885\H,0.1757799813,2.078525
 4144,3.3774313692\C,-0.0570270902,4.0788662935,2.5822416828\H,-1.12421
 99126,4.1289240658,2.7926333305\H,0.4638827038,4.6003941263,3.38393349
 46\H,0.127764115,4.6228295268,1.6552251433\O,0.3256428547,0.5366316738
 ,1.2452889914\H,1.2890746785,0.5724211269,1.2942006987\\Version=EM64L-
 G16RevA.03\State=1-A\HF=-271.2039341\MP2=-272.1210714\RMSD=2.375e-09\R
 MSF=2.031e-05\Dipole=0.3782465,0.4873395,0.073554\PG=C01 [X(C5H12O1)]\
 \@


 LENDING MONEY TO FRIENDS CAUSES THEM TO LOSE THEIR MEMORIES.

    --  PETER'S THEORY OF RECIPROCAL INHIBITION OF FISCAL RECALL
 Job cpu time:       0 days  0 hours  4 minutes 32.0 seconds.
 Elapsed time:       0 days  0 hours  4 minutes 34.0 seconds.
 File lengths (MBytes):  RWF=     15 Int=      0 D2E=      0 Chk=      4 Scr=      1
 Normal termination of Gaussian 16 at Sun Sep 19 19:59:47 2021.
