 Entering Gaussian System, Link 0=/opt/gaussian/g16_legacy/g16
 Input=07-EVA_007_gaussian.com
 Output=07-EVA_007_gaussian.log
 Initial command:
 /opt/gaussian/g16_legacy/l1.exe "/scratch-local/jramos/2661761/Gau-31491.inp" -scrdir="/scratch-local/jramos/2661761/"
 Entering Link 1 = /opt/gaussian/g16_legacy/l1.exe PID=     31493.
  
 Copyright (c) 1988,1990,1992,1993,1995,1998,2003,2009,2016,
            Gaussian, Inc.  All Rights Reserved.
  
 This is part of the Gaussian(R) 16 program.  It is based on
 the Gaussian(R) 09 system (copyright 2009, Gaussian, Inc.),
 the Gaussian(R) 03 system (copyright 2003, Gaussian, Inc.),
 the Gaussian(R) 98 system (copyright 1998, Gaussian, Inc.),
 the Gaussian(R) 94 system (copyright 1995, Gaussian, Inc.),
 the Gaussian 92(TM) system (copyright 1992, Gaussian, Inc.),
 the Gaussian 90(TM) system (copyright 1990, Gaussian, Inc.),
 the Gaussian 88(TM) system (copyright 1988, Gaussian, Inc.),
 the Gaussian 86(TM) system (copyright 1986, Carnegie Mellon
 University), and the Gaussian 82(TM) system (copyright 1983,
 Carnegie Mellon University). Gaussian is a federally registered
 trademark of Gaussian, Inc.
  
 This software contains proprietary and confidential information,
 including trade secrets, belonging to Gaussian, Inc.
  
 This software is provided under written license and may be
 used, copied, transmitted, or stored only in accord with that
 written license.
  
 The following legend is applicable only to US Government
 contracts under FAR:
  
                    RESTRICTED RIGHTS LEGEND
  
 Use, reproduction and disclosure by the US Government is
 subject to restrictions as set forth in subparagraphs (a)
 and (c) of the Commercial Computer Software - Restricted
 Rights clause in FAR 52.227-19.
  
 Gaussian, Inc.
 340 Quinnipiac St., Bldg. 40, Wallingford CT 06492
  
  
 ---------------------------------------------------------------
 Warning -- This program may not be used in any manner that
 competes with the business of Gaussian, Inc. or will provide
 assistance to any competitor of Gaussian, Inc.  The licensee
 of this program is prohibited from giving any competitor of
 Gaussian, Inc. access to this program.  By using this program,
 the user acknowledges that Gaussian, Inc. is engaged in the
 business of creating and licensing software in the field of
 computational chemistry and represents and warrants to the
 licensee that it is not a competitor of Gaussian, Inc. and that
 it will not use this program in any manner prohibited above.
 ---------------------------------------------------------------
  

 Cite this work as:
 Gaussian 16, Revision A.03,
 M. J. Frisch, G. W. Trucks, H. B. Schlegel, G. E. Scuseria, 
 M. A. Robb, J. R. Cheeseman, G. Scalmani, V. Barone, 
 G. A. Petersson, H. Nakatsuji, X. Li, M. Caricato, A. V. Marenich, 
 J. Bloino, B. G. Janesko, R. Gomperts, B. Mennucci, H. P. Hratchian, 
 J. V. Ortiz, A. F. Izmaylov, J. L. Sonnenberg, D. Williams-Young, 
 F. Ding, F. Lipparini, F. Egidi, J. Goings, B. Peng, A. Petrone, 
 T. Henderson, D. Ranasinghe, V. G. Zakrzewski, J. Gao, N. Rega, 
 G. Zheng, W. Liang, M. Hada, M. Ehara, K. Toyota, R. Fukuda, 
 J. Hasegawa, M. Ishida, T. Nakajima, Y. Honda, O. Kitao, H. Nakai, 
 T. Vreven, K. Throssell, J. A. Montgomery, Jr., J. E. Peralta, 
 F. Ogliaro, M. J. Bearpark, J. J. Heyd, E. N. Brothers, K. N. Kudin, 
 V. N. Staroverov, T. A. Keith, R. Kobayashi, J. Normand, 
 K. Raghavachari, A. P. Rendell, J. C. Burant, S. S. Iyengar, 
 J. Tomasi, M. Cossi, J. M. Millam, M. Klene, C. Adamo, R. Cammi, 
 J. W. Ochterski, R. L. Martin, K. Morokuma, O. Farkas, 
 J. B. Foresman, and D. J. Fox, Gaussian, Inc., Wallingford CT, 2016.
 
 ******************************************
 Gaussian 16:  EM64L-G16RevA.03 25-Dec-2016
                19-Sep-2021 
 ******************************************
 %chk=07-EVA_007_gaussian.chk
 %nproc=1
 Will use up to    1 processors via shared memory.
 %mem=4000Mb
 ---------------------
 #p opt mp2/6-31g(d,p)
 ---------------------
 1/18=20,19=15,38=1/1,3;
 2/9=110,12=2,17=6,18=5,40=1/2;
 3/5=1,6=6,7=101,11=9,25=1,30=1,71=1/1,2,3;
 4//1;
 5/5=2,38=5/2;
 8/6=4,10=2/1;
 9/15=2,16=-3/6;
 10/5=1/2;
 6/7=2,8=2,9=2,10=2/1;
 7/12=2/1,2,3,16;
 1/18=20,19=15/3(2);
 2/9=110/2;
 99//99;
 2/9=110/2;
 3/5=1,6=6,7=101,11=9,25=1,30=1,71=1/1,2,3;
 4/5=5,16=3,69=1/1;
 5/5=2,38=5/2;
 8/6=4,10=2/1;
 9/15=2,16=-3/6;
 10/5=1/2;
 7/12=2/1,2,3,16;
 1/18=20,19=15/3(-8);
 2/9=110/2;
 6/7=2,8=2,9=2,10=2/1;
 99//99;
 Leave Link    1 at Sun Sep 19 20:02:33 2021, MaxMem=   524288000 cpu:               0.0 elap:               0.1
 (Enter /opt/gaussian/g16_legacy/l101.exe)
 -------------------------------------------------
 Conformer number 007. Energy MM = -3.003 kcal/mol
 -------------------------------------------------
 Symbolic Z-matrix:
 Charge =  0 Multiplicity = 1
 C                    -2.0578    0.995     0.0507 
 H                    -1.6801   -0.0288    0.1225 
 H                    -1.6873    1.4388   -0.8784 
 H                    -3.1497    0.9482   -0.0142 
 C                    -1.6459    1.8338    1.2544 
 H                    -2.083     2.8287    1.1257 
 H                    -2.0909    1.3863    2.1516 
 C                    -0.1214    1.9293    1.4258 
 H                     0.3354    2.2402    0.4765 
 C                     0.2752    2.8856    2.5687 
 H                     1.3686    2.9006    2.6588 
 H                    -0.0826    2.4782    3.5233 
 C                    -0.1962    4.3168    2.4165 
 H                    -1.2828    4.393     2.506 
 H                     0.2406    4.9305    3.211 
 H                     0.1134    4.734     1.4544 
 O                     0.3618    0.6244    1.8144 
 C                     1.7126    0.457     1.7501 
 O                     2.4793    1.099     1.0418 
 C                     2.1443   -0.4842    2.831 
 H                     2.1156    0.0498    3.7858 
 H                     1.4826   -1.3554    2.8724 
 H                     3.1638   -0.828     2.6414 
 
 ITRead=  0  0  0  0  0  0  0  0  0  0  0  0  0  0  0  0  0  0  0  0
 ITRead=  0  0  0
 MicOpt= -1 -1 -1 -1 -1 -1 -1 -1 -1 -1 -1 -1 -1 -1 -1 -1 -1 -1 -1 -1
 MicOpt= -1 -1 -1
 NAtoms=     23 NQM=       23 NQMF=       0 NMMI=      0 NMMIF=      0
                NMic=       0 NMicF=      0.
                    Isotopes and Nuclear Properties:
 (Nuclear quadrupole moments (NQMom) in fm**2, nuclear magnetic moments (NMagM)
  in nuclear magnetons)

  Atom         1           2           3           4           5           6           7           8           9          10
 IAtWgt=          12           1           1           1          12           1           1          12           1          12
 AtmWgt=  12.0000000   1.0078250   1.0078250   1.0078250  12.0000000   1.0078250   1.0078250  12.0000000   1.0078250  12.0000000
 NucSpn=           0           1           1           1           0           1           1           0           1           0
 AtZEff=  -0.0000000  -0.0000000  -0.0000000  -0.0000000  -0.0000000  -0.0000000  -0.0000000  -0.0000000  -0.0000000  -0.0000000
 NQMom=    0.0000000   0.0000000   0.0000000   0.0000000   0.0000000   0.0000000   0.0000000   0.0000000   0.0000000   0.0000000
 NMagM=    0.0000000   2.7928460   2.7928460   2.7928460   0.0000000   2.7928460   2.7928460   0.0000000   2.7928460   0.0000000
 AtZNuc=   6.0000000   1.0000000   1.0000000   1.0000000   6.0000000   1.0000000   1.0000000   6.0000000   1.0000000   6.0000000

  Atom        11          12          13          14          15          16          17          18          19          20
 IAtWgt=           1           1          12           1           1           1          16          12          16          12
 AtmWgt=   1.0078250   1.0078250  12.0000000   1.0078250   1.0078250   1.0078250  15.9949146  12.0000000  15.9949146  12.0000000
 NucSpn=           1           1           0           1           1           1           0           0           0           0
 AtZEff=  -0.0000000  -0.0000000  -0.0000000  -0.0000000  -0.0000000  -0.0000000  -0.0000000  -0.0000000  -0.0000000  -0.0000000
 NQMom=    0.0000000   0.0000000   0.0000000   0.0000000   0.0000000   0.0000000   0.0000000   0.0000000   0.0000000   0.0000000
 NMagM=    2.7928460   2.7928460   0.0000000   2.7928460   2.7928460   2.7928460   0.0000000   0.0000000   0.0000000   0.0000000
 AtZNuc=   1.0000000   1.0000000   6.0000000   1.0000000   1.0000000   1.0000000   8.0000000   6.0000000   8.0000000   6.0000000

  Atom        21          22          23
 IAtWgt=           1           1           1
 AtmWgt=   1.0078250   1.0078250   1.0078250
 NucSpn=           1           1           1
 AtZEff=  -0.0000000  -0.0000000  -0.0000000
 NQMom=    0.0000000   0.0000000   0.0000000
 NMagM=    2.7928460   2.7928460   2.7928460
 AtZNuc=   1.0000000   1.0000000   1.0000000
 Leave Link  101 at Sun Sep 19 20:02:34 2021, MaxMem=   524288000 cpu:               0.1 elap:               0.3
 (Enter /opt/gaussian/g16_legacy/l103.exe)

 GradGradGradGradGradGradGradGradGradGradGradGradGradGradGradGradGradGrad
 Berny optimization.
 Initialization pass.
                           ----------------------------
                           !    Initial Parameters    !
                           ! (Angstroms and Degrees)  !
 --------------------------                            --------------------------
 ! Name  Definition              Value          Derivative Info.                !
 --------------------------------------------------------------------------------
 ! R1    R(1,2)                  1.0936         estimate D2E/DX2                !
 ! R2    R(1,3)                  1.0943         estimate D2E/DX2                !
 ! R3    R(1,4)                  1.0948         estimate D2E/DX2                !
 ! R4    R(1,5)                  1.5239         estimate D2E/DX2                !
 ! R5    R(5,6)                  1.0943         estimate D2E/DX2                !
 ! R6    R(5,7)                  1.0969         estimate D2E/DX2                !
 ! R7    R(5,8)                  1.5371         estimate D2E/DX2                !
 ! R8    R(8,9)                  1.0984         estimate D2E/DX2                !
 ! R9    R(8,10)                 1.5421         estimate D2E/DX2                !
 ! R10   R(8,17)                 1.4447         estimate D2E/DX2                !
 ! R11   R(10,11)                1.0972         estimate D2E/DX2                !
 ! R12   R(10,12)                1.0978         estimate D2E/DX2                !
 ! R13   R(10,13)                1.5145         estimate D2E/DX2                !
 ! R14   R(13,14)                1.0929         estimate D2E/DX2                !
 ! R15   R(13,15)                1.0948         estimate D2E/DX2                !
 ! R16   R(13,16)                1.0934         estimate D2E/DX2                !
 ! R17   R(17,18)                1.3627         estimate D2E/DX2                !
 ! R18   R(18,19)                1.2254         estimate D2E/DX2                !
 ! R19   R(18,20)                1.4969         estimate D2E/DX2                !
 ! R20   R(20,21)                1.0944         estimate D2E/DX2                !
 ! R21   R(20,22)                1.0948         estimate D2E/DX2                !
 ! R22   R(20,23)                1.0925         estimate D2E/DX2                !
 ! A1    A(2,1,3)              108.5712         estimate D2E/DX2                !
 ! A2    A(2,1,4)              107.9581         estimate D2E/DX2                !
 ! A3    A(2,1,5)              111.7214         estimate D2E/DX2                !
 ! A4    A(3,1,4)              107.7388         estimate D2E/DX2                !
 ! A5    A(3,1,5)              110.8492         estimate D2E/DX2                !
 ! A6    A(4,1,5)              109.8727         estimate D2E/DX2                !
 ! A7    A(1,5,6)              107.4326         estimate D2E/DX2                !
 ! A8    A(1,5,7)              108.1717         estimate D2E/DX2                !
 ! A9    A(1,5,8)              112.9776         estimate D2E/DX2                !
 ! A10   A(6,5,7)              107.7618         estimate D2E/DX2                !
 ! A11   A(6,5,8)              110.6587         estimate D2E/DX2                !
 ! A12   A(7,5,8)              109.6638         estimate D2E/DX2                !
 ! A13   A(5,8,9)              109.4926         estimate D2E/DX2                !
 ! A14   A(5,8,10)             112.1019         estimate D2E/DX2                !
 ! A15   A(5,8,17)             107.794          estimate D2E/DX2                !
 ! A16   A(9,8,10)             110.9804         estimate D2E/DX2                !
 ! A17   A(9,8,17)             110.4276         estimate D2E/DX2                !
 ! A18   A(10,8,17)            105.9469         estimate D2E/DX2                !
 ! A19   A(8,10,11)            109.0038         estimate D2E/DX2                !
 ! A20   A(8,10,12)            109.2987         estimate D2E/DX2                !
 ! A21   A(8,10,13)            115.5624         estimate D2E/DX2                !
 ! A22   A(11,10,12)           104.9782         estimate D2E/DX2                !
 ! A23   A(11,10,13)           107.7889         estimate D2E/DX2                !
 ! A24   A(12,10,13)           109.6711         estimate D2E/DX2                !
 ! A25   A(10,13,14)           111.5374         estimate D2E/DX2                !
 ! A26   A(10,13,15)           109.4269         estimate D2E/DX2                !
 ! A27   A(10,13,16)           111.1534         estimate D2E/DX2                !
 ! A28   A(14,13,15)           107.3462         estimate D2E/DX2                !
 ! A29   A(14,13,16)           109.0844         estimate D2E/DX2                !
 ! A30   A(15,13,16)           108.1609         estimate D2E/DX2                !
 ! A31   A(8,17,18)            115.4557         estimate D2E/DX2                !
 ! A32   A(17,18,19)           125.671          estimate D2E/DX2                !
 ! A33   A(17,18,20)           109.2122         estimate D2E/DX2                !
 ! A34   A(19,18,20)           124.4968         estimate D2E/DX2                !
 ! A35   A(18,20,21)           108.3996         estimate D2E/DX2                !
 ! A36   A(18,20,22)           110.6932         estimate D2E/DX2                !
 ! A37   A(18,20,23)           109.9799         estimate D2E/DX2                !
 ! A38   A(21,20,22)           109.8439         estimate D2E/DX2                !
 ! A39   A(21,20,23)           109.2353         estimate D2E/DX2                !
 ! A40   A(22,20,23)           108.6732         estimate D2E/DX2                !
 ! D1    D(2,1,5,6)           -178.3322         estimate D2E/DX2                !
 ! D2    D(2,1,5,7)            -62.2539         estimate D2E/DX2                !
 ! D3    D(2,1,5,8)             59.3377         estimate D2E/DX2                !
 ! D4    D(3,1,5,6)             60.4315         estimate D2E/DX2                !
 ! D5    D(3,1,5,7)            176.5098         estimate D2E/DX2                !
 ! D6    D(3,1,5,8)            -61.8986         estimate D2E/DX2                !
 ! D7    D(4,1,5,6)            -58.5371         estimate D2E/DX2                !
 ! D8    D(4,1,5,7)             57.5412         estimate D2E/DX2                !
 ! D9    D(4,1,5,8)            179.1328         estimate D2E/DX2                !
 ! D10   D(1,5,8,9)             51.1236         estimate D2E/DX2                !
 ! D11   D(1,5,8,10)           174.7441         estimate D2E/DX2                !
 ! D12   D(1,5,8,17)           -69.0389         estimate D2E/DX2                !
 ! D13   D(6,5,8,9)            -69.383          estimate D2E/DX2                !
 ! D14   D(6,5,8,10)            54.2376         estimate D2E/DX2                !
 ! D15   D(6,5,8,17)           170.4546         estimate D2E/DX2                !
 ! D16   D(7,5,8,9)            171.8698         estimate D2E/DX2                !
 ! D17   D(7,5,8,10)           -64.5097         estimate D2E/DX2                !
 ! D18   D(7,5,8,17)            51.7073         estimate D2E/DX2                !
 ! D19   D(5,8,10,11)          178.9198         estimate D2E/DX2                !
 ! D20   D(5,8,10,12)           64.701          estimate D2E/DX2                !
 ! D21   D(5,8,10,13)          -59.5523         estimate D2E/DX2                !
 ! D22   D(9,8,10,11)          -58.2978         estimate D2E/DX2                !
 ! D23   D(9,8,10,12)         -172.5166         estimate D2E/DX2                !
 ! D24   D(9,8,10,13)           63.2301         estimate D2E/DX2                !
 ! D25   D(17,8,10,11)          61.5925         estimate D2E/DX2                !
 ! D26   D(17,8,10,12)         -52.6263         estimate D2E/DX2                !
 ! D27   D(17,8,10,13)        -176.8797         estimate D2E/DX2                !
 ! D28   D(5,8,17,18)          167.3789         estimate D2E/DX2                !
 ! D29   D(9,8,17,18)           47.8077         estimate D2E/DX2                !
 ! D30   D(10,8,17,18)         -72.4434         estimate D2E/DX2                !
 ! D31   D(8,10,13,14)          68.307          estimate D2E/DX2                !
 ! D32   D(8,10,13,15)        -173.0686         estimate D2E/DX2                !
 ! D33   D(8,10,13,16)         -53.6722         estimate D2E/DX2                !
 ! D34   D(11,10,13,14)       -169.5148         estimate D2E/DX2                !
 ! D35   D(11,10,13,15)        -50.8904         estimate D2E/DX2                !
 ! D36   D(11,10,13,16)         68.506          estimate D2E/DX2                !
 ! D37   D(12,10,13,14)        -55.7521         estimate D2E/DX2                !
 ! D38   D(12,10,13,15)         62.8723         estimate D2E/DX2                !
 ! D39   D(12,10,13,16)       -177.7313         estimate D2E/DX2                !
 ! D40   D(8,17,18,19)         -24.0106         estimate D2E/DX2                !
 ! D41   D(8,17,18,20)         147.2605         estimate D2E/DX2                !
 ! D42   D(17,18,20,21)        -75.0616         estimate D2E/DX2                !
 ! D43   D(17,18,20,22)         45.4739         estimate D2E/DX2                !
 ! D44   D(17,18,20,23)        165.5732         estimate D2E/DX2                !
 ! D45   D(19,18,20,21)         96.3352         estimate D2E/DX2                !
 ! D46   D(19,18,20,22)       -143.1294         estimate D2E/DX2                !
 ! D47   D(19,18,20,23)        -23.03           estimate D2E/DX2                !
 --------------------------------------------------------------------------------
 Trust Radius=3.00D-01 FncErr=1.00D-07 GrdErr=1.00D-07 EigMax=2.50D+02 EigMin=1.00D-04
 Number of steps in this run=    119 maximum allowed number of steps=    138.
 GradGradGradGradGradGradGradGradGradGradGradGradGradGradGradGradGradGrad

 Leave Link  103 at Sun Sep 19 20:02:34 2021, MaxMem=   524288000 cpu:               0.0 elap:               0.1
 (Enter /opt/gaussian/g16_legacy/l202.exe)
                          Input orientation:                          
 ---------------------------------------------------------------------
 Center     Atomic      Atomic             Coordinates (Angstroms)
 Number     Number       Type             X           Y           Z
 ---------------------------------------------------------------------
      1          6           0       -2.057800    0.995000    0.050700
      2          1           0       -1.680100   -0.028800    0.122500
      3          1           0       -1.687300    1.438800   -0.878400
      4          1           0       -3.149700    0.948200   -0.014200
      5          6           0       -1.645900    1.833800    1.254400
      6          1           0       -2.083000    2.828700    1.125700
      7          1           0       -2.090900    1.386300    2.151600
      8          6           0       -0.121400    1.929300    1.425800
      9          1           0        0.335400    2.240200    0.476500
     10          6           0        0.275200    2.885600    2.568700
     11          1           0        1.368600    2.900600    2.658800
     12          1           0       -0.082600    2.478200    3.523300
     13          6           0       -0.196200    4.316800    2.416500
     14          1           0       -1.282800    4.393000    2.506000
     15          1           0        0.240600    4.930500    3.211000
     16          1           0        0.113400    4.734000    1.454400
     17          8           0        0.361800    0.624400    1.814400
     18          6           0        1.712600    0.457000    1.750100
     19          8           0        2.479300    1.099000    1.041800
     20          6           0        2.144300   -0.484200    2.831000
     21          1           0        2.115600    0.049800    3.785800
     22          1           0        1.482600   -1.355400    2.872400
     23          1           0        3.163800   -0.828000    2.641400
 ---------------------------------------------------------------------
                    Distance matrix (angstroms):
                    1          2          3          4          5
     1  C    0.000000
     2  H    1.093608   0.000000
     3  H    1.094283   1.776430   0.000000
     4  H    1.094828   1.770011   1.768090   0.000000
     5  C    1.523857   2.179827   2.169464   2.157556   0.000000
     6  H    2.125727   3.055167   2.470793   2.444075   1.094279
     7  H    2.137286   2.507690   3.057213   2.450241   1.096927
     8  C    2.552148   2.821753   2.828775   3.493817   1.537075
     9  H    2.731160   3.055473   2.563067   3.749130   2.166988
    10  C    3.918875   4.277946   4.222219   4.706892   2.554270
    11  H    4.708897   4.930393   4.897670   5.601056   3.492508
    12  H    4.261484   4.516912   4.798998   4.925638   2.829676
    13  C    4.482959   5.133092   4.621972   5.096953   3.101193
    14  H    4.263277   5.038972   4.510552   4.658688   2.871907
    15  H    5.546016   6.150006   5.712439   6.144490   4.120281
    16  H    4.545834   5.260690   4.420726   5.209308   3.397984
    17  O    3.017026   2.731035   3.480407   3.972311   2.409794
    18  C    4.170530   3.794140   4.408204   5.195767   3.663444
    19  O    4.645253   4.406547   4.600346   5.729181   4.195522
    20  C    5.251261   4.708439   5.669104   6.178460   4.714277
    21  H    5.679933   5.275726   6.176255   6.555189   4.872322
    22  H    5.101059   4.395963   5.650161   5.924292   4.751466
    23  H    6.107386   5.517875   6.407850   7.075831   5.669406
                    6          7          8          9         10
     6  H    0.000000
     7  H    1.770043   0.000000
     8  C    2.178728   2.168079   0.000000
     9  H    2.572246   3.069534   1.098406   0.000000
    10  C    2.765248   2.832014   1.542084   2.190312   0.000000
    11  H    3.777447   3.810314   2.164212   2.503211   1.097209
    12  H    3.142123   2.665910   2.168479   3.084535   1.097842
    13  C    2.727750   3.499699   2.585969   2.891101   1.514502
    14  H    2.234409   3.133508   2.930102   3.372238   2.168767
    15  H    3.763663   4.372594   3.510724   3.837211   2.143680
    16  H    2.926155   4.068430   2.814656   2.687864   2.164354
    17  O    3.363078   2.590354   1.444734   2.097971   2.385266
    18  C    4.519006   3.935913   2.374109   2.588154   2.938422
    19  O    4.879906   4.711786   2.756899   2.493634   3.222021
    20  C    5.635017   4.679452   3.596243   4.029658   3.862368
    21  H    5.694441   4.706536   3.755834   4.349532   3.593072
    22  H    5.768116   4.561400   3.931249   4.470430   4.419969
    23  H    6.572497   5.723190   4.457906   4.701116   4.705329
                   11         12         13         14         15
    11  H    0.000000
    12  H    1.741196   0.000000
    13  C    2.124366   2.149037   0.000000
    14  H    3.046396   2.478273   1.092939   0.000000
    15  H    2.387007   2.493144   1.094830   1.762577   0.000000
    16  H    2.527343   3.067148   1.093410   1.780876   1.772127
    17  O    2.628259   2.560157   3.782553   4.169576   4.528540
    18  C    2.629687   3.232991   4.357254   5.003589   4.930843
    19  O    2.663476   3.824051   4.404808   5.210347   4.939393
    20  C    3.476814   3.770169   5.357178   5.969734   5.752169
    21  H    3.155186   3.286049   5.042489   5.661307   5.259967
    22  H    4.262881   4.191660   5.932964   6.389506   6.416366
    23  H    4.138297   4.716759   6.148914   6.859258   6.483044
                   16         17         18         19         20
    16  H    0.000000
    17  O    4.132810   0.000000
    18  C    4.575763   1.362651   0.000000
    19  O    4.356713   2.303467   1.225431   0.000000
    20  C    5.766211   2.332333   1.496852   2.412464   0.000000
    21  H    5.602317   2.700444   2.114780   2.960175   1.094360
    22  H    6.400486   2.509017   2.144120   3.220029   1.094783
    23  H    6.453662   3.262606   2.133453   2.596265   1.092487
                   21         22         23
    21  H    0.000000
    22  H    1.791529   0.000000
    23  H    1.782949   1.777061   0.000000
 Stoichiometry    C7H14O2
 Framework group  C1[X(C7H14O2)]
 Deg. of freedom    63
 Full point group                 C1      NOp   1
 Largest Abelian subgroup         C1      NOp   1
 Largest concise Abelian subgroup C1      NOp   1
                         Standard orientation:                         
 ---------------------------------------------------------------------
 Center     Atomic      Atomic             Coordinates (Angstroms)
 Number     Number       Type             X           Y           Z
 ---------------------------------------------------------------------
      1          6           0        1.857178   -2.232251    0.232000
      2          1           0        0.954557   -2.810967    0.016728
      3          1           0        1.995128   -2.192360    1.316820
      4          1           0        2.711543   -2.768669   -0.193399
      5          6           0        1.781198   -0.828893   -0.357028
      6          1           0        2.725361   -0.325518   -0.127646
      7          1           0        1.706504   -0.919244   -1.447673
      8          6           0        0.590220   -0.017458    0.177521
      9          1           0        0.586990   -0.051159    1.275405
     10          6           0        0.605567    1.438586   -0.330142
     11          1           0       -0.273086    1.963901    0.064675
     12          1           0        0.473551    1.444257   -1.420003
     13          6           0        1.832246    2.246483    0.039019
     14          1           0        2.723542    1.881333   -0.477482
     15          1           0        1.685370    3.289151   -0.260853
     16          1           0        2.009682    2.223855    1.117698
     17          8           0       -0.618489   -0.608567   -0.348664
     18          6           0       -1.777243   -0.186695    0.231103
     19          8           0       -1.882894    0.281988    1.358425
     20          6           0       -2.868395   -0.184591   -0.793568
     21          1           0       -2.721329    0.676296   -1.453013
     22          1           0       -2.850438   -1.109071   -1.379713
     23          1           0       -3.840932   -0.100255   -0.303071
 ---------------------------------------------------------------------
 Rotational constants (GHZ):           1.8954887           1.1171522           0.8339649
 Leave Link  202 at Sun Sep 19 20:02:34 2021, MaxMem=   524288000 cpu:               0.0 elap:               0.2
 (Enter /opt/gaussian/g16_legacy/l301.exe)
 Standard basis: 6-31G(d,p) (6D, 7F)
 Ernie: Thresh=  0.10000D-02 Tol=  0.10000D-05 Strict=F.
 There are   205 symmetry adapted cartesian basis functions of A   symmetry.
 There are   205 symmetry adapted basis functions of A   symmetry.
   205 basis functions,   350 primitive gaussians,   205 cartesian basis functions
    36 alpha electrons       36 beta electrons
       nuclear repulsion energy       483.3012057743 Hartrees.
 IExCor=    0 DFT=F Ex=HF Corr=None ExCW=0 ScaHFX=  1.000000
 ScaDFX=  1.000000  1.000000  1.000000  1.000000 ScalE2=  1.000000  1.000000
 IRadAn=      5 IRanWt=     -1 IRanGd=            0 ICorTp=0 IEmpDi=  4
 NAtoms=   23 NActive=   23 NUniq=   23 SFac= 1.00D+00 NAtFMM=   60 NAOKFM=F Big=F
 Integral buffers will be    131072 words long.
 Raffenetti 1 integral format.
 Two-electron integral symmetry is turned on.
 Leave Link  301 at Sun Sep 19 20:02:34 2021, MaxMem=   524288000 cpu:               0.1 elap:               0.2
 (Enter /opt/gaussian/g16_legacy/l302.exe)
 NPDir=0 NMtPBC=     1 NCelOv=     1 NCel=       1 NClECP=     1 NCelD=      1
         NCelK=      1 NCelE2=     1 NClLst=     1 CellRange=     0.0.
 One-electron integrals computed using PRISM.
 One-electron integral symmetry used in STVInt
 NBasis=   205 RedAO= T EigKep=  3.03D-03  NBF=   205
 NBsUse=   205 1.00D-06 EigRej= -1.00D+00 NBFU=   205
 Leave Link  302 at Sun Sep 19 20:02:35 2021, MaxMem=   524288000 cpu:               0.1 elap:               0.6
 (Enter /opt/gaussian/g16_legacy/l303.exe)
 DipDrv:  MaxL=1.
 Leave Link  303 at Sun Sep 19 20:02:35 2021, MaxMem=   524288000 cpu:               0.0 elap:               0.2
 (Enter /opt/gaussian/g16_legacy/l401.exe)
 ExpMin= 1.61D-01 ExpMax= 5.48D+03 ExpMxC= 8.25D+02 IAcc=3 IRadAn=         5 AccDes= 0.00D+00
 Harris functional with IExCor=  205 and IRadAn=       5 diagonalized for initial guess.
 HarFok:  IExCor=  205 AccDes= 0.00D+00 IRadAn=         5 IDoV= 1 UseB2=F ITyADJ=14
 ICtDFT=  3500011 ScaDFX=  1.000000  1.000000  1.000000  1.000000
 FoFCou: FMM=F IPFlag=           0 FMFlag=      100000 FMFlg1=           0
         NFxFlg=           0 DoJE=T BraDBF=F KetDBF=T FulRan=T
         wScrn=  0.000000 ICntrl=       500 IOpCl=  0 I1Cent=   200000004 NGrid=           0
         NMat0=    1 NMatS0=      1 NMatT0=    0 NMatD0=    1 NMtDS0=    0 NMtDT0=    0
 Petite list used in FoFCou.
 Harris En= -423.713168369088    
 JPrj=0 DoOrth=F DoCkMO=F.
 Leave Link  401 at Sun Sep 19 20:02:40 2021, MaxMem=   524288000 cpu:               4.6 elap:               4.9
 (Enter /opt/gaussian/g16_legacy/l502.exe)
 Keep R1 ints in memory in canonical form, NReq=227304434.
 FoFCou: FMM=F IPFlag=           0 FMFlag=           0 FMFlg1=           0
         NFxFlg=           0 DoJE=F BraDBF=F KetDBF=F FulRan=T
         wScrn=  0.000000 ICntrl=       600 IOpCl=  0 I1Cent=           0 NGrid=           0
         NMat0=    1 NMatS0=  21115 NMatT0=    0 NMatD0=    1 NMtDS0=    0 NMtDT0=    0
 Symmetry not used in FoFCou.
 Two-electron integral symmetry not used.
 Closed shell SCF:
 Using DIIS extrapolation, IDIIS=  1040.
 NGot=   524288000 LenX=   301268152 LenY=   301225686
 Requested convergence on RMS density matrix=1.00D-08 within 128 cycles.
 Requested convergence on MAX density matrix=1.00D-06.
 Requested convergence on             energy=1.00D-06.
 No special actions if energy rises.

 Cycle   1  Pass 1  IDiag  1:
 E= -422.502398056522    
 DIIS: error= 4.97D-02 at cycle   1 NSaved=   1.
 NSaved= 1 IEnMin= 1 EnMin= -422.502398056522     IErMin= 1 ErrMin= 4.97D-02
 ErrMax= 4.97D-02  0.00D+00 EMaxC= 1.00D-01 BMatC= 7.21D-01 BMatP= 7.21D-01
 IDIUse=3 WtCom= 5.03D-01 WtEn= 4.97D-01
 Coeff-Com:  0.100D+01
 Coeff-En:   0.100D+01
 Coeff:      0.100D+01
 Gap=     0.553 Goal=   None    Shift=    0.000
 GapD=    0.553 DampG=2.000 DampE=0.500 DampFc=1.0000 IDamp=-1.
 RMSDP=4.04D-03 MaxDP=1.17D-01              OVMax= 1.26D-01

 Cycle   2  Pass 1  IDiag  1:
 E= -422.909119733234     Delta-E=       -0.406721676712 Rises=F Damp=F
 DIIS: error= 1.32D-02 at cycle   2 NSaved=   2.
 NSaved= 2 IEnMin= 2 EnMin= -422.909119733234     IErMin= 2 ErrMin= 1.32D-02
 ErrMax= 1.32D-02  0.00D+00 EMaxC= 1.00D-01 BMatC= 9.62D-02 BMatP= 7.21D-01
 IDIUse=3 WtCom= 8.68D-01 WtEn= 1.32D-01
 Coeff-Com:  0.206D+00 0.794D+00
 Coeff-En:   0.000D+00 0.100D+01
 Coeff:      0.179D+00 0.821D+00
 Gap=     0.639 Goal=   None    Shift=    0.000
 RMSDP=1.46D-03 MaxDP=4.81D-02 DE=-4.07D-01 OVMax= 4.71D-02

 Cycle   3  Pass 1  IDiag  1:
 E= -422.983210368457     Delta-E=       -0.074090635223 Rises=F Damp=F
 DIIS: error= 4.64D-03 at cycle   3 NSaved=   3.
 NSaved= 3 IEnMin= 3 EnMin= -422.983210368457     IErMin= 3 ErrMin= 4.64D-03
 ErrMax= 4.64D-03  0.00D+00 EMaxC= 1.00D-01 BMatC= 8.36D-03 BMatP= 9.62D-02
 IDIUse=3 WtCom= 9.54D-01 WtEn= 4.64D-02
 Coeff-Com: -0.145D-01 0.188D+00 0.826D+00
 Coeff-En:   0.000D+00 0.000D+00 0.100D+01
 Coeff:     -0.139D-01 0.179D+00 0.834D+00
 Gap=     0.603 Goal=   None    Shift=    0.000
 RMSDP=3.92D-04 MaxDP=2.20D-02 DE=-7.41D-02 OVMax= 2.17D-02

 Cycle   4  Pass 1  IDiag  1:
 E= -422.989502174313     Delta-E=       -0.006291805856 Rises=F Damp=F
 DIIS: error= 1.96D-03 at cycle   4 NSaved=   4.
 NSaved= 4 IEnMin= 4 EnMin= -422.989502174313     IErMin= 4 ErrMin= 1.96D-03
 ErrMax= 1.96D-03  0.00D+00 EMaxC= 1.00D-01 BMatC= 9.84D-04 BMatP= 8.36D-03
 IDIUse=3 WtCom= 9.80D-01 WtEn= 1.96D-02
 Coeff-Com: -0.127D-01 0.333D-01 0.319D+00 0.661D+00
 Coeff-En:   0.000D+00 0.000D+00 0.000D+00 0.100D+01
 Coeff:     -0.124D-01 0.326D-01 0.312D+00 0.667D+00
 Gap=     0.603 Goal=   None    Shift=    0.000
 RMSDP=1.26D-04 MaxDP=5.93D-03 DE=-6.29D-03 OVMax= 6.08D-03

 Cycle   5  Pass 1  IDiag  1:
 E= -422.990289779401     Delta-E=       -0.000787605088 Rises=F Damp=F
 DIIS: error= 3.68D-04 at cycle   5 NSaved=   5.
 NSaved= 5 IEnMin= 5 EnMin= -422.990289779401     IErMin= 5 ErrMin= 3.68D-04
 ErrMax= 3.68D-04  0.00D+00 EMaxC= 1.00D-01 BMatC= 2.51D-05 BMatP= 9.84D-04
 IDIUse=3 WtCom= 9.96D-01 WtEn= 3.68D-03
 Coeff-Com:  0.240D-02-0.179D-01-0.924D-01-0.593D-01 0.117D+01
 Coeff-En:   0.000D+00 0.000D+00 0.000D+00 0.000D+00 0.100D+01
 Coeff:      0.239D-02-0.178D-01-0.920D-01-0.591D-01 0.117D+01
 Gap=     0.603 Goal=   None    Shift=    0.000
 RMSDP=5.08D-05 MaxDP=1.72D-03 DE=-7.88D-04 OVMax= 2.89D-03

 Cycle   6  Pass 1  IDiag  1:
 E= -422.990348614132     Delta-E=       -0.000058834731 Rises=F Damp=F
 DIIS: error= 9.43D-05 at cycle   6 NSaved=   6.
 NSaved= 6 IEnMin= 6 EnMin= -422.990348614132     IErMin= 6 ErrMin= 9.43D-05
 ErrMax= 9.43D-05  0.00D+00 EMaxC= 1.00D-01 BMatC= 3.31D-06 BMatP= 2.51D-05
 IDIUse=1 WtCom= 1.00D+00 WtEn= 0.00D+00
 Coeff-Com:  0.132D-02-0.604D-02-0.388D-01-0.689D-01 0.193D+00 0.919D+00
 Coeff:      0.132D-02-0.604D-02-0.388D-01-0.689D-01 0.193D+00 0.919D+00
 Gap=     0.603 Goal=   None    Shift=    0.000
 RMSDP=1.64D-05 MaxDP=5.65D-04 DE=-5.88D-05 OVMax= 8.99D-04

 Cycle   7  Pass 1  IDiag  1:
 E= -422.990355248328     Delta-E=       -0.000006634196 Rises=F Damp=F
 DIIS: error= 5.02D-05 at cycle   7 NSaved=   7.
 NSaved= 7 IEnMin= 7 EnMin= -422.990355248328     IErMin= 7 ErrMin= 5.02D-05
 ErrMax= 5.02D-05  0.00D+00 EMaxC= 1.00D-01 BMatC= 4.87D-07 BMatP= 3.31D-06
 IDIUse=1 WtCom= 1.00D+00 WtEn= 0.00D+00
 Coeff-Com: -0.387D-03 0.264D-02 0.161D-01 0.615D-02-0.144D+00-0.864D-01
 Coeff-Com:  0.121D+01
 Coeff:     -0.387D-03 0.264D-02 0.161D-01 0.615D-02-0.144D+00-0.864D-01
 Coeff:      0.121D+01
 Gap=     0.603 Goal=   None    Shift=    0.000
 RMSDP=8.02D-06 MaxDP=2.79D-04 DE=-6.63D-06 OVMax= 5.51D-04

 Cycle   8  Pass 1  IDiag  1:
 E= -422.990356664633     Delta-E=       -0.000001416305 Rises=F Damp=F
 DIIS: error= 1.86D-05 at cycle   8 NSaved=   8.
 NSaved= 8 IEnMin= 8 EnMin= -422.990356664633     IErMin= 8 ErrMin= 1.86D-05
 ErrMax= 1.86D-05  0.00D+00 EMaxC= 1.00D-01 BMatC= 8.09D-08 BMatP= 4.87D-07
 IDIUse=1 WtCom= 1.00D+00 WtEn= 0.00D+00
 Coeff-Com: -0.230D-03 0.119D-02 0.770D-02 0.777D-02-0.417D-01-0.148D+00
 Coeff-Com:  0.120D+00 0.105D+01
 Coeff:     -0.230D-03 0.119D-02 0.770D-02 0.777D-02-0.417D-01-0.148D+00
 Coeff:      0.120D+00 0.105D+01
 Gap=     0.603 Goal=   None    Shift=    0.000
 RMSDP=3.36D-06 MaxDP=1.28D-04 DE=-1.42D-06 OVMax= 2.09D-04

 Cycle   9  Pass 1  IDiag  1:
 E= -422.990356886578     Delta-E=       -0.000000221945 Rises=F Damp=F
 DIIS: error= 7.12D-06 at cycle   9 NSaved=   9.
 NSaved= 9 IEnMin= 9 EnMin= -422.990356886578     IErMin= 9 ErrMin= 7.12D-06
 ErrMax= 7.12D-06  0.00D+00 EMaxC= 1.00D-01 BMatC= 1.16D-08 BMatP= 8.09D-08
 IDIUse=1 WtCom= 1.00D+00 WtEn= 0.00D+00
 Coeff-Com:  0.299D-04-0.278D-03-0.151D-02-0.527D-03 0.219D-01-0.537D-02
 Coeff-Com: -0.195D+00 0.145D+00 0.104D+01
 Coeff:      0.299D-04-0.278D-03-0.151D-02-0.527D-03 0.219D-01-0.537D-02
 Coeff:     -0.195D+00 0.145D+00 0.104D+01
 Gap=     0.603 Goal=   None    Shift=    0.000
 RMSDP=1.18D-06 MaxDP=3.74D-05 DE=-2.22D-07 OVMax= 6.70D-05

 Cycle  10  Pass 1  IDiag  1:
 E= -422.990356912920     Delta-E=       -0.000000026342 Rises=F Damp=F
 DIIS: error= 1.79D-06 at cycle  10 NSaved=  10.
 NSaved=10 IEnMin=10 EnMin= -422.990356912920     IErMin=10 ErrMin= 1.79D-06
 ErrMax= 1.79D-06  0.00D+00 EMaxC= 1.00D-01 BMatC= 7.35D-10 BMatP= 1.16D-08
 IDIUse=1 WtCom= 1.00D+00 WtEn= 0.00D+00
 Coeff-Com:  0.197D-04-0.105D-03-0.630D-03-0.108D-02 0.274D-02 0.152D-01
 Coeff-Com:  0.193D-02-0.101D+00-0.109D+00 0.119D+01
 Coeff:      0.197D-04-0.105D-03-0.630D-03-0.108D-02 0.274D-02 0.152D-01
 Coeff:      0.193D-02-0.101D+00-0.109D+00 0.119D+01
 Gap=     0.603 Goal=   None    Shift=    0.000
 RMSDP=2.88D-07 MaxDP=1.24D-05 DE=-2.63D-08 OVMax= 1.73D-05

 Cycle  11  Pass 1  IDiag  1:
 E= -422.990356914789     Delta-E=       -0.000000001869 Rises=F Damp=F
 DIIS: error= 6.10D-07 at cycle  11 NSaved=  11.
 NSaved=11 IEnMin=11 EnMin= -422.990356914789     IErMin=11 ErrMin= 6.10D-07
 ErrMax= 6.10D-07  0.00D+00 EMaxC= 1.00D-01 BMatC= 8.24D-11 BMatP= 7.35D-10
 IDIUse=1 WtCom= 1.00D+00 WtEn= 0.00D+00
 Coeff-Com:  0.391D-06 0.751D-05 0.571D-04-0.133D-03-0.134D-02 0.215D-02
 Coeff-Com:  0.149D-01-0.183D-01-0.106D+00 0.149D+00 0.959D+00
 Coeff:      0.391D-06 0.751D-05 0.571D-04-0.133D-03-0.134D-02 0.215D-02
 Coeff:      0.149D-01-0.183D-01-0.106D+00 0.149D+00 0.959D+00
 Gap=     0.603 Goal=   None    Shift=    0.000
 RMSDP=6.39D-08 MaxDP=2.65D-06 DE=-1.87D-09 OVMax= 3.18D-06

 Cycle  12  Pass 1  IDiag  1:
 E= -422.990356914928     Delta-E=       -0.000000000139 Rises=F Damp=F
 DIIS: error= 1.48D-07 at cycle  12 NSaved=  12.
 NSaved=12 IEnMin=12 EnMin= -422.990356914928     IErMin=12 ErrMin= 1.48D-07
 ErrMax= 1.48D-07  0.00D+00 EMaxC= 1.00D-01 BMatC= 7.25D-12 BMatP= 8.24D-11
 IDIUse=1 WtCom= 1.00D+00 WtEn= 0.00D+00
 Coeff-Com: -0.223D-05 0.116D-04 0.782D-04 0.113D-03-0.346D-03-0.175D-02
 Coeff-Com: -0.516D-03 0.146D-01 0.912D-02-0.145D+00-0.159D-01 0.114D+01
 Coeff:     -0.223D-05 0.116D-04 0.782D-04 0.113D-03-0.346D-03-0.175D-02
 Coeff:     -0.516D-03 0.146D-01 0.912D-02-0.145D+00-0.159D-01 0.114D+01
 Gap=     0.603 Goal=   None    Shift=    0.000
 RMSDP=2.69D-08 MaxDP=8.24D-07 DE=-1.39D-10 OVMax= 1.33D-06

 Cycle  13  Pass 1  IDiag  1:
 E= -422.990356914947     Delta-E=       -0.000000000020 Rises=F Damp=F
 DIIS: error= 3.26D-08 at cycle  13 NSaved=  13.
 NSaved=13 IEnMin=13 EnMin= -422.990356914947     IErMin=13 ErrMin= 3.26D-08
 ErrMax= 3.26D-08  0.00D+00 EMaxC= 1.00D-01 BMatC= 3.88D-13 BMatP= 7.25D-12
 IDIUse=1 WtCom= 1.00D+00 WtEn= 0.00D+00
 Coeff-Com:  0.186D-06-0.158D-05-0.950D-05-0.502D-05 0.106D-03 0.577D-04
 Coeff-Com: -0.927D-03 0.191D-04 0.489D-02 0.381D-02-0.574D-01-0.794D-01
 Coeff-Com:  0.113D+01
 Coeff:      0.186D-06-0.158D-05-0.950D-05-0.502D-05 0.106D-03 0.577D-04
 Coeff:     -0.927D-03 0.191D-04 0.489D-02 0.381D-02-0.574D-01-0.794D-01
 Coeff:      0.113D+01
 Gap=     0.603 Goal=   None    Shift=    0.000
 RMSDP=6.71D-09 MaxDP=1.62D-07 DE=-1.98D-11 OVMax= 3.38D-07

 SCF Done:  E(RHF) =  -422.990356915     A.U. after   13 cycles
            NFock= 13  Conv=0.67D-08     -V/T= 2.0022
 KE= 4.220423967832D+02 PE=-1.956419981879D+03 EE= 6.280860224070D+02
 Leave Link  502 at Sun Sep 19 20:02:53 2021, MaxMem=   524288000 cpu:              12.8 elap:              13.1
 (Enter /opt/gaussian/g16_legacy/l801.exe)
 ExpMin= 1.61D-01 ExpMax= 5.48D+03 ExpMxC= 8.25D+02 IAcc=3 IRadAn=         5 AccDes= 0.00D+00
 HarFok:  IExCor=  205 AccDes= 0.00D+00 IRadAn=         5 IDoV=-2 UseB2=F ITyADJ=14
 ICtDFT= 12500011 ScaDFX=  1.000000  1.000000  1.000000  1.000000
 Largest valence mixing into a core orbital is  2.11D-04
 Largest core mixing into a valence orbital is  3.24D-05
 Range of M.O.s used for correlation:    10   205
 NBasis=   205 NAE=    36 NBE=    36 NFC=     9 NFV=     0
 NROrb=    196 NOA=    27 NOB=    27 NVA=   169 NVB=   169
 Leave Link  801 at Sun Sep 19 20:02:54 2021, MaxMem=   524288000 cpu:               0.7 elap:               1.0
 (Enter /opt/gaussian/g16_legacy/l906.exe)
 Frozen-core derivative calculation, NFC=   9 NFV=   0.
 FulOut=F Deriv=T AODrv=T NAtomX=    23
   MMem=         131  MDisk=          27 MDiskD=          27
  W3Min=     1512900 MinDsk=     1927595 NBas6D=         205
 NBas2D=       21400    NTT=       21115    LW2=     2040000
    MDV=   523793954 MDiskM=       35351 NBas2p=       19311
 Fully direct method using O(ONN) memory.
 IMap=   1   2   3   4   5   6   7   8   9  10  11  12  13  14  15  16  17  18  19  20
 IMap=  21  22  23  24  25  26  27  28  29  30  31  32  33  34  35  36
 JobTyp=1 Pass  1:  I=  10 to  36 NPSUse=  1 ParTrn=F ParDer=F DoDerP=T.
 Spin components of T(2) and E(2):
     alpha-alpha T2 =       0.5284157193D-01 E2=     -0.1650851731D+00
     alpha-beta  T2 =       0.3175993118D+00 E2=     -0.1030818506D+01
     beta-beta   T2 =       0.5284157193D-01 E2=     -0.1650851731D+00
 The integrals were generated   1 times.
 ANorm=    0.1193014022D+01
 E2 =    -0.1360988853D+01 EUMP2 =    -0.42435134576766D+03
 Leave Link  906 at Sun Sep 19 20:04:32 2021, MaxMem=   524288000 cpu:              97.3 elap:              97.6
 (Enter /opt/gaussian/g16_legacy/l1002.exe)
 Minotr:  Closed shell wavefunction.
          Computing MP2/KS-MP2 derivatives.
          Using Z-Vector for PSCF gradient.
          Skipping F1 and S1 gradient terms here.
          IDoAtm=11111111111111111111111
          Frozen-core window.
          Direct CPHF calculation.
          Differentiating once with respect to electric field.
                with respect to dipole field.
          Differentiating once with respect to nuclear coordinates.
          Requested convergence is 1.0D-10 RMS, and 1.0D-09 maximum.
          NewPWx=F KeepS1=T KeepF1=T KeepIn=T MapXYZ=F SortEE=F KeepMc=T.
 Keep R1 ints in memory in canonical form, NReq=227306992.
 FoFCou: FMM=F IPFlag=           0 FMFlag=           0 FMFlg1=           0
         NFxFlg=           0 DoJE=F BraDBF=F KetDBF=F FulRan=T
         wScrn=  0.000000 ICntrl=       600 IOpCl=  0 I1Cent=           0 NGrid=           0
         NMat0=    1 NMatS0=  21115 NMatT0=    0 NMatD0=    1 NMtDS0=    0 NMtDT0=    0
 Symmetry not used in FoFCou.
 Two-electron integral symmetry not used.
          MDV=     524288000 using IRadAn=       5.
          Solving linear equations separately, MaxMat=       0.
          There are     1 degrees of freedom in the 1st order CPHF.  IDoFFX=0 NUNeed=     1.
 LinEq1:  Iter=  0 NonCon=     1 RMS=3.73D-03 Max=9.65D-02 NDo=     1
 AX will form     1 AO Fock derivatives at one time.
 LinEq1:  Iter=  1 NonCon=     1 RMS=1.19D-03 Max=1.88D-02 NDo=     1
 LinEq1:  Iter=  2 NonCon=     1 RMS=3.82D-04 Max=7.35D-03 NDo=     1
 LinEq1:  Iter=  3 NonCon=     1 RMS=1.58D-04 Max=3.78D-03 NDo=     1
 LinEq1:  Iter=  4 NonCon=     1 RMS=5.04D-05 Max=8.54D-04 NDo=     1
 LinEq1:  Iter=  5 NonCon=     1 RMS=2.28D-05 Max=3.39D-04 NDo=     1
 LinEq1:  Iter=  6 NonCon=     1 RMS=6.12D-06 Max=2.21D-04 NDo=     1
 LinEq1:  Iter=  7 NonCon=     1 RMS=1.84D-06 Max=5.02D-05 NDo=     1
 LinEq1:  Iter=  8 NonCon=     1 RMS=6.89D-07 Max=2.14D-05 NDo=     1
 LinEq1:  Iter=  9 NonCon=     1 RMS=1.84D-07 Max=3.16D-06 NDo=     1
 LinEq1:  Iter= 10 NonCon=     1 RMS=5.22D-08 Max=7.52D-07 NDo=     1
 LinEq1:  Iter= 11 NonCon=     1 RMS=1.65D-08 Max=3.20D-07 NDo=     1
 LinEq1:  Iter= 12 NonCon=     1 RMS=4.87D-09 Max=8.60D-08 NDo=     1
 LinEq1:  Iter= 13 NonCon=     1 RMS=1.23D-09 Max=1.51D-08 NDo=     1
 LinEq1:  Iter= 14 NonCon=     1 RMS=2.94D-10 Max=3.78D-09 NDo=     1
 LinEq1:  Iter= 15 NonCon=     0 RMS=8.58D-11 Max=9.52D-10 NDo=     1
 Linear equations converged to 1.000D-10 1.000D-09 after    15 iterations.
 End of Minotr F.D. properties file   721 does not exist.
 End of Minotr F.D. properties file   722 does not exist.
 End of Minotr F.D. properties file   788 does not exist.
 Leave Link 1002 at Sun Sep 19 20:04:47 2021, MaxMem=   524288000 cpu:              14.5 elap:              14.7
 (Enter /opt/gaussian/g16_legacy/l601.exe)
 Copying SCF densities to generalized density rwf, IOpCl= 0 IROHF=0.

 **********************************************************************

            Population analysis using the SCF density.

 **********************************************************************

 Orbital symmetries:
       Occupied  (A) (A) (A) (A) (A) (A) (A) (A) (A) (A) (A) (A)
                 (A) (A) (A) (A) (A) (A) (A) (A) (A) (A) (A) (A)
                 (A) (A) (A) (A) (A) (A) (A) (A) (A) (A) (A) (A)
       Virtual   (A) (A) (A) (A) (A) (A) (A) (A) (A) (A) (A) (A)
                 (A) (A) (A) (A) (A) (A) (A) (A) (A) (A) (A) (A)
                 (A) (A) (A) (A) (A) (A) (A) (A) (A) (A) (A) (A)
                 (A) (A) (A) (A) (A) (A) (A) (A) (A) (A) (A) (A)
                 (A) (A) (A) (A) (A) (A) (A) (A) (A) (A) (A) (A)
                 (A) (A) (A) (A) (A) (A) (A) (A) (A) (A) (A) (A)
                 (A) (A) (A) (A) (A) (A) (A) (A) (A) (A) (A) (A)
                 (A) (A) (A) (A) (A) (A) (A) (A) (A) (A) (A) (A)
                 (A) (A) (A) (A) (A) (A) (A) (A) (A) (A) (A) (A)
                 (A) (A) (A) (A) (A) (A) (A) (A) (A) (A) (A) (A)
                 (A) (A) (A) (A) (A) (A) (A) (A) (A) (A) (A) (A)
                 (A) (A) (A) (A) (A) (A) (A) (A) (A) (A) (A) (A)
                 (A) (A) (A) (A) (A) (A) (A) (A) (A) (A) (A) (A)
                 (A) (A) (A) (A) (A) (A) (A) (A) (A) (A) (A) (A)
                 (A)
 The electronic state is 1-A.
 Alpha  occ. eigenvalues --  -20.60191 -20.55166 -11.38570 -11.29193 -11.24024
 Alpha  occ. eigenvalues --  -11.22750 -11.22493 -11.22015 -11.21503  -1.44537
 Alpha  occ. eigenvalues --   -1.34867  -1.09032  -1.02576  -1.01510  -0.92628
 Alpha  occ. eigenvalues --   -0.84423  -0.81069  -0.76220  -0.68667  -0.66123
 Alpha  occ. eigenvalues --   -0.65313  -0.62002  -0.60347  -0.60236  -0.57711
 Alpha  occ. eigenvalues --   -0.56915  -0.55220  -0.52788  -0.51658  -0.50604
 Alpha  occ. eigenvalues --   -0.50009  -0.48525  -0.48070  -0.46165  -0.44297
 Alpha  occ. eigenvalues --   -0.42859
 Alpha virt. eigenvalues --    0.17420   0.22920   0.24616   0.24934   0.27120
 Alpha virt. eigenvalues --    0.27888   0.30498   0.30791   0.31129   0.31782
 Alpha virt. eigenvalues --    0.32514   0.32858   0.33570   0.34667   0.36150
 Alpha virt. eigenvalues --    0.39559   0.40675   0.42299   0.42422   0.43625
 Alpha virt. eigenvalues --    0.46430   0.49792   0.54255   0.68546   0.70111
 Alpha virt. eigenvalues --    0.71136   0.74871   0.75489   0.75957   0.77239
 Alpha virt. eigenvalues --    0.78472   0.79892   0.82242   0.84260   0.89260
 Alpha virt. eigenvalues --    0.90803   0.92541   0.93077   0.94884   0.95936
 Alpha virt. eigenvalues --    1.01584   1.03505   1.06025   1.07937   1.09460
 Alpha virt. eigenvalues --    1.09944   1.11122   1.11994   1.13123   1.13714
 Alpha virt. eigenvalues --    1.15393   1.15639   1.16276   1.16826   1.17649
 Alpha virt. eigenvalues --    1.18778   1.19864   1.21275   1.23260   1.24958
 Alpha virt. eigenvalues --    1.26311   1.32372   1.34250   1.37217   1.40043
 Alpha virt. eigenvalues --    1.46035   1.50929   1.52589   1.59508   1.62538
 Alpha virt. eigenvalues --    1.63836   1.68890   1.74398   1.76131   1.79983
 Alpha virt. eigenvalues --    1.80478   1.85350   1.88523   1.89813   1.94636
 Alpha virt. eigenvalues --    1.96345   1.99241   2.02909   2.05432   2.08680
 Alpha virt. eigenvalues --    2.11217   2.12700   2.15599   2.16836   2.18825
 Alpha virt. eigenvalues --    2.20103   2.22419   2.26011   2.28995   2.32123
 Alpha virt. eigenvalues --    2.33493   2.33889   2.35315   2.35678   2.36593
 Alpha virt. eigenvalues --    2.37622   2.38829   2.39704   2.40815   2.43359
 Alpha virt. eigenvalues --    2.44127   2.45790   2.48405   2.52156   2.55234
 Alpha virt. eigenvalues --    2.56060   2.58072   2.60388   2.60910   2.63317
 Alpha virt. eigenvalues --    2.65954   2.67935   2.71945   2.78748   2.80934
 Alpha virt. eigenvalues --    2.84788   2.85828   2.86165   2.89909   2.94605
 Alpha virt. eigenvalues --    2.94961   2.98548   3.03678   3.05093   3.06210
 Alpha virt. eigenvalues --    3.07173   3.09951   3.11097   3.12028   3.16115
 Alpha virt. eigenvalues --    3.19059   3.20588   3.22197   3.24126   3.24773
 Alpha virt. eigenvalues --    3.25705   3.28164   3.29005   3.34135   3.44696
 Alpha virt. eigenvalues --    3.47174   3.56107   3.56819   3.59825   3.64550
 Alpha virt. eigenvalues --    3.68370   3.71586   3.76790   3.78029   3.80734
 Alpha virt. eigenvalues --    3.81751   3.84736   3.86652   3.93643   3.93758
 Alpha virt. eigenvalues --    4.48028   4.57261   4.65134   4.74664   4.82672
 Alpha virt. eigenvalues --    4.95985   5.00782   5.05350   5.15337
          Condensed to atoms (all electrons):
               1          2          3          4          5          6
     1  C    4.930101   0.404362   0.401454   0.404438   0.334431  -0.041792
     2  H    0.404362   0.561813  -0.028522  -0.028713  -0.037445   0.004363
     3  H    0.401454  -0.028522   0.587019  -0.029194  -0.041140  -0.003515
     4  H    0.404438  -0.028713  -0.029194   0.582604  -0.038808  -0.003354
     5  C    0.334431  -0.037445  -0.041140  -0.038808   4.988424   0.409054
     6  H   -0.041792   0.004363  -0.003515  -0.003354   0.409054   0.581296
     7  H   -0.042267  -0.002641   0.004512  -0.003595   0.402782  -0.027458
     8  C   -0.052865  -0.005751  -0.004091   0.004603   0.363004  -0.037989
     9  H   -0.005202   0.000387   0.002651  -0.000068  -0.043674   0.000526
    10  C    0.004368   0.000011  -0.000044  -0.000097  -0.063089  -0.003324
    11  H   -0.000089  -0.000002   0.000002   0.000001   0.004060  -0.000023
    12  H   -0.000119   0.000008   0.000001   0.000001  -0.005305   0.000480
    13  C   -0.000077  -0.000007  -0.000000   0.000001  -0.002303  -0.002126
    14  H    0.000005  -0.000002   0.000009   0.000003  -0.000039  -0.002143
    15  H    0.000002   0.000000  -0.000000  -0.000000   0.000046   0.000122
    16  H   -0.000047   0.000000   0.000001   0.000001  -0.000228   0.000371
    17  O    0.000754   0.003469   0.000058  -0.000008  -0.046655   0.002346
    18  C   -0.000024   0.000046   0.000000   0.000001   0.003116  -0.000036
    19  O   -0.000023   0.000005  -0.000004  -0.000000   0.000216   0.000004
    20  C    0.000002   0.000005   0.000000  -0.000000  -0.000179   0.000003
    21  H    0.000000  -0.000000  -0.000000   0.000000  -0.000004  -0.000000
    22  H    0.000001   0.000007   0.000000  -0.000000  -0.000011   0.000000
    23  H   -0.000000  -0.000000   0.000000  -0.000000   0.000003  -0.000000
               7          8          9         10         11         12
     1  C   -0.042267  -0.052865  -0.005202   0.004368  -0.000089  -0.000119
     2  H   -0.002641  -0.005751   0.000387   0.000011  -0.000002   0.000008
     3  H    0.004512  -0.004091   0.002651  -0.000044   0.000002   0.000001
     4  H   -0.003595   0.004603  -0.000068  -0.000097   0.000001   0.000001
     5  C    0.402782   0.363004  -0.043674  -0.063089   0.004060  -0.005305
     6  H   -0.027458  -0.037989   0.000526  -0.003324  -0.000023   0.000480
     7  H    0.579899  -0.037626   0.004187  -0.003531  -0.000082   0.002430
     8  C   -0.037626   4.798658   0.412140   0.367315  -0.036897  -0.038698
     9  H    0.004187   0.412140   0.544644  -0.043368  -0.004039   0.004094
    10  C   -0.003531   0.367315  -0.043368   5.021549   0.412954   0.401188
    11  H   -0.000082  -0.036897  -0.004039   0.412954   0.561469  -0.033569
    12  H    0.002430  -0.038698   0.004094   0.401188  -0.033569   0.591978
    13  C    0.000352  -0.047692   0.001163   0.322045  -0.039097  -0.037658
    14  H    0.000330  -0.003722   0.000072  -0.040447   0.004321  -0.004431
    15  H   -0.000034   0.004037  -0.000146  -0.035729  -0.004791  -0.002664
    16  H    0.000043  -0.003440   0.002187  -0.042136  -0.002672   0.004523
    17  O   -0.000053   0.130992  -0.028471  -0.043717  -0.004505   0.000395
    18  C   -0.000218  -0.016048  -0.006315  -0.007530   0.005183  -0.000200
    19  O   -0.000003   0.000285   0.006813  -0.005214   0.003269   0.000154
    20  C   -0.000006   0.005183   0.000213  -0.000994  -0.000289   0.000025
    21  H    0.000000  -0.000555  -0.000010   0.000750  -0.000088   0.000044
    22  H    0.000006  -0.000060  -0.000016   0.000025   0.000010   0.000005
    23  H    0.000000  -0.000162   0.000014   0.000028   0.000010   0.000006
              13         14         15         16         17         18
     1  C   -0.000077   0.000005   0.000002  -0.000047   0.000754  -0.000024
     2  H   -0.000007  -0.000002   0.000000   0.000000   0.003469   0.000046
     3  H   -0.000000   0.000009  -0.000000   0.000001   0.000058   0.000000
     4  H    0.000001   0.000003  -0.000000   0.000001  -0.000008   0.000001
     5  C   -0.002303  -0.000039   0.000046  -0.000228  -0.046655   0.003116
     6  H   -0.002126  -0.002143   0.000122   0.000371   0.002346  -0.000036
     7  H    0.000352   0.000330  -0.000034   0.000043  -0.000053  -0.000218
     8  C   -0.047692  -0.003722   0.004037  -0.003440   0.130992  -0.016048
     9  H    0.001163   0.000072  -0.000146   0.002187  -0.028471  -0.006315
    10  C    0.322045  -0.040447  -0.035729  -0.042136  -0.043717  -0.007530
    11  H   -0.039097   0.004321  -0.004791  -0.002672  -0.004505   0.005183
    12  H   -0.037658  -0.004431  -0.002664   0.004523   0.000395  -0.000200
    13  C    4.934323   0.405051   0.404377   0.402511   0.002869   0.000018
    14  H    0.405051   0.587501  -0.029909  -0.030046  -0.000026  -0.000002
    15  H    0.404377  -0.029909   0.572382  -0.027358  -0.000055  -0.000010
    16  H    0.402511  -0.030046  -0.027358   0.578538  -0.000010   0.000001
    17  O    0.002869  -0.000026  -0.000055  -0.000010   8.554198   0.242888
    18  C    0.000018  -0.000002  -0.000010   0.000001   0.242888   4.171440
    19  O   -0.000091  -0.000002   0.000002   0.000008  -0.067487   0.555477
    20  C   -0.000005  -0.000000   0.000000  -0.000000  -0.095463   0.375857
    21  H   -0.000006   0.000000   0.000000   0.000000   0.000733  -0.029734
    22  H   -0.000000   0.000000   0.000000   0.000000   0.002154  -0.030449
    23  H    0.000000   0.000000  -0.000000   0.000000   0.003648  -0.037120
              19         20         21         22         23
     1  C   -0.000023   0.000002   0.000000   0.000001  -0.000000
     2  H    0.000005   0.000005  -0.000000   0.000007  -0.000000
     3  H   -0.000004   0.000000  -0.000000   0.000000   0.000000
     4  H   -0.000000  -0.000000   0.000000  -0.000000  -0.000000
     5  C    0.000216  -0.000179  -0.000004  -0.000011   0.000003
     6  H    0.000004   0.000003  -0.000000   0.000000  -0.000000
     7  H   -0.000003  -0.000006   0.000000   0.000006   0.000000
     8  C    0.000285   0.005183  -0.000555  -0.000060  -0.000162
     9  H    0.006813   0.000213  -0.000010  -0.000016   0.000014
    10  C   -0.005214  -0.000994   0.000750   0.000025   0.000028
    11  H    0.003269  -0.000289  -0.000088   0.000010   0.000010
    12  H    0.000154   0.000025   0.000044   0.000005   0.000006
    13  C   -0.000091  -0.000005  -0.000006  -0.000000   0.000000
    14  H   -0.000002  -0.000000   0.000000   0.000000   0.000000
    15  H    0.000002   0.000000   0.000000   0.000000  -0.000000
    16  H    0.000008  -0.000000   0.000000   0.000000   0.000000
    17  O   -0.067487  -0.095463   0.000733   0.002154   0.003648
    18  C    0.555477   0.375857  -0.029734  -0.030449  -0.037120
    19  O    8.146926  -0.066243  -0.000509   0.002242   0.002688
    20  C   -0.066243   5.014733   0.392098   0.384505   0.391441
    21  H   -0.000509   0.392098   0.522107  -0.021088  -0.020707
    22  H    0.002242   0.384505  -0.021088   0.537991  -0.025178
    23  H    0.002688   0.391441  -0.020707  -0.025178   0.532521
 Mulliken charges:
               1
     1  C   -0.337414
     2  H    0.128607
     3  H    0.110807
     4  H    0.112183
     5  C   -0.226258
     6  H    0.123195
     7  H    0.122973
     8  C    0.199381
     9  H    0.152219
    10  C   -0.241014
    11  H    0.134863
    12  H    0.117313
    13  C   -0.343648
    14  H    0.113477
    15  H    0.119729
    16  H    0.117750
    17  O   -0.658055
    18  C    0.773658
    19  O   -0.578513
    20  C   -0.400885
    21  H    0.156967
    22  H    0.149856
    23  H    0.152809
 Sum of Mulliken charges =  -0.00000
 Mulliken charges with hydrogens summed into heavy atoms:
               1
     1  C    0.014183
     5  C    0.019909
     8  C    0.351600
    10  C    0.011163
    13  C    0.007309
    17  O   -0.658055
    18  C    0.773658
    19  O   -0.578513
    20  C    0.058747
 Electronic spatial extent (au):  <R**2>=           1540.1547
 Charge=             -0.0000 electrons
 Dipole moment (field-independent basis, Debye):
    X=              0.8947    Y=              0.0175    Z=             -2.1780  Tot=              2.3546
 Quadrupole moment (field-independent basis, Debye-Ang):
   XX=            -53.8725   YY=            -56.6493   ZZ=            -60.5491
   XY=              1.3945   XZ=              6.0328   YZ=             -1.5594
 Traceless Quadrupole moment (field-independent basis, Debye-Ang):
   XX=              3.1512   YY=              0.3743   ZZ=             -3.5255
   XY=              1.3945   XZ=              6.0328   YZ=             -1.5594
 Octapole moment (field-independent basis, Debye-Ang**2):
  XXX=            -19.7541  YYY=              1.5069  ZZZ=             -3.0135  XYY=             -5.8351
  XXY=             -6.5951  XXZ=            -12.6725  XZZ=              4.5252  YZZ=             -1.5139
  YYZ=             -0.9535  XYZ=              3.0691
 Hexadecapole moment (field-independent basis, Debye-Ang**3):
 XXXX=          -1123.8543 YYYY=           -689.8296 ZZZZ=           -214.2542 XXXY=              4.7245
 XXXZ=             16.6822 YYYX=              2.6157 YYYZ=              2.8947 ZZZX=              9.1389
 ZZZY=              0.2826 XXYY=           -311.1187 XXZZ=           -242.6623 YYZZ=           -150.0025
 XXYZ=             -1.7236 YYXZ=             -2.3524 ZZXY=              2.4206
 N-N= 4.833012057743D+02 E-N=-1.956419981034D+03  KE= 4.220423967832D+02
 No NMR shielding tensors so no spin-rotation constants.
 Leave Link  601 at Sun Sep 19 20:04:47 2021, MaxMem=   524288000 cpu:               0.2 elap:               0.4
 (Enter /opt/gaussian/g16_legacy/l701.exe)
 ... and contract with generalized density number  2.
 Compute integral first derivatives.
 Leave Link  701 at Sun Sep 19 20:04:48 2021, MaxMem=   524288000 cpu:               0.2 elap:               0.4
 (Enter /opt/gaussian/g16_legacy/l702.exe)
 L702 exits ... SP integral derivatives will be done elsewhere.
 Leave Link  702 at Sun Sep 19 20:04:48 2021, MaxMem=   524288000 cpu:               0.0 elap:               0.0
 (Enter /opt/gaussian/g16_legacy/l703.exe)
 Integral derivatives from FoFJK, PRISM(SPDF).
 Compute integral first derivatives, UseDBF=F ICtDFT=           0.
 Calling FoFJK, ICntrl=  10002127 FMM=F ISym2X=0 I1Cent= 0 IOpClX= 0 NMat=1 NMatS=1 NMatT=0.
 FoFJK:  IHMeth= 1 ICntrl=10002127 DoSepK=F KAlg= 0 I1Cent=           0 FoldK=F
 IRaf=         0 NMat=       1 IRICut=       1 DoRegI=T DoRafI=F ISym2E= 0 IDoP0=0 IntGTp=1.
 FoFCou: FMM=F IPFlag=           0 FMFlag=      100000 FMFlg1=         800
         NFxFlg=           0 DoJE=F BraDBF=F KetDBF=F FulRan=T
         wScrn=  0.000000 ICntrl=  10002127 IOpCl=  0 I1Cent=           0 NGrid=           0
         NMat0=    1 NMatS0=      1 NMatT0=    0 NMatD0=    1 NMtDS0=    0 NMtDT0=    0
 Symmetry not used in FoFCou.
 Leave Link  703 at Sun Sep 19 20:05:01 2021, MaxMem=   524288000 cpu:              13.5 elap:              13.7
 (Enter /opt/gaussian/g16_legacy/l716.exe)
 Dipole        = 3.59453550D-01 4.18530501D-02-7.02032817D-01
 ***** Axes restored to original set *****
 -------------------------------------------------------------------
 Center     Atomic                   Forces (Hartrees/Bohr)
 Number     Number              X              Y              Z
 -------------------------------------------------------------------
      1        6          -0.002251067   -0.003311375   -0.003820812
      2        1          -0.000125937    0.003807779    0.000138097
      3        1          -0.000439770   -0.001987517    0.002184934
      4        1           0.003527198   -0.000512069   -0.000754563
      5        6           0.003281609   -0.008994557   -0.002902903
      6        1           0.005435412   -0.000650933    0.003245585
      7        1           0.004230527    0.004222531    0.000467746
      8        6          -0.012143893    0.016465698    0.007716556
      9        1           0.000973839   -0.002023150    0.004453618
     10        6           0.008290327   -0.004399691    0.001640558
     11        1          -0.002679390   -0.002271794   -0.003899689
     12        1          -0.002750790   -0.001580062   -0.005442834
     13        6          -0.003480410    0.006156966    0.000999030
     14        1           0.003072570    0.001257770   -0.001840129
     15        1          -0.001612349   -0.000860219   -0.003691638
     16        1          -0.001608304   -0.000068219    0.002159095
     17        8          -0.002203598   -0.001745169   -0.004326827
     18        6           0.010576998    0.012638041    0.003607206
     19        8          -0.012196536   -0.005454436    0.002451818
     20        6           0.006099115   -0.016533675   -0.002777959
     21        1          -0.001888950   -0.002593684   -0.003570024
     22        1           0.001136676    0.005457160    0.003066852
     23        1          -0.003243278    0.002980605    0.000896282
 -------------------------------------------------------------------
 Cartesian Forces:  Max     0.016533675 RMS     0.005236892
 Leave Link  716 at Sun Sep 19 20:05:02 2021, MaxMem=   524288000 cpu:               0.0 elap:               0.2
 (Enter /opt/gaussian/g16_legacy/l103.exe)

 GradGradGradGradGradGradGradGradGradGradGradGradGradGradGradGradGradGrad
 Berny optimization.
 FormGI is forming the generalized inverse of G from B-inverse, IUseBI=4.
 Internal  Forces:  Max     0.012924054 RMS     0.003827553
 Search for a local minimum.
 Step number   1 out of a maximum of  119
 All quantities printed in internal units (Hartrees-Bohrs-Radians)
 RMS Force = .38276D-02 SwitMx=.10000D-02 MixMth= 1
 Mixed Optimization -- RFO/linear search
 Second derivative matrix not updated -- first step.
 ITU=  0
     Eigenvalues ---    0.00230   0.00276   0.00450   0.00574   0.00808
     Eigenvalues ---    0.01100   0.01242   0.02186   0.03246   0.03549
     Eigenvalues ---    0.04162   0.04767   0.04834   0.05154   0.05502
     Eigenvalues ---    0.05570   0.05721   0.05854   0.07277   0.07410
     Eigenvalues ---    0.07619   0.08357   0.08892   0.12205   0.12598
     Eigenvalues ---    0.16000   0.16000   0.16000   0.16000   0.16000
     Eigenvalues ---    0.16000   0.16000   0.16000   0.16000   0.16245
     Eigenvalues ---    0.19158   0.21912   0.21961   0.24801   0.25000
     Eigenvalues ---    0.25000   0.28335   0.28780   0.29998   0.30902
     Eigenvalues ---    0.32710   0.33859   0.33922   0.33993   0.34024
     Eigenvalues ---    0.34260   0.34261   0.34266   0.34314   0.34322
     Eigenvalues ---    0.34323   0.34399   0.34422   0.34475   0.34527
     Eigenvalues ---    0.38943   0.52415   0.93017
 RFO step:  Lambda=-1.39443041D-02 EMin= 2.30000000D-03
 Linear search not attempted -- first point.
 Iteration  1 RMS(Cart)=  0.17670458 RMS(Int)=  0.01630238
 Iteration  2 RMS(Cart)=  0.05483157 RMS(Int)=  0.00235470
 Iteration  3 RMS(Cart)=  0.00241758 RMS(Int)=  0.00192515
 Iteration  4 RMS(Cart)=  0.00000805 RMS(Int)=  0.00192514
 Iteration  5 RMS(Cart)=  0.00000004 RMS(Int)=  0.00192514
 ITry= 1 IFail=0 DXMaxC= 9.51D-01 DCOld= 1.00D+10 DXMaxT= 3.00D-01 DXLimC= 3.00D+00 Rises=F
 Variable       Old X    -DE/DX   Delta X   Delta X   Delta X     New X
                                 (Linear)    (Quad)   (Total)
    R1        2.06662  -0.00360   0.00000  -0.01006  -0.01006   2.05656
    R2        2.06790  -0.00281   0.00000  -0.00787  -0.00787   2.06003
    R3        2.06892  -0.00345   0.00000  -0.00968  -0.00968   2.05925
    R4        2.87967   0.00269   0.00000   0.00857   0.00857   2.88824
    R5        2.06789  -0.00314   0.00000  -0.00880  -0.00880   2.05908
    R6        2.07289  -0.00306   0.00000  -0.00863  -0.00863   2.06426
    R7        2.90465  -0.01292   0.00000  -0.04283  -0.04283   2.86182
    R8        2.07569  -0.00402   0.00000  -0.01139  -0.01139   2.06429
    R9        2.91412  -0.00876   0.00000  -0.02946  -0.02946   2.88465
   R10        2.73015   0.00399   0.00000   0.00990   0.00990   2.74005
   R11        2.07342  -0.00302   0.00000  -0.00854  -0.00854   2.06489
   R12        2.07462  -0.00325   0.00000  -0.00920  -0.00920   2.06542
   R13        2.86199   0.00750   0.00000   0.02321   0.02321   2.88521
   R14        2.06536  -0.00312   0.00000  -0.00869  -0.00869   2.05666
   R15        2.06893  -0.00380   0.00000  -0.01067  -0.01067   2.05826
   R16        2.06624  -0.00238   0.00000  -0.00665  -0.00665   2.05960
   R17        2.57504   0.00074   0.00000   0.00137   0.00137   2.57641
   R18        2.31573  -0.01191   0.00000  -0.01261  -0.01261   2.30312
   R19        2.82864   0.00561   0.00000   0.01644   0.01644   2.84508
   R20        2.06804  -0.00433   0.00000  -0.01213  -0.01213   2.05591
   R21        2.06884  -0.00491   0.00000  -0.01378  -0.01378   2.05506
   R22        2.06450  -0.00412   0.00000  -0.01147  -0.01147   2.05303
    A1        1.89493  -0.00021   0.00000  -0.00733  -0.00739   1.88754
    A2        1.88422   0.00009   0.00000   0.00212   0.00218   1.88640
    A3        1.94991  -0.00193   0.00000  -0.01358  -0.01358   1.93632
    A4        1.88040  -0.00068   0.00000   0.00091   0.00082   1.88122
    A5        1.93468   0.00062   0.00000   0.00266   0.00258   1.93726
    A6        1.91764   0.00211   0.00000   0.01548   0.01546   1.93310
    A7        1.87505   0.00437   0.00000   0.04030   0.04008   1.91513
    A8        1.88795   0.00308   0.00000   0.03028   0.03004   1.91799
    A9        1.97183  -0.00159   0.00000  -0.00503  -0.00474   1.96709
   A10        1.88080  -0.00038   0.00000  -0.00424  -0.00586   1.87493
   A11        1.93136  -0.00322   0.00000  -0.03370  -0.03379   1.89756
   A12        1.91399  -0.00198   0.00000  -0.02522  -0.02534   1.88865
   A13        1.91101   0.00181   0.00000   0.00478   0.00399   1.91500
   A14        1.95655   0.00479   0.00000   0.03538   0.03556   1.99211
   A15        1.88136  -0.00911   0.00000  -0.04636  -0.04781   1.83355
   A16        1.93697  -0.00415   0.00000  -0.01498  -0.01476   1.92221
   A17        1.92732  -0.00134   0.00000  -0.03486  -0.03521   1.89211
   A18        1.84912   0.00790   0.00000   0.05492   0.05557   1.90470
   A19        1.90247  -0.00175   0.00000  -0.01912  -0.01901   1.88347
   A20        1.90762  -0.00248   0.00000  -0.02820  -0.02815   1.87947
   A21        2.01694  -0.00151   0.00000  -0.01234  -0.01234   2.00460
   A22        1.83221   0.00159   0.00000   0.02805   0.02744   1.85965
   A23        1.88127   0.00211   0.00000   0.01943   0.01913   1.90040
   A24        1.91412   0.00238   0.00000   0.01669   0.01622   1.93034
   A25        1.94669   0.00188   0.00000   0.01124   0.01117   1.95787
   A26        1.90986   0.00169   0.00000   0.01195   0.01187   1.92173
   A27        1.93999   0.00062   0.00000   0.00082   0.00083   1.94082
   A28        1.87355  -0.00100   0.00000  -0.00044  -0.00059   1.87295
   A29        1.90388  -0.00199   0.00000  -0.01549  -0.01547   1.88841
   A30        1.88776  -0.00135   0.00000  -0.00875  -0.00875   1.87902
   A31        2.01508   0.00154   0.00000   0.00583   0.00583   2.02091
   A32        2.19337  -0.01099   0.00000  -0.03001  -0.04055   2.15282
   A33        1.90611   0.00791   0.00000   0.04116   0.03039   1.93650
   A34        2.17288   0.00416   0.00000   0.02662   0.01555   2.18843
   A35        1.89193  -0.00125   0.00000  -0.01294  -0.01297   1.87896
   A36        1.93196   0.00162   0.00000   0.00990   0.00979   1.94175
   A37        1.91951  -0.00040   0.00000   0.00293   0.00283   1.92234
   A38        1.91714  -0.00246   0.00000  -0.02434  -0.02438   1.89276
   A39        1.90652   0.00059   0.00000   0.00236   0.00235   1.90887
   A40        1.89670   0.00187   0.00000   0.02178   0.02160   1.91830
    D1       -3.11248  -0.00228   0.00000  -0.02327  -0.02353  -3.13601
    D2       -1.08654   0.00111   0.00000   0.00814   0.00846  -1.07808
    D3        1.03564  -0.00026   0.00000  -0.00580  -0.00577   1.02987
    D4        1.05473  -0.00112   0.00000  -0.00643  -0.00671   1.04802
    D5        3.08068   0.00227   0.00000   0.02498   0.02528   3.10595
    D6       -1.08033   0.00090   0.00000   0.01104   0.01105  -1.06928
    D7       -1.02167  -0.00201   0.00000  -0.01906  -0.01938  -1.04105
    D8        1.00428   0.00139   0.00000   0.01236   0.01260   1.01689
    D9        3.12646   0.00001   0.00000  -0.00158  -0.00162   3.12484
   D10        0.89227  -0.00093   0.00000   0.01220   0.01219   0.90446
   D11        3.04986  -0.00163   0.00000   0.02102   0.02143   3.07129
   D12       -1.20496   0.00508   0.00000   0.07916   0.07875  -1.12621
   D13       -1.21096  -0.00315   0.00000  -0.01207  -0.01184  -1.22280
   D14        0.94662  -0.00385   0.00000  -0.00325  -0.00259   0.94403
   D15        2.97499   0.00286   0.00000   0.05489   0.05472   3.02972
   D16        2.99969   0.00053   0.00000   0.02965   0.02941   3.02910
   D17       -1.12591  -0.00016   0.00000   0.03847   0.03865  -1.08725
   D18        0.90246   0.00654   0.00000   0.09661   0.09597   0.99843
   D19        3.12274  -0.00275   0.00000  -0.02924  -0.02867   3.09407
   D20        1.12925  -0.00237   0.00000  -0.03713  -0.03646   1.09279
   D21       -1.03938  -0.00239   0.00000  -0.02717  -0.02664  -1.06603
   D22       -1.01749  -0.00000   0.00000  -0.00859  -0.00868  -1.02616
   D23       -3.01098   0.00038   0.00000  -0.01648  -0.01646  -3.02744
   D24        1.10357   0.00035   0.00000  -0.00653  -0.00665   1.09693
   D25        1.07499   0.00089   0.00000  -0.02548  -0.02604   1.04896
   D26       -0.91850   0.00127   0.00000  -0.03338  -0.03382  -0.95232
   D27       -3.08713   0.00125   0.00000  -0.02342  -0.02401  -3.11114
   D28        2.92131  -0.00465   0.00000  -0.09205  -0.09087   2.83044
   D29        0.83440  -0.00050   0.00000  -0.04933  -0.05029   0.78411
   D30       -1.26438   0.00049   0.00000  -0.04509  -0.04529  -1.30967
   D31        1.19218  -0.00090   0.00000  -0.01503  -0.01509   1.17709
   D32       -3.02062   0.00010   0.00000  -0.00096  -0.00094  -3.02156
   D33       -0.93676  -0.00011   0.00000  -0.00361  -0.00363  -0.94038
   D34       -2.95859  -0.00259   0.00000  -0.03339  -0.03365  -2.99224
   D35       -0.88820  -0.00159   0.00000  -0.01932  -0.01950  -0.90770
   D36        1.19566  -0.00180   0.00000  -0.02198  -0.02218   1.17347
   D37       -0.97306   0.00161   0.00000   0.01843   0.01862  -0.95444
   D38        1.09733   0.00261   0.00000   0.03250   0.03277   1.13010
   D39       -3.10200   0.00240   0.00000   0.02985   0.03009  -3.07191
   D40       -0.41906   0.00354   0.00000   0.07936   0.08355  -0.33551
   D41        2.57018   0.01171   0.00000   0.34661   0.34242   2.91260
   D42       -1.31007  -0.00243   0.00000  -0.12242  -0.12344  -1.43351
   D43        0.79367  -0.00527   0.00000  -0.15455  -0.15560   0.63806
   D44        2.88980  -0.00216   0.00000  -0.11919  -0.12013   2.76967
   D45        1.68137   0.00399   0.00000   0.13489   0.13588   1.81724
   D46       -2.49808   0.00115   0.00000   0.10276   0.10371  -2.39437
   D47       -0.40195   0.00426   0.00000   0.13812   0.13919  -0.26276
         Item               Value     Threshold  Converged?
 Maximum Force            0.012924     0.000450     NO 
 RMS     Force            0.003828     0.000300     NO 
 Maximum Displacement     0.950729     0.001800     NO 
 RMS     Displacement     0.221610     0.001200     NO 
 Predicted change in Energy=-9.089621D-03
 Lowest energy point so far.  Saving SCF results.
 GradGradGradGradGradGradGradGradGradGradGradGradGradGradGradGradGradGrad

 Leave Link  103 at Sun Sep 19 20:05:02 2021, MaxMem=   524288000 cpu:               0.0 elap:               0.2
 (Enter /opt/gaussian/g16_legacy/l202.exe)
                          Input orientation:                          
 ---------------------------------------------------------------------
 Center     Atomic      Atomic             Coordinates (Angstroms)
 Number     Number       Type             X           Y           Z
 ---------------------------------------------------------------------
      1          6           0       -1.904615    0.884095    0.152557
      2          1           0       -1.477874   -0.098033    0.346684
      3          1           0       -1.488356    1.256134   -0.783753
      4          1           0       -2.979021    0.764886    0.015082
      5          6           0       -1.609113    1.845347    1.303493
      6          1           0       -2.049371    2.819272    1.091565
      7          1           0       -2.064532    1.473851    2.224273
      8          6           0       -0.125536    2.025448    1.548443
      9          1           0        0.373568    2.286594    0.612503
     10          6           0        0.208947    3.052836    2.626762
     11          1           0        1.294155    3.065616    2.753778
     12          1           0       -0.210670    2.693125    3.569692
     13          6           0       -0.270843    4.471979    2.331949
     14          1           0       -1.356381    4.549237    2.342905
     15          1           0        0.110698    5.160240    3.084971
     16          1           0        0.084980    4.814483    1.360381
     17          8           0        0.347376    0.721620    1.971297
     18          6           0        1.693950    0.524155    1.890417
     19          8           0        2.430645    1.205460    1.198698
     20          6           0        2.102105   -0.716527    2.639283
     21          1           0        2.189221   -0.453304    3.691301
     22          1           0        1.354301   -1.500008    2.541378
     23          1           0        3.061866   -1.073708    2.276541
 ---------------------------------------------------------------------
                    Distance matrix (angstroms):
                    1          2          3          4          5
     1  C    0.000000
     2  H    1.088287   0.000000
     3  H    1.090120   1.764020   0.000000
     4  H    1.089706   1.762961   1.761120   0.000000
     5  C    1.528391   2.170123   2.172176   2.168882   0.000000
     6  H    2.155829   3.064658   2.504986   2.498713   1.089620
     7  H    2.159951   2.518001   3.070439   2.493881   1.092361
     8  C    2.533042   2.789662   2.808605   3.476001   1.514409
     9  H    2.714529   3.030667   2.545219   3.729927   2.145504
    10  C    3.910533   4.239351   4.211957   4.713674   2.552334
    11  H    4.664494   4.846330   4.850846   5.572597   3.467180
    12  H    4.221238   4.447939   4.759192   4.900727   2.794643
    13  C    4.504649   5.126715   4.640214   5.142435   3.122159
    14  H    4.304817   5.059326   4.542899   4.730014   2.907795
    15  H    5.562908   6.137688   5.724163   6.187869   4.137623
    16  H    4.567852   5.253847   4.442357   5.253300   3.418911
    17  O    2.899254   2.577351   3.353493   3.859218   2.352992
    18  C    4.012403   3.581996   4.220669   5.040980   3.605586
    19  O    4.471260   4.207320   4.392180   5.555136   4.091464
    20  C    4.979919   4.295904   5.338537   5.907525   4.703261
    21  H    5.574122   4.975969   6.039276   6.458273   5.041107
    22  H    4.691582   3.847523   5.170446   5.503598   4.637411
    23  H    5.745453   5.028472   5.958027   6.707230   5.593366
                    6          7          8          9         10
     6  H    0.000000
     7  H    1.758811   0.000000
     8  C    2.130736   2.126196   0.000000
     9  H    2.526634   3.033593   1.092377   0.000000
    10  C    2.740690   2.797123   1.526492   2.161357   0.000000
    11  H    3.742032   3.754313   2.133144   2.457521   1.092690
    12  H    3.088341   2.594916   2.130373   3.041639   1.092972
    13  C    2.726381   3.495381   2.573035   2.854411   1.526786
    14  H    2.244741   3.158093   2.918161   3.332652   2.184043
    15  H    3.757619   4.365993   3.499092   3.800005   2.158879
    16  H    2.934038   4.065284   2.803284   2.651948   2.173128
    17  O    3.304311   2.539123   1.449971   2.072715   2.425565
    18  C    4.462978   3.890959   2.383559   2.546107   3.023518
    19  O    4.763026   4.618490   2.707169   2.396673   3.223058
    20  C    5.668515   4.725552   3.697396   4.014276   4.218092
    21  H    5.952651   4.894947   4.011752   4.503624   4.165063
    22  H    5.687102   4.542335   3.950275   4.361278   4.695478
    23  H    6.533315   5.724748   4.504933   4.613848   5.028933
                   11         12         13         14         15
    11  H    0.000000
    12  H    1.751845   0.000000
    13  C    2.145929   2.167937   0.000000
    14  H    3.065174   2.502562   1.088340   0.000000
    15  H    2.428520   2.534736   1.089183   1.753941   0.000000
    16  H    2.542085   3.077113   1.089891   1.764435   1.759097
    17  O    2.646314   2.598676   3.818043   4.206130   4.582317
    18  C    2.713715   3.339456   4.431779   5.070557   5.042512
    19  O    2.677697   3.848546   4.387759   5.179925   4.957869
    20  C    3.869172   4.223780   5.713661   6.306920   6.220991
    21  H    3.750052   3.959076   5.670817   6.278128   6.016625
    22  H    4.570957   4.592268   6.192703   6.631784   6.797128
    23  H    4.526208   5.154683   6.470290   7.151421   6.944426
                   16         17         18         19         20
    16  H    0.000000
    17  O    4.146516   0.000000
    18  C    4.612660   1.363376   0.000000
    19  O    4.307358   2.273987   1.218758   0.000000
    20  C    6.024654   2.365068   1.505551   2.424306   0.000000
    21  H    6.132748   2.780513   2.108057   3.003806   1.087941
    22  H    6.548185   2.504900   2.153218   3.206379   1.087492
    23  H    6.661231   3.268766   2.138564   2.598998   1.086417
                   21         22         23
    21  H    0.000000
    22  H    1.764937   0.000000
    23  H    1.774247   1.779789   0.000000
 Stoichiometry    C7H14O2
 Framework group  C1[X(C7H14O2)]
 Deg. of freedom    63
 Full point group                 C1      NOp   1
 RotChk:  IX=3 Diff= 2.57D-01
 Largest Abelian subgroup         C1      NOp   1
 Largest concise Abelian subgroup C1      NOp   1
                         Standard orientation:                         
 ---------------------------------------------------------------------
 Center     Atomic      Atomic             Coordinates (Angstroms)
 Number     Number       Type             X           Y           Z
 ---------------------------------------------------------------------
      1          6           0        1.232217   -2.474668    0.329862
[...]
    18  C    2.795397   3.516568   4.458602   5.090258   5.117727
    19  O    2.667819   3.913035   4.309751   5.099176   4.907593
    20  C    4.041058   4.528864   5.831698   6.417738   6.423919
    21  H    4.064974   4.295157   5.915227   6.474779   6.393239
    22  H    4.794105   5.056148   6.359508   6.809351   7.066322
    23  H    4.564109   5.338258   6.477344   7.170184   7.003872
                   16         17         18         19         20
    16  H    0.000000
    17  O    4.097573   0.000000
    18  C    4.554252   1.358916   0.000000
    19  O    4.155424   2.280931   1.219668   0.000000
    20  C    6.024627   2.349506   1.505152   2.426563   0.000000
    21  H    6.287270   2.605999   2.133488   3.123114   1.088067
    22  H    6.538240   2.612468   2.134119   3.118702   1.088161
    23  H    6.561304   3.275074   2.126825   2.573755   1.084825
                   21         22         23
    21  H    0.000000
    22  H    1.758076   0.000000
    23  H    1.781928   1.781659   0.000000
 Stoichiometry    C7H14O2
 Framework group  C1[X(C7H14O2)]
 Deg. of freedom    63
 Full point group                 C1      NOp   1
 RotChk:  IX=3 Diff= 2.57D-15
 Largest Abelian subgroup         C1      NOp   1
 Largest concise Abelian subgroup C1      NOp   1
                         Standard orientation:                         
 ---------------------------------------------------------------------
 Center     Atomic      Atomic             Coordinates (Angstroms)
 Number     Number       Type             X           Y           Z
 ---------------------------------------------------------------------
      1          6           0        0.844426   -2.548273    0.378035
      2          1           0       -0.147073   -2.733175   -0.028706
      3          1           0        0.755815   -2.457256    1.460990
      4          1           0        1.469723   -3.413888    0.163928
      5          6           0        1.443304   -1.281354   -0.221338
      6          1           0        2.454332   -1.134760    0.162492
      7          1           0        1.523957   -1.376726   -1.307050
      8          6           0        0.631711   -0.037783    0.094159
      9          1           0        0.519433    0.079368    1.175006
     10          6           0        1.181002    1.250507   -0.502371
     11          1           0        0.460340    2.042113   -0.294811
     12          1           0        1.234482    1.131947   -1.587088
     13          6           0        2.542823    1.646872    0.060380
     14          1           0        3.320059    0.937385   -0.218243
     15          1           0        2.839434    2.625193   -0.314635
     16          1           0        2.509713    1.704044    1.148670
     17          8           0       -0.690895   -0.280845   -0.465773
     18          6           0       -1.723357    0.354178    0.148573
     19          8           0       -1.600653    1.095009    1.109668
     20          6           0       -3.022097    0.005289   -0.527469
     21          1           0       -2.977804    0.292366   -1.576047
     22          1           0       -3.181158   -1.070305   -0.483982
     23          1           0       -3.835749    0.523769   -0.031492
 ---------------------------------------------------------------------
 Rotational constants (GHZ):           1.9343403           1.1396724           0.8200678
 Leave Link  202 at Sun Sep 19 20:35:02 2021, MaxMem=   524288000 cpu:               0.0 elap:               0.0
 (Enter /opt/gaussian/g16_legacy/l601.exe)
 Copying SCF densities to generalized density rwf, IOpCl= 0 IROHF=0.

 **********************************************************************

            Population analysis using the SCF density.

 **********************************************************************

 Orbital symmetries:
       Occupied  (A) (A) (A) (A) (A) (A) (A) (A) (A) (A) (A) (A)
                 (A) (A) (A) (A) (A) (A) (A) (A) (A) (A) (A) (A)
                 (A) (A) (A) (A) (A) (A) (A) (A) (A) (A) (A) (A)
       Virtual   (A) (A) (A) (A) (A) (A) (A) (A) (A) (A) (A) (A)
                 (A) (A) (A) (A) (A) (A) (A) (A) (A) (A) (A) (A)
                 (A) (A) (A) (A) (A) (A) (A) (A) (A) (A) (A) (A)
                 (A) (A) (A) (A) (A) (A) (A) (A) (A) (A) (A) (A)
                 (A) (A) (A) (A) (A) (A) (A) (A) (A) (A) (A) (A)
                 (A) (A) (A) (A) (A) (A) (A) (A) (A) (A) (A) (A)
                 (A) (A) (A) (A) (A) (A) (A) (A) (A) (A) (A) (A)
                 (A) (A) (A) (A) (A) (A) (A) (A) (A) (A) (A) (A)
                 (A) (A) (A) (A) (A) (A) (A) (A) (A) (A) (A) (A)
                 (A) (A) (A) (A) (A) (A) (A) (A) (A) (A) (A) (A)
                 (A) (A) (A) (A) (A) (A) (A) (A) (A) (A) (A) (A)
                 (A) (A) (A) (A) (A) (A) (A) (A) (A) (A) (A) (A)
                 (A) (A) (A) (A) (A) (A) (A) (A) (A) (A) (A) (A)
                 (A) (A) (A) (A) (A) (A) (A) (A) (A) (A) (A) (A)
                 (A)
 The electronic state is 1-A.
 Alpha  occ. eigenvalues --  -20.60046 -20.54885 -11.38353 -11.28423 -11.23903
 Alpha  occ. eigenvalues --  -11.22390 -11.22058 -11.21753 -11.21373  -1.44513
 Alpha  occ. eigenvalues --   -1.34721  -1.09353  -1.02413  -1.01476  -0.92623
 Alpha  occ. eigenvalues --   -0.84619  -0.80976  -0.76325  -0.68768  -0.66182
 Alpha  occ. eigenvalues --   -0.64878  -0.61765  -0.60376  -0.60013  -0.57431
 Alpha  occ. eigenvalues --   -0.56746  -0.55394  -0.52914  -0.52423  -0.50522
 Alpha  occ. eigenvalues --   -0.49740  -0.48526  -0.47969  -0.46347  -0.44101
 Alpha  occ. eigenvalues --   -0.43179
 Alpha virt. eigenvalues --    0.18563   0.23208   0.24031   0.26036   0.27199
 Alpha virt. eigenvalues --    0.28057   0.30566   0.30949   0.31133   0.32001
 Alpha virt. eigenvalues --    0.32867   0.33383   0.34461   0.34577   0.37034
 Alpha virt. eigenvalues --    0.38914   0.40613   0.42214   0.42913   0.44455
 Alpha virt. eigenvalues --    0.46253   0.50176   0.54254   0.68515   0.69861
 Alpha virt. eigenvalues --    0.71227   0.74389   0.75420   0.76070   0.77533
 Alpha virt. eigenvalues --    0.77840   0.80413   0.82685   0.86387   0.88987
 Alpha virt. eigenvalues --    0.90172   0.91978   0.93344   0.94277   0.98598
 Alpha virt. eigenvalues --    1.01330   1.03985   1.04611   1.08843   1.09288
 Alpha virt. eigenvalues --    1.10063   1.11548   1.12601   1.13183   1.14245
 Alpha virt. eigenvalues --    1.15121   1.15753   1.16617   1.17060   1.18410
 Alpha virt. eigenvalues --    1.19179   1.20890   1.22003   1.22775   1.25289
 Alpha virt. eigenvalues --    1.25954   1.32148   1.34529   1.39554   1.41440
 Alpha virt. eigenvalues --    1.43563   1.51579   1.53635   1.58071   1.65235
 Alpha virt. eigenvalues --    1.68415   1.69979   1.71251   1.78150   1.79150
 Alpha virt. eigenvalues --    1.81407   1.82239   1.89529   1.90364   1.95149
 Alpha virt. eigenvalues --    1.98457   2.00661   2.01896   2.04611   2.07337
 Alpha virt. eigenvalues --    2.11174   2.13720   2.14712   2.16910   2.18352
 Alpha virt. eigenvalues --    2.19651   2.24502   2.25791   2.30424   2.32291
 Alpha virt. eigenvalues --    2.34928   2.35214   2.35792   2.36821   2.37816
 Alpha virt. eigenvalues --    2.38342   2.39793   2.40699   2.42200   2.43571
 Alpha virt. eigenvalues --    2.45926   2.46153   2.48998   2.53615   2.54153
 Alpha virt. eigenvalues --    2.57557   2.58145   2.59095   2.61733   2.63905
 Alpha virt. eigenvalues --    2.66654   2.69169   2.71718   2.78971   2.80760
 Alpha virt. eigenvalues --    2.84581   2.85673   2.88472   2.93096   2.93820
 Alpha virt. eigenvalues --    2.94833   2.97002   3.02574   3.05152   3.07016
 Alpha virt. eigenvalues --    3.08851   3.10566   3.12573   3.15172   3.17499
 Alpha virt. eigenvalues --    3.20113   3.21461   3.23114   3.24699   3.26227
 Alpha virt. eigenvalues --    3.26383   3.29086   3.31476   3.34313   3.46042
 Alpha virt. eigenvalues --    3.49175   3.57608   3.58414   3.62470   3.65491
 Alpha virt. eigenvalues --    3.69283   3.73533   3.78267   3.79367   3.82114
 Alpha virt. eigenvalues --    3.83210   3.86157   3.88633   3.94082   3.95286
 Alpha virt. eigenvalues --    4.47787   4.58312   4.67004   4.76492   4.83211
 Alpha virt. eigenvalues --    4.95129   5.00662   5.05767   5.16777
          Condensed to atoms (all electrons):
               1          2          3          4          5          6
     1  C    4.922740   0.405124   0.401708   0.405106   0.336745  -0.037538
     2  H    0.405124   0.561799  -0.029290  -0.028335  -0.037940   0.004225
     3  H    0.401708  -0.029290   0.586736  -0.028946  -0.041671  -0.002918
     4  H    0.405106  -0.028335  -0.028946   0.576936  -0.037376  -0.003185
     5  C    0.336745  -0.037940  -0.041671  -0.037376   4.986140   0.408945
     6  H   -0.037538   0.004225  -0.002918  -0.003185   0.408945   0.585237
     7  H   -0.039678  -0.002758   0.004341  -0.002818   0.402879  -0.028849
     8  C   -0.053184  -0.006407  -0.003715   0.004396   0.361937  -0.042173
     9  H   -0.005359   0.000399   0.002695  -0.000081  -0.043581  -0.000621
    10  C    0.004281  -0.000019  -0.000034  -0.000077  -0.061504  -0.002434
    11  H   -0.000104  -0.000003   0.000001   0.000002   0.004288  -0.000052
    12  H   -0.000139   0.000011   0.000002  -0.000000  -0.006020   0.000428
    13  C   -0.000074  -0.000006  -0.000001   0.000000  -0.001123  -0.001637
    14  H    0.000001  -0.000001   0.000007   0.000002   0.000368  -0.001848
    15  H    0.000002   0.000000  -0.000000  -0.000000  -0.000014   0.000091
    16  H   -0.000041   0.000000  -0.000000   0.000000  -0.000066   0.000336
    17  O   -0.001686   0.004276   0.000083   0.000124  -0.054470   0.002884
    18  C    0.000154  -0.000070   0.000047  -0.000003   0.003117  -0.000029
    19  O   -0.000062   0.000000  -0.000009  -0.000000   0.000479   0.000008
    20  C   -0.000024   0.000005  -0.000001  -0.000000  -0.000121   0.000004
    21  H    0.000001  -0.000000   0.000000  -0.000000  -0.000007  -0.000000
    22  H    0.000009   0.000182   0.000001  -0.000000  -0.000009   0.000000
    23  H    0.000000  -0.000001  -0.000000   0.000000   0.000002  -0.000000
               7          8          9         10         11         12
     1  C   -0.039678  -0.053184  -0.005359   0.004281  -0.000104  -0.000139
     2  H   -0.002758  -0.006407   0.000399  -0.000019  -0.000003   0.000011
     3  H    0.004341  -0.003715   0.002695  -0.000034   0.000001   0.000002
     4  H   -0.002818   0.004396  -0.000081  -0.000077   0.000002  -0.000000
     5  C    0.402879   0.361937  -0.043581  -0.061504   0.004288  -0.006020
     6  H   -0.028849  -0.042173  -0.000621  -0.002434  -0.000052   0.000428
     7  H    0.583552  -0.039635   0.004521  -0.004469  -0.000077   0.003347
     8  C   -0.039635   4.817411   0.416767   0.371295  -0.038880  -0.041971
     9  H    0.004521   0.416767   0.547309  -0.045810  -0.004084   0.004701
    10  C   -0.004469   0.371295  -0.045810   4.985670   0.414331   0.401837
    11  H   -0.000077  -0.038880  -0.004084   0.414331   0.547146  -0.029022
    12  H    0.003347  -0.041971   0.004701   0.401837  -0.029022   0.590309
    13  C    0.000336  -0.052153   0.000054   0.324101  -0.035972  -0.037467
    14  H    0.000336  -0.004129   0.000109  -0.038015   0.003929  -0.003662
    15  H   -0.000035   0.004203  -0.000135  -0.034082  -0.004140  -0.002478
    16  H    0.000044  -0.004090   0.002730  -0.041343  -0.002410   0.004339
    17  O   -0.000700   0.132514  -0.031965  -0.038925  -0.003615   0.000378
    18  C   -0.000202  -0.019290  -0.007397  -0.003039   0.002859   0.000107
    19  O   -0.000010  -0.003336   0.008524  -0.004264   0.004146   0.000100
    20  C   -0.000009   0.004149   0.000238  -0.000389   0.000083  -0.000024
    21  H    0.000001  -0.000236  -0.000000   0.000088  -0.000041  -0.000001
    22  H    0.000004  -0.000193  -0.000026   0.000005   0.000000   0.000001
    23  H    0.000000  -0.000116   0.000007   0.000010   0.000002   0.000000
              13         14         15         16         17         18
     1  C   -0.000074   0.000001   0.000002  -0.000041  -0.001686   0.000154
     2  H   -0.000006  -0.000001   0.000000   0.000000   0.004276  -0.000070
     3  H   -0.000001   0.000007  -0.000000  -0.000000   0.000083   0.000047
     4  H    0.000000   0.000002  -0.000000   0.000000   0.000124  -0.000003
     5  C   -0.001123   0.000368  -0.000014  -0.000066  -0.054470   0.003117
     6  H   -0.001637  -0.001848   0.000091   0.000336   0.002884  -0.000029
     7  H    0.000336   0.000336  -0.000035   0.000044  -0.000700  -0.000202
     8  C   -0.052153  -0.004129   0.004203  -0.004090   0.132514  -0.019290
     9  H    0.000054   0.000109  -0.000135   0.002730  -0.031965  -0.007397
    10  C    0.324101  -0.038015  -0.034082  -0.041343  -0.038925  -0.003039
    11  H   -0.035972   0.003929  -0.004140  -0.002410  -0.003615   0.002859
    12  H   -0.037467  -0.003662  -0.002478   0.004339   0.000378   0.000107
    13  C    4.941487   0.403222   0.404631   0.402593   0.002537   0.000038
    14  H    0.403222   0.586891  -0.029137  -0.031400  -0.000034  -0.000000
    15  H    0.404631  -0.029137   0.567091  -0.027917  -0.000045  -0.000003
    16  H    0.402593  -0.031400  -0.027917   0.578134  -0.000012  -0.000010
    17  O    0.002537  -0.000034  -0.000045  -0.000012   8.556728   0.254649
    18  C    0.000038  -0.000000  -0.000003  -0.000010   0.254649   4.159511
    19  O   -0.000048  -0.000003   0.000000   0.000018  -0.073991   0.562114
    20  C    0.000002  -0.000000  -0.000000  -0.000000  -0.093047   0.374603
    21  H   -0.000000   0.000000   0.000000  -0.000000   0.002345  -0.031500
    22  H    0.000000  -0.000000   0.000000   0.000000   0.002093  -0.030152
    23  H   -0.000000   0.000000   0.000000  -0.000000   0.003266  -0.038498
              19         20         21         22         23
     1  C   -0.000062  -0.000024   0.000001   0.000009   0.000000
     2  H    0.000000   0.000005  -0.000000   0.000182  -0.000001
     3  H   -0.000009  -0.000001   0.000000   0.000001  -0.000000
     4  H   -0.000000  -0.000000  -0.000000  -0.000000   0.000000
     5  C    0.000479  -0.000121  -0.000007  -0.000009   0.000002
     6  H    0.000008   0.000004  -0.000000   0.000000  -0.000000
     7  H   -0.000010  -0.000009   0.000001   0.000004   0.000000
     8  C   -0.003336   0.004149  -0.000236  -0.000193  -0.000116
     9  H    0.008524   0.000238  -0.000000  -0.000026   0.000007
    10  C   -0.004264  -0.000389   0.000088   0.000005   0.000010
    11  H    0.004146   0.000083  -0.000041   0.000000   0.000002
    12  H    0.000100  -0.000024  -0.000001   0.000001   0.000000
    13  C   -0.000048   0.000002  -0.000000   0.000000  -0.000000
    14  H   -0.000003  -0.000000   0.000000  -0.000000   0.000000
    15  H    0.000000  -0.000000   0.000000   0.000000   0.000000
    16  H    0.000018  -0.000000  -0.000000   0.000000  -0.000000
    17  O   -0.073991  -0.093047   0.002345   0.002093   0.003266
    18  C    0.562114   0.374603  -0.031500  -0.030152  -0.038498
    19  O    8.150250  -0.060377   0.001022   0.001062   0.003085
    20  C   -0.060377   5.004754   0.389988   0.388882   0.395323
    21  H    0.001022   0.389988   0.527898  -0.023457  -0.021288
    22  H    0.001062   0.388882  -0.023457   0.528301  -0.021252
    23  H    0.003085   0.395323  -0.021288  -0.021252   0.521484
 Mulliken charges:
               1
     1  C   -0.337982
     2  H    0.128808
     3  H    0.110963
     4  H    0.114257
     5  C   -0.220995
     6  H    0.119126
     7  H    0.119879
     8  C    0.196836
     9  H    0.151006
    10  C   -0.227214
    11  H    0.141615
    12  H    0.115223
    13  C   -0.350521
    14  H    0.113364
    15  H    0.121969
    16  H    0.119094
    17  O   -0.663386
    18  C    0.772994
    19  O   -0.588705
    20  C   -0.404039
    21  H    0.155188
    22  H    0.154548
    23  H    0.157975
 Sum of Mulliken charges =  -0.00000
 Mulliken charges with hydrogens summed into heavy atoms:
               1
     1  C    0.016045
     5  C    0.018010
     8  C    0.347842
    10  C    0.029624
    13  C    0.003907
    17  O   -0.663386
    18  C    0.772994
    19  O   -0.588705
    20  C    0.063671
 Electronic spatial extent (au):  <R**2>=           1537.0003
 Charge=             -0.0000 electrons
 Dipole moment (field-independent basis, Debye):
    X=              0.4351    Y=             -1.1767    Z=             -1.5674  Tot=              2.0076
 Quadrupole moment (field-independent basis, Debye-Ang):
   XX=            -51.6637   YY=            -58.5571   ZZ=            -59.3860
   XY=              2.5092   XZ=              3.9800   YZ=             -3.3493
 Traceless Quadrupole moment (field-independent basis, Debye-Ang):
   XX=              4.8719   YY=             -2.0215   ZZ=             -2.8504
   XY=              2.5092   XZ=              3.9800   YZ=             -3.3493
 Octapole moment (field-independent basis, Debye-Ang**2):
  XXX=            -27.9912  YYY=              2.1311  ZZZ=             -1.7780  XYY=              0.8787
  XXY=             -4.4183  XXZ=             -7.8737  XZZ=              0.9708  YZZ=             -1.8435
  YYZ=             -4.0774  XYZ=              5.3097
 Hexadecapole moment (field-independent basis, Debye-Ang**3):
 XXXX=          -1135.5077 YYYY=           -697.4353 ZZZZ=           -177.4707 XXXY=             -5.4958
 XXXZ=              9.2623 YYYX=              2.3972 YYYZ=              2.6029 ZZZX=              5.5406
 ZZZY=              0.1623 XXYY=           -314.0938 XXZZ=           -233.9060 YYZZ=           -152.1165
 XXYZ=             -7.0349 YYXZ=              2.5649 ZZXY=              3.0595
 N-N= 4.844624971360D+02 E-N=-1.958958445966D+03  KE= 4.221815582013D+02
 No NMR shielding tensors so no spin-rotation constants.
 Leave Link  601 at Sun Sep 19 20:35:02 2021, MaxMem=   524288000 cpu:               0.2 elap:               0.4
 (Enter /opt/gaussian/g16_legacy/l9999.exe)
 1\1\GINC-TRUENO92\FOpt\RMP2-FC\6-31G(d,p)\C7H14O2\JRAMOS\19-Sep-2021\0
 \\#p opt mp2/6-31g(d,p)\\Conformer number 007. Energy MM = -3.003 kcal
 /mol\\0,1\C,-1.838459599,0.7720449914,0.2951847121\H,-1.4622620098,-0.
 1862187326,0.6457602361\H,-1.3295731772,1.0160494675,-0.6377808963\H,-
 2.900790813,0.6654265644,0.0802156027\C,-1.5994522098,1.857221723,1.33
 83785251\H,-2.0221998876,2.801442993,0.9909266898\H,-2.1070519082,1.60
 38926627,2.2724771972\C,-0.1269491154,2.0778087057,1.6346268652\H,0.41
 40408063,2.3193907076,0.7161882822\C,0.1596618326,3.1392306155,2.68747
 95306\H,1.2324017219,3.1270184751,2.8828094696\H,-0.3453417187,2.85143
 35932,3.6125052093\C,-0.2605462941,4.5433525827,2.2629582877\H,-1.3409
 799067,4.6317273849,2.1632003363\H,0.0637654066,5.2766908405,2.9996829
 172\H,0.1915060786,4.8098900485,1.3072665145\O,0.3710139086,0.79763375
 86,2.1194723719\C,1.6891279155,0.5500373531,1.9005589827\O,2.449969562
 1,1.3219479797,1.3412166482\C,2.0590615129,-0.8041224422,2.4435891587\
 H,1.8437493301,-0.8425655658,3.5094466514\H,1.4606800341,-1.5710955155
 ,1.9559563366\H,3.1141285304,-0.985438191,2.2680803714\\Version=EM64L-
 G16RevA.03\State=1-A\HF=-423.000716\MP2=-424.3604352\RMSD=8.363e-09\RM
 SF=2.499e-06\Dipole=-0.5755578,-0.1911837,0.2807209\PG=C01 [X(C7H14O2)
 ]\\@


 O WAD SOME POWER THE GIFTIE GIE US       
 TO SEE OURSELS AS OTHERS SEE US.....     
 IT WOULD FRAE MONIE A BLUNDER FREE US,   
                     AND FOOLISH NOTION...
 WHAT AIRS IN DRESS AND GAIT WAD LEA'E US,
                     AND EV'N DEVOTION....
                                          
              (ROBERT BURNS 'TO A LOUSE') 
 Job cpu time:       0 days  0 hours 32 minutes 19.9 seconds.
 Elapsed time:       0 days  0 hours 32 minutes 25.9 seconds.
 File lengths (MBytes):  RWF=     22 Int=      0 D2E=      0 Chk=      6 Scr=      1
 Normal termination of Gaussian 16 at Sun Sep 19 20:35:03 2021.
