 Entering Gaussian System, Link 0=/opt/gaussian/g16_legacy/g16
 Input=07-EVA_021_gaussian.com
 Output=07-EVA_021_gaussian.log
 Initial command:
 /opt/gaussian/g16_legacy/l1.exe "/scratch-local/jramos/2661768/Gau-9470.inp" -scrdir="/scratch-local/jramos/2661768/"
 Entering Link 1 = /opt/gaussian/g16_legacy/l1.exe PID=      9471.
  
 Copyright (c) 1988,1990,1992,1993,1995,1998,2003,2009,2016,
            Gaussian, Inc.  All Rights Reserved.
  
 This is part of the Gaussian(R) 16 program.  It is based on
 the Gaussian(R) 09 system (copyright 2009, Gaussian, Inc.),
 the Gaussian(R) 03 system (copyright 2003, Gaussian, Inc.),
 the Gaussian(R) 98 system (copyright 1998, Gaussian, Inc.),
 the Gaussian(R) 94 system (copyright 1995, Gaussian, Inc.),
 the Gaussian 92(TM) system (copyright 1992, Gaussian, Inc.),
 the Gaussian 90(TM) system (copyright 1990, Gaussian, Inc.),
 the Gaussian 88(TM) system (copyright 1988, Gaussian, Inc.),
 the Gaussian 86(TM) system (copyright 1986, Carnegie Mellon
 University), and the Gaussian 82(TM) system (copyright 1983,
 Carnegie Mellon University). Gaussian is a federally registered
 trademark of Gaussian, Inc.
  
 This software contains proprietary and confidential information,
 including trade secrets, belonging to Gaussian, Inc.
  
 This software is provided under written license and may be
 used, copied, transmitted, or stored only in accord with that
 written license.
  
 The following legend is applicable only to US Government
 contracts under FAR:
  
                    RESTRICTED RIGHTS LEGEND
  
 Use, reproduction and disclosure by the US Government is
 subject to restrictions as set forth in subparagraphs (a)
 and (c) of the Commercial Computer Software - Restricted
 Rights clause in FAR 52.227-19.
  
 Gaussian, Inc.
 340 Quinnipiac St., Bldg. 40, Wallingford CT 06492
  
  
 ---------------------------------------------------------------
 Warning -- This program may not be used in any manner that
 competes with the business of Gaussian, Inc. or will provide
 assistance to any competitor of Gaussian, Inc.  The licensee
 of this program is prohibited from giving any competitor of
 Gaussian, Inc. access to this program.  By using this program,
 the user acknowledges that Gaussian, Inc. is engaged in the
 business of creating and licensing software in the field of
 computational chemistry and represents and warrants to the
 licensee that it is not a competitor of Gaussian, Inc. and that
 it will not use this program in any manner prohibited above.
 ---------------------------------------------------------------
  

 Cite this work as:
 Gaussian 16, Revision A.03,
 M. J. Frisch, G. W. Trucks, H. B. Schlegel, G. E. Scuseria, 
 M. A. Robb, J. R. Cheeseman, G. Scalmani, V. Barone, 
 G. A. Petersson, H. Nakatsuji, X. Li, M. Caricato, A. V. Marenich, 
 J. Bloino, B. G. Janesko, R. Gomperts, B. Mennucci, H. P. Hratchian, 
 J. V. Ortiz, A. F. Izmaylov, J. L. Sonnenberg, D. Williams-Young, 
 F. Ding, F. Lipparini, F. Egidi, J. Goings, B. Peng, A. Petrone, 
 T. Henderson, D. Ranasinghe, V. G. Zakrzewski, J. Gao, N. Rega, 
 G. Zheng, W. Liang, M. Hada, M. Ehara, K. Toyota, R. Fukuda, 
 J. Hasegawa, M. Ishida, T. Nakajima, Y. Honda, O. Kitao, H. Nakai, 
 T. Vreven, K. Throssell, J. A. Montgomery, Jr., J. E. Peralta, 
 F. Ogliaro, M. J. Bearpark, J. J. Heyd, E. N. Brothers, K. N. Kudin, 
 V. N. Staroverov, T. A. Keith, R. Kobayashi, J. Normand, 
 K. Raghavachari, A. P. Rendell, J. C. Burant, S. S. Iyengar, 
 J. Tomasi, M. Cossi, J. M. Millam, M. Klene, C. Adamo, R. Cammi, 
 J. W. Ochterski, R. L. Martin, K. Morokuma, O. Farkas, 
 J. B. Foresman, and D. J. Fox, Gaussian, Inc., Wallingford CT, 2016.
 
 ******************************************
 Gaussian 16:  EM64L-G16RevA.03 25-Dec-2016
                19-Sep-2021 
 ******************************************
 %chk=07-EVA_021_gaussian.chk
 %nproc=1
 Will use up to    1 processors via shared memory.
 %mem=4000Mb
 ---------------------
 #p opt mp2/6-31g(d,p)
 ---------------------
 1/18=20,19=15,38=1/1,3;
 2/9=110,12=2,17=6,18=5,40=1/2;
 3/5=1,6=6,7=101,11=9,25=1,30=1,71=1/1,2,3;
 4//1;
 5/5=2,38=5/2;
 8/6=4,10=2/1;
 9/15=2,16=-3/6;
 10/5=1/2;
 6/7=2,8=2,9=2,10=2/1;
 7/12=2/1,2,3,16;
 1/18=20,19=15/3(2);
 2/9=110/2;
 99//99;
 2/9=110/2;
 3/5=1,6=6,7=101,11=9,25=1,30=1,71=1/1,2,3;
 4/5=5,16=3,69=1/1;
 5/5=2,38=5/2;
 8/6=4,10=2/1;
 9/15=2,16=-3/6;
 10/5=1/2;
 7/12=2/1,2,3,16;
 1/18=20,19=15/3(-8);
 2/9=110/2;
 6/7=2,8=2,9=2,10=2/1;
 99//99;
 Leave Link    1 at Sun Sep 19 20:02:34 2021, MaxMem=   524288000 cpu:               0.0 elap:               0.4
 (Enter /opt/gaussian/g16_legacy/l101.exe)
 -------------------------------------------------
 Conformer number 021. Energy MM = -3.295 kcal/mol
 -------------------------------------------------
 Symbolic Z-matrix:
 Charge =  0 Multiplicity = 1
 C                    -1.898     0.88      0.1547 
 H                    -1.3524   -0.0663    0.0992 
 H                    -1.6887    1.4562   -0.7528 
 H                    -2.9695    0.6524    0.1662 
 C                    -1.5187    1.6682    1.402 
 H                    -2.1816    2.5377    1.4693 
 H                    -1.7236    1.0448    2.278 
 C                    -0.0545    2.1334    1.3832 
 H                     0.1008    2.6982    0.4559 
 C                     0.3231    3.0596    2.5532 
 H                     1.416     3.1304    2.6169 
 H                    -0.0099    2.6305    3.5046 
 C                    -0.2484    4.4614    2.4208 
 H                    -1.3394    4.4568    2.4573 
 H                     0.1136    5.0883    3.2435 
 H                     0.0682    4.9249    1.4811 
 O                     0.8971    1.0442    1.2942 
 C                     1.0745    0.2219    2.3624 
 O                     0.3445    0.1398    3.3373 
 C                     2.3655   -0.5311    2.2288 
 H                     2.1712   -1.6046    2.2454 
 H                     2.8717   -0.2784    1.2928 
 H                     3.0237   -0.2466    3.0555 
 
 ITRead=  0  0  0  0  0  0  0  0  0  0  0  0  0  0  0  0  0  0  0  0
 ITRead=  0  0  0
 MicOpt= -1 -1 -1 -1 -1 -1 -1 -1 -1 -1 -1 -1 -1 -1 -1 -1 -1 -1 -1 -1
 MicOpt= -1 -1 -1
 NAtoms=     23 NQM=       23 NQMF=       0 NMMI=      0 NMMIF=      0
                NMic=       0 NMicF=      0.
                    Isotopes and Nuclear Properties:
 (Nuclear quadrupole moments (NQMom) in fm**2, nuclear magnetic moments (NMagM)
  in nuclear magnetons)

  Atom         1           2           3           4           5           6           7           8           9          10
 IAtWgt=          12           1           1           1          12           1           1          12           1          12
 AtmWgt=  12.0000000   1.0078250   1.0078250   1.0078250  12.0000000   1.0078250   1.0078250  12.0000000   1.0078250  12.0000000
 NucSpn=           0           1           1           1           0           1           1           0           1           0
 AtZEff=  -0.0000000  -0.0000000  -0.0000000  -0.0000000  -0.0000000  -0.0000000  -0.0000000  -0.0000000  -0.0000000  -0.0000000
 NQMom=    0.0000000   0.0000000   0.0000000   0.0000000   0.0000000   0.0000000   0.0000000   0.0000000   0.0000000   0.0000000
 NMagM=    0.0000000   2.7928460   2.7928460   2.7928460   0.0000000   2.7928460   2.7928460   0.0000000   2.7928460   0.0000000
 AtZNuc=   6.0000000   1.0000000   1.0000000   1.0000000   6.0000000   1.0000000   1.0000000   6.0000000   1.0000000   6.0000000

  Atom        11          12          13          14          15          16          17          18          19          20
 IAtWgt=           1           1          12           1           1           1          16          12          16          12
 AtmWgt=   1.0078250   1.0078250  12.0000000   1.0078250   1.0078250   1.0078250  15.9949146  12.0000000  15.9949146  12.0000000
 NucSpn=           1           1           0           1           1           1           0           0           0           0
 AtZEff=  -0.0000000  -0.0000000  -0.0000000  -0.0000000  -0.0000000  -0.0000000  -0.0000000  -0.0000000  -0.0000000  -0.0000000
 NQMom=    0.0000000   0.0000000   0.0000000   0.0000000   0.0000000   0.0000000   0.0000000   0.0000000   0.0000000   0.0000000
 NMagM=    2.7928460   2.7928460   0.0000000   2.7928460   2.7928460   2.7928460   0.0000000   0.0000000   0.0000000   0.0000000
 AtZNuc=   1.0000000   1.0000000   6.0000000   1.0000000   1.0000000   1.0000000   8.0000000   6.0000000   8.0000000   6.0000000

  Atom        21          22          23
 IAtWgt=           1           1           1
 AtmWgt=   1.0078250   1.0078250   1.0078250
 NucSpn=           1           1           1
 AtZEff=  -0.0000000  -0.0000000  -0.0000000
 NQMom=    0.0000000   0.0000000   0.0000000
 NMagM=    2.7928460   2.7928460   2.7928460
 AtZNuc=   1.0000000   1.0000000   1.0000000
 Leave Link  101 at Sun Sep 19 20:02:34 2021, MaxMem=   524288000 cpu:               0.3 elap:               0.5
 (Enter /opt/gaussian/g16_legacy/l103.exe)

 GradGradGradGradGradGradGradGradGradGradGradGradGradGradGradGradGradGrad
 Berny optimization.
 Initialization pass.
                           ----------------------------
                           !    Initial Parameters    !
                           ! (Angstroms and Degrees)  !
 --------------------------                            --------------------------
 ! Name  Definition              Value          Derivative Info.                !
 --------------------------------------------------------------------------------
 ! R1    R(1,2)                  1.0937         estimate D2E/DX2                !
 ! R2    R(1,3)                  1.0952         estimate D2E/DX2                !
 ! R3    R(1,4)                  1.0955         estimate D2E/DX2                !
 ! R4    R(1,5)                  1.5234         estimate D2E/DX2                !
 ! R5    R(5,6)                  1.0954         estimate D2E/DX2                !
 ! R6    R(5,7)                  1.0945         estimate D2E/DX2                !
 ! R7    R(5,8)                  1.5364         estimate D2E/DX2                !
 ! R8    R(8,9)                  1.0968         estimate D2E/DX2                !
 ! R9    R(8,10)                 1.5393         estimate D2E/DX2                !
 ! R10   R(8,17)                 1.4491         estimate D2E/DX2                !
 ! R11   R(10,11)                1.097          estimate D2E/DX2                !
 ! R12   R(10,12)                1.0955         estimate D2E/DX2                !
 ! R13   R(10,13)                1.5196         estimate D2E/DX2                !
 ! R14   R(13,14)                1.0916         estimate D2E/DX2                !
 ! R15   R(13,15)                1.0958         estimate D2E/DX2                !
 ! R16   R(13,16)                1.0946         estimate D2E/DX2                !
 ! R17   R(17,18)                1.3597         estimate D2E/DX2                !
 ! R18   R(18,19)                1.2207         estimate D2E/DX2                !
 ! R19   R(18,20)                1.5005         estimate D2E/DX2                !
 ! R20   R(20,21)                1.0911         estimate D2E/DX2                !
 ! R21   R(20,22)                1.0937         estimate D2E/DX2                !
 ! R22   R(20,23)                1.0943         estimate D2E/DX2                !
 ! A1    A(2,1,3)              108.5317         estimate D2E/DX2                !
 ! A2    A(2,1,4)              107.9811         estimate D2E/DX2                !
 ! A3    A(2,1,5)              111.4067         estimate D2E/DX2                !
 ! A4    A(3,1,4)              107.7548         estimate D2E/DX2                !
 ! A5    A(3,1,5)              111.0173         estimate D2E/DX2                !
 ! A6    A(4,1,5)              110.0248         estimate D2E/DX2                !
 ! A7    A(1,5,6)              108.0774         estimate D2E/DX2                !
 ! A8    A(1,5,7)              108.2995         estimate D2E/DX2                !
 ! A9    A(1,5,8)              112.5756         estimate D2E/DX2                !
 ! A10   A(6,5,7)              106.8358         estimate D2E/DX2                !
 ! A11   A(6,5,8)              109.7012         estimate D2E/DX2                !
 ! A12   A(7,5,8)              111.1399         estimate D2E/DX2                !
 ! A13   A(5,8,9)              107.5293         estimate D2E/DX2                !
 ! A14   A(5,8,10)             113.9955         estimate D2E/DX2                !
 ! A15   A(5,8,17)             113.5148         estimate D2E/DX2                !
 ! A16   A(9,8,10)             107.3401         estimate D2E/DX2                !
 ! A17   A(9,8,17)             104.0135         estimate D2E/DX2                !
 ! A18   A(10,8,17)            109.7472         estimate D2E/DX2                !
 ! A19   A(8,10,11)            109.1083         estimate D2E/DX2                !
 ! A20   A(8,10,12)            110.4786         estimate D2E/DX2                !
 ! A21   A(8,10,13)            113.365          estimate D2E/DX2                !
 ! A22   A(11,10,12)           106.1211         estimate D2E/DX2                !
 ! A23   A(11,10,13)           108.6745         estimate D2E/DX2                !
 ! A24   A(12,10,13)           108.8245         estimate D2E/DX2                !
 ! A25   A(10,13,14)           111.6584         estimate D2E/DX2                !
 ! A26   A(10,13,15)           109.7596         estimate D2E/DX2                !
 ! A27   A(10,13,16)           110.8942         estimate D2E/DX2                !
 ! A28   A(14,13,15)           107.9061         estimate D2E/DX2                !
 ! A29   A(14,13,16)           108.6369         estimate D2E/DX2                !
 ! A30   A(15,13,16)           107.8619         estimate D2E/DX2                !
 ! A31   A(8,17,18)            119.4729         estimate D2E/DX2                !
 ! A32   A(17,18,19)           126.1638         estimate D2E/DX2                !
 ! A33   A(17,18,20)           110.2307         estimate D2E/DX2                !
 ! A34   A(19,18,20)           123.4962         estimate D2E/DX2                !
 ! A35   A(18,20,21)           109.8267         estimate D2E/DX2                !
 ! A36   A(18,20,22)           111.0055         estimate D2E/DX2                !
 ! A37   A(18,20,23)           108.6479         estimate D2E/DX2                !
 ! A38   A(21,20,22)           108.8306         estimate D2E/DX2                !
 ! A39   A(21,20,23)           110.573          estimate D2E/DX2                !
 ! A40   A(22,20,23)           107.9424         estimate D2E/DX2                !
 ! D1    D(2,1,5,6)           -173.013          estimate D2E/DX2                !
 ! D2    D(2,1,5,7)            -57.6188         estimate D2E/DX2                !
 ! D3    D(2,1,5,8)             65.671          estimate D2E/DX2                !
 ! D4    D(3,1,5,6)             65.9004         estimate D2E/DX2                !
 ! D5    D(3,1,5,7)           -178.7054         estimate D2E/DX2                !
 ! D6    D(3,1,5,8)            -55.4156         estimate D2E/DX2                !
 ! D7    D(4,1,5,6)            -53.291          estimate D2E/DX2                !
 ! D8    D(4,1,5,7)             62.1033         estimate D2E/DX2                !
 ! D9    D(4,1,5,8)           -174.6069         estimate D2E/DX2                !
 ! D10   D(1,5,8,9)             54.9109         estimate D2E/DX2                !
 ! D11   D(1,5,8,10)           173.7744         estimate D2E/DX2                !
 ! D12   D(1,5,8,17)           -59.5694         estimate D2E/DX2                !
 ! D13   D(6,5,8,9)            -65.4749         estimate D2E/DX2                !
 ! D14   D(6,5,8,10)            53.3887         estimate D2E/DX2                !
 ! D15   D(6,5,8,17)          -179.9551         estimate D2E/DX2                !
 ! D16   D(7,5,8,9)            176.6017         estimate D2E/DX2                !
 ! D17   D(7,5,8,10)           -64.5348         estimate D2E/DX2                !
 ! D18   D(7,5,8,17)            62.1215         estimate D2E/DX2                !
 ! D19   D(5,8,10,11)          165.3277         estimate D2E/DX2                !
 ! D20   D(5,8,10,12)           49.0281         estimate D2E/DX2                !
 ! D21   D(5,8,10,13)          -73.4205         estimate D2E/DX2                !
 ! D22   D(9,8,10,11)          -75.7012         estimate D2E/DX2                !
 ! D23   D(9,8,10,12)          167.9992         estimate D2E/DX2                !
 ! D24   D(9,8,10,13)           45.5506         estimate D2E/DX2                !
 ! D25   D(17,8,10,11)          36.7327         estimate D2E/DX2                !
 ! D26   D(17,8,10,12)         -79.5669         estimate D2E/DX2                !
 ! D27   D(17,8,10,13)         157.9844         estimate D2E/DX2                !
 ! D28   D(5,8,17,18)          -70.6355         estimate D2E/DX2                !
 ! D29   D(9,8,17,18)          172.8039         estimate D2E/DX2                !
 ! D30   D(10,8,17,18)          58.2233         estimate D2E/DX2                !
 ! D31   D(8,10,13,14)          64.3991         estimate D2E/DX2                !
 ! D32   D(8,10,13,15)        -175.9864         estimate D2E/DX2                !
 ! D33   D(8,10,13,16)         -56.9091         estimate D2E/DX2                !
 ! D34   D(11,10,13,14)       -174.1057         estimate D2E/DX2                !
 ! D35   D(11,10,13,15)        -54.4911         estimate D2E/DX2                !
 ! D36   D(11,10,13,16)         64.5862         estimate D2E/DX2                !
 ! D37   D(12,10,13,14)        -58.9625         estimate D2E/DX2                !
 ! D38   D(12,10,13,15)         60.6521         estimate D2E/DX2                !
 ! D39   D(12,10,13,16)        179.7294         estimate D2E/DX2                !
 ! D40   D(8,17,18,19)          14.1427         estimate D2E/DX2                !
 ! D41   D(8,17,18,20)        -162.1443         estimate D2E/DX2                !
 ! D42   D(17,18,20,21)       -121.902          estimate D2E/DX2                !
 ! D43   D(17,18,20,22)         -1.5059         estimate D2E/DX2                !
 ! D44   D(17,18,20,23)        117.0394         estimate D2E/DX2                !
 ! D45   D(19,18,20,21)         61.6925         estimate D2E/DX2                !
 ! D46   D(19,18,20,22)       -177.9114         estimate D2E/DX2                !
 ! D47   D(19,18,20,23)        -59.3661         estimate D2E/DX2                !
 --------------------------------------------------------------------------------
 Trust Radius=3.00D-01 FncErr=1.00D-07 GrdErr=1.00D-07 EigMax=2.50D+02 EigMin=1.00D-04
 Number of steps in this run=    119 maximum allowed number of steps=    138.
 GradGradGradGradGradGradGradGradGradGradGradGradGradGradGradGradGradGrad

 Leave Link  103 at Sun Sep 19 20:02:34 2021, MaxMem=   524288000 cpu:               0.0 elap:               0.1
 (Enter /opt/gaussian/g16_legacy/l202.exe)
                          Input orientation:                          
 ---------------------------------------------------------------------
 Center     Atomic      Atomic             Coordinates (Angstroms)
 Number     Number       Type             X           Y           Z
 ---------------------------------------------------------------------
      1          6           0       -1.898000    0.880000    0.154700
      2          1           0       -1.352400   -0.066300    0.099200
      3          1           0       -1.688700    1.456200   -0.752800
      4          1           0       -2.969500    0.652400    0.166200
      5          6           0       -1.518700    1.668200    1.402000
      6          1           0       -2.181600    2.537700    1.469300
      7          1           0       -1.723600    1.044800    2.278000
      8          6           0       -0.054500    2.133400    1.383200
      9          1           0        0.100800    2.698200    0.455900
     10          6           0        0.323100    3.059600    2.553200
     11          1           0        1.416000    3.130400    2.616900
     12          1           0       -0.009900    2.630500    3.504600
     13          6           0       -0.248400    4.461400    2.420800
     14          1           0       -1.339400    4.456800    2.457300
     15          1           0        0.113600    5.088300    3.243500
     16          1           0        0.068200    4.924900    1.481100
     17          8           0        0.897100    1.044200    1.294200
     18          6           0        1.074500    0.221900    2.362400
     19          8           0        0.344500    0.139800    3.337300
     20          6           0        2.365500   -0.531100    2.228800
     21          1           0        2.171200   -1.604600    2.245400
     22          1           0        2.871700   -0.278400    1.292800
     23          1           0        3.023700   -0.246600    3.055500
 ---------------------------------------------------------------------
                    Distance matrix (angstroms):
                    1          2          3          4          5
     1  C    0.000000
     2  H    1.093729   0.000000
     3  H    1.095157   1.776797   0.000000
     4  H    1.095466   1.770884   1.769493   0.000000
     5  C    1.523445   2.175646   2.171867   2.159600   0.000000
     6  H    2.134613   3.057051   2.519984   2.423471   1.095443
     7  H    2.136815   2.473763   3.058793   2.483132   1.094526
     8  C    2.545332   2.858650   2.773392   3.488793   1.536439
     9  H    2.718782   3.143483   2.491150   3.700806   2.139810
    10  C    3.928962   4.312849   4.189017   4.725843   2.579435
    11  H    4.702055   4.921559   4.878215   5.601698   3.496638
    12  H    4.225045   4.546624   4.724702   4.880269   2.761055
    13  C    4.547836   5.206603   4.601894   5.195776   3.233200
    14  H    4.290396   5.100906   4.407987   4.730732   2.986988
    15  H    5.594373   6.213347   5.693053   6.217113   4.213385
    16  H    4.688976   5.370273   4.484293   5.404705   3.623617
    17  O    3.022913   2.778756   3.323600   4.046787   2.497416
    18  C    3.760690   3.330912   4.343183   4.621965   3.120711
    19  O    3.963035   3.661590   4.753497   4.615326   3.090778
    20  C    4.946769   4.309758   5.410715   5.840994   4.539552
    21  H    5.206021   4.403215   5.766847   5.986979   5.003789
    22  H    5.038571   4.394620   5.290611   6.021232   4.803831
    23  H    5.822972   5.284172   6.293599   6.713770   5.199415
                    6          7          8          9         10
     6  H    0.000000
     7  H    1.758553   0.000000
     8  C    2.166893   2.184402   0.000000
     9  H    2.502417   3.063040   1.096815   0.000000
    10  C    2.778622   2.885158   1.539262   2.139788   0.000000
    11  H    3.822434   3.784398   2.162960   2.566412   1.097042
    12  H    2.977808   2.637377   2.179320   3.051460   1.095526
    13  C    2.888466   3.724213   2.556129   2.663015   1.519600
    14  H    2.316979   3.438241   2.864061   3.028606   2.173769
    15  H    3.862808   4.545040   3.495770   3.671983   2.153144
    16  H    3.280314   4.347502   2.795910   2.451589   2.166499
    17  O    3.426309   2.799273   1.449076   2.018058   2.444666
    18  C    4.094233   2.917816   2.426377   3.273362   2.941691
    19  O    3.952282   2.493628   2.819955   3.860993   3.023326
    20  C    5.538095   4.382536   3.697431   4.324398   4.143641
    21  H    6.058700   4.710610   4.435062   5.099309   5.026428
    22  H    5.787695   4.882444   3.793099   4.151920   4.384771
    23  H    6.112569   4.980871   4.235127   4.896234   4.298430
                   11         12         13         14         15
    11  H    0.000000
    12  H    1.752456   0.000000
    13  C    2.140150   2.140958   0.000000
    14  H    3.062195   2.489936   1.091620   0.000000
    15  H    2.433566   2.474713   1.095848   1.768647   0.000000
    16  H    2.515320   3.060216   1.094579   1.775788   1.770541
    17  O    2.524089   2.867903   3.776063   4.242708   4.557235
    18  C    2.939518   2.877829   4.441490   4.875479   5.038007
    19  O    3.257419   2.521344   4.457323   4.716610   4.954772
    20  C    3.802467   4.155226   5.638652   6.217527   6.138267
    21  H    4.809217   4.927358   6.533115   7.007837   7.072823
    22  H    3.936016   4.653749   5.785595   6.442945   6.341436
    23  H    3.765793   4.205012   5.768427   6.443327   6.079900
                   16         17         18         19         20
    16  H    0.000000
    17  O    3.972636   0.000000
    18  C    4.889534   1.359669   0.000000
    19  O    5.139942   2.301644   1.220684   0.000000
    20  C    5.966957   2.347604   1.500513   2.400692   0.000000
    21  H    6.902256   3.089378   2.133669   2.751729   1.091068
    22  H    5.913493   2.376619   2.150412   3.277440   1.093706
    23  H    6.161017   3.048076   2.121146   2.721549   1.094349
                   21         22         23
    21  H    0.000000
    22  H    1.776782   0.000000
    23  H    1.796436   1.769527   0.000000
 Stoichiometry    C7H14O2
 Framework group  C1[X(C7H14O2)]
 Deg. of freedom    63
 Full point group                 C1      NOp   1
 Largest Abelian subgroup         C1      NOp   1
 Largest concise Abelian subgroup C1      NOp   1
                         Standard orientation:                         
 ---------------------------------------------------------------------
 Center     Atomic      Atomic             Coordinates (Angstroms)
 Number     Number       Type             X           Y           Z
 ---------------------------------------------------------------------
      1          6           0        0.918217    2.564007   -0.150184
      2          1           0       -0.149323    2.772485   -0.264807
      3          1           0        1.396234    2.645804   -1.132110
      4          1           0        1.346597    3.338410    0.495445
      5          6           0        1.153696    1.187748    0.459197
      6          1           0        2.224739    1.086035    0.665394
      7          1           0        0.639713    1.146881    1.424670
      8          6           0        0.693126    0.047947   -0.462419
      9          1           0        1.195779    0.180451   -1.428227
     10          6           0        1.052223   -1.357426    0.052658
     11          1           0        0.474089   -2.103441   -0.506559
     12          1           0        0.757248   -1.468033    1.101912
     13          6           0        2.529543   -1.688210   -0.078847
     14          1           0        3.145280   -1.036769    0.544151
     15          1           0        2.707136   -2.722489    0.236763
     16          1           0        2.859938   -1.592858   -1.118006
     17          8           0       -0.717263    0.103634   -0.790320
     18          6           0       -1.638806   -0.174977    0.169802
     19          8           0       -1.430004   -0.242911    1.370575
     20          6           0       -2.965865   -0.483816   -0.458747
     21          1           0       -3.722843    0.206316   -0.083073
     22          1           0       -2.914611   -0.393053   -1.547474
     23          1           0       -3.234647   -1.517169   -0.218878
 ---------------------------------------------------------------------
 Rotational constants (GHZ):           1.9050343           1.1738871           0.8776800
 Leave Link  202 at Sun Sep 19 20:02:35 2021, MaxMem=   524288000 cpu:               0.1 elap:               0.2
 (Enter /opt/gaussian/g16_legacy/l301.exe)
 Standard basis: 6-31G(d,p) (6D, 7F)
 Ernie: Thresh=  0.10000D-02 Tol=  0.10000D-05 Strict=F.
 There are   205 symmetry adapted cartesian basis functions of A   symmetry.
 There are   205 symmetry adapted basis functions of A   symmetry.
   205 basis functions,   350 primitive gaussians,   205 cartesian basis functions
    36 alpha electrons       36 beta electrons
       nuclear repulsion energy       487.1248549386 Hartrees.
 IExCor=    0 DFT=F Ex=HF Corr=None ExCW=0 ScaHFX=  1.000000
 ScaDFX=  1.000000  1.000000  1.000000  1.000000 ScalE2=  1.000000  1.000000
 IRadAn=      5 IRanWt=     -1 IRanGd=            0 ICorTp=0 IEmpDi=  4
 NAtoms=   23 NActive=   23 NUniq=   23 SFac= 1.00D+00 NAtFMM=   60 NAOKFM=F Big=F
 Integral buffers will be    131072 words long.
 Raffenetti 1 integral format.
 Two-electron integral symmetry is turned on.
 Leave Link  301 at Sun Sep 19 20:02:35 2021, MaxMem=   524288000 cpu:               0.1 elap:               0.3
 (Enter /opt/gaussian/g16_legacy/l302.exe)
 NPDir=0 NMtPBC=     1 NCelOv=     1 NCel=       1 NClECP=     1 NCelD=      1
         NCelK=      1 NCelE2=     1 NClLst=     1 CellRange=     0.0.
 One-electron integrals computed using PRISM.
 One-electron integral symmetry used in STVInt
 NBasis=   205 RedAO= T EigKep=  3.09D-03  NBF=   205
 NBsUse=   205 1.00D-06 EigRej= -1.00D+00 NBFU=   205
 Leave Link  302 at Sun Sep 19 20:02:36 2021, MaxMem=   524288000 cpu:               0.3 elap:               0.5
 (Enter /opt/gaussian/g16_legacy/l303.exe)
 DipDrv:  MaxL=1.
 Leave Link  303 at Sun Sep 19 20:02:36 2021, MaxMem=   524288000 cpu:               0.1 elap:               0.2
 (Enter /opt/gaussian/g16_legacy/l401.exe)
 ExpMin= 1.61D-01 ExpMax= 5.48D+03 ExpMxC= 8.25D+02 IAcc=3 IRadAn=         5 AccDes= 0.00D+00
 Harris functional with IExCor=  205 and IRadAn=       5 diagonalized for initial guess.
 HarFok:  IExCor=  205 AccDes= 0.00D+00 IRadAn=         5 IDoV= 1 UseB2=F ITyADJ=14
 ICtDFT=  3500011 ScaDFX=  1.000000  1.000000  1.000000  1.000000
 FoFCou: FMM=F IPFlag=           0 FMFlag=      100000 FMFlg1=           0
         NFxFlg=           0 DoJE=T BraDBF=F KetDBF=T FulRan=T
         wScrn=  0.000000 ICntrl=       500 IOpCl=  0 I1Cent=   200000004 NGrid=           0
         NMat0=    1 NMatS0=      1 NMatT0=    0 NMatD0=    1 NMtDS0=    0 NMtDT0=    0
 Petite list used in FoFCou.
 Harris En= -423.715927695784    
 JPrj=0 DoOrth=F DoCkMO=F.
 Leave Link  401 at Sun Sep 19 20:02:44 2021, MaxMem=   524288000 cpu:               8.1 elap:               8.5
 (Enter /opt/gaussian/g16_legacy/l502.exe)
 Keep R1 ints in memory in canonical form, NReq=227304434.
 FoFCou: FMM=F IPFlag=           0 FMFlag=           0 FMFlg1=           0
         NFxFlg=           0 DoJE=F BraDBF=F KetDBF=F FulRan=T
         wScrn=  0.000000 ICntrl=       600 IOpCl=  0 I1Cent=           0 NGrid=           0
         NMat0=    1 NMatS0=  21115 NMatT0=    0 NMatD0=    1 NMtDS0=    0 NMtDT0=    0
 Symmetry not used in FoFCou.
 Two-electron integral symmetry not used.
 Closed shell SCF:
 Using DIIS extrapolation, IDIIS=  1040.
 NGot=   524288000 LenX=   301268152 LenY=   301225686
 Requested convergence on RMS density matrix=1.00D-08 within 128 cycles.
 Requested convergence on MAX density matrix=1.00D-06.
 Requested convergence on             energy=1.00D-06.
 No special actions if energy rises.

 Cycle   1  Pass 1  IDiag  1:
 E= -422.502369045448    
 DIIS: error= 4.26D-02 at cycle   1 NSaved=   1.
 NSaved= 1 IEnMin= 1 EnMin= -422.502369045448     IErMin= 1 ErrMin= 4.26D-02
 ErrMax= 4.26D-02  0.00D+00 EMaxC= 1.00D-01 BMatC= 7.21D-01 BMatP= 7.21D-01
 IDIUse=3 WtCom= 5.74D-01 WtEn= 4.26D-01
 Coeff-Com:  0.100D+01
 Coeff-En:   0.100D+01
 Coeff:      0.100D+01
 Gap=     0.547 Goal=   None    Shift=    0.000
 GapD=    0.547 DampG=2.000 DampE=0.500 DampFc=1.0000 IDamp=-1.
 RMSDP=4.05D-03 MaxDP=1.18D-01              OVMax= 1.27D-01

 Cycle   2  Pass 1  IDiag  1:
 E= -422.910081538837     Delta-E=       -0.407712493389 Rises=F Damp=F
 DIIS: error= 1.18D-02 at cycle   2 NSaved=   2.
 NSaved= 2 IEnMin= 2 EnMin= -422.910081538837     IErMin= 2 ErrMin= 1.18D-02
 ErrMax= 1.18D-02  0.00D+00 EMaxC= 1.00D-01 BMatC= 9.56D-02 BMatP= 7.21D-01
 IDIUse=3 WtCom= 8.82D-01 WtEn= 1.18D-01
 Coeff-Com:  0.205D+00 0.795D+00
 Coeff-En:   0.000D+00 0.100D+01
 Coeff:      0.181D+00 0.819D+00
 Gap=     0.644 Goal=   None    Shift=    0.000
 RMSDP=1.45D-03 MaxDP=4.79D-02 DE=-4.08D-01 OVMax= 4.77D-02

 Cycle   3  Pass 1  IDiag  1:
 E= -422.983737188751     Delta-E=       -0.073655649914 Rises=F Damp=F
 DIIS: error= 4.46D-03 at cycle   3 NSaved=   3.
 NSaved= 3 IEnMin= 3 EnMin= -422.983737188751     IErMin= 3 ErrMin= 4.46D-03
 ErrMax= 4.46D-03  0.00D+00 EMaxC= 1.00D-01 BMatC= 8.31D-03 BMatP= 9.56D-02
 IDIUse=3 WtCom= 9.55D-01 WtEn= 4.46D-02
 Coeff-Com: -0.137D-01 0.188D+00 0.826D+00
 Coeff-En:   0.000D+00 0.000D+00 0.100D+01
 Coeff:     -0.131D-01 0.180D+00 0.833D+00
 Gap=     0.606 Goal=   None    Shift=    0.000
 RMSDP=3.97D-04 MaxDP=2.25D-02 DE=-7.37D-02 OVMax= 2.32D-02

 Cycle   4  Pass 1  IDiag  1:
 E= -422.989946489488     Delta-E=       -0.006209300737 Rises=F Damp=F
 DIIS: error= 1.63D-03 at cycle   4 NSaved=   4.
 NSaved= 4 IEnMin= 4 EnMin= -422.989946489488     IErMin= 4 ErrMin= 1.63D-03
 ErrMax= 1.63D-03  0.00D+00 EMaxC= 1.00D-01 BMatC= 1.02D-03 BMatP= 8.31D-03
 IDIUse=3 WtCom= 9.84D-01 WtEn= 1.63D-02
 Coeff-Com: -0.127D-01 0.325D-01 0.320D+00 0.660D+00
 Coeff-En:   0.000D+00 0.000D+00 0.000D+00 0.100D+01
 Coeff:     -0.125D-01 0.320D-01 0.315D+00 0.666D+00
 Gap=     0.603 Goal=   None    Shift=    0.000
 RMSDP=1.26D-04 MaxDP=5.77D-03 DE=-6.21D-03 OVMax= 6.34D-03

 Cycle   5  Pass 1  IDiag  1:
 E= -422.990755684926     Delta-E=       -0.000809195438 Rises=F Damp=F
 DIIS: error= 3.30D-04 at cycle   5 NSaved=   5.
 NSaved= 5 IEnMin= 5 EnMin= -422.990755684926     IErMin= 5 ErrMin= 3.30D-04
 ErrMax= 3.30D-04  0.00D+00 EMaxC= 1.00D-01 BMatC= 2.34D-05 BMatP= 1.02D-03
 IDIUse=3 WtCom= 9.97D-01 WtEn= 3.30D-03
 Coeff-Com:  0.269D-02-0.185D-01-0.101D+00-0.852D-01 0.120D+01
 Coeff-En:   0.000D+00 0.000D+00 0.000D+00 0.000D+00 0.100D+01
 Coeff:      0.268D-02-0.184D-01-0.101D+00-0.849D-01 0.120D+01
 Gap=     0.604 Goal=   None    Shift=    0.000
 RMSDP=5.06D-05 MaxDP=1.65D-03 DE=-8.09D-04 OVMax= 3.39D-03

 Cycle   6  Pass 1  IDiag  1:
 E= -422.990813171110     Delta-E=       -0.000057486184 Rises=F Damp=F
 DIIS: error= 8.03D-05 at cycle   6 NSaved=   6.
 NSaved= 6 IEnMin= 6 EnMin= -422.990813171110     IErMin= 6 ErrMin= 8.03D-05
 ErrMax= 8.03D-05  0.00D+00 EMaxC= 1.00D-01 BMatC= 2.54D-06 BMatP= 2.34D-05
 IDIUse=1 WtCom= 1.00D+00 WtEn= 0.00D+00
 Coeff-Com:  0.109D-02-0.466D-02-0.311D-01-0.604D-01 0.137D+00 0.958D+00
 Coeff:      0.109D-02-0.466D-02-0.311D-01-0.604D-01 0.137D+00 0.958D+00
 Gap=     0.604 Goal=   None    Shift=    0.000
 RMSDP=1.49D-05 MaxDP=4.72D-04 DE=-5.75D-05 OVMax= 8.85D-04

 Cycle   7  Pass 1  IDiag  1:
 E= -422.990818752044     Delta-E=       -0.000005580934 Rises=F Damp=F
 DIIS: error= 4.57D-05 at cycle   7 NSaved=   7.
 NSaved= 7 IEnMin= 7 EnMin= -422.990818752044     IErMin= 7 ErrMin= 4.57D-05
 ErrMax= 4.57D-05  0.00D+00 EMaxC= 1.00D-01 BMatC= 4.05D-07 BMatP= 2.54D-06
 IDIUse=1 WtCom= 1.00D+00 WtEn= 0.00D+00
 Coeff-Com: -0.432D-03 0.275D-02 0.173D-01 0.106D-01-0.152D+00-0.999D-01
 Coeff-Com:  0.122D+01
 Coeff:     -0.432D-03 0.275D-02 0.173D-01 0.106D-01-0.152D+00-0.999D-01
 Coeff:      0.122D+01
 Gap=     0.604 Goal=   None    Shift=    0.000
 RMSDP=7.37D-06 MaxDP=2.93D-04 DE=-5.58D-06 OVMax= 5.80D-04

 Cycle   8  Pass 1  IDiag  1:
 E= -422.990819970980     Delta-E=       -0.000001218936 Rises=F Damp=F
 DIIS: error= 1.37D-05 at cycle   8 NSaved=   8.
 NSaved= 8 IEnMin= 8 EnMin= -422.990819970980     IErMin= 8 ErrMin= 1.37D-05
 ErrMax= 1.37D-05  0.00D+00 EMaxC= 1.00D-01 BMatC= 5.88D-08 BMatP= 4.05D-07
 IDIUse=1 WtCom= 1.00D+00 WtEn= 0.00D+00
 Coeff-Com: -0.161D-03 0.756D-03 0.511D-02 0.597D-02-0.222D-01-0.137D+00
 Coeff-Com:  0.387D-01 0.111D+01
 Coeff:     -0.161D-03 0.756D-03 0.511D-02 0.597D-02-0.222D-01-0.137D+00
 Coeff:      0.387D-01 0.111D+01
 Gap=     0.604 Goal=   None    Shift=    0.000
 RMSDP=2.95D-06 MaxDP=1.24D-04 DE=-1.22D-06 OVMax= 2.09D-04

 Cycle   9  Pass 1  IDiag  1:
 E= -422.990820143351     Delta-E=       -0.000000172371 Rises=F Damp=F
 DIIS: error= 5.73D-06 at cycle   9 NSaved=   9.
 NSaved= 9 IEnMin= 9 EnMin= -422.990820143351     IErMin= 9 ErrMin= 5.73D-06
 ErrMax= 5.73D-06  0.00D+00 EMaxC= 1.00D-01 BMatC= 9.49D-09 BMatP= 5.88D-08
 IDIUse=1 WtCom= 1.00D+00 WtEn= 0.00D+00
 Coeff-Com:  0.276D-04-0.257D-03-0.140D-02-0.671D-03 0.213D-01-0.138D-01
 Coeff-Com: -0.185D+00 0.227D+00 0.953D+00
 Coeff:      0.276D-04-0.257D-03-0.140D-02-0.671D-03 0.213D-01-0.138D-01
 Coeff:     -0.185D+00 0.227D+00 0.953D+00
 Gap=     0.604 Goal=   None    Shift=    0.000
 RMSDP=9.37D-07 MaxDP=3.60D-05 DE=-1.72D-07 OVMax= 6.07D-05

 Cycle  10  Pass 1  IDiag  1:
 E= -422.990820162423     Delta-E=       -0.000000019072 Rises=F Damp=F
 DIIS: error= 1.88D-06 at cycle  10 NSaved=  10.
 NSaved=10 IEnMin=10 EnMin= -422.990820162423     IErMin=10 ErrMin= 1.88D-06
 ErrMax= 1.88D-06  0.00D+00 EMaxC= 1.00D-01 BMatC= 6.61D-10 BMatP= 9.49D-09
 IDIUse=1 WtCom= 1.00D+00 WtEn= 0.00D+00
 Coeff-Com:  0.176D-04-0.870D-04-0.534D-03-0.101D-02 0.181D-02 0.174D-01
 Coeff-Com:  0.325D-02-0.130D+00-0.823D-01 0.119D+01
 Coeff:      0.176D-04-0.870D-04-0.534D-03-0.101D-02 0.181D-02 0.174D-01
 Coeff:      0.325D-02-0.130D+00-0.823D-01 0.119D+01
 Gap=     0.604 Goal=   None    Shift=    0.000
 RMSDP=2.79D-07 MaxDP=1.48D-05 DE=-1.91D-08 OVMax= 1.44D-05

 Cycle  11  Pass 1  IDiag  1:
 E= -422.990820164159     Delta-E=       -0.000000001736 Rises=F Damp=F
 DIIS: error= 4.24D-07 at cycle  11 NSaved=  11.
 NSaved=11 IEnMin=11 EnMin= -422.990820164159     IErMin=11 ErrMin= 4.24D-07
 ErrMax= 4.24D-07  0.00D+00 EMaxC= 1.00D-01 BMatC= 6.77D-11 BMatP= 6.61D-10
 IDIUse=1 WtCom= 1.00D+00 WtEn= 0.00D+00
 Coeff-Com: -0.731D-06 0.119D-04 0.873D-04-0.410D-04-0.143D-02 0.189D-02
 Coeff-Com:  0.132D-01-0.187D-01-0.908D-01 0.910D-01 0.100D+01
 Coeff:     -0.731D-06 0.119D-04 0.873D-04-0.410D-04-0.143D-02 0.189D-02
 Coeff:      0.132D-01-0.187D-01-0.908D-01 0.910D-01 0.100D+01
 Gap=     0.604 Goal=   None    Shift=    0.000
 RMSDP=5.93D-08 MaxDP=2.99D-06 DE=-1.74D-09 OVMax= 2.68D-06

 Cycle  12  Pass 1  IDiag  1:
 E= -422.990820164281     Delta-E=       -0.000000000122 Rises=F Damp=F
 DIIS: error= 1.02D-07 at cycle  12 NSaved=  12.
 NSaved=12 IEnMin=12 EnMin= -422.990820164281     IErMin=12 ErrMin= 1.02D-07
 ErrMax= 1.02D-07  0.00D+00 EMaxC= 1.00D-01 BMatC= 6.75D-12 BMatP= 6.77D-11
 IDIUse=1 WtCom= 1.00D+00 WtEn= 0.00D+00
 Coeff-Com: -0.224D-05 0.113D-04 0.784D-04 0.113D-03-0.378D-03-0.202D-02
 Coeff-Com:  0.587D-03 0.171D-01-0.194D-02-0.141D+00 0.566D-01 0.107D+01
 Coeff:     -0.224D-05 0.113D-04 0.784D-04 0.113D-03-0.378D-03-0.202D-02
 Coeff:      0.587D-03 0.171D-01-0.194D-02-0.141D+00 0.566D-01 0.107D+01
 Gap=     0.604 Goal=   None    Shift=    0.000
 RMSDP=2.43D-08 MaxDP=9.51D-07 DE=-1.22D-10 OVMax= 1.16D-06

 Cycle  13  Pass 1  IDiag  1:
 E= -422.990820164295     Delta-E=       -0.000000000014 Rises=F Damp=F
 DIIS: error= 4.87D-08 at cycle  13 NSaved=  13.
 NSaved=13 IEnMin=13 EnMin= -422.990820164295     IErMin=13 ErrMin= 4.87D-08
 ErrMax= 4.87D-08  0.00D+00 EMaxC= 1.00D-01 BMatC= 4.26D-13 BMatP= 6.75D-12
 IDIUse=1 WtCom= 1.00D+00 WtEn= 0.00D+00
 Coeff-Com:  0.190D-06-0.158D-05-0.972D-05-0.534D-05 0.123D-03-0.686D-05
 Coeff-Com: -0.108D-02 0.653D-03 0.575D-02 0.173D-02-0.779D-01-0.445D-01
 Coeff-Com:  0.112D+01
 Coeff:      0.190D-06-0.158D-05-0.972D-05-0.534D-05 0.123D-03-0.686D-05
 Coeff:     -0.108D-02 0.653D-03 0.575D-02 0.173D-02-0.779D-01-0.445D-01
 Coeff:      0.112D+01
 Gap=     0.604 Goal=   None    Shift=    0.000
 RMSDP=6.91D-09 MaxDP=2.37D-07 DE=-1.44D-11 OVMax= 3.89D-07

 SCF Done:  E(RHF) =  -422.990820164     A.U. after   13 cycles
            NFock= 13  Conv=0.69D-08     -V/T= 2.0022
 KE= 4.220501110547D+02 PE=-1.964193593009D+03 EE= 6.320278068510D+02
 Leave Link  502 at Sun Sep 19 20:03:02 2021, MaxMem=   524288000 cpu:              16.8 elap:              17.2
 (Enter /opt/gaussian/g16_legacy/l801.exe)
 ExpMin= 1.61D-01 ExpMax= 5.48D+03 ExpMxC= 8.25D+02 IAcc=3 IRadAn=         5 AccDes= 0.00D+00
 HarFok:  IExCor=  205 AccDes= 0.00D+00 IRadAn=         5 IDoV=-2 UseB2=F ITyADJ=14
 ICtDFT= 12500011 ScaDFX=  1.000000  1.000000  1.000000  1.000000
 Largest valence mixing into a core orbital is  2.11D-04
 Largest core mixing into a valence orbital is  3.23D-05
 Range of M.O.s used for correlation:    10   205
 NBasis=   205 NAE=    36 NBE=    36 NFC=     9 NFV=     0
 NROrb=    196 NOA=    27 NOB=    27 NVA=   169 NVB=   169
 Leave Link  801 at Sun Sep 19 20:03:03 2021, MaxMem=   524288000 cpu:               1.3 elap:               1.6
 (Enter /opt/gaussian/g16_legacy/l906.exe)
 Frozen-core derivative calculation, NFC=   9 NFV=   0.
 FulOut=F Deriv=T AODrv=T NAtomX=    23
   MMem=         131  MDisk=          27 MDiskD=          27
  W3Min=     1512900 MinDsk=     1927595 NBas6D=         205
 NBas2D=       21400    NTT=       21115    LW2=     2040000
    MDV=   523793112 MDiskM=       35351 NBas2p=       19345
 Fully direct method using O(ONN) memory.
 IMap=   1   2   3   4   5   6   7   8   9  10  11  12  13  14  15  16  17  18  19  20
 IMap=  21  22  23  24  25  26  27  28  29  30  31  32  33  34  35  36
 JobTyp=1 Pass  1:  I=  10 to  36 NPSUse=  1 ParTrn=F ParDer=F DoDerP=T.
 Spin components of T(2) and E(2):
     alpha-alpha T2 =       0.5280755561D-01 E2=     -0.1650579119D+00
     alpha-beta  T2 =       0.3171969394D+00 E2=     -0.1030417015D+01
     beta-beta   T2 =       0.5280755561D-01 E2=     -0.1650579119D+00
 The integrals were generated   1 times.
 ANorm=    0.1192816855D+01
 E2 =    -0.1360532839D+01 EUMP2 =    -0.42435135300335D+03
 Leave Link  906 at Sun Sep 19 20:05:15 2021, MaxMem=   524288000 cpu:             131.0 elap:             131.3
 (Enter /opt/gaussian/g16_legacy/l1002.exe)
 Minotr:  Closed shell wavefunction.
          Computing MP2/KS-MP2 derivatives.
          Using Z-Vector for PSCF gradient.
          Skipping F1 and S1 gradient terms here.
          IDoAtm=11111111111111111111111
          Frozen-core window.
          Direct CPHF calculation.
          Differentiating once with respect to electric field.
                with respect to dipole field.
          Differentiating once with respect to nuclear coordinates.
          Requested convergence is 1.0D-10 RMS, and 1.0D-09 maximum.
          NewPWx=F KeepS1=T KeepF1=T KeepIn=T MapXYZ=F SortEE=F KeepMc=T.
 Keep R1 ints in memory in canonical form, NReq=227306992.
 FoFCou: FMM=F IPFlag=           0 FMFlag=           0 FMFlg1=           0
         NFxFlg=           0 DoJE=F BraDBF=F KetDBF=F FulRan=T
         wScrn=  0.000000 ICntrl=       600 IOpCl=  0 I1Cent=           0 NGrid=           0
         NMat0=    1 NMatS0=  21115 NMatT0=    0 NMatD0=    1 NMtDS0=    0 NMtDT0=    0
 Symmetry not used in FoFCou.
 Two-electron integral symmetry not used.
          MDV=     524288000 using IRadAn=       5.
          Solving linear equations separately, MaxMat=       0.
          There are     1 degrees of freedom in the 1st order CPHF.  IDoFFX=0 NUNeed=     1.
 LinEq1:  Iter=  0 NonCon=     1 RMS=3.73D-03 Max=1.14D-01 NDo=     1
 AX will form     1 AO Fock derivatives at one time.
 LinEq1:  Iter=  1 NonCon=     1 RMS=1.20D-03 Max=2.08D-02 NDo=     1
 LinEq1:  Iter=  2 NonCon=     1 RMS=3.74D-04 Max=7.92D-03 NDo=     1
 LinEq1:  Iter=  3 NonCon=     1 RMS=1.49D-04 Max=3.34D-03 NDo=     1
 LinEq1:  Iter=  4 NonCon=     1 RMS=4.76D-05 Max=6.25D-04 NDo=     1
 LinEq1:  Iter=  5 NonCon=     1 RMS=2.09D-05 Max=3.47D-04 NDo=     1
 LinEq1:  Iter=  6 NonCon=     1 RMS=5.03D-06 Max=7.64D-05 NDo=     1
 LinEq1:  Iter=  7 NonCon=     1 RMS=1.31D-06 Max=1.88D-05 NDo=     1
 LinEq1:  Iter=  8 NonCon=     1 RMS=4.62D-07 Max=9.64D-06 NDo=     1
 LinEq1:  Iter=  9 NonCon=     1 RMS=1.22D-07 Max=2.40D-06 NDo=     1
 LinEq1:  Iter= 10 NonCon=     1 RMS=3.66D-08 Max=7.40D-07 NDo=     1
 LinEq1:  Iter= 11 NonCon=     1 RMS=1.15D-08 Max=2.60D-07 NDo=     1
 LinEq1:  Iter= 12 NonCon=     1 RMS=3.24D-09 Max=9.34D-08 NDo=     1
 LinEq1:  Iter= 13 NonCon=     1 RMS=9.49D-10 Max=2.51D-08 NDo=     1
 LinEq1:  Iter= 14 NonCon=     1 RMS=2.50D-10 Max=4.30D-09 NDo=     1
 LinEq1:  Iter= 15 NonCon=     0 RMS=7.21D-11 Max=7.66D-10 NDo=     1
 Linear equations converged to 1.000D-10 1.000D-09 after    15 iterations.
 End of Minotr F.D. properties file   721 does not exist.
 End of Minotr F.D. properties file   722 does not exist.
 End of Minotr F.D. properties file   788 does not exist.
 Leave Link 1002 at Sun Sep 19 20:05:34 2021, MaxMem=   524288000 cpu:              18.8 elap:              19.1
 (Enter /opt/gaussian/g16_legacy/l601.exe)
 Copying SCF densities to generalized density rwf, IOpCl= 0 IROHF=0.

 **********************************************************************

            Population analysis using the SCF density.

 **********************************************************************

 Orbital symmetries:
       Occupied  (A) (A) (A) (A) (A) (A) (A) (A) (A) (A) (A) (A)
                 (A) (A) (A) (A) (A) (A) (A) (A) (A) (A) (A) (A)
                 (A) (A) (A) (A) (A) (A) (A) (A) (A) (A) (A) (A)
       Virtual   (A) (A) (A) (A) (A) (A) (A) (A) (A) (A) (A) (A)
                 (A) (A) (A) (A) (A) (A) (A) (A) (A) (A) (A) (A)
                 (A) (A) (A) (A) (A) (A) (A) (A) (A) (A) (A) (A)
                 (A) (A) (A) (A) (A) (A) (A) (A) (A) (A) (A) (A)
                 (A) (A) (A) (A) (A) (A) (A) (A) (A) (A) (A) (A)
                 (A) (A) (A) (A) (A) (A) (A) (A) (A) (A) (A) (A)
                 (A) (A) (A) (A) (A) (A) (A) (A) (A) (A) (A) (A)
                 (A) (A) (A) (A) (A) (A) (A) (A) (A) (A) (A) (A)
                 (A) (A) (A) (A) (A) (A) (A) (A) (A) (A) (A) (A)
                 (A) (A) (A) (A) (A) (A) (A) (A) (A) (A) (A) (A)
                 (A) (A) (A) (A) (A) (A) (A) (A) (A) (A) (A) (A)
                 (A) (A) (A) (A) (A) (A) (A) (A) (A) (A) (A) (A)
                 (A) (A) (A) (A) (A) (A) (A) (A) (A) (A) (A) (A)
                 (A) (A) (A) (A) (A) (A) (A) (A) (A) (A) (A) (A)
                 (A)
 The electronic state is 1-A.
 Alpha  occ. eigenvalues --  -20.60344 -20.54786 -11.38579 -11.29302 -11.23854
 Alpha  occ. eigenvalues --  -11.22161 -11.22030 -11.21948 -11.21337  -1.44413
 Alpha  occ. eigenvalues --   -1.34960  -1.08852  -1.02317  -1.01317  -0.92586
 Alpha  occ. eigenvalues --   -0.83906  -0.83005  -0.73322  -0.68376  -0.66703
 Alpha  occ. eigenvalues --   -0.65322  -0.61713  -0.60610  -0.60324  -0.57415
 Alpha  occ. eigenvalues --   -0.56493  -0.54230  -0.53798  -0.51791  -0.50401
 Alpha  occ. eigenvalues --   -0.49913  -0.48733  -0.47322  -0.46301  -0.43285
 Alpha  occ. eigenvalues --   -0.42644
 Alpha virt. eigenvalues --    0.17771   0.22985   0.24575   0.25465   0.27218
 Alpha virt. eigenvalues --    0.28079   0.29831   0.30911   0.31420   0.32059
 Alpha virt. eigenvalues --    0.33092   0.33679   0.33925   0.34728   0.37152
 Alpha virt. eigenvalues --    0.38688   0.41602   0.41911   0.42114   0.44158
 Alpha virt. eigenvalues --    0.47043   0.50281   0.56996   0.68696   0.70051
 Alpha virt. eigenvalues --    0.71914   0.72459   0.75146   0.76502   0.77637
 Alpha virt. eigenvalues --    0.78482   0.79076   0.83100   0.86166   0.88560
 Alpha virt. eigenvalues --    0.91420   0.92432   0.93447   0.94300   0.96248
 Alpha virt. eigenvalues --    1.03569   1.03876   1.05658   1.06713   1.08277
 Alpha virt. eigenvalues --    1.10594   1.11245   1.12216   1.12862   1.13991
 Alpha virt. eigenvalues --    1.14701   1.15536   1.16736   1.16991   1.19063
 Alpha virt. eigenvalues --    1.20173   1.21193   1.21706   1.24448   1.24914
 Alpha virt. eigenvalues --    1.32213   1.32365   1.34107   1.39430   1.42251
 Alpha virt. eigenvalues --    1.47217   1.47890   1.54047   1.59362   1.62329
 Alpha virt. eigenvalues --    1.64147   1.69713   1.73342   1.74502   1.76879
 Alpha virt. eigenvalues --    1.83538   1.87569   1.90734   1.91305   1.95175
 Alpha virt. eigenvalues --    1.96785   1.99527   2.00997   2.03192   2.08737
 Alpha virt. eigenvalues --    2.10074   2.12597   2.15221   2.16644   2.19643
 Alpha virt. eigenvalues --    2.21150   2.23548   2.25458   2.27263   2.30489
 Alpha virt. eigenvalues --    2.32267   2.35240   2.35453   2.37196   2.38298
 Alpha virt. eigenvalues --    2.38529   2.39672   2.40391   2.41977   2.43652
 Alpha virt. eigenvalues --    2.45473   2.45759   2.50965   2.52590   2.54268
 Alpha virt. eigenvalues --    2.57383   2.58286   2.59566   2.60771   2.62504
 Alpha virt. eigenvalues --    2.65558   2.68248   2.71556   2.79040   2.80549
 Alpha virt. eigenvalues --    2.83043   2.85094   2.88654   2.89194   2.94421
 Alpha virt. eigenvalues --    2.95886   2.98286   3.01616   3.04275   3.05187
 Alpha virt. eigenvalues --    3.06764   3.09004   3.11122   3.12744   3.16911
 Alpha virt. eigenvalues --    3.19287   3.20354   3.21481   3.24004   3.25076
 Alpha virt. eigenvalues --    3.26396   3.27604   3.28865   3.35063   3.40233
 Alpha virt. eigenvalues --    3.53302   3.56008   3.57020   3.61047   3.66526
 Alpha virt. eigenvalues --    3.70153   3.71262   3.76938   3.78399   3.81075
 Alpha virt. eigenvalues --    3.82487   3.84679   3.87008   3.94278   3.94970
 Alpha virt. eigenvalues --    4.49612   4.57623   4.67589   4.77292   4.82429
 Alpha virt. eigenvalues --    4.98294   4.99775   5.06459   5.15804
          Condensed to atoms (all electrons):
               1          2          3          4          5          6
     1  C    4.931754   0.403447   0.400168   0.404969   0.329185  -0.041609
     2  H    0.403447   0.571914  -0.029722  -0.028573  -0.036867   0.004485
     3  H    0.400168  -0.029722   0.596213  -0.029454  -0.041810  -0.002879
     4  H    0.404969  -0.028573  -0.029454   0.579553  -0.038145  -0.004136
     5  C    0.329185  -0.036867  -0.041810  -0.038145   5.035730   0.402041
     6  H   -0.041609   0.004485  -0.002879  -0.004136   0.402041   0.594232
     7  H   -0.039601  -0.003561   0.004172  -0.002482   0.408568  -0.026437
     8  C   -0.056050  -0.005457  -0.004417   0.004490   0.344177  -0.037787
     9  H   -0.005144   0.000169   0.003212  -0.000085  -0.052310  -0.000710
    10  C    0.004377  -0.000035  -0.000055  -0.000080  -0.055337  -0.003015
    11  H   -0.000118   0.000000   0.000000   0.000002   0.004560  -0.000026
    12  H   -0.000037   0.000003   0.000001  -0.000001  -0.005610   0.000328
    13  C   -0.000095  -0.000005   0.000001   0.000001  -0.000182  -0.001299
    14  H   -0.000034  -0.000001   0.000011   0.000003   0.000349  -0.000646
    15  H    0.000003   0.000000  -0.000000  -0.000000  -0.000076   0.000054
    16  H   -0.000032   0.000000  -0.000001   0.000000   0.000304   0.000109
    17  O    0.001285   0.002771   0.000027   0.000032  -0.039322   0.002345
    18  C   -0.000115   0.000702   0.000002  -0.000024  -0.004262   0.000188
    19  O   -0.000018   0.000072  -0.000007  -0.000002  -0.005319   0.000177
    20  C   -0.000016   0.000038  -0.000001   0.000000  -0.000351   0.000007
    21  H    0.000001  -0.000006  -0.000000   0.000000   0.000014  -0.000000
    22  H    0.000001  -0.000002   0.000000   0.000000   0.000011  -0.000000
    23  H    0.000000   0.000000   0.000000   0.000000   0.000000  -0.000000
               7          8          9         10         11         12
     1  C   -0.039601  -0.056050  -0.005144   0.004377  -0.000118  -0.000037
     2  H   -0.003561  -0.005457   0.000169  -0.000035   0.000000   0.000003
     3  H    0.004172  -0.004417   0.003212  -0.000055   0.000000   0.000001
     4  H   -0.002482   0.004490  -0.000085  -0.000080   0.000002  -0.000001
     5  C    0.408568   0.344177  -0.052310  -0.055337   0.004560  -0.005610
     6  H   -0.026437  -0.037787  -0.000710  -0.003015  -0.000026   0.000328
     7  H    0.523677  -0.030593   0.003757  -0.003701  -0.000048   0.001990
     8  C   -0.030593   4.763637   0.430148   0.364633  -0.045198  -0.033254
     9  H    0.003757   0.430148   0.572432  -0.050188  -0.002235   0.004071
    10  C   -0.003701   0.364633  -0.050188   5.020543   0.409148   0.408923
    11  H   -0.000048  -0.045198  -0.002235   0.409148   0.589102  -0.030286
    12  H    0.001990  -0.033254   0.004071   0.408923  -0.030286   0.536884
    13  C    0.000302  -0.050366  -0.003656   0.325327  -0.037913  -0.038310
    14  H    0.000151  -0.003927   0.000221  -0.039274   0.004407  -0.003705
    15  H   -0.000016   0.004220  -0.000083  -0.036376  -0.004633  -0.002669
    16  H    0.000007  -0.004494   0.003554  -0.042340  -0.003032   0.004254
    17  O   -0.001896   0.142867  -0.034893  -0.038336   0.000103  -0.000325
    18  C    0.001034  -0.023460   0.002806  -0.005400  -0.000477   0.000977
    19  O    0.004335   0.007195  -0.000093  -0.004040  -0.000190   0.002150
    20  C    0.000082   0.004501  -0.000067  -0.000610  -0.000160   0.000123
    21  H   -0.000002  -0.000123   0.000002   0.000001   0.000006   0.000001
    22  H   -0.000007   0.000033  -0.000049   0.000032   0.000015  -0.000012
    23  H    0.000001  -0.000161   0.000004   0.000057   0.000051  -0.000009
              13         14         15         16         17         18
     1  C   -0.000095  -0.000034   0.000003  -0.000032   0.001285  -0.000115
     2  H   -0.000005  -0.000001   0.000000   0.000000   0.002771   0.000702
     3  H    0.000001   0.000011  -0.000000  -0.000001   0.000027   0.000002
     4  H    0.000001   0.000003  -0.000000   0.000000   0.000032  -0.000024
     5  C   -0.000182   0.000349  -0.000076   0.000304  -0.039322  -0.004262
     6  H   -0.001299  -0.000646   0.000054   0.000109   0.002345   0.000188
     7  H    0.000302   0.000151  -0.000016   0.000007  -0.001896   0.001034
     8  C   -0.050366  -0.003927   0.004220  -0.004494   0.142867  -0.023460
     9  H   -0.003656   0.000221  -0.000083   0.003554  -0.034893   0.002806
    10  C    0.325327  -0.039274  -0.036376  -0.042340  -0.038336  -0.005400
    11  H   -0.037913   0.004407  -0.004633  -0.003032   0.000103  -0.000477
    12  H   -0.038310  -0.003705  -0.002669   0.004254  -0.000325   0.000977
    13  C    4.937240   0.403636   0.405532   0.399332   0.002253   0.000301
    14  H    0.403636   0.581644  -0.027846  -0.030929  -0.000026  -0.000002
    15  H    0.405532  -0.027846   0.569294  -0.028453  -0.000049  -0.000006
    16  H    0.399332  -0.030929  -0.028453   0.593329   0.000025  -0.000012
    17  O    0.002253  -0.000026  -0.000049   0.000025   8.522039   0.267227
    18  C    0.000301  -0.000002  -0.000006  -0.000012   0.267227   4.160935
    19  O    0.000127   0.000000   0.000002  -0.000004  -0.070178   0.542027
    20  C    0.000006  -0.000000  -0.000000  -0.000000  -0.088702   0.367401
    21  H    0.000000   0.000000  -0.000000   0.000000   0.002242  -0.030450
    22  H   -0.000000  -0.000000   0.000000   0.000000   0.004118  -0.039044
    23  H   -0.000002   0.000000   0.000000   0.000000   0.001591  -0.030450
              19         20         21         22         23
     1  C   -0.000018  -0.000016   0.000001   0.000001   0.000000
     2  H    0.000072   0.000038  -0.000006  -0.000002   0.000000
     3  H   -0.000007  -0.000001  -0.000000   0.000000   0.000000
     4  H   -0.000002   0.000000   0.000000   0.000000   0.000000
     5  C   -0.005319  -0.000351   0.000014   0.000011   0.000000
     6  H    0.000177   0.000007  -0.000000  -0.000000  -0.000000
     7  H    0.004335   0.000082  -0.000002  -0.000007   0.000001
     8  C    0.007195   0.004501  -0.000123   0.000033  -0.000161
     9  H   -0.000093  -0.000067   0.000002  -0.000049   0.000004
    10  C   -0.004040  -0.000610   0.000001   0.000032   0.000057
    11  H   -0.000190  -0.000160   0.000006   0.000015   0.000051
    12  H    0.002150   0.000123   0.000001  -0.000012  -0.000009
    13  C    0.000127   0.000006   0.000000  -0.000000  -0.000002
    14  H    0.000000  -0.000000   0.000000  -0.000000   0.000000
    15  H    0.000002  -0.000000  -0.000000   0.000000   0.000000
    16  H   -0.000004  -0.000000   0.000000   0.000000   0.000000
    17  O   -0.070178  -0.088702   0.002242   0.004118   0.001591
    18  C    0.542027   0.367401  -0.030450  -0.039044  -0.030450
    19  O    8.173368  -0.068369   0.000702   0.002711  -0.000351
    20  C   -0.068369   5.027181   0.390399   0.391336   0.393888
    21  H    0.000702   0.390399   0.520295  -0.023605  -0.017047
    22  H    0.002711   0.391336  -0.023605   0.535775  -0.024897
    23  H   -0.000351   0.393888  -0.017047  -0.024897   0.517599
 Mulliken charges:
               1
     1  C   -0.332323
     2  H    0.120627
     3  H    0.104539
     4  H    0.113933
     5  C   -0.245349
     6  H    0.114579
     7  H    0.160269
     8  C    0.229385
     9  H    0.129136
    10  C   -0.254254
    11  H    0.116924
    12  H    0.154512
    13  C   -0.342229
    14  H    0.115965
    15  H    0.121103
    16  H    0.108384
    17  O   -0.675198
    18  C    0.790101
    19  O   -0.584293
    20  C   -0.416688
    21  H    0.157568
    22  H    0.153585
    23  H    0.159724
 Sum of Mulliken charges =  -0.00000
 Mulliken charges with hydrogens summed into heavy atoms:
               1
     1  C    0.006776
     5  C    0.029499
     8  C    0.358521
    10  C    0.017182
    13  C    0.003223
    17  O   -0.675198
    18  C    0.790101
    19  O   -0.584293
    20  C    0.054190
 Electronic spatial extent (au):  <R**2>=           1491.2767
 Charge=             -0.0000 electrons
 Dipole moment (field-independent basis, Debye):
    X=              0.3296    Y=             -0.3076    Z=             -1.7645  Tot=              1.8212
 Quadrupole moment (field-independent basis, Debye-Ang):
   XX=            -51.3365   YY=            -55.6367   ZZ=            -61.9278
   XY=              0.6867   XZ=              3.4422   YZ=              1.4237
 Traceless Quadrupole moment (field-independent basis, Debye-Ang):
   XX=              4.9639   YY=              0.6636   ZZ=             -5.6275
   XY=              0.6867   XZ=              3.4422   YZ=              1.4237
 Octapole moment (field-independent basis, Debye-Ang**2):
  XXX=            -29.2644  YYY=             -6.2469  ZZZ=             -4.9451  XYY=             -5.5938
  XXY=             -0.3881  XXZ=             -6.0022  XZZ=              5.7151  YZZ=              0.8868
  YYZ=              2.6442  XYZ=             -1.8912
 Hexadecapole moment (field-independent basis, Debye-Ang**3):
 XXXX=          -1068.9385 YYYY=           -682.5426 ZZZZ=           -215.9386 XXXY=             10.2593
 XXXZ=             10.8643 YYYX=              3.0641 YYYZ=              2.6061 ZZZX=              5.0520
 ZZZY=              1.1621 XXYY=           -291.8708 XXZZ=           -229.4585 YYZZ=           -149.4551
 XXYZ=              3.1257 YYXZ=              2.2208 ZZXY=              0.1897
 N-N= 4.871248549386D+02 E-N=-1.964193591166D+03  KE= 4.220501110547D+02
 No NMR shielding tensors so no spin-rotation constants.
 Leave Link  601 at Sun Sep 19 20:05:34 2021, MaxMem=   524288000 cpu:               0.3 elap:               0.5
 (Enter /opt/gaussian/g16_legacy/l701.exe)
 ... and contract with generalized density number  2.
 Compute integral first derivatives.
 Leave Link  701 at Sun Sep 19 20:05:35 2021, MaxMem=   524288000 cpu:               0.3 elap:               0.4
 (Enter /opt/gaussian/g16_legacy/l702.exe)
 L702 exits ... SP integral derivatives will be done elsewhere.
 Leave Link  702 at Sun Sep 19 20:05:35 2021, MaxMem=   524288000 cpu:               0.1 elap:               0.2
 (Enter /opt/gaussian/g16_legacy/l703.exe)
 Integral derivatives from FoFJK, PRISM(SPDF).
 Compute integral first derivatives, UseDBF=F ICtDFT=           0.
 Calling FoFJK, ICntrl=  10002127 FMM=F ISym2X=0 I1Cent= 0 IOpClX= 0 NMat=1 NMatS=1 NMatT=0.
 FoFJK:  IHMeth= 1 ICntrl=10002127 DoSepK=F KAlg= 0 I1Cent=           0 FoldK=F
 IRaf=         0 NMat=       1 IRICut=       1 DoRegI=T DoRafI=F ISym2E= 0 IDoP0=0 IntGTp=1.
 FoFCou: FMM=F IPFlag=           0 FMFlag=      100000 FMFlg1=         800
         NFxFlg=           0 DoJE=F BraDBF=F KetDBF=F FulRan=T
         wScrn=  0.000000 ICntrl=  10002127 IOpCl=  0 I1Cent=           0 NGrid=           0
         NMat0=    1 NMatS0=      1 NMatT0=    0 NMatD0=    1 NMtDS0=    0 NMtDT0=    0
 Symmetry not used in FoFCou.
 Leave Link  703 at Sun Sep 19 20:05:59 2021, MaxMem=   524288000 cpu:              23.4 elap:              23.6
 (Enter /opt/gaussian/g16_legacy/l716.exe)
 Dipole        = 1.81115867D-01-1.08820955D-01-5.58865594D-01
 ***** Axes restored to original set *****
 -------------------------------------------------------------------
 Center     Atomic                   Forces (Hartrees/Bohr)
 Number     Number              X              Y              Z
 -------------------------------------------------------------------
      1        6          -0.002389008   -0.002171471   -0.004106537
      2        1          -0.000925082    0.003652670   -0.000371050
      3        1          -0.000282161   -0.002474060    0.002055996
      4        1           0.004121649   -0.000029684   -0.000686629
      5        6          -0.000203640   -0.006458481   -0.000118886
      6        1           0.005543797    0.001106641    0.000593200
      7        1           0.005062438    0.004899449   -0.000092257
      8        6          -0.010904663    0.010016225    0.013550751
      9        1           0.003000482   -0.004866207    0.000199754
     10        6           0.000187121   -0.003724680    0.006139633
     11        1          -0.002695913   -0.001990469   -0.003624450
     12        1           0.000868456   -0.001819714   -0.004977092
     13        6           0.000116526    0.005232473   -0.000701455
     14        1           0.001980991    0.000971290   -0.000579048
     15        1          -0.002423903   -0.001859712   -0.003708346
     16        1          -0.001841775   -0.000235663    0.002323113
     17        8           0.000325110   -0.001244848   -0.003419773
     18        6           0.000338572    0.005269933    0.005274686
     19        8          -0.002232294    0.001730841   -0.003813648
     20        6           0.008803162   -0.002432552   -0.011241786
     21        1           0.001680088    0.002437991    0.004324662
     22        1          -0.003300740   -0.001662893    0.003873370
     23        1          -0.004829213   -0.004347077   -0.000894207
 -------------------------------------------------------------------
 Cartesian Forces:  Max     0.013550751 RMS     0.004168826
 Leave Link  716 at Sun Sep 19 20:05:59 2021, MaxMem=   524288000 cpu:               0.1 elap:               0.1
 (Enter /opt/gaussian/g16_legacy/l103.exe)

 GradGradGradGradGradGradGradGradGradGradGradGradGradGradGradGradGradGrad
 Berny optimization.
 FormGI is forming the generalized inverse of G from B-inverse, IUseBI=4.
 Internal  Forces:  Max     0.010000967 RMS     0.002851787
 Search for a local minimum.
 Step number   1 out of a maximum of  119
 All quantities printed in internal units (Hartrees-Bohrs-Radians)
 RMS Force = .28518D-02 SwitMx=.10000D-02 MixMth= 1
 Mixed Optimization -- RFO/linear search
 Second derivative matrix not updated -- first step.
 ITU=  0
     Eigenvalues ---    0.00247   0.00284   0.00456   0.00507   0.00759
     Eigenvalues ---    0.01043   0.01158   0.02225   0.03457   0.03549
     Eigenvalues ---    0.03638   0.04663   0.04810   0.04826   0.05528
     Eigenvalues ---    0.05546   0.05703   0.05768   0.07366   0.07533
     Eigenvalues ---    0.07556   0.08331   0.08481   0.12188   0.12306
     Eigenvalues ---    0.16000   0.16000   0.16000   0.16000   0.16000
     Eigenvalues ---    0.16000   0.16000   0.16000   0.16000   0.17713
     Eigenvalues ---    0.20521   0.21906   0.21914   0.24965   0.25000
     Eigenvalues ---    0.25000   0.28584   0.28837   0.30037   0.30405
     Eigenvalues ---    0.32324   0.34011   0.34037   0.34145   0.34182
     Eigenvalues ---    0.34189   0.34191   0.34223   0.34289   0.34295
     Eigenvalues ---    0.34315   0.34385   0.34388   0.34626   0.34689
     Eigenvalues ---    0.38366   0.53015   0.95081
 RFO step:  Lambda=-7.87907121D-03 EMin= 2.46583548D-03
 Linear search not attempted -- first point.
 Iteration  1 RMS(Cart)=  0.14696926 RMS(Int)=  0.00858854
 Iteration  2 RMS(Cart)=  0.02380536 RMS(Int)=  0.00100407
 Iteration  3 RMS(Cart)=  0.00043421 RMS(Int)=  0.00097986
 Iteration  4 RMS(Cart)=  0.00000067 RMS(Int)=  0.00097986
 ITry= 1 IFail=0 DXMaxC= 6.32D-01 DCOld= 1.00D+10 DXMaxT= 3.00D-01 DXLimC= 3.00D+00 Rises=F
 Variable       Old X    -DE/DX   Delta X   Delta X   Delta X     New X
                                 (Linear)    (Quad)   (Total)
    R1        2.06685  -0.00360   0.00000  -0.01024  -0.01024   2.05660
    R2        2.06955  -0.00306   0.00000  -0.00874  -0.00874   2.06081
    R3        2.07013  -0.00403   0.00000  -0.01153  -0.01153   2.05860
    R4        2.87889   0.00294   0.00000   0.00955   0.00955   2.88844
    R5        2.07009  -0.00244   0.00000  -0.00698  -0.00698   2.06311
    R6        2.06835  -0.00381   0.00000  -0.01087  -0.01087   2.05749
    R7        2.90345  -0.01000   0.00000  -0.03376  -0.03376   2.86969
    R8        2.07268  -0.00225   0.00000  -0.00646  -0.00646   2.06622
    R9        2.90878  -0.00689   0.00000  -0.02347  -0.02347   2.88531
   R10        2.73836   0.00106   0.00000   0.00272   0.00272   2.74107
   R11        2.07311  -0.00302   0.00000  -0.00869  -0.00869   2.06442
   R12        2.07024  -0.00387   0.00000  -0.01108  -0.01108   2.05917
   R13        2.87163   0.00484   0.00000   0.01551   0.01551   2.88714
   R14        2.06286  -0.00200   0.00000  -0.00566  -0.00566   2.05721
   R15        2.07085  -0.00465   0.00000  -0.01331  -0.01331   2.05755
   R16        2.06846  -0.00263   0.00000  -0.00749  -0.00749   2.06097
   R17        2.56940  -0.00249   0.00000  -0.00463  -0.00463   2.56478
   R18        2.30676  -0.00183   0.00000  -0.00191  -0.00191   2.30485
   R19        2.83556   0.00539   0.00000   0.01627   0.01627   2.85183
   R20        2.06182  -0.00263   0.00000  -0.00742  -0.00742   2.05440
   R21        2.06680  -0.00523   0.00000  -0.01486  -0.01486   2.05194
   R22        2.06802  -0.00471   0.00000  -0.01342  -0.01342   2.05460
    A1        1.89424  -0.00086   0.00000  -0.01083  -0.01084   1.88340
    A2        1.88463  -0.00030   0.00000  -0.00044  -0.00042   1.88420
    A3        1.94441  -0.00070   0.00000  -0.00659  -0.00658   1.93783
    A4        1.88068  -0.00066   0.00000   0.00072   0.00064   1.88131
    A5        1.93762   0.00090   0.00000   0.00460   0.00455   1.94217
    A6        1.92030   0.00156   0.00000   0.01237   0.01234   1.93263
    A7        1.88631   0.00267   0.00000   0.03089   0.03064   1.91695
    A8        1.89018   0.00341   0.00000   0.03611   0.03588   1.92606
    A9        1.96481   0.00012   0.00000  -0.00007   0.00026   1.96508
   A10        1.86464   0.00075   0.00000   0.00896   0.00707   1.87171
   A11        1.91465  -0.00296   0.00000  -0.03361  -0.03378   1.88087
   A12        1.93976  -0.00374   0.00000  -0.03930  -0.03945   1.90030
   A13        1.87674   0.00206   0.00000   0.01359   0.01270   1.88945
   A14        1.98960  -0.00004   0.00000   0.00910   0.00913   1.99872
   A15        1.98121  -0.00590   0.00000  -0.03661  -0.03683   1.94437
   A16        1.87344   0.00005   0.00000   0.02051   0.02045   1.89389
   A17        1.81538  -0.00234   0.00000  -0.04157  -0.04190   1.77348
   A18        1.91545   0.00611   0.00000   0.03281   0.03305   1.94850
   A19        1.90430  -0.00183   0.00000  -0.02634  -0.02633   1.87797
   A20        1.92821  -0.00169   0.00000  -0.01845  -0.01836   1.90985
   A21        1.97859  -0.00158   0.00000  -0.01003  -0.00996   1.96863
   A22        1.85216   0.00064   0.00000   0.01456   0.01386   1.86603
   A23        1.89673   0.00195   0.00000   0.01504   0.01466   1.91138
   A24        1.89935   0.00271   0.00000   0.02740   0.02721   1.92656
   A25        1.94881   0.00074   0.00000   0.00306   0.00305   1.95186
   A26        1.91567   0.00130   0.00000   0.00901   0.00897   1.92464
   A27        1.93547   0.00138   0.00000   0.00826   0.00823   1.94370
   A28        1.88332  -0.00110   0.00000  -0.00675  -0.00676   1.87655
   A29        1.89607  -0.00146   0.00000  -0.01101  -0.01101   1.88506
   A30        1.88255  -0.00101   0.00000  -0.00334  -0.00341   1.87914
   A31        2.08520  -0.00555   0.00000  -0.02150  -0.02150   2.06369
   A32        2.20197  -0.00665   0.00000  -0.02220  -0.02744   2.17454
   A33        1.92389   0.00369   0.00000   0.01772   0.01236   1.93625
   A34        2.15542   0.00319   0.00000   0.01565   0.01013   2.16555
   A35        1.91684   0.00049   0.00000  -0.00186  -0.00208   1.91475
   A36        1.93741   0.00067   0.00000   0.01314   0.01306   1.95047
   A37        1.89626  -0.00132   0.00000  -0.01218  -0.01237   1.88390
   A38        1.89945   0.00107   0.00000   0.01473   0.01461   1.91407
   A39        1.92986  -0.00335   0.00000  -0.03838  -0.03873   1.89113
   A40        1.88395   0.00242   0.00000   0.02445   0.02442   1.90837
    D1       -3.01965  -0.00255   0.00000  -0.04545  -0.04575  -3.06540
    D2       -1.00564   0.00149   0.00000  -0.00012   0.00019  -1.00545
    D3        1.14618  -0.00074   0.00000  -0.02439  -0.02438   1.12179
    D4        1.15018  -0.00159   0.00000  -0.03031  -0.03060   1.11958
    D5       -3.11900   0.00245   0.00000   0.01501   0.01534  -3.10366
    D6       -0.96718   0.00021   0.00000  -0.00925  -0.00923  -0.97642
    D7       -0.93010  -0.00235   0.00000  -0.04208  -0.04242  -0.97252
    D8        1.08391   0.00170   0.00000   0.00324   0.00352   1.08743
    D9       -3.04747  -0.00054   0.00000  -0.02102  -0.02105  -3.06852
   D10        0.95838  -0.00178   0.00000   0.00399   0.00390   0.96228
   D11        3.03294  -0.00033   0.00000   0.04444   0.04458   3.07751
   D12       -1.03968   0.00300   0.00000   0.06618   0.06613  -0.97355
   D13       -1.14275  -0.00320   0.00000  -0.01187  -0.01166  -1.15442
   D14        0.93181  -0.00175   0.00000   0.02858   0.02901   0.96082
   D15       -3.14081   0.00158   0.00000   0.05031   0.05056  -3.09025
   D16        3.08228   0.00000   0.00000   0.02214   0.02176   3.10404
   D17       -1.12634   0.00145   0.00000   0.06260   0.06244  -1.06391
   D18        1.08422   0.00479   0.00000   0.08433   0.08399   1.16821
   D19        2.88551  -0.00202   0.00000   0.00760   0.00764   2.89315
   D20        0.85570  -0.00075   0.00000   0.01599   0.01601   0.87171
   D21       -1.28143  -0.00189   0.00000   0.00127   0.00138  -1.28005
   D22       -1.32123   0.00057   0.00000   0.04406   0.04399  -1.27724
   D23        2.93214   0.00184   0.00000   0.05245   0.05236   2.98450
   D24        0.79501   0.00070   0.00000   0.03773   0.03773   0.83274
   D25        0.64111   0.00083   0.00000   0.02205   0.02203   0.66313
   D26       -1.38870   0.00210   0.00000   0.03044   0.03040  -1.35831
   D27        2.75735   0.00097   0.00000   0.01572   0.01577   2.77312
   D28       -1.23282  -0.00022   0.00000   0.01592   0.01669  -1.21614
   D29        3.01600   0.00167   0.00000   0.04322   0.04231   3.05831
   D30        1.01619   0.00012   0.00000   0.02640   0.02655   1.04274
   D31        1.12398   0.00007   0.00000   0.00024   0.00025   1.12422
   D32       -3.07154   0.00002   0.00000  -0.00030  -0.00030  -3.07184
   D33       -0.99325   0.00046   0.00000   0.00645   0.00648  -0.98677
   D34       -3.03872  -0.00191   0.00000  -0.02922  -0.02942  -3.06814
   D35       -0.95105  -0.00196   0.00000  -0.02976  -0.02997  -0.98102
   D36        1.12724  -0.00152   0.00000  -0.02301  -0.02319   1.10405
   D37       -1.02909   0.00133   0.00000   0.01068   0.01086  -1.01823
   D38        1.05858   0.00129   0.00000   0.01014   0.01031   1.06889
   D39        3.13687   0.00173   0.00000   0.01688   0.01709  -3.12923
   D40        0.24684  -0.00285   0.00000  -0.06623  -0.06823   0.17861
   D41       -2.82995  -0.00687   0.00000  -0.25650  -0.25450  -3.08445
   D42       -2.12759  -0.00081   0.00000   0.04513   0.04570  -2.08189
   D43       -0.02628   0.00128   0.00000   0.07076   0.07126   0.04498
   D44        2.04272   0.00382   0.00000   0.10093   0.10127   2.14400
   D45        1.07674  -0.00426   0.00000  -0.13738  -0.13775   0.93898
   D46       -3.10514  -0.00217   0.00000  -0.11175  -0.11219   3.06585
   D47       -1.03613   0.00037   0.00000  -0.08158  -0.08218  -1.11831
         Item               Value     Threshold  Converged?
 Maximum Force            0.010001     0.000450     NO 
 RMS     Force            0.002852     0.000300     NO 
 Maximum Displacement     0.632116     0.001800     NO 
 RMS     Displacement     0.165267     0.001200     NO 
 Predicted change in Energy=-4.683103D-03
 Lowest energy point so far.  Saving SCF results.
 GradGradGradGradGradGradGradGradGradGradGradGradGradGradGradGradGradGrad

 Leave Link  103 at Sun Sep 19 20:05:59 2021, MaxMem=   524288000 cpu:               0.1 elap:               0.5
 (Enter /opt/gaussian/g16_legacy/l202.exe)
                          Input orientation:                          
 ---------------------------------------------------------------------
 Center     Atomic      Atomic             Coordinates (Angstroms)
 Number     Number       Type             X           Y           Z
 ---------------------------------------------------------------------
      1          6           0       -1.735147    0.804951    0.207970
      2          1           0       -1.113723   -0.088456    0.199448
      3          1           0       -1.550554    1.350718   -0.717949
      4          1           0       -2.777669    0.488946    0.205901
      5          6           0       -1.434552    1.670519    1.431383
      6          1           0       -2.120226    2.519541    1.461947
      7          1           0       -1.586872    1.099619    2.345881
      8          6           0       -0.018371    2.218655    1.424438
      9          1           0        0.135971    2.756986    0.485346
     10          6           0        0.301823    3.161458    2.581955
     11          1           0        1.386923    3.282347    2.619038
     12          1           0        0.002268    2.697093    3.521103
     13          6           0       -0.359324    4.530457    2.430552
     14          1           0       -1.445268    4.461464    2.463323
     15          1           0       -0.048357    5.191010    3.238307
     16          1           0       -0.079908    5.004697    1.489028
     17          8           0        0.960773    1.154086    1.315064
     18          6           0        1.125064    0.321353    2.374126
     19          8           0        0.390687    0.285537    3.347273
     20          6           0        2.233641   -0.669151    2.114477
     21          1           0        1.836698   -1.680688    2.147766
     22          1           0        2.711859   -0.495605    1.155184
     23          1           0        2.969464   -0.563836    2.907940
 ---------------------------------------------------------------------
                    Distance matrix (angstroms):
                    1          2          3          4          5
     1  C    0.000000
     2  H    1.088308   0.000000
     3  H    1.090533   1.761721   0.000000
     4  H    1.089365   1.761292   1.761238   0.000000
     5  C    1.528497   2.171310   2.176088   2.168383   0.000000
     6  H    2.158834   3.067344   2.538232   2.476530   1.091752
     7  H    2.163210   2.498513   3.074317   2.523972   1.088776
     8  C    2.534891   2.832518   2.773215   3.477133   1.518575
     9  H    2.718172   3.120899   2.503972   3.702890   2.131183
    10  C    3.916398   4.271072   4.195169   4.719240   2.561584
    11  H    4.658118   4.844581   4.847210   5.565083   3.459658
    12  H    4.192334   4.476396   4.711003   4.857420   2.735916
    13  C    4.551061   5.184718   4.630640   5.208769   3.214607
    14  H    4.305895   5.092821   4.450654   4.759427   2.975633
    15  H    5.591575   6.184047   5.714578   6.225274   4.192895
    16  H    4.692418   5.354624   4.514987   5.414456   3.599323
    17  O    2.935223   2.663089   3.237061   3.955831   2.453123
    18  C    3.620346   3.147910   4.216569   4.467730   3.043131
    19  O    3.826772   3.508836   4.629153   4.466327   2.986688
    20  C    4.643169   3.899922   5.140295   5.486081   4.404124
    21  H    4.764376   3.877646   5.373567   5.456239   4.737601
    22  H    4.729114   3.964125   5.008563   5.657332   4.686267
    23  H    5.594352   4.922838   6.102716   6.437305   5.154407
                    6          7          8          9         10
     6  H    0.000000
     7  H    1.755558   0.000000
     8  C    2.123614   2.135766   0.000000
     9  H    2.469931   3.029297   1.093396   0.000000
    10  C    2.744595   2.806080   1.526843   2.141699   0.000000
    11  H    3.771051   3.698969   2.129170   2.528543   1.092442
    12  H    2.962538   2.541346   2.150660   3.039291   1.089665
    13  C    2.843019   3.644817   2.544198   2.678496   1.527807
    14  H    2.286786   3.366875   2.854034   3.052533   2.180921
    15  H    3.819011   4.461270   3.482228   3.679299   2.161597
    16  H    3.215530   4.272560   2.787469   2.471070   2.176634
    17  O    3.373217   2.748826   1.450514   1.984444   2.463487
    18  C    4.024427   2.821541   2.410209   3.236990   2.964307
    19  O    3.853558   2.361410   2.757095   3.789930   2.977337
    20  C    5.435964   4.216445   3.726545   4.335055   4.315556
    21  H    5.811155   4.414769   4.378283   5.034785   5.098111
    22  H    5.703881   4.737255   3.859257   4.202764   4.606306
    23  H    6.123974   4.882949   4.343983   4.992545   4.593516
                   11         12         13         14         15
    11  H    0.000000
    12  H    1.753144   0.000000
    13  C    2.154688   2.163625   0.000000
    14  H    3.071786   2.515405   1.088627   0.000000
    15  H    2.467086   2.510409   1.088806   1.756188   0.000000
    16  H    2.528834   3.075893   1.090616   1.763111   1.759456
    17  O    2.532083   2.857659   3.792999   4.248091   4.584098
    18  C    2.982623   2.867119   4.463535   4.873919   5.083039
    19  O    3.240939   2.448814   4.407067   4.646554   4.926286
    20  C    4.072573   4.276590   5.818873   6.322916   6.388426
    21  H    5.005608   4.941271   6.593997   6.971148   7.208532
    22  H    4.262774   4.809655   6.026610   6.600414   6.655508
    23  H    4.169055   4.451279   6.104141   6.703818   6.506507
                   16         17         18         19         20
    16  H    0.000000
    17  O    3.992553   0.000000
    18  C    4.916204   1.357221   0.000000
    19  O    5.093624   2.282379   1.219676   0.000000
    20  C    6.159240   2.362932   1.509125   2.414062   0.000000
    21  H    6.985820   3.081653   2.136780   2.719523   1.087142
    22  H    6.177275   2.411088   2.161286   3.286834   1.085843
    23  H    6.505423   3.085993   2.114315   2.750371   1.087249
                   21         22         23
    21  H    0.000000
    22  H    1.776386   0.000000
    23  H    1.763060   1.772899   0.000000
 Stoichiometry    C7H14O2
 Framework group  C1[X(C7H14O2)]
 Deg. of freedom    63
 Full point group                 C1      NOp   1
 RotChk:  IX=0 Diff= 1.85D-01
 Largest Abelian subgroup         C1      NOp   1
 Largest concise Abelian subgroup C1      NOp   1
                         Standard orientation:                         
 ---------------------------------------------------------------------
 Center     Atomic      Atomic             Coordinates (Angstroms)
 Number     Number       Type             X           Y           Z
 ---------------------------------------------------------------------
      1          6           0        0.418709    2.583336   -0.080214
      2          1           0       -0.663012    2.559287   -0.197331
[...]
    18  C    3.188650   2.841396   4.501174   4.820088   5.154302
    19  O    3.448768   2.452793   4.396715   4.521639   4.963805
    20  C    4.262016   4.225648   5.869491   6.281597   6.471032
    21  H    4.971176   4.670794   6.535413   6.876169   7.063369
    22  H    4.906893   4.940979   6.374362   6.732935   7.094772
    23  H    4.075918   4.429946   5.949720   6.530805   6.450699
                   16         17         18         19         20
    16  H    0.000000
    17  O    4.040376   0.000000
    18  C    4.989174   1.355340   0.000000
    19  O    5.104005   2.288286   1.220548   0.000000
    20  C    6.264532   2.342167   1.506756   2.423005   0.000000
    21  H    7.054275   3.268444   2.127597   2.565555   1.084879
    22  H    6.642687   2.604316   2.135402   3.116022   1.088202
    23  H    6.268273   2.599034   2.135565   3.121615   1.088048
                   21         22         23
    21  H    0.000000
    22  H    1.782023   0.000000
    23  H    1.782173   1.757713   0.000000
 Stoichiometry    C7H14O2
 Framework group  C1[X(C7H14O2)]
 Deg. of freedom    63
 Full point group                 C1      NOp   1
 RotChk:  IX=0 Diff= 9.03D-16
 Largest Abelian subgroup         C1      NOp   1
 Largest concise Abelian subgroup C1      NOp   1
                         Standard orientation:                         
 ---------------------------------------------------------------------
 Center     Atomic      Atomic             Coordinates (Angstroms)
 Number     Number       Type             X           Y           Z
 ---------------------------------------------------------------------
      1          6           0        0.062497    2.506817   -0.055508
      2          1           0       -1.003799    2.307587    0.031363
      3          1           0        0.272216    2.760304   -1.095088
      4          1           0        0.290226    3.377964    0.557111
      5          6           0        0.887318    1.305521    0.391795
      6          1           0        1.946491    1.571320    0.379617
      7          1           0        0.631854    1.027642    1.412840
      8          6           0        0.722400    0.096346   -0.521435
      9          1           0        1.114028    0.356602   -1.509028
     10          6           0        1.416758   -1.172891   -0.042116
     11          1           0        1.139230   -1.976314   -0.727795
     12          1           0        1.035245   -1.437086    0.942708
     13          6           0        2.936077   -1.032626   -0.006412
     14          1           0        3.255930   -0.316057    0.748054
     15          1           0        3.400674   -1.988784    0.229367
     16          1           0        3.323202   -0.703257   -0.971592
     17          8           0       -0.679534   -0.169930   -0.836271
     18          6           0       -1.527216   -0.478887    0.175128
     19          8           0       -1.218381   -0.560219    1.353152
     20          6           0       -2.912675   -0.703117   -0.373087
     21          1           0       -3.583537   -0.955773    0.441205
     22          1           0       -3.257524    0.197067   -0.877992
     23          1           0       -2.891874   -1.507004   -1.106014
 ---------------------------------------------------------------------
 Rotational constants (GHZ):           2.1040313           1.1554057           0.9023319
 Leave Link  202 at Sun Sep 19 21:45:25 2021, MaxMem=   524288000 cpu:               0.0 elap:               0.0
 (Enter /opt/gaussian/g16_legacy/l601.exe)
 Copying SCF densities to generalized density rwf, IOpCl= 0 IROHF=0.

 **********************************************************************

            Population analysis using the SCF density.

 **********************************************************************

 Orbital symmetries:
       Occupied  (A) (A) (A) (A) (A) (A) (A) (A) (A) (A) (A) (A)
                 (A) (A) (A) (A) (A) (A) (A) (A) (A) (A) (A) (A)
                 (A) (A) (A) (A) (A) (A) (A) (A) (A) (A) (A) (A)
       Virtual   (A) (A) (A) (A) (A) (A) (A) (A) (A) (A) (A) (A)
                 (A) (A) (A) (A) (A) (A) (A) (A) (A) (A) (A) (A)
                 (A) (A) (A) (A) (A) (A) (A) (A) (A) (A) (A) (A)
                 (A) (A) (A) (A) (A) (A) (A) (A) (A) (A) (A) (A)
                 (A) (A) (A) (A) (A) (A) (A) (A) (A) (A) (A) (A)
                 (A) (A) (A) (A) (A) (A) (A) (A) (A) (A) (A) (A)
                 (A) (A) (A) (A) (A) (A) (A) (A) (A) (A) (A) (A)
                 (A) (A) (A) (A) (A) (A) (A) (A) (A) (A) (A) (A)
                 (A) (A) (A) (A) (A) (A) (A) (A) (A) (A) (A) (A)
                 (A) (A) (A) (A) (A) (A) (A) (A) (A) (A) (A) (A)
                 (A) (A) (A) (A) (A) (A) (A) (A) (A) (A) (A) (A)
                 (A) (A) (A) (A) (A) (A) (A) (A) (A) (A) (A) (A)
                 (A) (A) (A) (A) (A) (A) (A) (A) (A) (A) (A) (A)
                 (A) (A) (A) (A) (A) (A) (A) (A) (A) (A) (A) (A)
                 (A)
 The electronic state is 1-A.
 Alpha  occ. eigenvalues --  -20.59999 -20.54809 -11.38371 -11.28877 -11.23767
 Alpha  occ. eigenvalues --  -11.21906 -11.21834 -11.21802 -11.21344  -1.44344
 Alpha  occ. eigenvalues --   -1.34710  -1.09169  -1.02265  -1.01351  -0.92744
 Alpha  occ. eigenvalues --   -0.84559  -0.82785  -0.73088  -0.68547  -0.66408
 Alpha  occ. eigenvalues --   -0.65405  -0.61808  -0.60770  -0.59866  -0.57296
 Alpha  occ. eigenvalues --   -0.56518  -0.54505  -0.53764  -0.52064  -0.50881
 Alpha  occ. eigenvalues --   -0.49890  -0.48990  -0.47394  -0.46432  -0.43528
 Alpha  occ. eigenvalues --   -0.42544
 Alpha virt. eigenvalues --    0.18346   0.22991   0.23696   0.26089   0.27833
 Alpha virt. eigenvalues --    0.28332   0.30365   0.31019   0.31422   0.32317
 Alpha virt. eigenvalues --    0.32928   0.34025   0.34542   0.35549   0.36642
 Alpha virt. eigenvalues --    0.38335   0.41196   0.41651   0.43170   0.44100
 Alpha virt. eigenvalues --    0.47428   0.50885   0.55602   0.68720   0.70195
 Alpha virt. eigenvalues --    0.72121   0.72275   0.75791   0.75852   0.77931
 Alpha virt. eigenvalues --    0.78371   0.80340   0.81860   0.86170   0.87873
 Alpha virt. eigenvalues --    0.91226   0.92975   0.93214   0.94620   1.00738
 Alpha virt. eigenvalues --    1.01452   1.05365   1.06118   1.07175   1.10052
 Alpha virt. eigenvalues --    1.10331   1.11705   1.12508   1.13624   1.14172
 Alpha virt. eigenvalues --    1.14656   1.16184   1.16984   1.17896   1.18887
 Alpha virt. eigenvalues --    1.20053   1.21199   1.22420   1.24744   1.26589
 Alpha virt. eigenvalues --    1.29713   1.32045   1.34793   1.41087   1.42822
 Alpha virt. eigenvalues --    1.46871   1.49844   1.54147   1.60019   1.66218
 Alpha virt. eigenvalues --    1.68085   1.70241   1.71997   1.74119   1.77664
 Alpha virt. eigenvalues --    1.81833   1.84362   1.89009   1.92689   1.94891
 Alpha virt. eigenvalues --    1.97545   2.00570   2.01289   2.04282   2.08919
 Alpha virt. eigenvalues --    2.11721   2.13220   2.14361   2.16704   2.19126
 Alpha virt. eigenvalues --    2.21318   2.22255   2.25601   2.30431   2.32342
 Alpha virt. eigenvalues --    2.32504   2.35470   2.35906   2.37353   2.38093
 Alpha virt. eigenvalues --    2.39875   2.41348   2.41655   2.42296   2.44879
 Alpha virt. eigenvalues --    2.45615   2.48339   2.50412   2.54001   2.55642
 Alpha virt. eigenvalues --    2.57421   2.58259   2.60230   2.62651   2.64928
 Alpha virt. eigenvalues --    2.65701   2.68551   2.71421   2.79255   2.80584
 Alpha virt. eigenvalues --    2.84089   2.85513   2.88322   2.89899   2.92585
 Alpha virt. eigenvalues --    2.95485   2.98713   3.01337   3.04638   3.05883
 Alpha virt. eigenvalues --    3.07662   3.09876   3.13438   3.15179   3.17321
 Alpha virt. eigenvalues --    3.20624   3.21489   3.23834   3.24164   3.26144
 Alpha virt. eigenvalues --    3.27176   3.28259   3.30091   3.34988   3.45004
 Alpha virt. eigenvalues --    3.51958   3.57470   3.58842   3.61468   3.67013
 Alpha virt. eigenvalues --    3.70725   3.74006   3.78998   3.79519   3.82135
 Alpha virt. eigenvalues --    3.83857   3.86394   3.88754   3.94365   3.96159
 Alpha virt. eigenvalues --    4.50455   4.57215   4.68869   4.78487   4.83326
 Alpha virt. eigenvalues --    4.97641   4.99721   5.05876   5.17474
          Condensed to atoms (all electrons):
               1          2          3          4          5          6
     1  C    4.913110   0.403805   0.401605   0.406036   0.332282  -0.038535
     2  H    0.403805   0.581156  -0.030967  -0.029125  -0.036270   0.004289
     3  H    0.401605  -0.030967   0.591562  -0.029644  -0.041050  -0.002790
     4  H    0.406036  -0.029125  -0.029644   0.575829  -0.037223  -0.003796
     5  C    0.332282  -0.036270  -0.041050  -0.037223   5.033753   0.403481
     6  H   -0.038535   0.004289  -0.002790  -0.003796   0.403481   0.592909
     7  H   -0.036614  -0.003402   0.004017  -0.002372   0.410214  -0.026972
     8  C   -0.054921  -0.005872  -0.003674   0.004343   0.350645  -0.039724
     9  H   -0.004118   0.000096   0.002671  -0.000124  -0.050117  -0.002931
    10  C    0.004393  -0.000098  -0.000016  -0.000068  -0.058169  -0.003037
    11  H   -0.000123  -0.000001   0.000001   0.000002   0.005007  -0.000110
    12  H   -0.000096   0.000010   0.000000  -0.000001  -0.005820   0.000352
    13  C   -0.000042  -0.000004  -0.000008   0.000000  -0.000572  -0.001243
    14  H    0.000005  -0.000001   0.000005   0.000002   0.000518  -0.001631
    15  H    0.000002   0.000000  -0.000000  -0.000000  -0.000017   0.000082
    16  H   -0.000042   0.000000   0.000001   0.000000  -0.000166   0.000288
    17  O    0.000838   0.000836  -0.000064   0.000162  -0.042355   0.002596
    18  C   -0.000969   0.001551   0.000049  -0.000070  -0.005904   0.000339
    19  O   -0.000619   0.000335   0.000003  -0.000015  -0.005450   0.000247
    20  C   -0.000124   0.000071  -0.000005  -0.000000  -0.000359   0.000010
    21  H    0.000002  -0.000002   0.000000   0.000000   0.000010  -0.000000
    22  H    0.000087   0.000141   0.000001  -0.000000  -0.000024  -0.000001
    23  H    0.000002   0.000005   0.000000  -0.000000   0.000011   0.000000
               7          8          9         10         11         12
     1  C   -0.036614  -0.054921  -0.004118   0.004393  -0.000123  -0.000096
     2  H   -0.003402  -0.005872   0.000096  -0.000098  -0.000001   0.000010
     3  H    0.004017  -0.003674   0.002671  -0.000016   0.000001   0.000000
     4  H   -0.002372   0.004343  -0.000124  -0.000068   0.000002  -0.000001
     5  C    0.410214   0.350645  -0.050117  -0.058169   0.005007  -0.005820
     6  H   -0.026972  -0.039724  -0.002931  -0.003037  -0.000110   0.000352
     7  H    0.527155  -0.036745   0.004264  -0.004105  -0.000015   0.002428
     8  C   -0.036745   4.767531   0.430377   0.368378  -0.046767  -0.034343
     9  H    0.004264   0.430377   0.573788  -0.046593  -0.003738   0.004101
    10  C   -0.004105   0.368378  -0.046593   5.002483   0.410032   0.409276
    11  H   -0.000015  -0.046767  -0.003738   0.410032   0.583383  -0.027763
    12  H    0.002428  -0.034343   0.004101   0.409276  -0.027763   0.526081
    13  C    0.000110  -0.052159  -0.003314   0.324795  -0.037259  -0.034861
    14  H    0.000423  -0.004565   0.000250  -0.037133   0.004102  -0.003317
    15  H   -0.000038   0.004230  -0.000120  -0.034553  -0.004486  -0.002297
    16  H    0.000046  -0.003830   0.003333  -0.042352  -0.002499   0.003951
    17  O   -0.000910   0.141016  -0.038980  -0.036205   0.000250  -0.001312
    18  C    0.000202  -0.023270   0.003333  -0.004509  -0.000189   0.001529
    19  O    0.003372   0.008135  -0.000062  -0.006658   0.000098   0.003793
    20  C    0.000080   0.003664  -0.000113  -0.000369  -0.000106   0.000140
    21  H    0.000000  -0.000105   0.000002   0.000009   0.000002  -0.000000
    22  H   -0.000009  -0.000148  -0.000001   0.000009   0.000000  -0.000002
    23  H   -0.000002  -0.000163  -0.000003   0.000011   0.000021  -0.000017
              13         14         15         16         17         18
     1  C   -0.000042   0.000005   0.000002  -0.000042   0.000838  -0.000969
     2  H   -0.000004  -0.000001   0.000000   0.000000   0.000836   0.001551
     3  H   -0.000008   0.000005  -0.000000   0.000001  -0.000064   0.000049
     4  H    0.000000   0.000002  -0.000000   0.000000   0.000162  -0.000070
     5  C   -0.000572   0.000518  -0.000017  -0.000166  -0.042355  -0.005904
     6  H   -0.001243  -0.001631   0.000082   0.000288   0.002596   0.000339
     7  H    0.000110   0.000423  -0.000038   0.000046  -0.000910   0.000202
     8  C   -0.052159  -0.004565   0.004230  -0.003830   0.141016  -0.023270
     9  H   -0.003314   0.000250  -0.000120   0.003333  -0.038980   0.003333
    10  C    0.324795  -0.037133  -0.034553  -0.042352  -0.036205  -0.004509
    11  H   -0.037259   0.004102  -0.004486  -0.002499   0.000250  -0.000189
    12  H   -0.034861  -0.003317  -0.002297   0.003951  -0.001312   0.001529
    13  C    4.941820   0.403896   0.405525   0.399962   0.002335   0.000199
    14  H    0.403896   0.577933  -0.028243  -0.031677  -0.000031  -0.000005
    15  H    0.405525  -0.028243   0.566271  -0.028864  -0.000042  -0.000004
    16  H    0.399962  -0.031677  -0.028864   0.593122   0.000005  -0.000003
    17  O    0.002335  -0.000031  -0.000042   0.000005   8.555515   0.251212
    18  C    0.000199  -0.000005  -0.000004  -0.000003   0.251212   4.170072
    19  O    0.000134   0.000003   0.000001  -0.000004  -0.074242   0.553636
    20  C    0.000005  -0.000000  -0.000000  -0.000000  -0.095905   0.376736
    21  H   -0.000000   0.000000   0.000000   0.000000   0.003344  -0.038841
    22  H    0.000000   0.000000   0.000000  -0.000000   0.002052  -0.030393
    23  H   -0.000001   0.000000   0.000000   0.000000   0.002394  -0.030821
              19         20         21         22         23
     1  C   -0.000619  -0.000124   0.000002   0.000087   0.000002
     2  H    0.000335   0.000071  -0.000002   0.000141   0.000005
     3  H    0.000003  -0.000005   0.000000   0.000001   0.000000
     4  H   -0.000015  -0.000000   0.000000  -0.000000  -0.000000
     5  C   -0.005450  -0.000359   0.000010  -0.000024   0.000011
     6  H    0.000247   0.000010  -0.000000  -0.000001   0.000000
     7  H    0.003372   0.000080   0.000000  -0.000009  -0.000002
     8  C    0.008135   0.003664  -0.000105  -0.000148  -0.000163
     9  H   -0.000062  -0.000113   0.000002  -0.000001  -0.000003
    10  C   -0.006658  -0.000369   0.000009   0.000009   0.000011
    11  H    0.000098  -0.000106   0.000002   0.000000   0.000021
    12  H    0.003793   0.000140  -0.000000  -0.000002  -0.000017
    13  C    0.000134   0.000005  -0.000000   0.000000  -0.000001
    14  H    0.000003  -0.000000   0.000000   0.000000   0.000000
    15  H    0.000001  -0.000000   0.000000   0.000000   0.000000
    16  H   -0.000004  -0.000000   0.000000  -0.000000   0.000000
    17  O   -0.074242  -0.095905   0.003344   0.002052   0.002394
    18  C    0.553636   0.376736  -0.038841  -0.030393  -0.030821
    19  O    8.165987  -0.061958   0.003175   0.001024   0.001065
    20  C   -0.061958   5.006557   0.395125   0.389122   0.389294
    21  H    0.003175   0.395125   0.523416  -0.021424  -0.021349
    22  H    0.001024   0.389122  -0.021424   0.528696  -0.023353
    23  H    0.001065   0.389294  -0.021349  -0.023353   0.528199
 Mulliken charges:
               1
     1  C   -0.325966
     2  H    0.113448
     3  H    0.108304
     4  H    0.116065
     5  C   -0.252425
     6  H    0.116177
     7  H    0.158871
     8  C    0.227968
     9  H    0.127999
    10  C   -0.245521
    11  H    0.120159
    12  H    0.158168
    13  C   -0.349318
    14  H    0.119464
    15  H    0.122554
    16  H    0.108729
    17  O   -0.672505
    18  C    0.776120
    19  O   -0.591998
    20  C   -0.401861
    21  H    0.156638
    22  H    0.154223
    23  H    0.154707
 Sum of Mulliken charges =  -0.00000
 Mulliken charges with hydrogens summed into heavy atoms:
               1
     1  C    0.011851
     5  C    0.022623
     8  C    0.355967
    10  C    0.032806
    13  C    0.001429
    17  O   -0.672505
    18  C    0.776120
    19  O   -0.591998
    20  C    0.063706
 Electronic spatial extent (au):  <R**2>=           1455.3781
 Charge=             -0.0000 electrons
 Dipole moment (field-independent basis, Debye):
    X=              0.2106    Y=              0.2012    Z=             -1.7549  Tot=              1.7789
 Quadrupole moment (field-independent basis, Debye-Ang):
   XX=            -50.9327   YY=            -55.6982   ZZ=            -61.6576
   XY=              0.7288   XZ=              2.5291   YZ=              1.7080
 Traceless Quadrupole moment (field-independent basis, Debye-Ang):
   XX=              5.1635   YY=              0.3980   ZZ=             -5.5614
   XY=              0.7288   XZ=              2.5291   YZ=              1.7080
 Octapole moment (field-independent basis, Debye-Ang**2):
  XXX=            -27.3603  YYY=             -6.5134  ZZZ=             -4.1965  XYY=             -3.0329
  XXY=             -4.3876  XXZ=             -4.5040  XZZ=              4.3503  YZZ=              1.7607
  YYZ=             -0.1947  XYZ=             -2.5917
 Hexadecapole moment (field-independent basis, Debye-Ang**3):
 XXXX=          -1111.3897 YYYY=           -602.3289 ZZZZ=           -212.9020 XXXY=             14.4791
 XXXZ=              4.9770 YYYX=              6.0298 YYYZ=              4.6764 ZZZX=              2.6286
 ZZZY=              0.9964 XXYY=           -283.6973 XXZZ=           -228.8924 YYZZ=           -133.4256
 XXYZ=              0.6200 YYXZ=              3.9865 ZZXY=              0.8986
 N-N= 4.913657171174D+02 E-N=-1.972813743813D+03  KE= 4.221774500746D+02
 No NMR shielding tensors so no spin-rotation constants.
 Leave Link  601 at Sun Sep 19 21:45:26 2021, MaxMem=   524288000 cpu:               0.3 elap:               0.6
 (Enter /opt/gaussian/g16_legacy/l9999.exe)
 1\1\GINC-TRUENO90\FOpt\RMP2-FC\6-31G(d,p)\C7H14O2\JRAMOS\19-Sep-2021\0
 \\#p opt mp2/6-31g(d,p)\\Conformer number 021. Energy MM = -3.295 kcal
 /mol\\0,1\C,-1.5696887828,0.7606079099,0.2132648961\H,-1.013841683,-0.
 1544557168,0.407992826\H,-1.226727908,1.1643863217,-0.7397847638\H,-2.
 6211787884,0.4966804755,0.1094871099\C,-1.3786457942,1.7728731655,1.33
 68055657\H,-2.0203130962,2.6377115497,1.1552520421\H,-1.6739617154,1.3
 415668287,2.2916750613\C,0.0508428895,2.2930037984,1.4333351848\H,0.27
 84165422,2.8426868405,0.5154540047\C,0.3270187007,3.2016930203,2.62533
 06152\H,1.3971793319,3.4194176341,2.6295040584\H,0.0992742993,2.663201
 4349,3.5436924551\C,-0.4605826606,4.5074521463,2.5624288465\H,-1.53060
 07254,4.3368553441,2.6670936071\H,-0.1533969334,5.1757372419,3.3653688
 036\H,-0.2911394901,5.0235153557,1.6164434202\O,1.0355529498,1.2153258
 478,1.3670078522\C,1.0286898659,0.2659234237,2.3342385084\O,0.25853019
 62,0.2297833262,3.2804332105\C,2.1140228737,-0.7435970751,2.0636211103
 \H,2.1060220989,-1.4962442493,2.8449152946\H,1.9494098436,-1.207985896
 2,1.0933487911\H,3.0803179858,-0.2444387276,2.0325914999\\Version=EM64
 L-G16RevA.03\State=1-A\HF=-422.9958004\MP2=-424.3566343\RMSD=3.846e-09
 \RMSF=6.224e-06\Dipole=0.2145485,0.26276,-0.4824168\PG=C01 [X(C7H14O2)
 ]\\@


 MATERIAL COPIED FROM ONE SCHOLARLY BOOK WITHOUT CREDIT COMPRISES PLAGIARISM.
 MATERIAL COPIED FROM TWO SCHOLARLY BOOKS COMPRISES AN ESSAY.
 MATERIAL COPIED FROM THREE SCHOLARLY BOOKS COMPRISES A DISSERTATION.
 MATERIAL COPIED FROM FOUR SCHOLARLY BOOKS COMPRISES A FIFTH SCHOLARLY BOOK.

                               -- C&EN, 25 FEB 1980
 Job cpu time:       0 days  1 hours 42 minutes 28.9 seconds.
 Elapsed time:       0 days  1 hours 42 minutes 43.6 seconds.
 File lengths (MBytes):  RWF=     29 Int=      0 D2E=      0 Chk=      6 Scr=      1
 Normal termination of Gaussian 16 at Sun Sep 19 21:45:26 2021.
