 Entering Gaussian System, Link 0=/opt/gaussian/g16_legacy/g16
 Input=07-EVA_010_gaussian.com
 Output=07-EVA_010_gaussian.log
 Initial command:
 /opt/gaussian/g16_legacy/l1.exe "/scratch-local/jramos/2661763/Gau-31492.inp" -scrdir="/scratch-local/jramos/2661763/"
 Entering Link 1 = /opt/gaussian/g16_legacy/l1.exe PID=     31494.
  
 Copyright (c) 1988,1990,1992,1993,1995,1998,2003,2009,2016,
            Gaussian, Inc.  All Rights Reserved.
  
 This is part of the Gaussian(R) 16 program.  It is based on
 the Gaussian(R) 09 system (copyright 2009, Gaussian, Inc.),
 the Gaussian(R) 03 system (copyright 2003, Gaussian, Inc.),
 the Gaussian(R) 98 system (copyright 1998, Gaussian, Inc.),
 the Gaussian(R) 94 system (copyright 1995, Gaussian, Inc.),
 the Gaussian 92(TM) system (copyright 1992, Gaussian, Inc.),
 the Gaussian 90(TM) system (copyright 1990, Gaussian, Inc.),
 the Gaussian 88(TM) system (copyright 1988, Gaussian, Inc.),
 the Gaussian 86(TM) system (copyright 1986, Carnegie Mellon
 University), and the Gaussian 82(TM) system (copyright 1983,
 Carnegie Mellon University). Gaussian is a federally registered
 trademark of Gaussian, Inc.
  
 This software contains proprietary and confidential information,
 including trade secrets, belonging to Gaussian, Inc.
  
 This software is provided under written license and may be
 used, copied, transmitted, or stored only in accord with that
 written license.
  
 The following legend is applicable only to US Government
 contracts under FAR:
  
                    RESTRICTED RIGHTS LEGEND
  
 Use, reproduction and disclosure by the US Government is
 subject to restrictions as set forth in subparagraphs (a)
 and (c) of the Commercial Computer Software - Restricted
 Rights clause in FAR 52.227-19.
  
 Gaussian, Inc.
 340 Quinnipiac St., Bldg. 40, Wallingford CT 06492
  
  
 ---------------------------------------------------------------
 Warning -- This program may not be used in any manner that
 competes with the business of Gaussian, Inc. or will provide
 assistance to any competitor of Gaussian, Inc.  The licensee
 of this program is prohibited from giving any competitor of
 Gaussian, Inc. access to this program.  By using this program,
 the user acknowledges that Gaussian, Inc. is engaged in the
 business of creating and licensing software in the field of
 computational chemistry and represents and warrants to the
 licensee that it is not a competitor of Gaussian, Inc. and that
 it will not use this program in any manner prohibited above.
 ---------------------------------------------------------------
  

 Cite this work as:
 Gaussian 16, Revision A.03,
 M. J. Frisch, G. W. Trucks, H. B. Schlegel, G. E. Scuseria, 
 M. A. Robb, J. R. Cheeseman, G. Scalmani, V. Barone, 
 G. A. Petersson, H. Nakatsuji, X. Li, M. Caricato, A. V. Marenich, 
 J. Bloino, B. G. Janesko, R. Gomperts, B. Mennucci, H. P. Hratchian, 
 J. V. Ortiz, A. F. Izmaylov, J. L. Sonnenberg, D. Williams-Young, 
 F. Ding, F. Lipparini, F. Egidi, J. Goings, B. Peng, A. Petrone, 
 T. Henderson, D. Ranasinghe, V. G. Zakrzewski, J. Gao, N. Rega, 
 G. Zheng, W. Liang, M. Hada, M. Ehara, K. Toyota, R. Fukuda, 
 J. Hasegawa, M. Ishida, T. Nakajima, Y. Honda, O. Kitao, H. Nakai, 
 T. Vreven, K. Throssell, J. A. Montgomery, Jr., J. E. Peralta, 
 F. Ogliaro, M. J. Bearpark, J. J. Heyd, E. N. Brothers, K. N. Kudin, 
 V. N. Staroverov, T. A. Keith, R. Kobayashi, J. Normand, 
 K. Raghavachari, A. P. Rendell, J. C. Burant, S. S. Iyengar, 
 J. Tomasi, M. Cossi, J. M. Millam, M. Klene, C. Adamo, R. Cammi, 
 J. W. Ochterski, R. L. Martin, K. Morokuma, O. Farkas, 
 J. B. Foresman, and D. J. Fox, Gaussian, Inc., Wallingford CT, 2016.
 
 ******************************************
 Gaussian 16:  EM64L-G16RevA.03 25-Dec-2016
                19-Sep-2021 
 ******************************************
 %chk=07-EVA_010_gaussian.chk
 %nproc=1
 Will use up to    1 processors via shared memory.
 %mem=4000Mb
 ---------------------
 #p opt mp2/6-31g(d,p)
 ---------------------
 1/18=20,19=15,38=1/1,3;
 2/9=110,12=2,17=6,18=5,40=1/2;
 3/5=1,6=6,7=101,11=9,25=1,30=1,71=1/1,2,3;
 4//1;
 5/5=2,38=5/2;
 8/6=4,10=2/1;
 9/15=2,16=-3/6;
 10/5=1/2;
 6/7=2,8=2,9=2,10=2/1;
 7/12=2/1,2,3,16;
 1/18=20,19=15/3(2);
 2/9=110/2;
 99//99;
 2/9=110/2;
 3/5=1,6=6,7=101,11=9,25=1,30=1,71=1/1,2,3;
 4/5=5,16=3,69=1/1;
 5/5=2,38=5/2;
 8/6=4,10=2/1;
 9/15=2,16=-3/6;
 10/5=1/2;
 7/12=2/1,2,3,16;
 1/18=20,19=15/3(-8);
 2/9=110/2;
 6/7=2,8=2,9=2,10=2/1;
 99//99;
 Leave Link    1 at Sun Sep 19 20:02:33 2021, MaxMem=   524288000 cpu:               0.0 elap:               0.1
 (Enter /opt/gaussian/g16_legacy/l101.exe)
 -------------------------------------------------
 Conformer number 010. Energy MM = -6.992 kcal/mol
 -------------------------------------------------
 Symbolic Z-matrix:
 Charge =  0 Multiplicity = 1
 C                    -2.2765    3.1607    1.1238 
 H                    -1.8894    3.7771    0.3062 
 H                    -2.1902    3.7276    2.0554 
 H                    -3.3421    2.9881    0.9417 
 C                    -1.5371    1.8344    1.2027 
 H                    -1.9596    1.22      2.0065 
 H                    -1.7285    1.2677    0.2821 
 C                    -0.0184    1.9828    1.3796 
 H                     0.3688    2.5259    0.5071 
 C                     0.3996    2.7212    2.664 
 H                     0.038     3.7545    2.6446 
 H                     1.4942    2.7767    2.7034 
 C                    -0.066     2.0443    3.9478 
 H                     0.2717    1.0049    3.9985 
 H                     0.3415    2.5712    4.8165 
 H                    -1.1564    2.0591    4.0341 
 O                     0.5346    0.6473    1.4002 
 C                     1.8403    0.5333    1.0314 
 O                     2.5502    1.4418    0.6256 
 C                     2.3156   -0.8705    1.2511 
 H                     2.3965   -1.063     2.3234 
 H                     1.6274   -1.5785    0.7833 
 H                     3.2997   -0.994     0.7912 
 
 ITRead=  0  0  0  0  0  0  0  0  0  0  0  0  0  0  0  0  0  0  0  0
 ITRead=  0  0  0
 MicOpt= -1 -1 -1 -1 -1 -1 -1 -1 -1 -1 -1 -1 -1 -1 -1 -1 -1 -1 -1 -1
 MicOpt= -1 -1 -1
 NAtoms=     23 NQM=       23 NQMF=       0 NMMI=      0 NMMIF=      0
                NMic=       0 NMicF=      0.
                    Isotopes and Nuclear Properties:
 (Nuclear quadrupole moments (NQMom) in fm**2, nuclear magnetic moments (NMagM)
  in nuclear magnetons)

  Atom         1           2           3           4           5           6           7           8           9          10
 IAtWgt=          12           1           1           1          12           1           1          12           1          12
 AtmWgt=  12.0000000   1.0078250   1.0078250   1.0078250  12.0000000   1.0078250   1.0078250  12.0000000   1.0078250  12.0000000
 NucSpn=           0           1           1           1           0           1           1           0           1           0
 AtZEff=  -0.0000000  -0.0000000  -0.0000000  -0.0000000  -0.0000000  -0.0000000  -0.0000000  -0.0000000  -0.0000000  -0.0000000
 NQMom=    0.0000000   0.0000000   0.0000000   0.0000000   0.0000000   0.0000000   0.0000000   0.0000000   0.0000000   0.0000000
 NMagM=    0.0000000   2.7928460   2.7928460   2.7928460   0.0000000   2.7928460   2.7928460   0.0000000   2.7928460   0.0000000
 AtZNuc=   6.0000000   1.0000000   1.0000000   1.0000000   6.0000000   1.0000000   1.0000000   6.0000000   1.0000000   6.0000000

  Atom        11          12          13          14          15          16          17          18          19          20
 IAtWgt=           1           1          12           1           1           1          16          12          16          12
 AtmWgt=   1.0078250   1.0078250  12.0000000   1.0078250   1.0078250   1.0078250  15.9949146  12.0000000  15.9949146  12.0000000
 NucSpn=           1           1           0           1           1           1           0           0           0           0
 AtZEff=  -0.0000000  -0.0000000  -0.0000000  -0.0000000  -0.0000000  -0.0000000  -0.0000000  -0.0000000  -0.0000000  -0.0000000
 NQMom=    0.0000000   0.0000000   0.0000000   0.0000000   0.0000000   0.0000000   0.0000000   0.0000000   0.0000000   0.0000000
 NMagM=    2.7928460   2.7928460   0.0000000   2.7928460   2.7928460   2.7928460   0.0000000   0.0000000   0.0000000   0.0000000
 AtZNuc=   1.0000000   1.0000000   6.0000000   1.0000000   1.0000000   1.0000000   8.0000000   6.0000000   8.0000000   6.0000000

  Atom        21          22          23
 IAtWgt=           1           1           1
 AtmWgt=   1.0078250   1.0078250   1.0078250
 NucSpn=           1           1           1
 AtZEff=  -0.0000000  -0.0000000  -0.0000000
 NQMom=    0.0000000   0.0000000   0.0000000
 NMagM=    2.7928460   2.7928460   2.7928460
 AtZNuc=   1.0000000   1.0000000   1.0000000
 Leave Link  101 at Sun Sep 19 20:02:34 2021, MaxMem=   524288000 cpu:               0.1 elap:               0.3
 (Enter /opt/gaussian/g16_legacy/l103.exe)

 GradGradGradGradGradGradGradGradGradGradGradGradGradGradGradGradGradGrad
 Berny optimization.
 Initialization pass.
                           ----------------------------
                           !    Initial Parameters    !
                           ! (Angstroms and Degrees)  !
 --------------------------                            --------------------------
 ! Name  Definition              Value          Derivative Info.                !
 --------------------------------------------------------------------------------
 ! R1    R(1,2)                  1.0947         estimate D2E/DX2                !
 ! R2    R(1,3)                  1.0939         estimate D2E/DX2                !
 ! R3    R(1,4)                  1.0947         estimate D2E/DX2                !
 ! R4    R(1,5)                  1.5205         estimate D2E/DX2                !
 ! R5    R(5,6)                  1.0964         estimate D2E/DX2                !
 ! R6    R(5,7)                  1.0979         estimate D2E/DX2                !
 ! R7    R(5,8)                  1.5362         estimate D2E/DX2                !
 ! R8    R(8,9)                  1.0982         estimate D2E/DX2                !
 ! R9    R(8,10)                 1.5394         estimate D2E/DX2                !
 ! R10   R(8,17)                 1.4456         estimate D2E/DX2                !
 ! R11   R(10,11)                1.0949         estimate D2E/DX2                !
 ! R12   R(10,12)                1.0967         estimate D2E/DX2                !
 ! R13   R(10,13)                1.5242         estimate D2E/DX2                !
 ! R14   R(13,14)                1.0941         estimate D2E/DX2                !
 ! R15   R(13,15)                1.0947         estimate D2E/DX2                !
 ! R16   R(13,16)                1.0939         estimate D2E/DX2                !
 ! R17   R(17,18)                1.3616         estimate D2E/DX2                !
 ! R18   R(18,19)                1.2223         estimate D2E/DX2                !
 ! R19   R(18,20)                1.4983         estimate D2E/DX2                !
 ! R20   R(20,21)                1.0924         estimate D2E/DX2                !
 ! R21   R(20,22)                1.0926         estimate D2E/DX2                !
 ! R22   R(20,23)                1.0933         estimate D2E/DX2                !
 ! A1    A(2,1,3)              108.4428         estimate D2E/DX2                !
 ! A2    A(2,1,4)              107.9842         estimate D2E/DX2                !
 ! A3    A(2,1,5)              110.9754         estimate D2E/DX2                !
 ! A4    A(3,1,4)              107.4666         estimate D2E/DX2                !
 ! A5    A(3,1,5)              111.683          estimate D2E/DX2                !
 ! A6    A(4,1,5)              110.1478         estimate D2E/DX2                !
 ! A7    A(1,5,6)              109.8435         estimate D2E/DX2                !
 ! A8    A(1,5,7)              108.7816         estimate D2E/DX2                !
 ! A9    A(1,5,8)              113.7323         estimate D2E/DX2                !
 ! A10   A(6,5,7)              104.9702         estimate D2E/DX2                !
 ! A11   A(6,5,8)              110.5292         estimate D2E/DX2                !
 ! A12   A(7,5,8)              108.5898         estimate D2E/DX2                !
 ! A13   A(5,8,9)              107.7487         estimate D2E/DX2                !
 ! A14   A(5,8,10)             114.2601         estimate D2E/DX2                !
 ! A15   A(5,8,17)             106.893          estimate D2E/DX2                !
 ! A16   A(9,8,10)             109.264          estimate D2E/DX2                !
 ! A17   A(9,8,17)             109.4693         estimate D2E/DX2                !
 ! A18   A(10,8,17)            109.1097         estimate D2E/DX2                !
 ! A19   A(8,10,11)            110.3787         estimate D2E/DX2                !
 ! A20   A(8,10,12)            108.9817         estimate D2E/DX2                !
 ! A21   A(8,10,13)            114.0042         estimate D2E/DX2                !
 ! A22   A(11,10,12)           106.4092         estimate D2E/DX2                !
 ! A23   A(11,10,13)           109.4604         estimate D2E/DX2                !
 ! A24   A(12,10,13)           107.2836         estimate D2E/DX2                !
 ! A25   A(10,13,14)           111.51           estimate D2E/DX2                !
 ! A26   A(10,13,15)           109.9339         estimate D2E/DX2                !
 ! A27   A(10,13,16)           111.4037         estimate D2E/DX2                !
 ! A28   A(14,13,15)           107.7945         estimate D2E/DX2                !
 ! A29   A(14,13,16)           108.474          estimate D2E/DX2                !
 ! A30   A(15,13,16)           107.5744         estimate D2E/DX2                !
 ! A31   A(8,17,18)            116.125          estimate D2E/DX2                !
 ! A32   A(17,18,19)           125.7788         estimate D2E/DX2                !
 ! A33   A(17,18,20)           110.0564         estimate D2E/DX2                !
 ! A34   A(19,18,20)           124.1141         estimate D2E/DX2                !
 ! A35   A(18,20,21)           109.422          estimate D2E/DX2                !
 ! A36   A(18,20,22)           110.154          estimate D2E/DX2                !
 ! A37   A(18,20,23)           109.2514         estimate D2E/DX2                !
 ! A38   A(21,20,22)           110.6543         estimate D2E/DX2                !
 ! A39   A(21,20,23)           109.0472         estimate D2E/DX2                !
 ! A40   A(22,20,23)           108.2811         estimate D2E/DX2                !
 ! D1    D(2,1,5,6)           -178.2563         estimate D2E/DX2                !
 ! D2    D(2,1,5,7)            -63.876          estimate D2E/DX2                !
 ! D3    D(2,1,5,8)             57.2775         estimate D2E/DX2                !
 ! D4    D(3,1,5,6)             60.6099         estimate D2E/DX2                !
 ! D5    D(3,1,5,7)            174.9902         estimate D2E/DX2                !
 ! D6    D(3,1,5,8)            -63.8562         estimate D2E/DX2                !
 ! D7    D(4,1,5,6)            -58.7265         estimate D2E/DX2                !
 ! D8    D(4,1,5,7)             55.6538         estimate D2E/DX2                !
 ! D9    D(4,1,5,8)            176.8073         estimate D2E/DX2                !
 ! D10   D(1,5,8,9)            -60.9151         estimate D2E/DX2                !
 ! D11   D(1,5,8,10)            60.7004         estimate D2E/DX2                !
 ! D12   D(1,5,8,17)          -178.4925         estimate D2E/DX2                !
 ! D13   D(6,5,8,9)            174.9886         estimate D2E/DX2                !
 ! D14   D(6,5,8,10)           -63.3959         estimate D2E/DX2                !
 ! D15   D(6,5,8,17)            57.4112         estimate D2E/DX2                !
 ! D16   D(7,5,8,9)             60.3455         estimate D2E/DX2                !
 ! D17   D(7,5,8,10)          -178.0389         estimate D2E/DX2                !
 ! D18   D(7,5,8,17)           -57.2319         estimate D2E/DX2                !
 ! D19   D(5,8,10,11)          -63.566          estimate D2E/DX2                !
 ! D20   D(5,8,10,12)          179.917          estimate D2E/DX2                !
 ! D21   D(5,8,10,13)           60.1081         estimate D2E/DX2                !
 ! D22   D(9,8,10,11)           57.2119         estimate D2E/DX2                !
 ! D23   D(9,8,10,12)          -59.3051         estimate D2E/DX2                !
 ! D24   D(9,8,10,13)         -179.1139         estimate D2E/DX2                !
 ! D25   D(17,8,10,11)         176.8652         estimate D2E/DX2                !
 ! D26   D(17,8,10,12)          60.3482         estimate D2E/DX2                !
 ! D27   D(17,8,10,13)         -59.4606         estimate D2E/DX2                !
 ! D28   D(5,8,17,18)          155.3554         estimate D2E/DX2                !
 ! D29   D(9,8,17,18)           38.9147         estimate D2E/DX2                !
 ! D30   D(10,8,17,18)         -80.6116         estimate D2E/DX2                !
 ! D31   D(8,10,13,14)          55.4175         estimate D2E/DX2                !
 ! D32   D(8,10,13,15)         174.9124         estimate D2E/DX2                !
 ! D33   D(8,10,13,16)         -65.9352         estimate D2E/DX2                !
 ! D34   D(11,10,13,14)        179.5865         estimate D2E/DX2                !
 ! D35   D(11,10,13,15)        -60.9185         estimate D2E/DX2                !
 ! D36   D(11,10,13,16)         58.2338         estimate D2E/DX2                !
 ! D37   D(12,10,13,14)        -65.3436         estimate D2E/DX2                !
 ! D38   D(12,10,13,15)         54.1513         estimate D2E/DX2                !
 ! D39   D(12,10,13,16)        173.3037         estimate D2E/DX2                !
 ! D40   D(8,17,18,19)          -3.9593         estimate D2E/DX2                !
 ! D41   D(8,17,18,20)         173.5266         estimate D2E/DX2                !
 ! D42   D(17,18,20,21)        -70.6085         estimate D2E/DX2                !
 ! D43   D(17,18,20,22)         51.2492         estimate D2E/DX2                !
 ! D44   D(17,18,20,23)        170.0724         estimate D2E/DX2                !
 ! D45   D(19,18,20,21)        106.9279         estimate D2E/DX2                !
 ! D46   D(19,18,20,22)       -131.2144         estimate D2E/DX2                !
 ! D47   D(19,18,20,23)        -12.3912         estimate D2E/DX2                !
 --------------------------------------------------------------------------------
 Trust Radius=3.00D-01 FncErr=1.00D-07 GrdErr=1.00D-07 EigMax=2.50D+02 EigMin=1.00D-04
 Number of steps in this run=    119 maximum allowed number of steps=    138.
 GradGradGradGradGradGradGradGradGradGradGradGradGradGradGradGradGradGrad

 Leave Link  103 at Sun Sep 19 20:02:34 2021, MaxMem=   524288000 cpu:               0.0 elap:               0.1
 (Enter /opt/gaussian/g16_legacy/l202.exe)
                          Input orientation:                          
 ---------------------------------------------------------------------
 Center     Atomic      Atomic             Coordinates (Angstroms)
 Number     Number       Type             X           Y           Z
 ---------------------------------------------------------------------
      1          6           0       -2.276500    3.160700    1.123800
      2          1           0       -1.889400    3.777100    0.306200
      3          1           0       -2.190200    3.727600    2.055400
      4          1           0       -3.342100    2.988100    0.941700
      5          6           0       -1.537100    1.834400    1.202700
      6          1           0       -1.959600    1.220000    2.006500
      7          1           0       -1.728500    1.267700    0.282100
      8          6           0       -0.018400    1.982800    1.379600
      9          1           0        0.368800    2.525900    0.507100
     10          6           0        0.399600    2.721200    2.664000
     11          1           0        0.038000    3.754500    2.644600
     12          1           0        1.494200    2.776700    2.703400
     13          6           0       -0.066000    2.044300    3.947800
     14          1           0        0.271700    1.004900    3.998500
     15          1           0        0.341500    2.571200    4.816500
     16          1           0       -1.156400    2.059100    4.034100
     17          8           0        0.534600    0.647300    1.400200
     18          6           0        1.840300    0.533300    1.031400
     19          8           0        2.550200    1.441800    0.625600
     20          6           0        2.315600   -0.870500    1.251100
     21          1           0        2.396500   -1.063000    2.323400
     22          1           0        1.627400   -1.578500    0.783300
     23          1           0        3.299700   -0.994000    0.791200
 ---------------------------------------------------------------------
                    Distance matrix (angstroms):
                    1          2          3          4          5
     1  C    0.000000
     2  H    1.094653   0.000000
     3  H    1.093939   1.775565   0.000000
     4  H    1.094739   1.771078   1.764670   0.000000
     5  C    1.520529   2.168389   2.176659   2.158048   0.000000
     6  H    2.155435   3.071597   2.518655   2.484207   1.096398
     7  H    2.142945   2.514669   3.067388   2.449194   1.097856
     8  C    2.559667   2.805769   2.866661   3.499909   1.536153
     9  H    2.789427   2.589465   3.223321   3.764742   2.143475
    10  C    3.118796   3.451618   2.844345   4.127696   2.583141
    11  H    2.832374   3.030428   2.304942   3.861646   2.871724
    12  H    4.106187   4.265691   3.859912   5.151512   3.511240
    13  C    3.756013   4.425905   3.305587   4.545352   3.121501
    14  H    4.405076   5.097894   4.153274   5.131925   3.431665
    15  H    4.564808   5.174352   3.920515   5.362536   4.139029
    16  H    3.307264   4.169658   2.787093   3.899136   2.865702
    17  O    3.780987   4.107099   4.164381   4.551744   2.395862
    18  C    4.884651   4.995880   5.243764   5.735099   3.623401
    19  O    5.147801   5.026499   5.453494   6.100013   4.146468
    20  C    6.111805   6.338379   6.487808   6.855224   4.707666
    21  H    6.412146   6.772341   6.637732   7.159053   5.012395
    22  H    6.149503   6.424792   6.659355   6.750915   4.673098
    23  H    6.961764   7.065789   7.350558   7.745533   5.618168
                    6          7          8          9         10
     6  H    0.000000
     7  H    1.740471   0.000000
     8  C    2.177872   2.154139   0.000000
     9  H    3.061866   2.456086   1.098243   0.000000
    10  C    2.872583   3.509262   1.539364   2.165943   0.000000
    11  H    3.289570   3.858251   2.177688   2.487527   1.094915
    12  H    3.851976   4.304134   2.161176   2.480556   1.096714
    13  C    2.834402   4.099313   2.569377   3.501343   1.524178
    14  H    2.998838   4.228651   2.810531   3.809559   2.177828
    15  H    3.875165   5.152164   3.505428   4.309725   2.158502
    16  H    2.336746   3.876998   2.889158   3.870900   2.176393
    17  O    2.629947   2.599359   1.445612   2.086685   2.432381
    18  C    3.982665   3.719829   2.382658   2.531928   3.086731
    19  O    4.721692   4.295995   2.731099   2.438815   3.227541
    20  C    4.818522   4.676067   3.688548   3.984859   4.309020
    21  H    4.928298   5.158943   3.999925   4.504522   4.292294
    22  H    4.711092   4.428783   3.968260   4.301913   4.850974
    23  H    5.834294   5.536900   4.496370   4.589181   5.071555
                   11         12         13         14         15
    11  H    0.000000
    12  H    1.755012   0.000000
    13  C    2.152657   2.125833   0.000000
    14  H    3.073754   2.512183   1.094059   0.000000
    15  H    2.491879   2.415810   1.094678   1.768415   0.000000
    16  H    2.496334   3.051457   1.093910   1.775408   1.765814
    17  O    3.383760   2.674604   2.966917   2.635936   3.925530
    18  C    4.028254   2.819257   3.797695   3.389188   4.552628
    19  O    3.966874   2.685954   4.271361   4.093763   4.870066
    20  C    5.340405   4.010728   4.630364   3.904210   5.334271
    21  H    5.373453   3.962555   4.284611   3.405429   4.862713
    22  H    5.867838   4.761543   5.099642   4.341588   5.927921
    23  H    6.051614   4.597229   5.524792   4.842640   6.137152
                   16         17         18         19         20
    16  H    0.000000
    17  O    3.433670   0.000000
    18  C    4.508268   1.361566   0.000000
    19  O    5.073245   2.300843   1.222295   0.000000
    20  C    5.327516   2.344762   1.498277   2.406869   0.000000
    21  H    5.029622   2.691486   2.127627   3.029880   1.092441
    22  H    5.616883   2.555184   2.136956   3.162063   1.092575
    23  H    6.300369   3.272694   2.126074   2.553878   1.093258
                   21         22         23
    21  H    0.000000
    22  H    1.796987   0.000000
    23  H    1.779935   1.771522   0.000000
 Stoichiometry    C7H14O2
 Framework group  C1[X(C7H14O2)]
 Deg. of freedom    63
 Full point group                 C1      NOp   1
 Largest Abelian subgroup         C1      NOp   1
 Largest concise Abelian subgroup C1      NOp   1
                         Standard orientation:                         
 ---------------------------------------------------------------------
 Center     Atomic      Atomic             Coordinates (Angstroms)
 Number     Number       Type             X           Y           Z
 ---------------------------------------------------------------------
      1          6           0        2.977838   -1.045396    0.095339
      2          1           0        2.889010   -1.630859    1.015995
      3          1           0        3.381964   -0.060964    0.348870
      4          1           0        3.706662   -1.542862   -0.552578
      5          6           0        1.636334   -0.936758   -0.612174
      6          1           0        1.752565   -0.374158   -1.546016
      7          1           0        1.318583   -1.940464   -0.923454
      8          6           0        0.528516   -0.319178    0.254485
      9          1           0        0.388856   -0.966469    1.130640
     10          6           0        0.820533    1.116985    0.725446
     11          1           0        1.699971    1.133015    1.377497
     12          1           0       -0.021472    1.471603    1.332121
     13          6           0        1.012306    2.115069   -0.410411
     14          1           0        0.153591    2.121199   -1.088301
     15          1           0        1.125221    3.125376   -0.004393
     16          1           0        1.911279    1.890353   -0.991779
     17          8           0       -0.677700   -0.319901   -0.542281
     18          6           0       -1.851727   -0.315727    0.147289
     19          8           0       -1.967010   -0.379966    1.362438
     20          6           0       -3.002780   -0.158360   -0.798833
     21          1           0       -3.006765    0.857649   -1.200254
     22          1           0       -2.929678   -0.891279   -1.605806
     23          1           0       -3.938227   -0.333015   -0.260644
 ---------------------------------------------------------------------
 Rotational constants (GHZ):           2.4800589           0.9492172           0.8529310
 Leave Link  202 at Sun Sep 19 20:02:34 2021, MaxMem=   524288000 cpu:               0.0 elap:               0.2
 (Enter /opt/gaussian/g16_legacy/l301.exe)
 Standard basis: 6-31G(d,p) (6D, 7F)
 Ernie: Thresh=  0.10000D-02 Tol=  0.10000D-05 Strict=F.
 There are   205 symmetry adapted cartesian basis functions of A   symmetry.
 There are   205 symmetry adapted basis functions of A   symmetry.
   205 basis functions,   350 primitive gaussians,   205 cartesian basis functions
    36 alpha electrons       36 beta electrons
       nuclear repulsion energy       484.8439286634 Hartrees.
 IExCor=    0 DFT=F Ex=HF Corr=None ExCW=0 ScaHFX=  1.000000
 ScaDFX=  1.000000  1.000000  1.000000  1.000000 ScalE2=  1.000000  1.000000
 IRadAn=      5 IRanWt=     -1 IRanGd=            0 ICorTp=0 IEmpDi=  4
 NAtoms=   23 NActive=   23 NUniq=   23 SFac= 1.00D+00 NAtFMM=   60 NAOKFM=F Big=F
 Integral buffers will be    131072 words long.
 Raffenetti 1 integral format.
 Two-electron integral symmetry is turned on.
 Leave Link  301 at Sun Sep 19 20:02:34 2021, MaxMem=   524288000 cpu:               0.1 elap:               0.2
 (Enter /opt/gaussian/g16_legacy/l302.exe)
 NPDir=0 NMtPBC=     1 NCelOv=     1 NCel=       1 NClECP=     1 NCelD=      1
         NCelK=      1 NCelE2=     1 NClLst=     1 CellRange=     0.0.
 One-electron integrals computed using PRISM.
 One-electron integral symmetry used in STVInt
 NBasis=   205 RedAO= T EigKep=  3.22D-03  NBF=   205
 NBsUse=   205 1.00D-06 EigRej= -1.00D+00 NBFU=   205
 Leave Link  302 at Sun Sep 19 20:02:35 2021, MaxMem=   524288000 cpu:               0.2 elap:               0.6
 (Enter /opt/gaussian/g16_legacy/l303.exe)
 DipDrv:  MaxL=1.
 Leave Link  303 at Sun Sep 19 20:02:35 2021, MaxMem=   524288000 cpu:               0.0 elap:               0.2
 (Enter /opt/gaussian/g16_legacy/l401.exe)
 ExpMin= 1.61D-01 ExpMax= 5.48D+03 ExpMxC= 8.25D+02 IAcc=3 IRadAn=         5 AccDes= 0.00D+00
 Harris functional with IExCor=  205 and IRadAn=       5 diagonalized for initial guess.
 HarFok:  IExCor=  205 AccDes= 0.00D+00 IRadAn=         5 IDoV= 1 UseB2=F ITyADJ=14
 ICtDFT=  3500011 ScaDFX=  1.000000  1.000000  1.000000  1.000000
 FoFCou: FMM=F IPFlag=           0 FMFlag=      100000 FMFlg1=           0
         NFxFlg=           0 DoJE=T BraDBF=F KetDBF=T FulRan=T
         wScrn=  0.000000 ICntrl=       500 IOpCl=  0 I1Cent=   200000004 NGrid=           0
         NMat0=    1 NMatS0=      1 NMatT0=    0 NMatD0=    1 NMtDS0=    0 NMtDT0=    0
 Petite list used in FoFCou.
 Harris En= -423.718762020605    
 JPrj=0 DoOrth=F DoCkMO=F.
 Leave Link  401 at Sun Sep 19 20:02:40 2021, MaxMem=   524288000 cpu:               4.6 elap:               4.9
 (Enter /opt/gaussian/g16_legacy/l502.exe)
 Keep R1 ints in memory in canonical form, NReq=227304434.
 FoFCou: FMM=F IPFlag=           0 FMFlag=           0 FMFlg1=           0
         NFxFlg=           0 DoJE=F BraDBF=F KetDBF=F FulRan=T
         wScrn=  0.000000 ICntrl=       600 IOpCl=  0 I1Cent=           0 NGrid=           0
         NMat0=    1 NMatS0=  21115 NMatT0=    0 NMatD0=    1 NMtDS0=    0 NMtDT0=    0
 Symmetry not used in FoFCou.
 Two-electron integral symmetry not used.
 Closed shell SCF:
 Using DIIS extrapolation, IDIIS=  1040.
 NGot=   524288000 LenX=   301268152 LenY=   301225686
 Requested convergence on RMS density matrix=1.00D-08 within 128 cycles.
 Requested convergence on MAX density matrix=1.00D-06.
 Requested convergence on             energy=1.00D-06.
 No special actions if energy rises.

 Cycle   1  Pass 1  IDiag  1:
 E= -422.508461061135    
 DIIS: error= 5.43D-02 at cycle   1 NSaved=   1.
 NSaved= 1 IEnMin= 1 EnMin= -422.508461061135     IErMin= 1 ErrMin= 5.43D-02
 ErrMax= 5.43D-02  0.00D+00 EMaxC= 1.00D-01 BMatC= 7.21D-01 BMatP= 7.21D-01
 IDIUse=3 WtCom= 4.57D-01 WtEn= 5.43D-01
 Coeff-Com:  0.100D+01
 Coeff-En:   0.100D+01
 Coeff:      0.100D+01
 Gap=     0.558 Goal=   None    Shift=    0.000
 GapD=    0.558 DampG=2.000 DampE=0.500 DampFc=1.0000 IDamp=-1.
 RMSDP=4.05D-03 MaxDP=1.17D-01              OVMax= 1.28D-01

 Cycle   2  Pass 1  IDiag  1:
 E= -422.912053052817     Delta-E=       -0.403591991682 Rises=F Damp=F
 DIIS: error= 1.46D-02 at cycle   2 NSaved=   2.
 NSaved= 2 IEnMin= 2 EnMin= -422.912053052817     IErMin= 2 ErrMin= 1.46D-02
 ErrMax= 1.46D-02  0.00D+00 EMaxC= 1.00D-01 BMatC= 9.94D-02 BMatP= 7.21D-01
 IDIUse=3 WtCom= 8.54D-01 WtEn= 1.46D-01
 Coeff-Com:  0.209D+00 0.791D+00
 Coeff-En:   0.000D+00 0.100D+01
 Coeff:      0.179D+00 0.821D+00
 Gap=     0.637 Goal=   None    Shift=    0.000
 RMSDP=1.50D-03 MaxDP=4.87D-02 DE=-4.04D-01 OVMax= 4.58D-02

 Cycle   3  Pass 1  IDiag  1:
 E= -422.988703498762     Delta-E=       -0.076650445944 Rises=F Damp=F
 DIIS: error= 5.06D-03 at cycle   3 NSaved=   3.
 NSaved= 3 IEnMin= 3 EnMin= -422.988703498762     IErMin= 3 ErrMin= 5.06D-03
 ErrMax= 5.06D-03  0.00D+00 EMaxC= 1.00D-01 BMatC= 8.82D-03 BMatP= 9.94D-02
 IDIUse=3 WtCom= 9.49D-01 WtEn= 5.06D-02
 Coeff-Com: -0.154D-01 0.192D+00 0.824D+00
 Coeff-En:   0.000D+00 0.000D+00 0.100D+01
 Coeff:     -0.146D-01 0.182D+00 0.832D+00
 Gap=     0.614 Goal=   None    Shift=    0.000
 RMSDP=3.96D-04 MaxDP=2.25D-02 DE=-7.67D-02 OVMax= 2.10D-02

 Cycle   4  Pass 1  IDiag  1:
 E= -422.995488586568     Delta-E=       -0.006785087807 Rises=F Damp=F
 DIIS: error= 1.63D-03 at cycle   4 NSaved=   4.
 NSaved= 4 IEnMin= 4 EnMin= -422.995488586568     IErMin= 4 ErrMin= 1.63D-03
 ErrMax= 1.63D-03  0.00D+00 EMaxC= 1.00D-01 BMatC= 9.17D-04 BMatP= 8.82D-03
 IDIUse=3 WtCom= 9.84D-01 WtEn= 1.63D-02
 Coeff-Com: -0.124D-01 0.352D-01 0.310D+00 0.667D+00
 Coeff-En:   0.000D+00 0.000D+00 0.000D+00 0.100D+01
 Coeff:     -0.122D-01 0.346D-01 0.305D+00 0.672D+00
 Gap=     0.614 Goal=   None    Shift=    0.000
 RMSDP=1.23D-04 MaxDP=5.77D-03 DE=-6.79D-03 OVMax= 5.58D-03

 Cycle   5  Pass 1  IDiag  1:
 E= -422.996221150768     Delta-E=       -0.000732564200 Rises=F Damp=F
 DIIS: error= 4.51D-04 at cycle   5 NSaved=   5.
 NSaved= 5 IEnMin= 5 EnMin= -422.996221150768     IErMin= 5 ErrMin= 4.51D-04
 ErrMax= 4.51D-04  0.00D+00 EMaxC= 1.00D-01 BMatC= 2.77D-05 BMatP= 9.17D-04
 IDIUse=3 WtCom= 9.95D-01 WtEn= 4.51D-03
 Coeff-Com:  0.166D-02-0.170D-01-0.746D-01-0.166D-01 0.111D+01
 Coeff-En:   0.000D+00 0.000D+00 0.000D+00 0.000D+00 0.100D+01
 Coeff:      0.166D-02-0.169D-01-0.743D-01-0.166D-01 0.111D+01
 Gap=     0.614 Goal=   None    Shift=    0.000
 RMSDP=4.93D-05 MaxDP=1.92D-03 DE=-7.33D-04 OVMax= 2.58D-03

 Cycle   6  Pass 1  IDiag  1:
 E= -422.996281238010     Delta-E=       -0.000060087242 Rises=F Damp=F
 DIIS: error= 1.15D-04 at cycle   6 NSaved=   6.
 NSaved= 6 IEnMin= 6 EnMin= -422.996281238010     IErMin= 6 ErrMin= 1.15D-04
 ErrMax= 1.15D-04  0.00D+00 EMaxC= 1.00D-01 BMatC= 3.77D-06 BMatP= 2.77D-05
 IDIUse=3 WtCom= 9.99D-01 WtEn= 1.15D-03
 Coeff-Com:  0.130D-02-0.610D-02-0.374D-01-0.717D-01 0.158D+00 0.956D+00
 Coeff-En:   0.000D+00 0.000D+00 0.000D+00 0.000D+00 0.000D+00 0.100D+01
 Coeff:      0.130D-02-0.609D-02-0.374D-01-0.716D-01 0.157D+00 0.956D+00
 Gap=     0.614 Goal=   None    Shift=    0.000
 RMSDP=1.82D-05 MaxDP=6.50D-04 DE=-6.01D-05 OVMax= 9.76D-04

 Cycle   7  Pass 1  IDiag  1:
 E= -422.996288979762     Delta-E=       -0.000007741752 Rises=F Damp=F
 DIIS: error= 5.17D-05 at cycle   7 NSaved=   7.
 NSaved= 7 IEnMin= 7 EnMin= -422.996288979762     IErMin= 7 ErrMin= 5.17D-05
 ErrMax= 5.17D-05  0.00D+00 EMaxC= 1.00D-01 BMatC= 4.84D-07 BMatP= 3.77D-06
 IDIUse=1 WtCom= 1.00D+00 WtEn= 0.00D+00
 Coeff-Com: -0.251D-03 0.211D-02 0.118D-01 0.396D-03-0.108D+00-0.873D-01
 Coeff-Com:  0.118D+01
 Coeff:     -0.251D-03 0.211D-02 0.118D-01 0.396D-03-0.108D+00-0.873D-01
 Coeff:      0.118D+01
 Gap=     0.614 Goal=   None    Shift=    0.000
 RMSDP=7.64D-06 MaxDP=3.20D-04 DE=-7.74D-06 OVMax= 5.12D-04

 Cycle   8  Pass 1  IDiag  1:
 E= -422.996290364703     Delta-E=       -0.000001384942 Rises=F Damp=F
 DIIS: error= 1.65D-05 at cycle   8 NSaved=   8.
 NSaved= 8 IEnMin= 8 EnMin= -422.996290364703     IErMin= 8 ErrMin= 1.65D-05
 ErrMax= 1.65D-05  0.00D+00 EMaxC= 1.00D-01 BMatC= 8.64D-08 BMatP= 4.84D-07
 IDIUse=1 WtCom= 1.00D+00 WtEn= 0.00D+00
 Coeff-Com: -0.222D-03 0.117D-02 0.723D-02 0.831D-02-0.310D-01-0.167D+00
 Coeff-Com:  0.915D-01 0.109D+01
 Coeff:     -0.222D-03 0.117D-02 0.723D-02 0.831D-02-0.310D-01-0.167D+00
 Coeff:      0.915D-01 0.109D+01
 Gap=     0.614 Goal=   None    Shift=    0.000
 RMSDP=3.54D-06 MaxDP=1.56D-04 DE=-1.38D-06 OVMax= 2.19D-04

 Cycle   9  Pass 1  IDiag  1:
 E= -422.996290606919     Delta-E=       -0.000000242216 Rises=F Damp=F
 DIIS: error= 7.03D-06 at cycle   9 NSaved=   9.
 NSaved= 9 IEnMin= 9 EnMin= -422.996290606919     IErMin= 9 ErrMin= 7.03D-06
 ErrMax= 7.03D-06  0.00D+00 EMaxC= 1.00D-01 BMatC= 1.15D-08 BMatP= 8.64D-08
 IDIUse=1 WtCom= 1.00D+00 WtEn= 0.00D+00
 Coeff-Com: -0.435D-06-0.129D-03-0.489D-03 0.740D-03 0.146D-01-0.128D-01
 Coeff-Com: -0.167D+00 0.162D+00 0.100D+01
 Coeff:     -0.435D-06-0.129D-03-0.489D-03 0.740D-03 0.146D-01-0.128D-01
 Coeff:     -0.167D+00 0.162D+00 0.100D+01
 Gap=     0.614 Goal=   None    Shift=    0.000
 RMSDP=1.10D-06 MaxDP=4.23D-05 DE=-2.42D-07 OVMax= 6.09D-05

 Cycle  10  Pass 1  IDiag  1:
 E= -422.996290631665     Delta-E=       -0.000000024746 Rises=F Damp=F
 DIIS: error= 1.83D-06 at cycle  10 NSaved=  10.
 NSaved=10 IEnMin=10 EnMin= -422.996290631665     IErMin=10 ErrMin= 1.83D-06
 ErrMax= 1.83D-06  0.00D+00 EMaxC= 1.00D-01 BMatC= 8.68D-10 BMatP= 1.15D-08
 IDIUse=1 WtCom= 1.00D+00 WtEn= 0.00D+00
 Coeff-Com:  0.253D-04-0.143D-03-0.835D-03-0.134D-02 0.397D-02 0.193D-01
 Coeff-Com: -0.121D-01-0.114D+00-0.245D-01 0.113D+01
 Coeff:      0.253D-04-0.143D-03-0.835D-03-0.134D-02 0.397D-02 0.193D-01
 Coeff:     -0.121D-01-0.114D+00-0.245D-01 0.113D+01
 Gap=     0.614 Goal=   None    Shift=    0.000
 RMSDP=3.06D-07 MaxDP=1.65D-05 DE=-2.47D-08 OVMax= 1.65D-05

 Cycle  11  Pass 1  IDiag  1:
 E= -422.996290633797     Delta-E=       -0.000000002132 Rises=F Damp=F
 DIIS: error= 6.66D-07 at cycle  11 NSaved=  11.
 NSaved=11 IEnMin=11 EnMin= -422.996290633797     IErMin=11 ErrMin= 6.66D-07
 ErrMax= 6.66D-07  0.00D+00 EMaxC= 1.00D-01 BMatC= 9.91D-11 BMatP= 8.68D-10
 IDIUse=1 WtCom= 1.00D+00 WtEn= 0.00D+00
 Coeff-Com:  0.281D-05-0.534D-05-0.263D-04-0.236D-03-0.744D-03 0.268D-02
 Coeff-Com:  0.125D-01-0.196D-01-0.104D+00 0.127D+00 0.982D+00
 Coeff:      0.281D-05-0.534D-05-0.263D-04-0.236D-03-0.744D-03 0.268D-02
 Coeff:      0.125D-01-0.196D-01-0.104D+00 0.127D+00 0.982D+00
 Gap=     0.614 Goal=   None    Shift=    0.000
 RMSDP=7.13D-08 MaxDP=3.73D-06 DE=-2.13D-09 OVMax= 2.94D-06

 Cycle  12  Pass 1  IDiag  1:
 E= -422.996290633963     Delta-E=       -0.000000000166 Rises=F Damp=F
 DIIS: error= 1.62D-07 at cycle  12 NSaved=  12.
 NSaved=12 IEnMin=12 EnMin= -422.996290633963     IErMin=12 ErrMin= 1.62D-07
 ErrMax= 1.62D-07  0.00D+00 EMaxC= 1.00D-01 BMatC= 8.31D-12 BMatP= 9.91D-11
 IDIUse=1 WtCom= 1.00D+00 WtEn= 0.00D+00
 Coeff-Com: -0.248D-05 0.140D-04 0.907D-04 0.118D-03-0.451D-03-0.203D-02
 Coeff-Com:  0.146D-02 0.141D-01-0.494D-02-0.114D+00 0.467D-02 0.110D+01
 Coeff:     -0.248D-05 0.140D-04 0.907D-04 0.118D-03-0.451D-03-0.203D-02
 Coeff:      0.146D-02 0.141D-01-0.494D-02-0.114D+00 0.467D-02 0.110D+01
 Gap=     0.614 Goal=   None    Shift=    0.000
 RMSDP=2.66D-08 MaxDP=1.04D-06 DE=-1.66D-10 OVMax= 1.23D-06

 Cycle  13  Pass 1  IDiag  1:
 E= -422.996290633981     Delta-E=       -0.000000000018 Rises=F Damp=F
 DIIS: error= 4.92D-08 at cycle  13 NSaved=  13.
 NSaved=13 IEnMin=13 EnMin= -422.996290633981     IErMin=13 ErrMin= 4.92D-08
 ErrMax= 4.92D-08  0.00D+00 EMaxC= 1.00D-01 BMatC= 6.29D-13 BMatP= 8.31D-12
 IDIUse=1 WtCom= 1.00D+00 WtEn= 0.00D+00
 Coeff-Com: -0.206D-06 0.354D-06 0.347D-05 0.170D-04 0.638D-04-0.232D-03
 Coeff-Com: -0.114D-02 0.214D-02 0.760D-02-0.115D-01-0.842D-01 0.290D-01
 Coeff-Com:  0.106D+01
 Coeff:     -0.206D-06 0.354D-06 0.347D-05 0.170D-04 0.638D-04-0.232D-03
 Coeff:     -0.114D-02 0.214D-02 0.760D-02-0.115D-01-0.842D-01 0.290D-01
 Coeff:      0.106D+01
 Gap=     0.614 Goal=   None    Shift=    0.000
 RMSDP=7.72D-09 MaxDP=2.21D-07 DE=-1.83D-11 OVMax= 3.45D-07

 SCF Done:  E(RHF) =  -422.996290634     A.U. after   13 cycles
            NFock= 13  Conv=0.77D-08     -V/T= 2.0023
 KE= 4.220316974611D+02 PE=-1.959519893636D+03 EE= 6.296479768774D+02
 Leave Link  502 at Sun Sep 19 20:02:53 2021, MaxMem=   524288000 cpu:              12.8 elap:              13.1
 (Enter /opt/gaussian/g16_legacy/l801.exe)
 ExpMin= 1.61D-01 ExpMax= 5.48D+03 ExpMxC= 8.25D+02 IAcc=3 IRadAn=         5 AccDes= 0.00D+00
 HarFok:  IExCor=  205 AccDes= 0.00D+00 IRadAn=         5 IDoV=-2 UseB2=F ITyADJ=14
 ICtDFT= 12500011 ScaDFX=  1.000000  1.000000  1.000000  1.000000
 Largest valence mixing into a core orbital is  2.11D-04
 Largest core mixing into a valence orbital is  3.29D-05
 Range of M.O.s used for correlation:    10   205
 NBasis=   205 NAE=    36 NBE=    36 NFC=     9 NFV=     0
 NROrb=    196 NOA=    27 NOB=    27 NVA=   169 NVB=   169
 Leave Link  801 at Sun Sep 19 20:02:54 2021, MaxMem=   524288000 cpu:               0.7 elap:               1.0
 (Enter /opt/gaussian/g16_legacy/l906.exe)
 Frozen-core derivative calculation, NFC=   9 NFV=   0.
 FulOut=F Deriv=T AODrv=T NAtomX=    23
   MMem=         130  MDisk=          27 MDiskD=          27
  W3Min=     1512900 MinDsk=     1927595 NBas6D=         205
 NBas2D=       21400    NTT=       21115    LW2=     2040000
    MDV=   523792205 MDiskM=       35351 NBas2p=       19430
 Fully direct method using O(ONN) memory.
 IMap=   1   2   3   4   5   6   7   8   9  10  11  12  13  14  15  16  17  18  19  20
 IMap=  21  22  23  24  25  26  27  28  29  30  31  32  33  34  35  36
 JobTyp=1 Pass  1:  I=  10 to  36 NPSUse=  1 ParTrn=F ParDer=F DoDerP=T.
 Spin components of T(2) and E(2):
     alpha-alpha T2 =       0.5285715770D-01 E2=     -0.1651682011D+00
     alpha-beta  T2 =       0.3173811520D+00 E2=     -0.1030729220D+01
     beta-beta   T2 =       0.5285715770D-01 E2=     -0.1651682011D+00
 The integrals were generated   1 times.
 ANorm=    0.1192935651D+01
 E2 =    -0.1361065623D+01 EUMP2 =    -0.42435735625671D+03
 Leave Link  906 at Sun Sep 19 20:04:33 2021, MaxMem=   524288000 cpu:              98.3 elap:              98.5
 (Enter /opt/gaussian/g16_legacy/l1002.exe)
 Minotr:  Closed shell wavefunction.
          Computing MP2/KS-MP2 derivatives.
          Using Z-Vector for PSCF gradient.
          Skipping F1 and S1 gradient terms here.
          IDoAtm=11111111111111111111111
          Frozen-core window.
          Direct CPHF calculation.
          Differentiating once with respect to electric field.
                with respect to dipole field.
          Differentiating once with respect to nuclear coordinates.
          Requested convergence is 1.0D-10 RMS, and 1.0D-09 maximum.
          NewPWx=F KeepS1=T KeepF1=T KeepIn=T MapXYZ=F SortEE=F KeepMc=T.
 Keep R1 ints in memory in canonical form, NReq=227306992.
 FoFCou: FMM=F IPFlag=           0 FMFlag=           0 FMFlg1=           0
         NFxFlg=           0 DoJE=F BraDBF=F KetDBF=F FulRan=T
         wScrn=  0.000000 ICntrl=       600 IOpCl=  0 I1Cent=           0 NGrid=           0
         NMat0=    1 NMatS0=  21115 NMatT0=    0 NMatD0=    1 NMtDS0=    0 NMtDT0=    0
 Symmetry not used in FoFCou.
 Two-electron integral symmetry not used.
          MDV=     524288000 using IRadAn=       5.
          Solving linear equations separately, MaxMat=       0.
          There are     1 degrees of freedom in the 1st order CPHF.  IDoFFX=0 NUNeed=     1.
 LinEq1:  Iter=  0 NonCon=     1 RMS=3.71D-03 Max=6.79D-02 NDo=     1
 AX will form     1 AO Fock derivatives at one time.
 LinEq1:  Iter=  1 NonCon=     1 RMS=1.19D-03 Max=1.63D-02 NDo=     1
 LinEq1:  Iter=  2 NonCon=     1 RMS=3.70D-04 Max=5.27D-03 NDo=     1
 LinEq1:  Iter=  3 NonCon=     1 RMS=1.49D-04 Max=3.10D-03 NDo=     1
 LinEq1:  Iter=  4 NonCon=     1 RMS=4.73D-05 Max=5.63D-04 NDo=     1
 LinEq1:  Iter=  5 NonCon=     1 RMS=2.06D-05 Max=3.83D-04 NDo=     1
 LinEq1:  Iter=  6 NonCon=     1 RMS=5.39D-06 Max=1.49D-04 NDo=     1
 LinEq1:  Iter=  7 NonCon=     1 RMS=1.69D-06 Max=4.18D-05 NDo=     1
 LinEq1:  Iter=  8 NonCon=     1 RMS=6.26D-07 Max=2.25D-05 NDo=     1
 LinEq1:  Iter=  9 NonCon=     1 RMS=1.76D-07 Max=3.64D-06 NDo=     1
 LinEq1:  Iter= 10 NonCon=     1 RMS=4.85D-08 Max=6.22D-07 NDo=     1
 LinEq1:  Iter= 11 NonCon=     1 RMS=1.40D-08 Max=1.42D-07 NDo=     1
 LinEq1:  Iter= 12 NonCon=     1 RMS=3.90D-09 Max=6.78D-08 NDo=     1
 LinEq1:  Iter= 13 NonCon=     1 RMS=1.12D-09 Max=2.14D-08 NDo=     1
 LinEq1:  Iter= 14 NonCon=     1 RMS=2.67D-10 Max=3.57D-09 NDo=     1
 LinEq1:  Iter= 15 NonCon=     0 RMS=6.61D-11 Max=6.70D-10 NDo=     1
 Linear equations converged to 1.000D-10 1.000D-09 after    15 iterations.
 End of Minotr F.D. properties file   721 does not exist.
 End of Minotr F.D. properties file   722 does not exist.
 End of Minotr F.D. properties file   788 does not exist.
 Leave Link 1002 at Sun Sep 19 20:04:47 2021, MaxMem=   524288000 cpu:              14.6 elap:              14.7
 (Enter /opt/gaussian/g16_legacy/l601.exe)
 Copying SCF densities to generalized density rwf, IOpCl= 0 IROHF=0.

 **********************************************************************

            Population analysis using the SCF density.

 **********************************************************************

 Orbital symmetries:
       Occupied  (A) (A) (A) (A) (A) (A) (A) (A) (A) (A) (A) (A)
                 (A) (A) (A) (A) (A) (A) (A) (A) (A) (A) (A) (A)
                 (A) (A) (A) (A) (A) (A) (A) (A) (A) (A) (A) (A)
       Virtual   (A) (A) (A) (A) (A) (A) (A) (A) (A) (A) (A) (A)
                 (A) (A) (A) (A) (A) (A) (A) (A) (A) (A) (A) (A)
                 (A) (A) (A) (A) (A) (A) (A) (A) (A) (A) (A) (A)
                 (A) (A) (A) (A) (A) (A) (A) (A) (A) (A) (A) (A)
                 (A) (A) (A) (A) (A) (A) (A) (A) (A) (A) (A) (A)
                 (A) (A) (A) (A) (A) (A) (A) (A) (A) (A) (A) (A)
                 (A) (A) (A) (A) (A) (A) (A) (A) (A) (A) (A) (A)
                 (A) (A) (A) (A) (A) (A) (A) (A) (A) (A) (A) (A)
                 (A) (A) (A) (A) (A) (A) (A) (A) (A) (A) (A) (A)
                 (A) (A) (A) (A) (A) (A) (A) (A) (A) (A) (A) (A)
                 (A) (A) (A) (A) (A) (A) (A) (A) (A) (A) (A) (A)
                 (A) (A) (A) (A) (A) (A) (A) (A) (A) (A) (A) (A)
                 (A) (A) (A) (A) (A) (A) (A) (A) (A) (A) (A) (A)
                 (A) (A) (A) (A) (A) (A) (A) (A) (A) (A) (A) (A)
                 (A)
 The electronic state is 1-A.
 Alpha  occ. eigenvalues --  -20.60519 -20.55038 -11.38506 -11.28962 -11.23960
 Alpha  occ. eigenvalues --  -11.22655 -11.22291 -11.22234 -11.21515  -1.44633
 Alpha  occ. eigenvalues --   -1.34973  -1.09125  -1.02030  -1.01564  -0.92752
 Alpha  occ. eigenvalues --   -0.85621  -0.80135  -0.74808  -0.68735  -0.66896
 Alpha  occ. eigenvalues --   -0.66066  -0.63284  -0.60535  -0.58373  -0.57108
 Alpha  occ. eigenvalues --   -0.56412  -0.54667  -0.53872  -0.51838  -0.51006
 Alpha  occ. eigenvalues --   -0.50113  -0.48740  -0.47496  -0.45691  -0.44279
 Alpha  occ. eigenvalues --   -0.43181
 Alpha virt. eigenvalues --    0.18233   0.21628   0.24231   0.26653   0.27603
 Alpha virt. eigenvalues --    0.28168   0.29439   0.30273   0.30603   0.32445
 Alpha virt. eigenvalues --    0.33068   0.33744   0.35121   0.36024   0.36865
 Alpha virt. eigenvalues --    0.38098   0.39921   0.40502   0.42468   0.43629
 Alpha virt. eigenvalues --    0.47428   0.49685   0.54977   0.69159   0.70549
 Alpha virt. eigenvalues --    0.72679   0.73071   0.75380   0.76295   0.76709
 Alpha virt. eigenvalues --    0.78476   0.80439   0.81794   0.83418   0.87715
 Alpha virt. eigenvalues --    0.89933   0.93176   0.94465   0.95330   0.97374
 Alpha virt. eigenvalues --    0.99645   1.01614   1.06663   1.08834   1.09117
 Alpha virt. eigenvalues --    1.09958   1.10978   1.11365   1.12118   1.13345
 Alpha virt. eigenvalues --    1.13776   1.15185   1.16411   1.16960   1.18297
 Alpha virt. eigenvalues --    1.19755   1.21344   1.21649   1.22578   1.25543
 Alpha virt. eigenvalues --    1.29701   1.31944   1.35529   1.37240   1.42268
 Alpha virt. eigenvalues --    1.44814   1.48955   1.53385   1.57878   1.64685
 Alpha virt. eigenvalues --    1.68196   1.69833   1.71670   1.74512   1.77965
 Alpha virt. eigenvalues --    1.80173   1.80444   1.87430   1.89572   1.93878
 Alpha virt. eigenvalues --    1.99705   2.00672   2.01864   2.05041   2.07330
 Alpha virt. eigenvalues --    2.09055   2.14500   2.15687   2.18022   2.19702
 Alpha virt. eigenvalues --    2.20943   2.21694   2.25739   2.26569   2.32175
 Alpha virt. eigenvalues --    2.33027   2.34614   2.35194   2.36899   2.37160
 Alpha virt. eigenvalues --    2.38703   2.39674   2.39891   2.42104   2.43089
 Alpha virt. eigenvalues --    2.45197   2.48858   2.49713   2.51546   2.53973
 Alpha virt. eigenvalues --    2.56029   2.57785   2.59154   2.61710   2.63929
 Alpha virt. eigenvalues --    2.66384   2.70691   2.71141   2.75954   2.78462
 Alpha virt. eigenvalues --    2.81303   2.86589   2.86833   2.91028   2.92948
 Alpha virt. eigenvalues --    2.96233   2.97618   3.00706   3.01304   3.04173
 Alpha virt. eigenvalues --    3.05503   3.08734   3.11781   3.13289   3.15971
 Alpha virt. eigenvalues --    3.20428   3.21482   3.22919   3.23852   3.24223
 Alpha virt. eigenvalues --    3.25311   3.26950   3.30116   3.33531   3.45183
 Alpha virt. eigenvalues --    3.49380   3.55293   3.57802   3.60291   3.66755
 Alpha virt. eigenvalues --    3.71671   3.72664   3.77105   3.78028   3.81111
 Alpha virt. eigenvalues --    3.82222   3.82922   3.87336   3.92229   3.94409
 Alpha virt. eigenvalues --    4.48349   4.57910   4.66269   4.74096   4.84023
 Alpha virt. eigenvalues --    4.98124   5.01136   5.06876   5.14457
          Condensed to atoms (all electrons):
               1          2          3          4          5          6
     1  C    4.943188   0.401094   0.402345   0.405133   0.325083  -0.039103
     2  H    0.401094   0.582278  -0.030466  -0.027997  -0.041281   0.004455
     3  H    0.402345  -0.030466   0.583640  -0.028858  -0.037523  -0.003575
     4  H    0.405133  -0.027997  -0.028858   0.569005  -0.035306  -0.003066
     5  C    0.325083  -0.041281  -0.037523  -0.035306   4.984347   0.403983
     6  H   -0.039103   0.004455  -0.003575  -0.003066   0.403983   0.582107
     7  H   -0.039079  -0.003312   0.004289  -0.004151   0.410407  -0.032536
     8  C   -0.053340  -0.002899  -0.004732   0.004199   0.365204  -0.033676
     9  H   -0.000870   0.002636   0.000140  -0.000122  -0.046075   0.004170
    10  C    0.000379  -0.000352  -0.000105  -0.000037  -0.060975  -0.005721
    11  H   -0.001209   0.000313  -0.002031   0.000070  -0.002442   0.000412
    12  H   -0.000004  -0.000033   0.000040   0.000001   0.004051  -0.000126
    13  C   -0.000343   0.000066   0.000180  -0.000022  -0.004351   0.001259
    14  H    0.000036  -0.000001  -0.000022   0.000002  -0.000070   0.000374
    15  H   -0.000004   0.000001  -0.000007   0.000000  -0.000040   0.000017
    16  H   -0.000042  -0.000024   0.000666  -0.000001   0.000803  -0.002208
    17  O    0.002070  -0.000009  -0.000030  -0.000042  -0.044380   0.000349
    18  C   -0.000043  -0.000008  -0.000002   0.000001   0.003000  -0.000204
    19  O    0.000008  -0.000003  -0.000000   0.000000   0.000272  -0.000006
    20  C    0.000002  -0.000000  -0.000000  -0.000000  -0.000108  -0.000005
    21  H   -0.000000  -0.000000   0.000000   0.000000  -0.000003  -0.000000
    22  H    0.000000   0.000000   0.000000  -0.000000  -0.000008   0.000005
    23  H   -0.000000   0.000000   0.000000   0.000000   0.000002   0.000000
               7          8          9         10         11         12
     1  C   -0.039079  -0.053340  -0.000870   0.000379  -0.001209  -0.000004
     2  H   -0.003312  -0.002899   0.002636  -0.000352   0.000313  -0.000033
     3  H    0.004289  -0.004732   0.000140  -0.000105  -0.002031   0.000040
     4  H   -0.004151   0.004199  -0.000122  -0.000037   0.000070   0.000001
     5  C    0.410407   0.365204  -0.046075  -0.060975  -0.002442   0.004051
     6  H   -0.032536  -0.033676   0.004170  -0.005721   0.000412  -0.000126
     7  H    0.579569  -0.039902  -0.004201   0.004632  -0.000119  -0.000074
     8  C   -0.039902   4.799112   0.422935   0.354052  -0.034350  -0.035118
     9  H   -0.004201   0.422935   0.545500  -0.047943  -0.000028  -0.004508
    10  C    0.004632   0.354052  -0.047943   5.029864   0.402663   0.415350
    11  H   -0.000119  -0.034350  -0.000028   0.402663   0.584002  -0.026563
    12  H   -0.000074  -0.035118  -0.004508   0.415350  -0.026563   0.549183
    13  C   -0.000083  -0.053619   0.004242   0.319571  -0.039852  -0.045611
    14  H   -0.000039  -0.006021   0.000093  -0.037880   0.004292  -0.002583
    15  H    0.000001   0.004344  -0.000061  -0.038050  -0.002839  -0.004107
    16  H    0.000044  -0.004162  -0.000124  -0.037823  -0.003669   0.004314
    17  O    0.000968   0.134538  -0.028742  -0.045192   0.002689  -0.003195
    18  C    0.000014  -0.019055  -0.006331  -0.004676   0.000151   0.002487
    19  O    0.000005  -0.000452   0.007168  -0.004208  -0.000002   0.004278
    20  C   -0.000023   0.004500   0.000230  -0.000486   0.000005   0.000093
    21  H    0.000000  -0.000270  -0.000007   0.000105  -0.000000  -0.000048
    22  H    0.000006  -0.000173  -0.000025   0.000014  -0.000000  -0.000002
    23  H   -0.000000  -0.000127   0.000011   0.000008  -0.000000   0.000002
              13         14         15         16         17         18
     1  C   -0.000343   0.000036  -0.000004  -0.000042   0.002070  -0.000043
     2  H    0.000066  -0.000001   0.000001  -0.000024  -0.000009  -0.000008
     3  H    0.000180  -0.000022  -0.000007   0.000666  -0.000030  -0.000002
     4  H   -0.000022   0.000002   0.000000  -0.000001  -0.000042   0.000001
     5  C   -0.004351  -0.000070  -0.000040   0.000803  -0.044380   0.003000
     6  H    0.001259   0.000374   0.000017  -0.002208   0.000349  -0.000204
     7  H   -0.000083  -0.000039   0.000001   0.000044   0.000968   0.000014
     8  C   -0.053619  -0.006021   0.004344  -0.004162   0.134538  -0.019055
     9  H    0.004242   0.000093  -0.000061  -0.000124  -0.028742  -0.006331
    10  C    0.319571  -0.037880  -0.038050  -0.037823  -0.045192  -0.004676
    11  H   -0.039852   0.004292  -0.002839  -0.003669   0.002689   0.000151
    12  H   -0.045611  -0.002583  -0.004107   0.004314  -0.003195   0.002487
    13  C    4.948175   0.403392   0.406117   0.400418  -0.002692   0.000303
    14  H    0.403392   0.570350  -0.029213  -0.029218   0.004712   0.000196
    15  H    0.406117  -0.029213   0.578315  -0.029415   0.000013  -0.000031
    16  H    0.400418  -0.029218  -0.029415   0.591311   0.000184  -0.000017
    17  O   -0.002692   0.004712   0.000013   0.000184   8.540878   0.251313
    18  C    0.000303   0.000196  -0.000031  -0.000017   0.251313   4.163465
    19  O    0.000078  -0.000026   0.000000  -0.000003  -0.069531   0.559204
    20  C   -0.000017  -0.000022   0.000001   0.000000  -0.093164   0.374587
    21  H   -0.000000   0.000190  -0.000000   0.000000   0.001428  -0.030388
    22  H    0.000000  -0.000001  -0.000000  -0.000000   0.002636  -0.031520
    23  H    0.000000   0.000001  -0.000000   0.000000   0.003236  -0.038425
              19         20         21         22         23
     1  C    0.000008   0.000002  -0.000000   0.000000  -0.000000
     2  H   -0.000003  -0.000000  -0.000000   0.000000   0.000000
     3  H   -0.000000  -0.000000   0.000000   0.000000   0.000000
     4  H    0.000000  -0.000000   0.000000  -0.000000   0.000000
     5  C    0.000272  -0.000108  -0.000003  -0.000008   0.000002
     6  H   -0.000006  -0.000005  -0.000000   0.000005   0.000000
     7  H    0.000005  -0.000023   0.000000   0.000006  -0.000000
     8  C   -0.000452   0.004500  -0.000270  -0.000173  -0.000127
     9  H    0.007168   0.000230  -0.000007  -0.000025   0.000011
    10  C   -0.004208  -0.000486   0.000105   0.000014   0.000008
    11  H   -0.000002   0.000005  -0.000000  -0.000000  -0.000000
    12  H    0.004278   0.000093  -0.000048  -0.000002   0.000002
    13  C    0.000078  -0.000017  -0.000000   0.000000   0.000000
    14  H   -0.000026  -0.000022   0.000190  -0.000001   0.000001
    15  H    0.000000   0.000001  -0.000000  -0.000000  -0.000000
    16  H   -0.000003   0.000000   0.000000  -0.000000   0.000000
    17  O   -0.069531  -0.093164   0.001428   0.002636   0.003236
    18  C    0.559204   0.374587  -0.030388  -0.031520  -0.038425
    19  O    8.147309  -0.064517   0.000476   0.001807   0.002671
    20  C   -0.064517   5.010856   0.390125   0.386803   0.395611
    21  H    0.000476   0.390125   0.523550  -0.019815  -0.021185
    22  H    0.001807   0.386803  -0.019815   0.532771  -0.024730
    23  H    0.002671   0.395611  -0.021185  -0.024730   0.526104
 Mulliken charges:
               1
     1  C   -0.345301
     2  H    0.115541
     3  H    0.116052
     4  H    0.121190
     5  C   -0.224588
     6  H    0.123095
     7  H    0.123587
     8  C    0.199012
     9  H    0.151913
    10  C   -0.243189
    11  H    0.118509
    12  H    0.142174
    13  C   -0.337212
    14  H    0.121459
    15  H    0.114959
    16  H    0.108964
    17  O   -0.658039
    18  C    0.775977
    19  O   -0.584530
    20  C   -0.404469
    21  H    0.155842
    22  H    0.152232
    23  H    0.156822
 Sum of Mulliken charges =  -0.00000
 Mulliken charges with hydrogens summed into heavy atoms:
               1
     1  C    0.007482
     5  C    0.022094
     8  C    0.350925
    10  C    0.017493
    13  C    0.008171
    17  O   -0.658039
    18  C    0.775977
    19  O   -0.584530
    20  C    0.060427
 Electronic spatial extent (au):  <R**2>=           1541.4567
 Charge=              0.0000 electrons
 Dipole moment (field-independent basis, Debye):
    X=              0.8502    Y=              0.2422    Z=             -1.8748  Tot=              2.0728
 Quadrupole moment (field-independent basis, Debye-Ang):
   XX=            -53.6377   YY=            -55.5534   ZZ=            -61.5094
   XY=             -1.1821   XZ=              6.3820   YZ=              1.1742
 Traceless Quadrupole moment (field-independent basis, Debye-Ang):
   XX=              3.2625   YY=              1.3468   ZZ=             -4.6092
   XY=             -1.1821   XZ=              6.3820   YZ=              1.1742
 Octapole moment (field-independent basis, Debye-Ang**2):
  XXX=            -22.7921  YYY=             -4.2822  ZZZ=             -3.7546  XYY=             -5.2008
  XXY=             -0.9991  XXZ=            -15.6283  XZZ=              4.9867  YZZ=             -0.0146
  YYZ=              1.2457  XYZ=             -1.3271
 Hexadecapole moment (field-independent basis, Debye-Ang**3):
 XXXX=          -1312.0366 YYYY=           -455.5857 ZZZZ=           -262.9733 XXXY=              4.5490
 XXXZ=             20.1487 YYYX=              1.4847 YYYZ=              4.5822 ZZZX=              8.4411
 ZZZY=              1.7609 XXYY=           -297.3792 XXZZ=           -280.9764 YYZZ=           -117.2359
 XXYZ=              8.2680 YYXZ=              2.4405 ZZXY=             -3.3177
 N-N= 4.848439286634D+02 E-N=-1.959519891722D+03  KE= 4.220316974611D+02
 No NMR shielding tensors so no spin-rotation constants.
 Leave Link  601 at Sun Sep 19 20:04:48 2021, MaxMem=   524288000 cpu:               0.1 elap:               0.1
 (Enter /opt/gaussian/g16_legacy/l701.exe)
 ... and contract with generalized density number  2.
 Compute integral first derivatives.
 Leave Link  701 at Sun Sep 19 20:04:48 2021, MaxMem=   524288000 cpu:               0.1 elap:               0.1
 (Enter /opt/gaussian/g16_legacy/l702.exe)
 L702 exits ... SP integral derivatives will be done elsewhere.
 Leave Link  702 at Sun Sep 19 20:04:48 2021, MaxMem=   524288000 cpu:               0.0 elap:               0.0
 (Enter /opt/gaussian/g16_legacy/l703.exe)
 Integral derivatives from FoFJK, PRISM(SPDF).
 Compute integral first derivatives, UseDBF=F ICtDFT=           0.
 Calling FoFJK, ICntrl=  10002127 FMM=F ISym2X=0 I1Cent= 0 IOpClX= 0 NMat=1 NMatS=1 NMatT=0.
 FoFJK:  IHMeth= 1 ICntrl=10002127 DoSepK=F KAlg= 0 I1Cent=           0 FoldK=F
 IRaf=         0 NMat=       1 IRICut=       1 DoRegI=T DoRafI=F ISym2E= 0 IDoP0=0 IntGTp=1.
 FoFCou: FMM=F IPFlag=           0 FMFlag=      100000 FMFlg1=         800
         NFxFlg=           0 DoJE=F BraDBF=F KetDBF=F FulRan=T
         wScrn=  0.000000 ICntrl=  10002127 IOpCl=  0 I1Cent=           0 NGrid=           0
         NMat0=    1 NMatS0=      1 NMatT0=    0 NMatD0=    1 NMtDS0=    0 NMtDT0=    0
 Symmetry not used in FoFCou.
 Leave Link  703 at Sun Sep 19 20:05:02 2021, MaxMem=   524288000 cpu:              13.7 elap:              13.8
 (Enter /opt/gaussian/g16_legacy/l716.exe)
 Dipole        = 3.47367505D-01 8.87986655D-02-5.95314456D-01
 ***** Axes restored to original set *****
 -------------------------------------------------------------------
 Center     Atomic                   Forces (Hartrees/Bohr)
 Number     Number              X              Y              Z
 -------------------------------------------------------------------
      1        6          -0.001768409    0.004425638    0.001097148
      2        1          -0.001140086   -0.000924347    0.002830239
      3        1          -0.000225391   -0.001063584   -0.003322544
      4        1           0.003917837    0.000858686    0.000096420
      5        6           0.001499827   -0.010607293   -0.000391173
      6        1           0.003880816    0.002343384   -0.000446106
      7        1           0.003959800    0.001857134    0.002327821
      8        6          -0.009105104    0.014384307    0.001699847
      9        1           0.002513760   -0.003572232    0.003537991
     10        6           0.005688198   -0.003716604    0.001292381
     11        1           0.000297272   -0.002746174   -0.003164351
     12        1          -0.003478400    0.000882620   -0.005886064
     13        6          -0.004154292   -0.000624031    0.003786205
     14        1          -0.001631863    0.003508998   -0.001433791
     15        1          -0.001671219   -0.001761714   -0.002595804
     16        1           0.002918333   -0.001271364    0.000826116
     17        8           0.001242951    0.000730718   -0.002027080
     18        6           0.006800213    0.002860104    0.001028435
     19        8          -0.008635955    0.000303770    0.001416838
     20        6           0.005799037   -0.007835910   -0.006621926
     21        1          -0.003030807   -0.001617767   -0.003277139
     22        1           0.000192219    0.001135024    0.006180249
     23        1          -0.003868738    0.002450637    0.003046288
 -------------------------------------------------------------------
 Cartesian Forces:  Max     0.014384307 RMS     0.003996245
 Leave Link  716 at Sun Sep 19 20:05:02 2021, MaxMem=   524288000 cpu:               0.0 elap:               0.1
 (Enter /opt/gaussian/g16_legacy/l103.exe)

 GradGradGradGradGradGradGradGradGradGradGradGradGradGradGradGradGradGrad
 Berny optimization.
 FormGI is forming the generalized inverse of G from B-inverse, IUseBI=4.
 Internal  Forces:  Max     0.009961292 RMS     0.002697753
 Search for a local minimum.
 Step number   1 out of a maximum of  119
 All quantities printed in internal units (Hartrees-Bohrs-Radians)
 RMS Force = .26978D-02 SwitMx=.10000D-02 MixMth= 1
 Mixed Optimization -- RFO/linear search
 Second derivative matrix not updated -- first step.
 ITU=  0
     Eigenvalues ---    0.00245   0.00288   0.00446   0.00494   0.00789
     Eigenvalues ---    0.01088   0.01159   0.02200   0.03377   0.03384
     Eigenvalues ---    0.04074   0.04793   0.04795   0.04797   0.05477
     Eigenvalues ---    0.05531   0.05692   0.05708   0.07435   0.07477
     Eigenvalues ---    0.07605   0.08558   0.08589   0.12372   0.12391
     Eigenvalues ---    0.16000   0.16000   0.16000   0.16000   0.16000
     Eigenvalues ---    0.16000   0.16000   0.16000   0.16000   0.16946
     Eigenvalues ---    0.19566   0.21870   0.21933   0.24984   0.25000
     Eigenvalues ---    0.25000   0.28575   0.28862   0.29968   0.30316
     Eigenvalues ---    0.32559   0.33877   0.33920   0.34048   0.34084
     Eigenvalues ---    0.34251   0.34271   0.34278   0.34280   0.34348
     Eigenvalues ---    0.34361   0.34365   0.34439   0.34517   0.34532
     Eigenvalues ---    0.38826   0.52632   0.94374
 RFO step:  Lambda=-4.55908034D-03 EMin= 2.45235572D-03
 Linear search not attempted -- first point.
 Iteration  1 RMS(Cart)=  0.06116636 RMS(Int)=  0.00150495
 Iteration  2 RMS(Cart)=  0.00220635 RMS(Int)=  0.00039390
 Iteration  3 RMS(Cart)=  0.00000294 RMS(Int)=  0.00039389
 Iteration  4 RMS(Cart)=  0.00000000 RMS(Int)=  0.00039389
 ITry= 1 IFail=0 DXMaxC= 2.08D-01 DCOld= 1.00D+10 DXMaxT= 3.00D-01 DXLimC= 3.00D+00 Rises=F
 Variable       Old X    -DE/DX   Delta X   Delta X   Delta X     New X
                                 (Linear)    (Quad)   (Total)
    R1        2.06859  -0.00304   0.00000  -0.00874  -0.00874   2.05985
    R2        2.06724  -0.00340   0.00000  -0.00976  -0.00976   2.05748
    R3        2.06876  -0.00396   0.00000  -0.01142  -0.01142   2.05734
    R4        2.87338   0.00246   0.00000   0.00799   0.00799   2.88137
    R5        2.07189  -0.00314   0.00000  -0.00908  -0.00908   2.06281
    R6        2.07465  -0.00360   0.00000  -0.01048  -0.01048   2.06417
    R7        2.90291  -0.00996   0.00000  -0.03398  -0.03398   2.86893
    R8        2.07538  -0.00369   0.00000  -0.01075  -0.01075   2.06463
    R9        2.90898  -0.00929   0.00000  -0.03199  -0.03199   2.87699
   R10        2.73181   0.00125   0.00000   0.00317   0.00317   2.73498
   R11        2.06909  -0.00263   0.00000  -0.00759  -0.00759   2.06150
   R12        2.07249  -0.00364   0.00000  -0.01055  -0.01055   2.06194
   R13        2.88028   0.00194   0.00000   0.00639   0.00639   2.88667
   R14        2.06747  -0.00390   0.00000  -0.01122  -0.01122   2.05625
   R15        2.06864  -0.00353   0.00000  -0.01016  -0.01016   2.05848
   R16        2.06719  -0.00286   0.00000  -0.00822  -0.00822   2.05897
   R17        2.57299  -0.00289   0.00000  -0.00543  -0.00543   2.56755
   R18        2.30980  -0.00526   0.00000  -0.00555  -0.00555   2.30425
   R19        2.83133   0.00511   0.00000   0.01548   0.01548   2.84681
   R20        2.06442  -0.00316   0.00000  -0.00902  -0.00902   2.05539
   R21        2.06467  -0.00350   0.00000  -0.01002  -0.01002   2.05465
   R22        2.06596  -0.00504   0.00000  -0.01445  -0.01445   2.05151
    A1        1.89268  -0.00104   0.00000  -0.00850  -0.00850   1.88419
    A2        1.88468  -0.00046   0.00000  -0.00297  -0.00298   1.88170
    A3        1.93689   0.00072   0.00000   0.00312   0.00311   1.94000
    A4        1.87565  -0.00015   0.00000   0.00150   0.00149   1.87713
    A5        1.94924   0.00072   0.00000   0.00444   0.00443   1.95367
    A6        1.92244   0.00013   0.00000   0.00199   0.00198   1.92442
    A7        1.91713   0.00149   0.00000   0.01166   0.01134   1.92848
    A8        1.89860   0.00226   0.00000   0.02026   0.01999   1.91859
    A9        1.98500  -0.00184   0.00000  -0.01332  -0.01332   1.97168
   A10        1.83207   0.00086   0.00000   0.02163   0.02120   1.85327
   A11        1.92910  -0.00093   0.00000  -0.01679  -0.01676   1.91234
   A12        1.89525  -0.00162   0.00000  -0.02036  -0.02024   1.87501
   A13        1.88057   0.00249   0.00000   0.03343   0.03317   1.91374
   A14        1.99421   0.00173   0.00000   0.01237   0.01213   2.00635
   A15        1.86563  -0.00371   0.00000  -0.02586  -0.02571   1.83992
   A16        1.90702  -0.00172   0.00000  -0.00164  -0.00218   1.90484
   A17        1.91060  -0.00080   0.00000  -0.02296  -0.02271   1.88789
   A18        1.90432   0.00189   0.00000   0.00276   0.00282   1.90714
   A19        1.92647  -0.00167   0.00000  -0.03036  -0.03052   1.89596
   A20        1.90209  -0.00319   0.00000  -0.02698  -0.02725   1.87484
   A21        1.98975  -0.00083   0.00000  -0.00300  -0.00289   1.98686
   A22        1.85719  -0.00018   0.00000  -0.00191  -0.00318   1.85402
   A23        1.91044   0.00143   0.00000   0.01122   0.01088   1.92132
   A24        1.87245   0.00463   0.00000   0.05315   0.05308   1.92554
   A25        1.94622  -0.00191   0.00000  -0.01393  -0.01390   1.93232
   A26        1.91871   0.00057   0.00000   0.00585   0.00581   1.92452
   A27        1.94436   0.00228   0.00000   0.01371   0.01368   1.95804
   A28        1.88137   0.00068   0.00000   0.00427   0.00429   1.88566
   A29        1.89323  -0.00073   0.00000  -0.00885  -0.00881   1.88442
   A30        1.87753  -0.00091   0.00000  -0.00103  -0.00114   1.87639
   A31        2.02676  -0.00253   0.00000  -0.00995  -0.00995   2.01682
   A32        2.19525  -0.00894   0.00000  -0.03386  -0.03524   2.16001
   A33        1.92085   0.00183   0.00000   0.00842   0.00698   1.92783
   A34        2.16620   0.00718   0.00000   0.02938   0.02788   2.19408
   A35        1.90977   0.00070   0.00000  -0.00244  -0.00248   1.90730
   A36        1.92255   0.00158   0.00000   0.00844   0.00834   1.93089
   A37        1.90680  -0.00147   0.00000  -0.00118  -0.00126   1.90554
   A38        1.93128  -0.00406   0.00000  -0.03957  -0.03963   1.89165
   A39        1.90323   0.00075   0.00000   0.00676   0.00676   1.90999
   A40        1.88986   0.00251   0.00000   0.02861   0.02847   1.91833
    D1       -3.11116  -0.00175   0.00000  -0.03990  -0.04005   3.13197
    D2       -1.11485   0.00132   0.00000   0.00328   0.00345  -1.11139
    D3        0.99968  -0.00034   0.00000  -0.01700  -0.01702   0.98266
    D4        1.05784  -0.00142   0.00000  -0.03427  -0.03442   1.02343
    D5        3.05416   0.00166   0.00000   0.00891   0.00909   3.06325
    D6       -1.11450   0.00000   0.00000  -0.01136  -0.01138  -1.12588
    D7       -1.02497  -0.00178   0.00000  -0.04033  -0.04049  -1.06546
    D8        0.97134   0.00129   0.00000   0.00285   0.00302   0.97436
    D9        3.08587  -0.00037   0.00000  -0.01743  -0.01745   3.06842
   D10       -1.06317  -0.00102   0.00000  -0.02542  -0.02570  -1.08887
   D11        1.05942  -0.00028   0.00000   0.00485   0.00504   1.06446
   D12       -3.11528   0.00056   0.00000  -0.00223  -0.00214  -3.11742
   D13        3.05413  -0.00089   0.00000  -0.01771  -0.01804   3.03609
   D14       -1.10647  -0.00015   0.00000   0.01256   0.01270  -1.09377
   D15        1.00201   0.00069   0.00000   0.00549   0.00553   1.00754
   D16        1.05323  -0.00051   0.00000  -0.02298  -0.02322   1.03001
   D17       -3.10737   0.00024   0.00000   0.00728   0.00752  -3.09985
   D18       -0.99888   0.00108   0.00000   0.00021   0.00035  -0.99854
   D19       -1.10944  -0.00288   0.00000  -0.04430  -0.04411  -1.15355
   D20        3.14014   0.00017   0.00000  -0.00886  -0.00909   3.13105
   D21        1.04909  -0.00292   0.00000  -0.05545  -0.05528   0.99381
   D22        0.99854   0.00024   0.00000   0.00591   0.00598   1.00452
   D23       -1.03507   0.00329   0.00000   0.04135   0.04100  -0.99407
   D24       -3.12613   0.00020   0.00000  -0.00524  -0.00518  -3.13131
   D25        3.08688  -0.00062   0.00000  -0.02134  -0.02117   3.06571
   D26        1.05327   0.00242   0.00000   0.01410   0.01386   1.06713
   D27       -1.03778  -0.00066   0.00000  -0.03249  -0.03233  -1.07012
   D28        2.71146  -0.00046   0.00000  -0.01659  -0.01643   2.69504
   D29        0.67919  -0.00097   0.00000  -0.03006  -0.03028   0.64891
   D30       -1.40694   0.00046   0.00000  -0.01599  -0.01593  -1.42287
   D31        0.96722  -0.00013   0.00000   0.00385   0.00394   0.97116
   D32        3.05280  -0.00012   0.00000   0.00413   0.00420   3.05700
   D33       -1.15079   0.00055   0.00000   0.01534   0.01548  -1.13531
   D34        3.13438  -0.00183   0.00000  -0.02955  -0.02977   3.10460
   D35       -1.06323  -0.00182   0.00000  -0.02927  -0.02952  -1.09275
   D36        1.01637  -0.00114   0.00000  -0.01806  -0.01824   0.99813
   D37       -1.14046   0.00116   0.00000   0.00238   0.00250  -1.13796
   D38        0.94512   0.00117   0.00000   0.00266   0.00275   0.94787
   D39        3.02472   0.00185   0.00000   0.01387   0.01403   3.03875
   D40       -0.06910   0.00030   0.00000  -0.00145   0.00016  -0.06894
   D41        3.02861   0.00224   0.00000   0.09690   0.09529   3.12390
   D42       -1.23235   0.00060   0.00000  -0.03284  -0.03337  -1.26572
   D43        0.89447  -0.00298   0.00000  -0.07824  -0.07878   0.81569
   D44        2.96832   0.00015   0.00000  -0.03891  -0.03935   2.92897
   D45        1.86624   0.00202   0.00000   0.06163   0.06210   1.92835
   D46       -2.29012  -0.00156   0.00000   0.01623   0.01670  -2.27343
   D47       -0.21627   0.00156   0.00000   0.05556   0.05612  -0.16015
         Item               Value     Threshold  Converged?
 Maximum Force            0.009961     0.000450     NO 
 RMS     Force            0.002698     0.000300     NO 
 Maximum Displacement     0.207752     0.001800     NO 
 RMS     Displacement     0.060795     0.001200     NO 
 Predicted change in Energy=-2.430878D-03
 Lowest energy point so far.  Saving SCF results.
 GradGradGradGradGradGradGradGradGradGradGradGradGradGradGradGradGradGrad

 Leave Link  103 at Sun Sep 19 20:05:02 2021, MaxMem=   524288000 cpu:               0.0 elap:               0.2
 (Enter /opt/gaussian/g16_legacy/l202.exe)
                          Input orientation:                          
 ---------------------------------------------------------------------
 Center     Atomic      Atomic             Coordinates (Angstroms)
 Number     Number       Type             X           Y           Z
 ---------------------------------------------------------------------
      1          6           0       -2.252750    3.129049    1.128649
      2          1           0       -1.857379    3.747882    0.323116
      3          1           0       -2.192558    3.701980    2.052529
      4          1           0       -3.306321    2.947653    0.922866
      5          6           0       -1.498947    1.807376    1.227858
      6          1           0       -1.896900    1.200739    2.043457
      7          1           0       -1.646450    1.225269    0.315422
      8          6           0       -0.003370    1.990823    1.413458
      9          1           0        0.414318    2.504990    0.544641
     10          6           0        0.400220    2.737739    2.677201
     11          1           0        0.047073    3.767111    2.601425
     12          1           0        1.490021    2.789569    2.692059
     13          6           0       -0.118176    2.098726    3.964198
     14          1           0        0.197290    1.059553    4.032105
     15          1           0        0.273349    2.627545    4.832319
     16          1           0       -1.205589    2.124723    4.027466
     17          8           0        0.546457    0.652635    1.453333
     18          6           0        1.846959    0.541835    1.075900
     19          8           0        2.512492    1.473431    0.656339
     20          6           0        2.306462   -0.888779    1.183831
     21          1           0        2.417880   -1.151993    2.233272
     22          1           0        1.576966   -1.560186    0.737494
     23          1           0        3.262853   -0.995071    0.681263
 ---------------------------------------------------------------------
                    Distance matrix (angstroms):
                    1          2          3          4          5
     1  C    0.000000
     2  H    1.090025   0.000000
     3  H    1.088774   1.762192   0.000000
     4  H    1.088697   1.760539   1.756592   0.000000
     5  C    1.524756   2.170851   2.179610   2.158668   0.000000
     6  H    2.163766   3.073934   2.518670   2.508764   1.091594
     7  H    2.157155   2.531428   3.074064   2.467947   1.092313
     8  C    2.537003   2.777310   2.851142   3.473570   1.518173
     9  H    2.800672   2.598934   3.240727   3.765920   2.148030
    10  C    3.096674   3.414507   2.835925   4.106117   2.563787
    11  H    2.804529   2.969512   2.306832   3.838532   2.849110
    12  H    4.070360   4.211335   3.847451   5.114678   3.470233
    13  C    3.695716   4.359131   3.244682   4.487165   3.078794
    14  H    4.326150   5.020496   4.075845   5.050503   3.361586
    15  H    4.511081   5.111562   3.868118   5.310398   4.099493
    16  H    3.241660   4.096545   2.713341   3.837816   2.832767
    17  O    3.751481   4.078771   4.142432   4.515794   2.359649
    18  C    4.848100   4.956566   5.220921   5.689259   3.580472
    19  O    5.066723   4.937605   5.390109   6.008573   4.065686
    20  C    6.077204   6.291028   6.486207   6.803649   4.663939
    21  H    6.431353   6.777559   6.697003   7.161755   5.011014
    22  H    6.067013   6.335773   6.605226   6.648417   4.587175
    23  H    6.901478   6.988609   7.328313   7.665343   5.552227
                    6          7          8          9         10
     6  H    0.000000
     7  H    1.746262   0.000000
     8  C    2.146296   2.119308   0.000000
     9  H    3.047827   2.436594   1.092554   0.000000
    10  C    2.835623   3.471948   1.522437   2.145270   0.000000
    11  H    3.267511   3.815075   2.137525   2.440938   1.090900
    12  H    3.796881   4.234725   2.122035   2.418580   1.091134
    13  C    2.767578   4.051188   2.555602   3.484534   1.527558
    14  H    2.891417   4.152177   2.786547   3.781375   2.166392
    15  H    3.810972   5.104348   3.488638   4.291745   2.161659
    16  H    2.295201   3.844821   2.880329   3.859893   2.185778
    17  O    2.572676   2.536059   1.447289   2.067463   2.422167
    18  C    3.922602   3.639962   2.374285   2.487705   3.078832
    19  O    4.630465   4.180265   2.677777   2.340711   3.184972
    20  C    4.772138   4.566054   3.698670   3.937822   4.360682
    21  H    4.918202   5.084123   4.051153   4.498807   4.404320
    22  H    4.625580   4.281041   3.945130   4.232564   4.859974
    23  H    5.770634   5.400464   4.485520   4.514781   5.110020
                   11         12         13         14         15
    11  H    0.000000
    12  H    1.745251   0.000000
    13  C    2.160548   2.163770   0.000000
    14  H    3.065988   2.541621   1.088123   0.000000
    15  H    2.515293   2.467236   1.089300   1.762023   0.000000
    16  H    2.510018   3.080851   1.089562   1.761442   1.757235
    17  O    3.356704   2.644096   2.972770   2.633926   3.923315
    18  C    3.996151   2.791359   3.824648   3.424703   4.575709
    19  O    3.888781   2.630936   4.272393   4.114274   4.876940
    20  C    5.365792   4.058519   4.747052   4.044412   5.459812
    21  H    5.473010   4.075208   4.471561   3.613552   5.063493
    22  H    5.847640   4.769513   5.164568   4.429559   6.000341
    23  H    6.058601   4.637859   5.637429   4.984707   6.268313
                   16         17         18         19         20
    16  H    0.000000
    17  O    3.444251   0.000000
    18  C    4.531591   1.358690   0.000000
    19  O    5.060909   2.274687   1.219359   0.000000
    20  C    5.431570   2.355038   1.506469   2.429143   0.000000
    21  H    5.204376   2.714261   2.129439   3.064068   1.087668
    22  H    5.669662   2.543806   2.146138   3.175630   1.087275
    23  H    6.395089   3.269531   2.126635   2.580148   1.085614
                   21         22         23
    21  H    0.000000
    22  H    1.763834   0.000000
    23  H    1.774073   1.778970   0.000000
 Stoichiometry    C7H14O2
 Framework group  C1[X(C7H14O2)]
 Deg. of freedom    63
 Full point group                 C1      NOp   1
 RotChk:  IX=0 Diff= 4.75D-02
 Largest Abelian subgroup         C1      NOp   1
 Largest concise Abelian subgroup C1      NOp   1
                         Standard orientation:                         
 ---------------------------------------------------------------------
 Center     Atomic      Atomic             Coordinates (Angstroms)
 Number     Number       Type             X           Y           Z
 ---------------------------------------------------------------------
[...]
    14  H    3.065564   2.545666   1.088744   0.000000
    15  H    2.530317   2.460583   1.089129   1.763673   0.000000
    16  H    2.497130   3.073238   1.089372   1.762638   1.758080
    17  O    3.364914   2.645712   2.981626   2.626349   3.923347
    18  C    4.018709   2.819580   3.854881   3.450553   4.597373
    19  O    3.907953   2.643408   4.284931   4.122343   4.877521
    20  C    5.386767   4.086819   4.777900   4.074124   5.480935
    21  H    5.479460   4.125749   4.459368   3.589925   5.067217
    22  H    5.901943   4.827531   5.283849   4.562580   6.110590
    23  H    6.051848   4.612583   5.610862   4.951190   6.211598
                   16         17         18         19         20
    16  H    0.000000
    17  O    3.467578   0.000000
    18  C    4.567983   1.359062   0.000000
    19  O    5.081410   2.281403   1.219722   0.000000
    20  C    5.470961   2.349835   1.505251   2.426304   0.000000
    21  H    5.173319   2.626506   2.132469   3.106866   1.088333
    22  H    5.807017   2.593035   2.135331   3.134239   1.087845
    23  H    6.391768   3.275035   2.126851   2.573451   1.084831
                   21         22         23
    21  H    0.000000
    22  H    1.757961   0.000000
    23  H    1.780596   1.783028   0.000000
 Stoichiometry    C7H14O2
 Framework group  C1[X(C7H14O2)]
 Deg. of freedom    63
 Full point group                 C1      NOp   1
 RotChk:  IX=0 Diff= 1.97D-15
 Largest Abelian subgroup         C1      NOp   1
 Largest concise Abelian subgroup C1      NOp   1
                         Standard orientation:                         
 ---------------------------------------------------------------------
 Center     Atomic      Atomic             Coordinates (Angstroms)
 Number     Number       Type             X           Y           Z
 ---------------------------------------------------------------------
      1          6           0        2.910153   -1.122654    0.116499
      2          1           0        2.809715   -1.590642    1.096198
      3          1           0        3.377277   -0.148952    0.255963
      4          1           0        3.588506   -1.733560   -0.476993
      5          6           0        1.554907   -1.002409   -0.572643
      6          1           0        1.657183   -0.479907   -1.524819
      7          1           0        1.165341   -1.995540   -0.802924
      8          6           0        0.519107   -0.289439    0.280773
      9          1           0        0.311917   -0.870488    1.181853
     10          6           0        0.869228    1.138125    0.683699
     11          1           0        1.728192    1.104153    1.357540
     12          1           0        0.035132    1.522751    1.271581
     13          6           0        1.156318    2.061711   -0.494413
     14          1           0        0.329166    2.046585   -1.202193
     15          1           0        1.291852    3.086918   -0.152676
     16          1           0        2.060941    1.769275   -1.026270
     17          8           0       -0.694431   -0.275765   -0.526437
     18          6           0       -1.865533   -0.239881    0.162243
     19          8           0       -1.947829   -0.221932    1.379053
     20          6           0       -3.028499   -0.224401   -0.793295
     21          1           0       -2.979198    0.668952   -1.412938
     22          1           0       -2.976213   -1.088572   -1.451991
     23          1           0       -3.955816   -0.235715   -0.230434
 ---------------------------------------------------------------------
 Rotational constants (GHZ):           2.4890104           0.9527730           0.8578948
 Leave Link  202 at Sun Sep 19 20:31:57 2021, MaxMem=   524288000 cpu:               0.0 elap:               0.1
 (Enter /opt/gaussian/g16_legacy/l601.exe)
 Copying SCF densities to generalized density rwf, IOpCl= 0 IROHF=0.

 **********************************************************************

            Population analysis using the SCF density.

 **********************************************************************

 Orbital symmetries:
       Occupied  (A) (A) (A) (A) (A) (A) (A) (A) (A) (A) (A) (A)
                 (A) (A) (A) (A) (A) (A) (A) (A) (A) (A) (A) (A)
                 (A) (A) (A) (A) (A) (A) (A) (A) (A) (A) (A) (A)
       Virtual   (A) (A) (A) (A) (A) (A) (A) (A) (A) (A) (A) (A)
                 (A) (A) (A) (A) (A) (A) (A) (A) (A) (A) (A) (A)
                 (A) (A) (A) (A) (A) (A) (A) (A) (A) (A) (A) (A)
                 (A) (A) (A) (A) (A) (A) (A) (A) (A) (A) (A) (A)
                 (A) (A) (A) (A) (A) (A) (A) (A) (A) (A) (A) (A)
                 (A) (A) (A) (A) (A) (A) (A) (A) (A) (A) (A) (A)
                 (A) (A) (A) (A) (A) (A) (A) (A) (A) (A) (A) (A)
                 (A) (A) (A) (A) (A) (A) (A) (A) (A) (A) (A) (A)
                 (A) (A) (A) (A) (A) (A) (A) (A) (A) (A) (A) (A)
                 (A) (A) (A) (A) (A) (A) (A) (A) (A) (A) (A) (A)
                 (A) (A) (A) (A) (A) (A) (A) (A) (A) (A) (A) (A)
                 (A) (A) (A) (A) (A) (A) (A) (A) (A) (A) (A) (A)
                 (A) (A) (A) (A) (A) (A) (A) (A) (A) (A) (A) (A)
                 (A) (A) (A) (A) (A) (A) (A) (A) (A) (A) (A) (A)
                 (A)
 The electronic state is 1-A.
 Alpha  occ. eigenvalues --  -20.60031 -20.54892 -11.38346 -11.28444 -11.23895
 Alpha  occ. eigenvalues --  -11.22354 -11.22016 -11.21986 -11.21331  -1.44475
 Alpha  occ. eigenvalues --   -1.34701  -1.09472  -1.02003  -1.01531  -0.92884
 Alpha  occ. eigenvalues --   -0.86145  -0.79862  -0.74755  -0.68776  -0.66721
 Alpha  occ. eigenvalues --   -0.65911  -0.63267  -0.60497  -0.58475  -0.57138
 Alpha  occ. eigenvalues --   -0.56844  -0.54596  -0.53806  -0.52116  -0.50968
 Alpha  occ. eigenvalues --   -0.50335  -0.48524  -0.47555  -0.45986  -0.44236
 Alpha  occ. eigenvalues --   -0.43160
 Alpha virt. eigenvalues --    0.18488   0.21849   0.24617   0.26621   0.27871
 Alpha virt. eigenvalues --    0.28303   0.29610   0.30715   0.31116   0.32716
 Alpha virt. eigenvalues --    0.33100   0.33893   0.34953   0.36024   0.36699
 Alpha virt. eigenvalues --    0.38212   0.40283   0.40377   0.42430   0.43706
 Alpha virt. eigenvalues --    0.47834   0.50408   0.54575   0.69304   0.70420
 Alpha virt. eigenvalues --    0.72689   0.73443   0.75449   0.76017   0.76552
 Alpha virt. eigenvalues --    0.79487   0.80399   0.82067   0.83455   0.87982
 Alpha virt. eigenvalues --    0.90785   0.93614   0.94738   0.95508   0.97196
 Alpha virt. eigenvalues --    1.00276   1.01920   1.06893   1.08906   1.09292
 Alpha virt. eigenvalues --    1.09976   1.10917   1.11880   1.12636   1.13845
 Alpha virt. eigenvalues --    1.14158   1.15466   1.16496   1.16995   1.18898
 Alpha virt. eigenvalues --    1.19647   1.21513   1.21545   1.22949   1.25905
 Alpha virt. eigenvalues --    1.28971   1.32767   1.35637   1.38046   1.43299
 Alpha virt. eigenvalues --    1.43680   1.49943   1.54314   1.58065   1.65771
 Alpha virt. eigenvalues --    1.67981   1.69250   1.72068   1.74137   1.79052
 Alpha virt. eigenvalues --    1.79432   1.81939   1.88194   1.89633   1.93595
 Alpha virt. eigenvalues --    1.99285   2.01027   2.02592   2.05168   2.08212
 Alpha virt. eigenvalues --    2.08881   2.14720   2.16131   2.17885   2.20106
 Alpha virt. eigenvalues --    2.21691   2.22955   2.26857   2.27425   2.32208
 Alpha virt. eigenvalues --    2.33794   2.34937   2.36007   2.37547   2.38033
 Alpha virt. eigenvalues --    2.40269   2.40700   2.41003   2.42683   2.44277
 Alpha virt. eigenvalues --    2.46904   2.49153   2.50363   2.51857   2.55107
 Alpha virt. eigenvalues --    2.55841   2.57874   2.59173   2.62317   2.64676
 Alpha virt. eigenvalues --    2.66687   2.70493   2.71983   2.76193   2.79109
 Alpha virt. eigenvalues --    2.80670   2.85828   2.88076   2.92683   2.94118
 Alpha virt. eigenvalues --    2.96904   2.99070   2.99480   3.01750   3.05034
 Alpha virt. eigenvalues --    3.06416   3.11028   3.13394   3.14739   3.17655
 Alpha virt. eigenvalues --    3.20532   3.22513   3.23167   3.24662   3.25890
 Alpha virt. eigenvalues --    3.26563   3.27893   3.31117   3.35264   3.45729
 Alpha virt. eigenvalues --    3.49318   3.56918   3.59507   3.61943   3.68111
 Alpha virt. eigenvalues --    3.72922   3.73955   3.78967   3.79543   3.82236
 Alpha virt. eigenvalues --    3.83467   3.84173   3.88859   3.93144   3.94964
 Alpha virt. eigenvalues --    4.48440   4.57441   4.67254   4.74386   4.84564
 Alpha virt. eigenvalues --    4.98741   5.01324   5.06824   5.15943
          Condensed to atoms (all electrons):
               1          2          3          4          5          6
     1  C    4.944373   0.401686   0.402997   0.405382   0.325937  -0.038032
     2  H    0.401686   0.582820  -0.031151  -0.028458  -0.041368   0.004341
     3  H    0.402997  -0.031151   0.581286  -0.028569  -0.036524  -0.003799
     4  H    0.405382  -0.028458  -0.028569   0.567398  -0.034675  -0.002504
     5  C    0.325937  -0.041368  -0.036524  -0.034675   4.976740   0.405815
     6  H   -0.038032   0.004341  -0.003799  -0.002504   0.405815   0.577326
     7  H   -0.037098  -0.002528   0.004067  -0.004287   0.411688  -0.030340
     8  C   -0.055471  -0.003125  -0.004631   0.004317   0.365877  -0.035572
     9  H   -0.001076   0.002460   0.000130  -0.000112  -0.042842   0.004205
    10  C    0.000467  -0.000576   0.000087  -0.000025  -0.060994  -0.006090
    11  H   -0.001023   0.000383  -0.001997   0.000069  -0.002730   0.000441
    12  H   -0.000013  -0.000043   0.000042   0.000001   0.004389  -0.000148
    13  C   -0.000761   0.000106   0.000021  -0.000019  -0.004227   0.001392
    14  H    0.000069  -0.000002  -0.000027   0.000002  -0.000309   0.000458
    15  H    0.000000   0.000001  -0.000007   0.000000  -0.000028   0.000021
    16  H   -0.000264  -0.000033   0.000800   0.000004   0.000886  -0.002419
    17  O    0.002382  -0.000007  -0.000039  -0.000047  -0.050019  -0.000116
    18  C   -0.000043  -0.000008  -0.000002   0.000002   0.003132  -0.000217
    19  O    0.000010  -0.000004  -0.000000   0.000000   0.000370  -0.000009
    20  C    0.000002  -0.000000  -0.000000  -0.000000  -0.000121  -0.000010
    21  H   -0.000000  -0.000000   0.000000   0.000000  -0.000006   0.000000
    22  H   -0.000000   0.000000   0.000000  -0.000000  -0.000001   0.000005
    23  H   -0.000000   0.000000   0.000000   0.000000   0.000002   0.000000
               7          8          9         10         11         12
     1  C   -0.037098  -0.055471  -0.001076   0.000467  -0.001023  -0.000013
     2  H   -0.002528  -0.003125   0.002460  -0.000576   0.000383  -0.000043
     3  H    0.004067  -0.004631   0.000130   0.000087  -0.001997   0.000042
     4  H   -0.004287   0.004317  -0.000112  -0.000025   0.000069   0.000001
     5  C    0.411688   0.365877  -0.042842  -0.060994  -0.002730   0.004389
     6  H   -0.030340  -0.035572   0.004205  -0.006090   0.000441  -0.000148
     7  H    0.574749  -0.042108  -0.004481   0.004920  -0.000138  -0.000092
     8  C   -0.042108   4.815519   0.425381   0.355102  -0.037865  -0.037411
     9  H   -0.004481   0.425381   0.540370  -0.049015  -0.000307  -0.005004
    10  C    0.004920   0.355102  -0.049015   5.021413   0.402543   0.415858
    11  H   -0.000138  -0.037865  -0.000307   0.402543   0.588517  -0.026642
    12  H   -0.000092  -0.037411  -0.005004   0.415858  -0.026642   0.542305
    13  C   -0.000092  -0.053536   0.004365   0.321785  -0.038963  -0.040266
    14  H   -0.000049  -0.006369   0.000116  -0.039618   0.004355  -0.002156
    15  H    0.000001   0.004366  -0.000065  -0.037201  -0.002460  -0.003803
    16  H    0.000051  -0.004226  -0.000130  -0.036529  -0.003808   0.003889
    17  O    0.001099   0.134001  -0.030385  -0.044571   0.002924  -0.003416
    18  C    0.000012  -0.019569  -0.006922  -0.003968   0.000139   0.002254
    19  O    0.000003  -0.002740   0.008231  -0.004799   0.000022   0.004943
    20  C   -0.000031   0.004157   0.000259  -0.000444   0.000005   0.000100
    21  H    0.000001  -0.000235  -0.000002   0.000072  -0.000000  -0.000041
    22  H    0.000009  -0.000192  -0.000028   0.000009   0.000000  -0.000001
    23  H    0.000000  -0.000118   0.000009   0.000010  -0.000000   0.000002
              13         14         15         16         17         18
     1  C   -0.000761   0.000069   0.000000  -0.000264   0.002382  -0.000043
     2  H    0.000106  -0.000002   0.000001  -0.000033  -0.000007  -0.000008
     3  H    0.000021  -0.000027  -0.000007   0.000800  -0.000039  -0.000002
     4  H   -0.000019   0.000002   0.000000   0.000004  -0.000047   0.000002
     5  C   -0.004227  -0.000309  -0.000028   0.000886  -0.050019   0.003132
     6  H    0.001392   0.000458   0.000021  -0.002419  -0.000116  -0.000217
     7  H   -0.000092  -0.000049   0.000001   0.000051   0.001099   0.000012
     8  C   -0.053536  -0.006369   0.004366  -0.004226   0.134001  -0.019569
     9  H    0.004365   0.000116  -0.000065  -0.000130  -0.030385  -0.006922
    10  C    0.321785  -0.039618  -0.037201  -0.036529  -0.044571  -0.003968
    11  H   -0.038963   0.004355  -0.002460  -0.003808   0.002924   0.000139
    12  H   -0.040266  -0.002156  -0.003803   0.003889  -0.003416   0.002254
    13  C    4.942780   0.404203   0.406763   0.401751  -0.003215   0.000254
    14  H    0.404203   0.568042  -0.028503  -0.030062   0.005063   0.000270
    15  H    0.406763  -0.028503   0.573648  -0.029488   0.000002  -0.000024
    16  H    0.401751  -0.030062  -0.029488   0.589244   0.000178  -0.000015
    17  O   -0.003215   0.005063   0.000002   0.000178   8.554474   0.254254
    18  C    0.000254   0.000270  -0.000024  -0.000015   0.254254   4.162398
    19  O    0.000067  -0.000015   0.000000  -0.000003  -0.074006   0.561941
    20  C   -0.000014  -0.000031   0.000000   0.000000  -0.093072   0.374612
    21  H   -0.000001   0.000122  -0.000000   0.000000   0.002052  -0.031234
    22  H    0.000000  -0.000001  -0.000000  -0.000000   0.002485  -0.030425
    23  H    0.000000  -0.000001   0.000000   0.000000   0.003267  -0.038540
              19         20         21         22         23
     1  C    0.000010   0.000002  -0.000000  -0.000000  -0.000000
     2  H   -0.000004  -0.000000  -0.000000   0.000000   0.000000
     3  H   -0.000000  -0.000000   0.000000   0.000000   0.000000
     4  H    0.000000  -0.000000   0.000000  -0.000000   0.000000
     5  C    0.000370  -0.000121  -0.000006  -0.000001   0.000002
     6  H   -0.000009  -0.000010   0.000000   0.000005   0.000000
     7  H    0.000003  -0.000031   0.000001   0.000009   0.000000
     8  C   -0.002740   0.004157  -0.000235  -0.000192  -0.000118
     9  H    0.008231   0.000259  -0.000002  -0.000028   0.000009
    10  C   -0.004799  -0.000444   0.000072   0.000009   0.000010
    11  H    0.000022   0.000005  -0.000000   0.000000  -0.000000
    12  H    0.004943   0.000100  -0.000041  -0.000001   0.000002
    13  C    0.000067  -0.000014  -0.000001   0.000000   0.000000
    14  H   -0.000015  -0.000031   0.000122  -0.000001  -0.000001
    15  H    0.000000   0.000000  -0.000000  -0.000000   0.000000
    16  H   -0.000003   0.000000   0.000000  -0.000000   0.000000
    17  O   -0.074006  -0.093072   0.002052   0.002485   0.003267
    18  C    0.561941   0.374612  -0.031234  -0.030425  -0.038540
    19  O    8.149084  -0.060426   0.000891   0.001193   0.003088
    20  C   -0.060426   5.004279   0.390065   0.388843   0.395306
    21  H    0.000891   0.390065   0.528420  -0.023438  -0.021174
    22  H    0.001193   0.388843  -0.023438   0.527794  -0.021395
    23  H    0.003088   0.395306  -0.021174  -0.021395   0.521655
 Mulliken charges:
               1
     1  C   -0.349523
     2  H    0.115506
     3  H    0.117317
     4  H    0.121522
     5  C   -0.220991
     6  H    0.125250
     7  H    0.124643
     8  C    0.194448
     9  H    0.154846
    10  C   -0.238435
    11  H    0.116536
    12  H    0.145253
    13  C   -0.342393
    14  H    0.124443
    15  H    0.116776
    16  H    0.110171
    17  O   -0.663287
    18  C    0.771700
    19  O   -0.587841
    20  C   -0.403480
    21  H    0.154507
    22  H    0.155142
    23  H    0.157890
 Sum of Mulliken charges =  -0.00000
 Mulliken charges with hydrogens summed into heavy atoms:
               1
     1  C    0.004822
     5  C    0.028903
     8  C    0.349294
    10  C    0.023354
    13  C    0.008996
    17  O   -0.663287
    18  C    0.771700
    19  O   -0.587841
    20  C    0.064059
 Electronic spatial extent (au):  <R**2>=           1534.1222
 Charge=             -0.0000 electrons
 Dipole moment (field-independent basis, Debye):
    X=              0.7743    Y=             -0.0260    Z=             -1.8917  Tot=              2.0442
 Quadrupole moment (field-independent basis, Debye-Ang):
   XX=            -53.4713   YY=            -55.3916   ZZ=            -61.3074
   XY=             -0.4628   XZ=              6.4467   YZ=              0.5948
 Traceless Quadrupole moment (field-independent basis, Debye-Ang):
   XX=              3.2521   YY=              1.3318   ZZ=             -4.5839
   XY=             -0.4628   XZ=              6.4467   YZ=              0.5948
 Octapole moment (field-independent basis, Debye-Ang**2):
  XXX=            -23.9714  YYY=             -3.7269  ZZZ=             -3.8504  XYY=             -5.2332
  XXY=             -1.8540  XXZ=            -15.2758  XZZ=              4.6130  YZZ=             -0.3248
  YYZ=              1.1482  XYZ=             -0.5773
 Hexadecapole moment (field-independent basis, Debye-Ang**3):
 XXXX=          -1300.5694 YYYY=           -450.4508 ZZZZ=           -262.8944 XXXY=              5.2891
 XXXZ=             20.7633 YYYX=              2.3846 YYYZ=              5.3087 ZZZX=             10.2803
 ZZZY=              0.1801 XXYY=           -295.6987 XXZZ=           -279.7000 YYZZ=           -116.8518
 XXYZ=              6.5388 YYXZ=              1.2540 ZZXY=             -2.7862
 N-N= 4.862607850350D+02 E-N=-1.962542962318D+03  KE= 4.221837121612D+02
 No NMR shielding tensors so no spin-rotation constants.
 Leave Link  601 at Sun Sep 19 20:31:57 2021, MaxMem=   524288000 cpu:               0.2 elap:               0.4
 (Enter /opt/gaussian/g16_legacy/l9999.exe)
 1\1\GINC-TRUENO92\FOpt\RMP2-FC\6-31G(d,p)\C7H14O2\JRAMOS\19-Sep-2021\0
 \\#p opt mp2/6-31g(d,p)\\Conformer number 010. Energy MM = -6.992 kcal
 /mol\\0,1\C,-2.2672877909,3.1069938073,1.14488688\H,-1.8515950749,3.75
 45929216,0.3724063652\H,-2.2395649653,3.6496968354,2.0885269106\H,-3.3
 119574752,2.9228913073,0.8991766684\C,-1.4967659071,1.793492573,1.2290
 128819\H,-1.8816401484,1.1779995545,2.0433521544\H,-1.6384806796,1.219
 7468013,0.3114989903\C,-0.0024688075,1.9959269927,1.4177577263\H,0.420
 2799107,2.5002840115,0.5463231353\C,0.4043067619,2.7569701089,2.674029
 3683\H,0.0497043602,3.7859947684,2.5823808415\H,1.4935537081,2.8091318
 414,2.6828979624\C,-0.1059559178,2.1340879675,3.968259448\H,0.18967310
 25,1.0881553201,4.0314343905\H,0.3047086234,2.6555779485,4.8317435959\
 H,-1.1918984535,2.18272674,4.0396421167\O,0.5599088435,0.6521837187,1.
 4681237818\C,1.8501165903,0.5325008825,1.0581379511\O,2.5349787432,1.4
 607255744,0.6617990214\C,2.298131841,-0.9003211976,1.1680710979\H,2.24
 82045168,-1.2190555101,2.2074860947\H,1.6327586153,-1.5400461614,0.592
 3647117\H,3.3151896032,-0.9876568058,0.8008879055\\Version=EM64L-G16Re
 vA.03\State=1-A\HF=-422.9992145\MP2=-424.3597175\RMSD=6.843e-09\RMSF=7
 .747e-06\Dipole=-0.5637597,-0.2974247,0.2550917\PG=C01 [X(C7H14O2)]\\@


 PERICLES, SOPHOCLES,
 PELOPONESIAN WAR,
 FRENCH VERBS, LATIN VERBS
 H2SO4.
 Job cpu time:       0 days  0 hours 29 minutes 18.5 seconds.
 Elapsed time:       0 days  0 hours 29 minutes 22.2 seconds.
 File lengths (MBytes):  RWF=     29 Int=      0 D2E=      0 Chk=      6 Scr=      1
 Normal termination of Gaussian 16 at Sun Sep 19 20:31:58 2021.
