 Entering Gaussian System, Link 0=/opt/gaussian/g16_legacy/g16
 Input=07-EVA_003_gaussian.com
 Output=07-EVA_003_gaussian.log
 Initial command:
 /opt/gaussian/g16_legacy/l1.exe "/scratch-local/jramos/2661759/Gau-20025.inp" -scrdir="/scratch-local/jramos/2661759/"
 Entering Link 1 = /opt/gaussian/g16_legacy/l1.exe PID=     20029.
  
 Copyright (c) 1988,1990,1992,1993,1995,1998,2003,2009,2016,
            Gaussian, Inc.  All Rights Reserved.
  
 This is part of the Gaussian(R) 16 program.  It is based on
 the Gaussian(R) 09 system (copyright 2009, Gaussian, Inc.),
 the Gaussian(R) 03 system (copyright 2003, Gaussian, Inc.),
 the Gaussian(R) 98 system (copyright 1998, Gaussian, Inc.),
 the Gaussian(R) 94 system (copyright 1995, Gaussian, Inc.),
 the Gaussian 92(TM) system (copyright 1992, Gaussian, Inc.),
 the Gaussian 90(TM) system (copyright 1990, Gaussian, Inc.),
 the Gaussian 88(TM) system (copyright 1988, Gaussian, Inc.),
 the Gaussian 86(TM) system (copyright 1986, Carnegie Mellon
 University), and the Gaussian 82(TM) system (copyright 1983,
 Carnegie Mellon University). Gaussian is a federally registered
 trademark of Gaussian, Inc.
  
 This software contains proprietary and confidential information,
 including trade secrets, belonging to Gaussian, Inc.
  
 This software is provided under written license and may be
 used, copied, transmitted, or stored only in accord with that
 written license.
  
 The following legend is applicable only to US Government
 contracts under FAR:
  
                    RESTRICTED RIGHTS LEGEND
  
 Use, reproduction and disclosure by the US Government is
 subject to restrictions as set forth in subparagraphs (a)
 and (c) of the Commercial Computer Software - Restricted
 Rights clause in FAR 52.227-19.
  
 Gaussian, Inc.
 340 Quinnipiac St., Bldg. 40, Wallingford CT 06492
  
  
 ---------------------------------------------------------------
 Warning -- This program may not be used in any manner that
 competes with the business of Gaussian, Inc. or will provide
 assistance to any competitor of Gaussian, Inc.  The licensee
 of this program is prohibited from giving any competitor of
 Gaussian, Inc. access to this program.  By using this program,
 the user acknowledges that Gaussian, Inc. is engaged in the
 business of creating and licensing software in the field of
 computational chemistry and represents and warrants to the
 licensee that it is not a competitor of Gaussian, Inc. and that
 it will not use this program in any manner prohibited above.
 ---------------------------------------------------------------
  

 Cite this work as:
 Gaussian 16, Revision A.03,
 M. J. Frisch, G. W. Trucks, H. B. Schlegel, G. E. Scuseria, 
 M. A. Robb, J. R. Cheeseman, G. Scalmani, V. Barone, 
 G. A. Petersson, H. Nakatsuji, X. Li, M. Caricato, A. V. Marenich, 
 J. Bloino, B. G. Janesko, R. Gomperts, B. Mennucci, H. P. Hratchian, 
 J. V. Ortiz, A. F. Izmaylov, J. L. Sonnenberg, D. Williams-Young, 
 F. Ding, F. Lipparini, F. Egidi, J. Goings, B. Peng, A. Petrone, 
 T. Henderson, D. Ranasinghe, V. G. Zakrzewski, J. Gao, N. Rega, 
 G. Zheng, W. Liang, M. Hada, M. Ehara, K. Toyota, R. Fukuda, 
 J. Hasegawa, M. Ishida, T. Nakajima, Y. Honda, O. Kitao, H. Nakai, 
 T. Vreven, K. Throssell, J. A. Montgomery, Jr., J. E. Peralta, 
 F. Ogliaro, M. J. Bearpark, J. J. Heyd, E. N. Brothers, K. N. Kudin, 
 V. N. Staroverov, T. A. Keith, R. Kobayashi, J. Normand, 
 K. Raghavachari, A. P. Rendell, J. C. Burant, S. S. Iyengar, 
 J. Tomasi, M. Cossi, J. M. Millam, M. Klene, C. Adamo, R. Cammi, 
 J. W. Ochterski, R. L. Martin, K. Morokuma, O. Farkas, 
 J. B. Foresman, and D. J. Fox, Gaussian, Inc., Wallingford CT, 2016.
 
 ******************************************
 Gaussian 16:  EM64L-G16RevA.03 25-Dec-2016
                19-Sep-2021 
 ******************************************
 %chk=07-EVA_003_gaussian.chk
 %nproc=1
 Will use up to    1 processors via shared memory.
 %mem=4000Mb
 ---------------------
 #p opt mp2/6-31g(d,p)
 ---------------------
 1/18=20,19=15,38=1/1,3;
 2/9=110,12=2,17=6,18=5,40=1/2;
 3/5=1,6=6,7=101,11=9,25=1,30=1,71=1/1,2,3;
 4//1;
 5/5=2,38=5/2;
 8/6=4,10=2/1;
 9/15=2,16=-3/6;
 10/5=1/2;
 6/7=2,8=2,9=2,10=2/1;
 7/12=2/1,2,3,16;
 1/18=20,19=15/3(2);
 2/9=110/2;
 99//99;
 2/9=110/2;
 3/5=1,6=6,7=101,11=9,25=1,30=1,71=1/1,2,3;
 4/5=5,16=3,69=1/1;
 5/5=2,38=5/2;
 8/6=4,10=2/1;
 9/15=2,16=-3/6;
 10/5=1/2;
 7/12=2/1,2,3,16;
 1/18=20,19=15/3(-8);
 2/9=110/2;
 6/7=2,8=2,9=2,10=2/1;
 99//99;
 Leave Link    1 at Sun Sep 19 20:02:33 2021, MaxMem=   524288000 cpu:               0.0 elap:               0.1
 (Enter /opt/gaussian/g16_legacy/l101.exe)
 -------------------------------------------------
 Conformer number 003. Energy MM = -6.696 kcal/mol
 -------------------------------------------------
 Symbolic Z-matrix:
 Charge =  0 Multiplicity = 1
 C                    -2.2057    3.6992    1.2272 
 H                    -1.6946    4.1648    0.3788 
 H                    -1.8749    4.1898    2.147 
 H                    -3.279     3.8878    1.1202 
 C                    -1.9445    2.2036    1.2684 
 H                    -2.4427    1.7614    2.1389 
 H                    -2.4351    1.7448    0.4007 
 C                    -0.4542    1.8256    1.2557 
 H                     0.0109    2.1921    0.3311 
 C                     0.3597    2.3959    2.4287 
 H                     0.3534    3.4912    2.3964 
 H                     1.4051    2.0847    2.3078 
 C                    -0.0983    1.9286    3.8045 
 H                    -0.034     0.84      3.8965 
 H                     0.5408    2.3664    4.5784 
 H                    -1.127     2.2349    4.0129 
 O                    -0.3595    0.3847    1.3115 
 C                    -0.5154   -0.2747    0.1305 
 O                    -0.6095    0.2446   -0.971 
 C                    -0.5528   -1.7534    0.3702 
 H                     0.4622   -2.1386    0.4825 
 H                    -1.1451   -1.974     1.263 
 H                    -1.0409   -2.2409   -0.4788 
 
 ITRead=  0  0  0  0  0  0  0  0  0  0  0  0  0  0  0  0  0  0  0  0
 ITRead=  0  0  0
 MicOpt= -1 -1 -1 -1 -1 -1 -1 -1 -1 -1 -1 -1 -1 -1 -1 -1 -1 -1 -1 -1
 MicOpt= -1 -1 -1
 NAtoms=     23 NQM=       23 NQMF=       0 NMMI=      0 NMMIF=      0
                NMic=       0 NMicF=      0.
                    Isotopes and Nuclear Properties:
 (Nuclear quadrupole moments (NQMom) in fm**2, nuclear magnetic moments (NMagM)
  in nuclear magnetons)

  Atom         1           2           3           4           5           6           7           8           9          10
 IAtWgt=          12           1           1           1          12           1           1          12           1          12
 AtmWgt=  12.0000000   1.0078250   1.0078250   1.0078250  12.0000000   1.0078250   1.0078250  12.0000000   1.0078250  12.0000000
 NucSpn=           0           1           1           1           0           1           1           0           1           0
 AtZEff=  -0.0000000  -0.0000000  -0.0000000  -0.0000000  -0.0000000  -0.0000000  -0.0000000  -0.0000000  -0.0000000  -0.0000000
 NQMom=    0.0000000   0.0000000   0.0000000   0.0000000   0.0000000   0.0000000   0.0000000   0.0000000   0.0000000   0.0000000
 NMagM=    0.0000000   2.7928460   2.7928460   2.7928460   0.0000000   2.7928460   2.7928460   0.0000000   2.7928460   0.0000000
 AtZNuc=   6.0000000   1.0000000   1.0000000   1.0000000   6.0000000   1.0000000   1.0000000   6.0000000   1.0000000   6.0000000

  Atom        11          12          13          14          15          16          17          18          19          20
 IAtWgt=           1           1          12           1           1           1          16          12          16          12
 AtmWgt=   1.0078250   1.0078250  12.0000000   1.0078250   1.0078250   1.0078250  15.9949146  12.0000000  15.9949146  12.0000000
 NucSpn=           1           1           0           1           1           1           0           0           0           0
 AtZEff=  -0.0000000  -0.0000000  -0.0000000  -0.0000000  -0.0000000  -0.0000000  -0.0000000  -0.0000000  -0.0000000  -0.0000000
 NQMom=    0.0000000   0.0000000   0.0000000   0.0000000   0.0000000   0.0000000   0.0000000   0.0000000   0.0000000   0.0000000
 NMagM=    2.7928460   2.7928460   0.0000000   2.7928460   2.7928460   2.7928460   0.0000000   0.0000000   0.0000000   0.0000000
 AtZNuc=   1.0000000   1.0000000   6.0000000   1.0000000   1.0000000   1.0000000   8.0000000   6.0000000   8.0000000   6.0000000

  Atom        21          22          23
 IAtWgt=           1           1           1
 AtmWgt=   1.0078250   1.0078250   1.0078250
 NucSpn=           1           1           1
 AtZEff=  -0.0000000  -0.0000000  -0.0000000
 NQMom=    0.0000000   0.0000000   0.0000000
 NMagM=    2.7928460   2.7928460   2.7928460
 AtZNuc=   1.0000000   1.0000000   1.0000000
 Leave Link  101 at Sun Sep 19 20:02:33 2021, MaxMem=   524288000 cpu:               0.1 elap:               0.3
 (Enter /opt/gaussian/g16_legacy/l103.exe)

 GradGradGradGradGradGradGradGradGradGradGradGradGradGradGradGradGradGrad
 Berny optimization.
 Initialization pass.
                           ----------------------------
                           !    Initial Parameters    !
                           ! (Angstroms and Degrees)  !
 --------------------------                            --------------------------
 ! Name  Definition              Value          Derivative Info.                !
 --------------------------------------------------------------------------------
 ! R1    R(1,2)                  1.0944         estimate D2E/DX2                !
 ! R2    R(1,3)                  1.0937         estimate D2E/DX2                !
 ! R3    R(1,4)                  1.095          estimate D2E/DX2                !
 ! R4    R(1,5)                  1.5188         estimate D2E/DX2                !
 ! R5    R(5,6)                  1.0961         estimate D2E/DX2                !
 ! R6    R(5,7)                  1.0973         estimate D2E/DX2                !
 ! R7    R(5,8)                  1.5375         estimate D2E/DX2                !
 ! R8    R(8,9)                  1.098          estimate D2E/DX2                !
 ! R9    R(8,10)                 1.5374         estimate D2E/DX2                !
 ! R10   R(8,17)                 1.4451         estimate D2E/DX2                !
 ! R11   R(10,11)                1.0958         estimate D2E/DX2                !
 ! R12   R(10,12)                1.0974         estimate D2E/DX2                !
 ! R13   R(10,13)                1.5235         estimate D2E/DX2                !
 ! R14   R(13,14)                1.0944         estimate D2E/DX2                !
 ! R15   R(13,15)                1.095          estimate D2E/DX2                !
 ! R16   R(13,16)                1.0934         estimate D2E/DX2                !
 ! R17   R(17,18)                1.3616         estimate D2E/DX2                !
 ! R18   R(18,19)                1.2214         estimate D2E/DX2                !
 ! R19   R(18,20)                1.4985         estimate D2E/DX2                !
 ! R20   R(20,21)                1.0914         estimate D2E/DX2                !
 ! R21   R(20,22)                1.0939         estimate D2E/DX2                !
 ! R22   R(20,23)                1.0939         estimate D2E/DX2                !
 ! A1    A(2,1,3)              108.6545         estimate D2E/DX2                !
 ! A2    A(2,1,4)              107.9824         estimate D2E/DX2                !
 ! A3    A(2,1,5)              111.0782         estimate D2E/DX2                !
 ! A4    A(3,1,4)              107.5413         estimate D2E/DX2                !
 ! A5    A(3,1,5)              111.5241         estimate D2E/DX2                !
 ! A6    A(4,1,5)              109.9276         estimate D2E/DX2                !
 ! A7    A(1,5,6)              109.9155         estimate D2E/DX2                !
 ! A8    A(1,5,7)              108.2635         estimate D2E/DX2                !
 ! A9    A(1,5,8)              114.1145         estimate D2E/DX2                !
 ! A10   A(6,5,7)              104.8386         estimate D2E/DX2                !
 ! A11   A(6,5,8)              110.3602         estimate D2E/DX2                !
 ! A12   A(7,5,8)              108.907          estimate D2E/DX2                !
 ! A13   A(5,8,9)              109.6016         estimate D2E/DX2                !
 ! A14   A(5,8,10)             114.5592         estimate D2E/DX2                !
 ! A15   A(5,8,17)             107.9589         estimate D2E/DX2                !
 ! A16   A(9,8,10)             107.1232         estimate D2E/DX2                !
 ! A17   A(9,8,17)             109.7301         estimate D2E/DX2                !
 ! A18   A(10,8,17)            107.8016         estimate D2E/DX2                !
 ! A19   A(8,10,11)            110.197          estimate D2E/DX2                !
 ! A20   A(8,10,12)            108.3644         estimate D2E/DX2                !
 ! A21   A(8,10,13)            114.5876         estimate D2E/DX2                !
 ! A22   A(11,10,12)           106.5993         estimate D2E/DX2                !
 ! A23   A(11,10,13)           109.359          estimate D2E/DX2                !
 ! A24   A(12,10,13)           107.3908         estimate D2E/DX2                !
 ! A25   A(10,13,14)           111.3074         estimate D2E/DX2                !
 ! A26   A(10,13,15)           109.886          estimate D2E/DX2                !
 ! A27   A(10,13,16)           111.6567         estimate D2E/DX2                !
 ! A28   A(14,13,15)           107.698          estimate D2E/DX2                !
 ! A29   A(14,13,16)           108.5372         estimate D2E/DX2                !
 ! A30   A(15,13,16)           107.6025         estimate D2E/DX2                !
 ! A31   A(8,17,18)            116.2248         estimate D2E/DX2                !
 ! A32   A(17,18,19)           125.8133         estimate D2E/DX2                !
 ! A33   A(17,18,20)           109.9996         estimate D2E/DX2                !
 ! A34   A(19,18,20)           124.1869         estimate D2E/DX2                !
 ! A35   A(18,20,21)           109.9698         estimate D2E/DX2                !
 ! A36   A(18,20,22)           110.0646         estimate D2E/DX2                !
 ! A37   A(18,20,23)           109.0715         estimate D2E/DX2                !
 ! A38   A(21,20,22)           110.3893         estimate D2E/DX2                !
 ! A39   A(21,20,23)           109.7256         estimate D2E/DX2                !
 ! A40   A(22,20,23)           107.5757         estimate D2E/DX2                !
 ! D1    D(2,1,5,6)            178.5166         estimate D2E/DX2                !
 ! D2    D(2,1,5,7)            -67.5046         estimate D2E/DX2                !
 ! D3    D(2,1,5,8)             53.9329         estimate D2E/DX2                !
 ! D4    D(3,1,5,6)             57.1503         estimate D2E/DX2                !
 ! D5    D(3,1,5,7)            171.1291         estimate D2E/DX2                !
 ! D6    D(3,1,5,8)            -67.4334         estimate D2E/DX2                !
 ! D7    D(4,1,5,6)            -62.0331         estimate D2E/DX2                !
 ! D8    D(4,1,5,7)             51.9458         estimate D2E/DX2                !
 ! D9    D(4,1,5,8)            173.3833         estimate D2E/DX2                !
 ! D10   D(1,5,8,9)            -61.0836         estimate D2E/DX2                !
 ! D11   D(1,5,8,10)            59.3382         estimate D2E/DX2                !
 ! D12   D(1,5,8,17)           179.4352         estimate D2E/DX2                !
 ! D13   D(6,5,8,9)            174.5703         estimate D2E/DX2                !
 ! D14   D(6,5,8,10)           -65.0078         estimate D2E/DX2                !
 ! D15   D(6,5,8,17)            55.0891         estimate D2E/DX2                !
 ! D16   D(7,5,8,9)             59.9974         estimate D2E/DX2                !
 ! D17   D(7,5,8,10)          -179.5808         estimate D2E/DX2                !
 ! D18   D(7,5,8,17)           -59.4838         estimate D2E/DX2                !
 ! D19   D(5,8,10,11)          -62.4689         estimate D2E/DX2                !
 ! D20   D(5,8,10,12)         -178.7546         estimate D2E/DX2                !
 ! D21   D(5,8,10,13)           61.3626         estimate D2E/DX2                !
 ! D22   D(9,8,10,11)           59.3167         estimate D2E/DX2                !
 ! D23   D(9,8,10,12)          -56.969          estimate D2E/DX2                !
 ! D24   D(9,8,10,13)         -176.8518         estimate D2E/DX2                !
 ! D25   D(17,8,10,11)         177.3468         estimate D2E/DX2                !
 ! D26   D(17,8,10,12)          61.0611         estimate D2E/DX2                !
 ! D27   D(17,8,10,13)         -58.8217         estimate D2E/DX2                !
 ! D28   D(5,8,17,18)           81.848          estimate D2E/DX2                !
 ! D29   D(9,8,17,18)          -37.5519         estimate D2E/DX2                !
 ! D30   D(10,8,17,18)        -153.8907         estimate D2E/DX2                !
 ! D31   D(8,10,13,14)          59.894          estimate D2E/DX2                !
 ! D32   D(8,10,13,15)         179.1082         estimate D2E/DX2                !
 ! D33   D(8,10,13,16)         -61.5749         estimate D2E/DX2                !
 ! D34   D(11,10,13,14)       -175.8287         estimate D2E/DX2                !
 ! D35   D(11,10,13,15)        -56.6144         estimate D2E/DX2                !
 ! D36   D(11,10,13,16)         62.7025         estimate D2E/DX2                !
 ! D37   D(12,10,13,14)        -60.5294         estimate D2E/DX2                !
 ! D38   D(12,10,13,15)         58.6848         estimate D2E/DX2                !
 ! D39   D(12,10,13,16)        178.0017         estimate D2E/DX2                !
 ! D40   D(8,17,18,19)           6.7733         estimate D2E/DX2                !
 ! D41   D(8,17,18,20)        -173.3841         estimate D2E/DX2                !
 ! D42   D(17,18,20,21)        -80.7733         estimate D2E/DX2                !
 ! D43   D(17,18,20,22)         41.0538         estimate D2E/DX2                !
 ! D44   D(17,18,20,23)        158.8561         estimate D2E/DX2                !
 ! D45   D(19,18,20,21)         99.0724         estimate D2E/DX2                !
 ! D46   D(19,18,20,22)       -139.1005         estimate D2E/DX2                !
 ! D47   D(19,18,20,23)        -21.2982         estimate D2E/DX2                !
 --------------------------------------------------------------------------------
 Trust Radius=3.00D-01 FncErr=1.00D-07 GrdErr=1.00D-07 EigMax=2.50D+02 EigMin=1.00D-04
 Number of steps in this run=    119 maximum allowed number of steps=    138.
 GradGradGradGradGradGradGradGradGradGradGradGradGradGradGradGradGradGrad

 Leave Link  103 at Sun Sep 19 20:02:34 2021, MaxMem=   524288000 cpu:               0.0 elap:               0.2
 (Enter /opt/gaussian/g16_legacy/l202.exe)
                          Input orientation:                          
 ---------------------------------------------------------------------
 Center     Atomic      Atomic             Coordinates (Angstroms)
 Number     Number       Type             X           Y           Z
 ---------------------------------------------------------------------
      1          6           0       -2.205700    3.699200    1.227200
      2          1           0       -1.694600    4.164800    0.378800
      3          1           0       -1.874900    4.189800    2.147000
      4          1           0       -3.279000    3.887800    1.120200
      5          6           0       -1.944500    2.203600    1.268400
      6          1           0       -2.442700    1.761400    2.138900
      7          1           0       -2.435100    1.744800    0.400700
      8          6           0       -0.454200    1.825600    1.255700
      9          1           0        0.010900    2.192100    0.331100
     10          6           0        0.359700    2.395900    2.428700
     11          1           0        0.353400    3.491200    2.396400
     12          1           0        1.405100    2.084700    2.307800
     13          6           0       -0.098300    1.928600    3.804500
     14          1           0       -0.034000    0.840000    3.896500
     15          1           0        0.540800    2.366400    4.578400
     16          1           0       -1.127000    2.234900    4.012900
     17          8           0       -0.359500    0.384700    1.311500
     18          6           0       -0.515400   -0.274700    0.130500
     19          8           0       -0.609500    0.244600   -0.971000
     20          6           0       -0.552800   -1.753400    0.370200
     21          1           0        0.462200   -2.138600    0.482500
     22          1           0       -1.145100   -1.974000    1.263000
     23          1           0       -1.040900   -2.240900   -0.478800
 ---------------------------------------------------------------------
                    Distance matrix (angstroms):
                    1          2          3          4          5
     1  C    0.000000
     2  H    1.094436   0.000000
     3  H    1.093686   1.777544   0.000000
     4  H    1.094985   1.771081   1.765508   0.000000
     5  C    1.518796   2.167981   2.172964   2.153923   0.000000
     6  H    2.154631   3.071472   2.493910   2.501744   1.096136
     7  H    2.134340   2.530854   3.056372   2.412944   1.097310
     8  C    2.564945   2.789158   2.898663   3.500075   1.537543
     9  H    2.826245   2.608170   3.293105   3.784378   2.168468
    10  C    3.118248   3.398712   2.879387   4.144644   2.587009
    11  H    2.821221   2.952753   2.348524   3.870440   2.865422
    12  H    4.100266   4.201904   3.900731   5.157747   3.509175
    13  C    3.770760   4.391376   3.319132   4.600085   3.148949
    14  H    4.473977   5.117236   4.203668   5.246613   3.523681
    15  H    4.533228   5.086049   3.882280   5.372586   4.142381
    16  H    3.326844   4.153717   2.804028   3.966219   2.863838
    17  O    3.794927   4.116015   4.180106   4.564185   2.412982
    18  C    4.455530   4.600144   5.083923   5.093466   3.078817
    19  O    4.394792   4.285717   5.185341   4.977173   3.261107
    20  C    5.761716   6.027344   6.342444   6.310135   4.289690
    21  H    6.461592   6.662987   6.948471   7.121849   5.026385
    22  H    5.771599   6.226446   6.269489   6.239761   4.253400
    23  H    6.289037   6.495829   6.996019   6.717653   4.860327
                    6          7          8          9         10
     6  H    0.000000
     7  H    1.738296   0.000000
     8  C    2.176763   2.159055   0.000000
     9  H    3.077953   2.487536   1.097964   0.000000
    10  C    2.887909   3.513918   1.537402   2.136146   0.000000
    11  H    3.297983   3.848177   2.174313   2.463824   1.095794
    12  H    3.865050   4.301128   2.151986   2.421295   1.097417
    13  C    2.880693   4.132828   2.575588   3.485092   1.523469
    14  H    3.120893   4.336423   2.849877   3.813433   2.174916
    15  H    3.901084   5.166773   3.510388   4.283775   2.157517
    16  H    2.338193   3.872895   2.867462   3.853868   2.178506
    17  O    2.630516   2.643396   1.445086   2.089276   2.410458
    18  C    3.448747   2.799399   2.383502   2.530283   3.630376
    19  O    3.915710   2.732211   2.735301   2.423451   4.138285
    20  C    4.365071   3.972579   3.688234   3.985757   4.720886
    21  H    5.137325   4.845806   4.141559   4.356783   4.935574
    22  H    4.050207   4.029533   3.861911   4.422800   4.766477
    23  H    4.983553   4.313133   4.459723   4.627495   5.649350
                   11         12         13         14         15
    11  H    0.000000
    12  H    1.758455   0.000000
    13  C    2.151394   2.127132   0.000000
    14  H    3.070707   2.478761   1.094371   0.000000
    15  H    2.461995   2.445811   1.095006   1.767846   0.000000
    16  H    2.526449   3.056380   1.093377   1.775935   1.765967
    17  O    3.366835   2.645076   2.943960   2.644896   3.925597
    18  C    4.480080   3.741086   4.304275   3.956900   5.279657
    19  O    4.775664   4.265573   5.089458   4.937434   6.051534
    20  C    5.694955   4.724265   5.055503   4.407910   5.989796
    21  H    5.947226   4.696493   5.281284   4.557814   6.089138
    22  H    5.779144   4.905932   4.773395   4.011042   5.716048
    23  H    6.562608   5.697269   6.051437   5.445093   7.021699
                   16         17         18         19         20
    16  H    0.000000
    17  O    3.363013   0.000000
    18  C    4.663172   1.361570   0.000000
    19  O    5.391508   2.300420   1.221405   0.000000
    20  C    5.431897   2.344117   1.498469   2.407080   0.000000
    21  H    5.840957   2.780193   2.133947   2.990125   1.091428
    22  H    5.027635   2.486561   2.136984   3.193714   1.093881
    23  H    6.341575   3.250116   2.124462   2.570229   1.093937
                   21         22         23
    21  H    0.000000
    22  H    1.794349   0.000000
    23  H    1.787141   1.765208   0.000000
 Stoichiometry    C7H14O2
 Framework group  C1[X(C7H14O2)]
 Deg. of freedom    63
 Full point group                 C1      NOp   1
 Largest Abelian subgroup         C1      NOp   1
 Largest concise Abelian subgroup C1      NOp   1
                         Standard orientation:                         
 ---------------------------------------------------------------------
 Center     Atomic      Atomic             Coordinates (Angstroms)
 Number     Number       Type             X           Y           Z
 ---------------------------------------------------------------------
      1          6           0        2.231471   -1.810705   -0.268758
      2          1           0        2.127686   -2.317409    0.695747
      3          1           0        3.094489   -1.140593   -0.220803
      4          1           0        2.445022   -2.570005   -1.028266
      5          6           0        0.962036   -1.059412   -0.630468
      6          1           0        1.095863   -0.538247   -1.585451
      7          1           0        0.169629   -1.794416   -0.820074
      8          6           0        0.482793   -0.078153    0.451889
      9          1           0        0.260010   -0.628526    1.375460
     10          6           0        1.496328    1.020098    0.812717
     11          1           0        2.405881    0.573313    1.229683
     12          1           0        1.062511    1.644441    1.604122
     13          6           0        1.869763    1.941967   -0.341260
     14          1           0        0.991219    2.462608   -0.734633
     15          1           0        2.579983    2.700921    0.003146
     16          1           0        2.343603    1.392750   -1.159374
     17          8           0       -0.715649    0.568341   -0.031905
     18          6           0       -1.876274   -0.128215    0.115176
     19          8           0       -2.005221   -1.183385    0.716691
     20          6           0       -2.996673    0.591832   -0.571590
     21          1           0       -3.367641    1.397239    0.064741
     22          1           0       -2.654171    0.990945   -1.530745
     23          1           0       -3.803790   -0.117128   -0.778075
 ---------------------------------------------------------------------
 Rotational constants (GHZ):           2.2315642           1.0424296           0.8142603
 Leave Link  202 at Sun Sep 19 20:02:34 2021, MaxMem=   524288000 cpu:               0.0 elap:               0.1
 (Enter /opt/gaussian/g16_legacy/l301.exe)
 Standard basis: 6-31G(d,p) (6D, 7F)
 Ernie: Thresh=  0.10000D-02 Tol=  0.10000D-05 Strict=F.
 There are   205 symmetry adapted cartesian basis functions of A   symmetry.
 There are   205 symmetry adapted basis functions of A   symmetry.
   205 basis functions,   350 primitive gaussians,   205 cartesian basis functions
    36 alpha electrons       36 beta electrons
       nuclear repulsion energy       483.9273656480 Hartrees.
 IExCor=    0 DFT=F Ex=HF Corr=None ExCW=0 ScaHFX=  1.000000
 ScaDFX=  1.000000  1.000000  1.000000  1.000000 ScalE2=  1.000000  1.000000
 IRadAn=      5 IRanWt=     -1 IRanGd=            0 ICorTp=0 IEmpDi=  4
 NAtoms=   23 NActive=   23 NUniq=   23 SFac= 1.00D+00 NAtFMM=   60 NAOKFM=F Big=F
 Integral buffers will be    131072 words long.
 Raffenetti 1 integral format.
 Two-electron integral symmetry is turned on.
 Leave Link  301 at Sun Sep 19 20:02:34 2021, MaxMem=   524288000 cpu:               0.1 elap:               0.1
 (Enter /opt/gaussian/g16_legacy/l302.exe)
 NPDir=0 NMtPBC=     1 NCelOv=     1 NCel=       1 NClECP=     1 NCelD=      1
         NCelK=      1 NCelE2=     1 NClLst=     1 CellRange=     0.0.
 One-electron integrals computed using PRISM.
 One-electron integral symmetry used in STVInt
 NBasis=   205 RedAO= T EigKep=  3.24D-03  NBF=   205
 NBsUse=   205 1.00D-06 EigRej= -1.00D+00 NBFU=   205
 Leave Link  302 at Sun Sep 19 20:02:34 2021, MaxMem=   524288000 cpu:               0.2 elap:               0.4
 (Enter /opt/gaussian/g16_legacy/l303.exe)
 DipDrv:  MaxL=1.
 Leave Link  303 at Sun Sep 19 20:02:35 2021, MaxMem=   524288000 cpu:               0.0 elap:               0.3
 (Enter /opt/gaussian/g16_legacy/l401.exe)
 ExpMin= 1.61D-01 ExpMax= 5.48D+03 ExpMxC= 8.25D+02 IAcc=3 IRadAn=         5 AccDes= 0.00D+00
 Harris functional with IExCor=  205 and IRadAn=       5 diagonalized for initial guess.
 HarFok:  IExCor=  205 AccDes= 0.00D+00 IRadAn=         5 IDoV= 1 UseB2=F ITyADJ=14
 ICtDFT=  3500011 ScaDFX=  1.000000  1.000000  1.000000  1.000000
 FoFCou: FMM=F IPFlag=           0 FMFlag=      100000 FMFlg1=           0
         NFxFlg=           0 DoJE=T BraDBF=F KetDBF=T FulRan=T
         wScrn=  0.000000 ICntrl=       500 IOpCl=  0 I1Cent=   200000004 NGrid=           0
         NMat0=    1 NMatS0=      1 NMatT0=    0 NMatD0=    1 NMtDS0=    0 NMtDT0=    0
 Petite list used in FoFCou.
 Harris En= -423.718778310754    
 JPrj=0 DoOrth=F DoCkMO=F.
 Leave Link  401 at Sun Sep 19 20:02:40 2021, MaxMem=   524288000 cpu:               4.6 elap:               4.9
 (Enter /opt/gaussian/g16_legacy/l502.exe)
 Keep R1 ints in memory in canonical form, NReq=227304434.
 FoFCou: FMM=F IPFlag=           0 FMFlag=           0 FMFlg1=           0
         NFxFlg=           0 DoJE=F BraDBF=F KetDBF=F FulRan=T
         wScrn=  0.000000 ICntrl=       600 IOpCl=  0 I1Cent=           0 NGrid=           0
         NMat0=    1 NMatS0=  21115 NMatT0=    0 NMatD0=    1 NMtDS0=    0 NMtDT0=    0
 Symmetry not used in FoFCou.
 Two-electron integral symmetry not used.
 Closed shell SCF:
 Using DIIS extrapolation, IDIIS=  1040.
 NGot=   524288000 LenX=   301268152 LenY=   301225686
 Requested convergence on RMS density matrix=1.00D-08 within 128 cycles.
 Requested convergence on MAX density matrix=1.00D-06.
 Requested convergence on             energy=1.00D-06.
 No special actions if energy rises.

 Cycle   1  Pass 1  IDiag  1:
 E= -422.506156472342    
 DIIS: error= 5.38D-02 at cycle   1 NSaved=   1.
 NSaved= 1 IEnMin= 1 EnMin= -422.506156472342     IErMin= 1 ErrMin= 5.38D-02
 ErrMax= 5.38D-02  0.00D+00 EMaxC= 1.00D-01 BMatC= 7.23D-01 BMatP= 7.23D-01
 IDIUse=3 WtCom= 4.62D-01 WtEn= 5.38D-01
 Coeff-Com:  0.100D+01
 Coeff-En:   0.100D+01
 Coeff:      0.100D+01
 Gap=     0.558 Goal=   None    Shift=    0.000
 GapD=    0.558 DampG=2.000 DampE=0.500 DampFc=1.0000 IDamp=-1.
 RMSDP=4.06D-03 MaxDP=1.16D-01              OVMax= 1.26D-01

 Cycle   2  Pass 1  IDiag  1:
 E= -422.910938293782     Delta-E=       -0.404781821440 Rises=F Damp=F
 DIIS: error= 1.27D-02 at cycle   2 NSaved=   2.
 NSaved= 2 IEnMin= 2 EnMin= -422.910938293782     IErMin= 2 ErrMin= 1.27D-02
 ErrMax= 1.27D-02  0.00D+00 EMaxC= 1.00D-01 BMatC= 1.00D-01 BMatP= 7.23D-01
 IDIUse=3 WtCom= 8.73D-01 WtEn= 1.27D-01
 Coeff-Com:  0.210D+00 0.790D+00
 Coeff-En:   0.000D+00 0.100D+01
 Coeff:      0.183D+00 0.817D+00
 Gap=     0.642 Goal=   None    Shift=    0.000
 RMSDP=1.50D-03 MaxDP=4.81D-02 DE=-4.05D-01 OVMax= 4.68D-02

 Cycle   3  Pass 1  IDiag  1:
 E= -422.988445949061     Delta-E=       -0.077507655279 Rises=F Damp=F
 DIIS: error= 4.09D-03 at cycle   3 NSaved=   3.
 NSaved= 3 IEnMin= 3 EnMin= -422.988445949061     IErMin= 3 ErrMin= 4.09D-03
 ErrMax= 4.09D-03  0.00D+00 EMaxC= 1.00D-01 BMatC= 8.59D-03 BMatP= 1.00D-01
 IDIUse=3 WtCom= 9.59D-01 WtEn= 4.09D-02
 Coeff-Com: -0.152D-01 0.188D+00 0.827D+00
 Coeff-En:   0.000D+00 0.000D+00 0.100D+01
 Coeff:     -0.146D-01 0.180D+00 0.834D+00
 Gap=     0.613 Goal=   None    Shift=    0.000
 RMSDP=3.92D-04 MaxDP=2.03D-02 DE=-7.75D-02 OVMax= 1.99D-02

 Cycle   4  Pass 1  IDiag  1:
 E= -422.995049972298     Delta-E=       -0.006604023237 Rises=F Damp=F
 DIIS: error= 1.97D-03 at cycle   4 NSaved=   4.
 NSaved= 4 IEnMin= 4 EnMin= -422.995049972298     IErMin= 4 ErrMin= 1.97D-03
 ErrMax= 1.97D-03  0.00D+00 EMaxC= 1.00D-01 BMatC= 8.97D-04 BMatP= 8.59D-03
 IDIUse=3 WtCom= 9.80D-01 WtEn= 1.97D-02
 Coeff-Com: -0.124D-01 0.338D-01 0.308D+00 0.670D+00
 Coeff-En:   0.000D+00 0.000D+00 0.000D+00 0.100D+01
 Coeff:     -0.122D-01 0.331D-01 0.302D+00 0.677D+00
 Gap=     0.615 Goal=   None    Shift=    0.000
 RMSDP=1.22D-04 MaxDP=5.66D-03 DE=-6.60D-03 OVMax= 6.10D-03

 Cycle   5  Pass 1  IDiag  1:
 E= -422.995772591288     Delta-E=       -0.000722618991 Rises=F Damp=F
 DIIS: error= 3.76D-04 at cycle   5 NSaved=   5.
 NSaved= 5 IEnMin= 5 EnMin= -422.995772591288     IErMin= 5 ErrMin= 3.76D-04
 ErrMax= 3.76D-04  0.00D+00 EMaxC= 1.00D-01 BMatC= 2.82D-05 BMatP= 8.97D-04
 IDIUse=3 WtCom= 9.96D-01 WtEn= 3.76D-03
 Coeff-Com:  0.162D-02-0.163D-01-0.735D-01-0.128D-01 0.110D+01
 Coeff-En:   0.000D+00 0.000D+00 0.000D+00 0.000D+00 0.100D+01
 Coeff:      0.162D-02-0.162D-01-0.732D-01-0.127D-01 0.110D+01
 Gap=     0.614 Goal=   None    Shift=    0.000
 RMSDP=4.93D-05 MaxDP=1.47D-03 DE=-7.23D-04 OVMax= 2.98D-03

 Cycle   6  Pass 1  IDiag  1:
 E= -422.995833027136     Delta-E=       -0.000060435848 Rises=F Damp=F
 DIIS: error= 1.25D-04 at cycle   6 NSaved=   6.
 NSaved= 6 IEnMin= 6 EnMin= -422.995833027136     IErMin= 6 ErrMin= 1.25D-04
 ErrMax= 1.25D-04  0.00D+00 EMaxC= 1.00D-01 BMatC= 3.97D-06 BMatP= 2.82D-05
 IDIUse=3 WtCom= 9.99D-01 WtEn= 1.25D-03
 Coeff-Com:  0.135D-02-0.626D-02-0.394D-01-0.736D-01 0.173D+00 0.944D+00
 Coeff-En:   0.000D+00 0.000D+00 0.000D+00 0.000D+00 0.000D+00 0.100D+01
 Coeff:      0.135D-02-0.625D-02-0.393D-01-0.735D-01 0.173D+00 0.944D+00
 Gap=     0.614 Goal=   None    Shift=    0.000
 RMSDP=1.83D-05 MaxDP=6.11D-04 DE=-6.04D-05 OVMax= 1.00D-03

 Cycle   7  Pass 1  IDiag  1:
 E= -422.995840994222     Delta-E=       -0.000007967086 Rises=F Damp=F
 DIIS: error= 6.00D-05 at cycle   7 NSaved=   7.
 NSaved= 7 IEnMin= 7 EnMin= -422.995840994222     IErMin= 7 ErrMin= 6.00D-05
 ErrMax= 6.00D-05  0.00D+00 EMaxC= 1.00D-01 BMatC= 4.97D-07 BMatP= 3.97D-06
 IDIUse=1 WtCom= 1.00D+00 WtEn= 0.00D+00
 Coeff-Com: -0.246D-03 0.201D-02 0.117D-01 0.378D-04-0.106D+00-0.846D-01
 Coeff-Com:  0.118D+01
 Coeff:     -0.246D-03 0.201D-02 0.117D-01 0.378D-04-0.106D+00-0.846D-01
 Coeff:      0.118D+01
 Gap=     0.614 Goal=   None    Shift=    0.000
 RMSDP=7.66D-06 MaxDP=2.57D-04 DE=-7.97D-06 OVMax= 5.58D-04

 Cycle   8  Pass 1  IDiag  1:
 E= -422.995842407477     Delta-E=       -0.000001413255 Rises=F Damp=F
 DIIS: error= 1.62D-05 at cycle   8 NSaved=   8.
 NSaved= 8 IEnMin= 8 EnMin= -422.995842407477     IErMin= 8 ErrMin= 1.62D-05
 ErrMax= 1.62D-05  0.00D+00 EMaxC= 1.00D-01 BMatC= 9.25D-08 BMatP= 4.97D-07
 IDIUse=1 WtCom= 1.00D+00 WtEn= 0.00D+00
 Coeff-Com: -0.240D-03 0.125D-02 0.793D-02 0.880D-02-0.367D-01-0.170D+00
 Coeff-Com:  0.119D+00 0.107D+01
 Coeff:     -0.240D-03 0.125D-02 0.793D-02 0.880D-02-0.367D-01-0.170D+00
 Coeff:      0.119D+00 0.107D+01
 Gap=     0.614 Goal=   None    Shift=    0.000
 RMSDP=3.58D-06 MaxDP=9.93D-05 DE=-1.41D-06 OVMax= 2.36D-04

 Cycle   9  Pass 1  IDiag  1:
 E= -422.995842661583     Delta-E=       -0.000000254106 Rises=F Damp=F
 DIIS: error= 5.29D-06 at cycle   9 NSaved=   9.
 NSaved= 9 IEnMin= 9 EnMin= -422.995842661583     IErMin= 9 ErrMin= 5.29D-06
 ErrMax= 5.29D-06  0.00D+00 EMaxC= 1.00D-01 BMatC= 1.20D-08 BMatP= 9.25D-08
 IDIUse=1 WtCom= 1.00D+00 WtEn= 0.00D+00
 Coeff-Com:  0.293D-05-0.142D-03-0.606D-03 0.620D-03 0.151D-01-0.936D-02
 Coeff-Com: -0.172D+00 0.139D+00 0.103D+01
 Coeff:      0.293D-05-0.142D-03-0.606D-03 0.620D-03 0.151D-01-0.936D-02
 Coeff:     -0.172D+00 0.139D+00 0.103D+01
 Gap=     0.614 Goal=   None    Shift=    0.000
 RMSDP=1.16D-06 MaxDP=3.48D-05 DE=-2.54D-07 OVMax= 6.96D-05

 Cycle  10  Pass 1  IDiag  1:
 E= -422.995842688403     Delta-E=       -0.000000026821 Rises=F Damp=F
 DIIS: error= 1.44D-06 at cycle  10 NSaved=  10.
 NSaved=10 IEnMin=10 EnMin= -422.995842688403     IErMin=10 ErrMin= 1.44D-06
 ErrMax= 1.44D-06  0.00D+00 EMaxC= 1.00D-01 BMatC= 8.71D-10 BMatP= 1.20D-08
 IDIUse=1 WtCom= 1.00D+00 WtEn= 0.00D+00
 Coeff-Com:  0.255D-04-0.142D-03-0.847D-03-0.134D-02 0.417D-02 0.185D-01
 Coeff-Com: -0.124D-01-0.105D+00-0.381D-01 0.114D+01
 Coeff:      0.255D-04-0.142D-03-0.847D-03-0.134D-02 0.417D-02 0.185D-01
 Coeff:     -0.124D-01-0.105D+00-0.381D-01 0.114D+01
 Gap=     0.614 Goal=   None    Shift=    0.000
 RMSDP=3.08D-07 MaxDP=1.18D-05 DE=-2.68D-08 OVMax= 1.54D-05

 Cycle  11  Pass 1  IDiag  1:
 E= -422.995842690548     Delta-E=       -0.000000002145 Rises=F Damp=F
 DIIS: error= 5.22D-07 at cycle  11 NSaved=  11.
 NSaved=11 IEnMin=11 EnMin= -422.995842690548     IErMin=11 ErrMin= 5.22D-07
 ErrMax= 5.22D-07  0.00D+00 EMaxC= 1.00D-01 BMatC= 1.00D-10 BMatP= 8.71D-10
 IDIUse=1 WtCom= 1.00D+00 WtEn= 0.00D+00
 Coeff-Com:  0.281D-05-0.530D-05-0.253D-04-0.240D-03-0.735D-03 0.252D-02
 Coeff-Com:  0.127D-01-0.175D-01-0.106D+00 0.133D+00 0.977D+00
 Coeff:      0.281D-05-0.530D-05-0.253D-04-0.240D-03-0.735D-03 0.252D-02
 Coeff:      0.127D-01-0.175D-01-0.106D+00 0.133D+00 0.977D+00
 Gap=     0.614 Goal=   None    Shift=    0.000
 RMSDP=7.18D-08 MaxDP=2.80D-06 DE=-2.14D-09 OVMax= 3.21D-06

 Cycle  12  Pass 1  IDiag  1:
 E= -422.995842690720     Delta-E=       -0.000000000172 Rises=F Damp=F
 DIIS: error= 1.29D-07 at cycle  12 NSaved=  12.
 NSaved=12 IEnMin=12 EnMin= -422.995842690720     IErMin=12 ErrMin= 1.29D-07
 ErrMax= 1.29D-07  0.00D+00 EMaxC= 1.00D-01 BMatC= 8.52D-12 BMatP= 1.00D-10
 IDIUse=1 WtCom= 1.00D+00 WtEn= 0.00D+00
 Coeff-Com: -0.255D-05 0.139D-04 0.926D-04 0.122D-03-0.460D-03-0.198D-02
 Coeff-Com:  0.122D-02 0.137D-01-0.146D-02-0.119D+00-0.997D-02 0.112D+01
 Coeff:     -0.255D-05 0.139D-04 0.926D-04 0.122D-03-0.460D-03-0.198D-02
 Coeff:      0.122D-02 0.137D-01-0.146D-02-0.119D+00-0.997D-02 0.112D+01
 Gap=     0.614 Goal=   None    Shift=    0.000
 RMSDP=2.75D-08 MaxDP=8.55D-07 DE=-1.72D-10 OVMax= 1.34D-06

 Cycle  13  Pass 1  IDiag  1:
 E= -422.995842690734     Delta-E=       -0.000000000014 Rises=F Damp=F
 DIIS: error= 4.82D-08 at cycle  13 NSaved=  13.
 NSaved=13 IEnMin=13 EnMin= -422.995842690734     IErMin=13 ErrMin= 4.82D-08
 ErrMax= 4.82D-08  0.00D+00 EMaxC= 1.00D-01 BMatC= 6.11D-13 BMatP= 8.52D-12
 IDIUse=1 WtCom= 1.00D+00 WtEn= 0.00D+00
 Coeff-Com: -0.133D-06-0.137D-07 0.105D-05 0.129D-04 0.696D-04-0.154D-03
 Coeff-Com: -0.114D-02 0.156D-02 0.754D-02-0.904D-02-0.794D-01 0.495D-02
 Coeff-Com:  0.108D+01
 Coeff:     -0.133D-06-0.137D-07 0.105D-05 0.129D-04 0.696D-04-0.154D-03
 Coeff:     -0.114D-02 0.156D-02 0.754D-02-0.904D-02-0.794D-01 0.495D-02
 Coeff:      0.108D+01
 Gap=     0.614 Goal=   None    Shift=    0.000
 RMSDP=7.89D-09 MaxDP=1.88D-07 DE=-1.44D-11 OVMax= 3.80D-07

 SCF Done:  E(RHF) =  -422.995842691     A.U. after   13 cycles
            NFock= 13  Conv=0.79D-08     -V/T= 2.0023
 KE= 4.220383431948D+02 PE=-1.957721584204D+03 EE= 6.287600326702D+02
 Leave Link  502 at Sun Sep 19 20:02:50 2021, MaxMem=   524288000 cpu:              10.2 elap:              10.4
 (Enter /opt/gaussian/g16_legacy/l801.exe)
 ExpMin= 1.61D-01 ExpMax= 5.48D+03 ExpMxC= 8.25D+02 IAcc=3 IRadAn=         5 AccDes= 0.00D+00
 HarFok:  IExCor=  205 AccDes= 0.00D+00 IRadAn=         5 IDoV=-2 UseB2=F ITyADJ=14
 ICtDFT= 12500011 ScaDFX=  1.000000  1.000000  1.000000  1.000000
 Largest valence mixing into a core orbital is  2.11D-04
 Largest core mixing into a valence orbital is  3.27D-05
 Range of M.O.s used for correlation:    10   205
 NBasis=   205 NAE=    36 NBE=    36 NFC=     9 NFV=     0
 NROrb=    196 NOA=    27 NOB=    27 NVA=   169 NVB=   169
 Leave Link  801 at Sun Sep 19 20:02:51 2021, MaxMem=   524288000 cpu:               0.8 elap:               1.0
 (Enter /opt/gaussian/g16_legacy/l906.exe)
 Frozen-core derivative calculation, NFC=   9 NFV=   0.
 FulOut=F Deriv=T AODrv=T NAtomX=    23
   MMem=         131  MDisk=          27 MDiskD=          27
  W3Min=     1512900 MinDsk=     1927595 NBas6D=         205
 NBas2D=       21400    NTT=       21115    LW2=     2040000
    MDV=   523792948 MDiskM=       35351 NBas2p=       19355
 Fully direct method using O(ONN) memory.
 IMap=   1   2   3   4   5   6   7   8   9  10  11  12  13  14  15  16  17  18  19  20
 IMap=  21  22  23  24  25  26  27  28  29  30  31  32  33  34  35  36
 JobTyp=1 Pass  1:  I=  10 to  36 NPSUse=  1 ParTrn=F ParDer=F DoDerP=T.
 Spin components of T(2) and E(2):
     alpha-alpha T2 =       0.5281874144D-01 E2=     -0.1651011216D+00
     alpha-beta  T2 =       0.3172334328D+00 E2=     -0.1030521097D+01
     beta-beta   T2 =       0.5281874144D-01 E2=     -0.1651011216D+00
 The integrals were generated   1 times.
 ANorm=    0.1192841530D+01
 E2 =    -0.1360723340D+01 EUMP2 =    -0.42435656603089D+03
 Leave Link  906 at Sun Sep 19 20:04:16 2021, MaxMem=   524288000 cpu:              84.5 elap:              84.7
 (Enter /opt/gaussian/g16_legacy/l1002.exe)
 Minotr:  Closed shell wavefunction.
          Computing MP2/KS-MP2 derivatives.
          Using Z-Vector for PSCF gradient.
          Skipping F1 and S1 gradient terms here.
          IDoAtm=11111111111111111111111
          Frozen-core window.
          Direct CPHF calculation.
          Differentiating once with respect to electric field.
                with respect to dipole field.
          Differentiating once with respect to nuclear coordinates.
          Requested convergence is 1.0D-10 RMS, and 1.0D-09 maximum.
          NewPWx=F KeepS1=T KeepF1=T KeepIn=T MapXYZ=F SortEE=F KeepMc=T.
 Keep R1 ints in memory in canonical form, NReq=227306992.
 FoFCou: FMM=F IPFlag=           0 FMFlag=           0 FMFlg1=           0
         NFxFlg=           0 DoJE=F BraDBF=F KetDBF=F FulRan=T
         wScrn=  0.000000 ICntrl=       600 IOpCl=  0 I1Cent=           0 NGrid=           0
         NMat0=    1 NMatS0=  21115 NMatT0=    0 NMatD0=    1 NMtDS0=    0 NMtDT0=    0
 Symmetry not used in FoFCou.
 Two-electron integral symmetry not used.
          MDV=     524288000 using IRadAn=       5.
          Solving linear equations separately, MaxMat=       0.
          There are     1 degrees of freedom in the 1st order CPHF.  IDoFFX=0 NUNeed=     1.
 LinEq1:  Iter=  0 NonCon=     1 RMS=3.72D-03 Max=1.12D-01 NDo=     1
 AX will form     1 AO Fock derivatives at one time.
 LinEq1:  Iter=  1 NonCon=     1 RMS=1.18D-03 Max=1.93D-02 NDo=     1
 LinEq1:  Iter=  2 NonCon=     1 RMS=3.70D-04 Max=7.72D-03 NDo=     1
 LinEq1:  Iter=  3 NonCon=     1 RMS=1.50D-04 Max=3.45D-03 NDo=     1
 LinEq1:  Iter=  4 NonCon=     1 RMS=4.66D-05 Max=5.06D-04 NDo=     1
 LinEq1:  Iter=  5 NonCon=     1 RMS=2.05D-05 Max=3.03D-04 NDo=     1
 LinEq1:  Iter=  6 NonCon=     1 RMS=5.02D-06 Max=8.98D-05 NDo=     1
 LinEq1:  Iter=  7 NonCon=     1 RMS=1.52D-06 Max=2.64D-05 NDo=     1
 LinEq1:  Iter=  8 NonCon=     1 RMS=5.03D-07 Max=1.87D-05 NDo=     1
 LinEq1:  Iter=  9 NonCon=     1 RMS=1.40D-07 Max=5.05D-06 NDo=     1
 LinEq1:  Iter= 10 NonCon=     1 RMS=4.41D-08 Max=1.09D-06 NDo=     1
 LinEq1:  Iter= 11 NonCon=     1 RMS=1.32D-08 Max=1.75D-07 NDo=     1
 LinEq1:  Iter= 12 NonCon=     1 RMS=3.36D-09 Max=5.46D-08 NDo=     1
 LinEq1:  Iter= 13 NonCon=     1 RMS=9.06D-10 Max=1.94D-08 NDo=     1
 LinEq1:  Iter= 14 NonCon=     1 RMS=2.35D-10 Max=4.14D-09 NDo=     1
 LinEq1:  Iter= 15 NonCon=     0 RMS=6.52D-11 Max=7.38D-10 NDo=     1
 Linear equations converged to 1.000D-10 1.000D-09 after    15 iterations.
 End of Minotr F.D. properties file   721 does not exist.
 End of Minotr F.D. properties file   722 does not exist.
 End of Minotr F.D. properties file   788 does not exist.
 Leave Link 1002 at Sun Sep 19 20:04:27 2021, MaxMem=   524288000 cpu:              11.7 elap:              11.7
 (Enter /opt/gaussian/g16_legacy/l601.exe)
 Copying SCF densities to generalized density rwf, IOpCl= 0 IROHF=0.

 **********************************************************************

            Population analysis using the SCF density.

 **********************************************************************

 Orbital symmetries:
       Occupied  (A) (A) (A) (A) (A) (A) (A) (A) (A) (A) (A) (A)
                 (A) (A) (A) (A) (A) (A) (A) (A) (A) (A) (A) (A)
                 (A) (A) (A) (A) (A) (A) (A) (A) (A) (A) (A) (A)
       Virtual   (A) (A) (A) (A) (A) (A) (A) (A) (A) (A) (A) (A)
                 (A) (A) (A) (A) (A) (A) (A) (A) (A) (A) (A) (A)
                 (A) (A) (A) (A) (A) (A) (A) (A) (A) (A) (A) (A)
                 (A) (A) (A) (A) (A) (A) (A) (A) (A) (A) (A) (A)
                 (A) (A) (A) (A) (A) (A) (A) (A) (A) (A) (A) (A)
                 (A) (A) (A) (A) (A) (A) (A) (A) (A) (A) (A) (A)
                 (A) (A) (A) (A) (A) (A) (A) (A) (A) (A) (A) (A)
                 (A) (A) (A) (A) (A) (A) (A) (A) (A) (A) (A) (A)
                 (A) (A) (A) (A) (A) (A) (A) (A) (A) (A) (A) (A)
                 (A) (A) (A) (A) (A) (A) (A) (A) (A) (A) (A) (A)
                 (A) (A) (A) (A) (A) (A) (A) (A) (A) (A) (A) (A)
                 (A) (A) (A) (A) (A) (A) (A) (A) (A) (A) (A) (A)
                 (A) (A) (A) (A) (A) (A) (A) (A) (A) (A) (A) (A)
                 (A) (A) (A) (A) (A) (A) (A) (A) (A) (A) (A) (A)
                 (A)
 The electronic state is 1-A.
 Alpha  occ. eigenvalues --  -20.60466 -20.54988 -11.38509 -11.28922 -11.23926
 Alpha  occ. eigenvalues --  -11.22734 -11.22267 -11.21928 -11.21499  -1.44620
 Alpha  occ. eigenvalues --   -1.34990  -1.09076  -1.02039  -1.01493  -0.92651
 Alpha  occ. eigenvalues --   -0.85314  -0.80732  -0.74933  -0.68837  -0.66433
 Alpha  occ. eigenvalues --   -0.65372  -0.63121  -0.60085  -0.58505  -0.57413
 Alpha  occ. eigenvalues --   -0.56765  -0.55722  -0.53447  -0.51721  -0.50413
 Alpha  occ. eigenvalues --   -0.49962  -0.48753  -0.47567  -0.45714  -0.44133
 Alpha  occ. eigenvalues --   -0.43111
 Alpha virt. eigenvalues --    0.18323   0.21885   0.24915   0.26358   0.26877
 Alpha virt. eigenvalues --    0.28253   0.29990   0.30545   0.30716   0.32257
 Alpha virt. eigenvalues --    0.33012   0.33832   0.34751   0.36017   0.36554
 Alpha virt. eigenvalues --    0.38693   0.39854   0.40133   0.42463   0.43294
 Alpha virt. eigenvalues --    0.48154   0.49657   0.54850   0.68569   0.71075
 Alpha virt. eigenvalues --    0.71598   0.74014   0.75248   0.75690   0.77603
 Alpha virt. eigenvalues --    0.79071   0.79716   0.82546   0.83870   0.88506
 Alpha virt. eigenvalues --    0.89635   0.92180   0.93644   0.94326   0.97402
 Alpha virt. eigenvalues --    1.00591   1.03429   1.06699   1.08272   1.09586
 Alpha virt. eigenvalues --    1.09862   1.10762   1.11561   1.12800   1.13061
 Alpha virt. eigenvalues --    1.13956   1.14889   1.15974   1.16333   1.17943
 Alpha virt. eigenvalues --    1.19246   1.21246   1.21995   1.22819   1.27063
 Alpha virt. eigenvalues --    1.28620   1.32041   1.35645   1.38284   1.41604
 Alpha virt. eigenvalues --    1.44091   1.46326   1.53961   1.57427   1.66427
 Alpha virt. eigenvalues --    1.67842   1.70045   1.70988   1.74585   1.77413
 Alpha virt. eigenvalues --    1.80065   1.82242   1.85795   1.90867   1.96725
 Alpha virt. eigenvalues --    1.98810   1.99941   2.02978   2.06190   2.08288
 Alpha virt. eigenvalues --    2.09386   2.10928   2.15830   2.16187   2.18018
 Alpha virt. eigenvalues --    2.19260   2.23736   2.25749   2.29822   2.31924
 Alpha virt. eigenvalues --    2.33524   2.34553   2.35725   2.36393   2.36709
 Alpha virt. eigenvalues --    2.38515   2.39965   2.40050   2.41695   2.43257
 Alpha virt. eigenvalues --    2.44474   2.48069   2.49245   2.52890   2.55547
 Alpha virt. eigenvalues --    2.57336   2.58309   2.59050   2.59649   2.62397
 Alpha virt. eigenvalues --    2.66286   2.70113   2.70674   2.75229   2.79925
 Alpha virt. eigenvalues --    2.82235   2.85327   2.86249   2.93637   2.94748
 Alpha virt. eigenvalues --    2.94835   2.98558   3.00077   3.02579   3.04254
 Alpha virt. eigenvalues --    3.05809   3.10345   3.11021   3.12076   3.14854
 Alpha virt. eigenvalues --    3.19935   3.20744   3.22373   3.23405   3.24597
 Alpha virt. eigenvalues --    3.25723   3.27231   3.31053   3.34056   3.45416
 Alpha virt. eigenvalues --    3.48598   3.55606   3.57915   3.60413   3.66586
 Alpha virt. eigenvalues --    3.70992   3.72759   3.77004   3.78171   3.81310
 Alpha virt. eigenvalues --    3.81855   3.83098   3.87307   3.92273   3.94568
 Alpha virt. eigenvalues --    4.46978   4.58880   4.66199   4.74026   4.83804
 Alpha virt. eigenvalues --    4.98436   5.01396   5.06218   5.14794
          Condensed to atoms (all electrons):
               1          2          3          4          5          6
     1  C    4.940826   0.402529   0.402941   0.404287   0.321178  -0.038380
     2  H    0.402529   0.578432  -0.030725  -0.027600  -0.041656   0.004444
     3  H    0.402941  -0.030725   0.589665  -0.029313  -0.039426  -0.004384
     4  H    0.404287  -0.027600  -0.029313   0.570568  -0.034982  -0.002548
     5  C    0.321178  -0.041656  -0.039426  -0.034982   5.012975   0.402862
     6  H   -0.038380   0.004444  -0.004384  -0.002548   0.402862   0.590028
     7  H   -0.037983  -0.002754   0.004229  -0.004502   0.413244  -0.033366
     8  C   -0.050019  -0.003247  -0.004020   0.003991   0.357560  -0.036045
     9  H    0.000503   0.002447   0.000094  -0.000146  -0.046016   0.004055
    10  C   -0.001128  -0.000378  -0.000007  -0.000013  -0.059220  -0.005431
    11  H   -0.000997   0.000356  -0.002013   0.000072  -0.001941   0.000376
    12  H   -0.000072  -0.000041   0.000037   0.000002   0.004654  -0.000124
    13  C   -0.000120   0.000071   0.000241  -0.000025  -0.004361   0.001292
    14  H    0.000019  -0.000001  -0.000020   0.000001   0.000255   0.000255
    15  H   -0.000001   0.000001  -0.000008   0.000000  -0.000084   0.000015
    16  H   -0.000086  -0.000026   0.000612   0.000004   0.000996  -0.002275
    17  O    0.002569  -0.000007  -0.000029  -0.000049  -0.043059   0.000393
    18  C    0.000070  -0.000003  -0.000001  -0.000005  -0.004439   0.000185
    19  O   -0.000043   0.000009  -0.000002   0.000001  -0.003658   0.000105
    20  C    0.000001  -0.000000  -0.000000  -0.000000  -0.000473  -0.000036
    21  H    0.000000   0.000000   0.000000  -0.000000   0.000000   0.000001
    22  H    0.000000   0.000000   0.000000  -0.000000   0.000116   0.000009
    23  H   -0.000000  -0.000000   0.000000   0.000000   0.000022   0.000000
               7          8          9         10         11         12
     1  C   -0.037983  -0.050019   0.000503  -0.001128  -0.000997  -0.000072
     2  H   -0.002754  -0.003247   0.002447  -0.000378   0.000356  -0.000041
     3  H    0.004229  -0.004020   0.000094  -0.000007  -0.002013   0.000037
     4  H   -0.004502   0.003991  -0.000146  -0.000013   0.000072   0.000002
     5  C    0.413244   0.357560  -0.046016  -0.059220  -0.001941   0.004654
     6  H   -0.033366  -0.036045   0.004055  -0.005431   0.000376  -0.000124
     7  H    0.555425  -0.035547  -0.004127   0.004005  -0.000060  -0.000076
     8  C   -0.035547   4.805279   0.422831   0.362689  -0.036988  -0.039965
     9  H   -0.004127   0.422831   0.542811  -0.047848  -0.001023  -0.004871
    10  C    0.004005   0.362689  -0.047848   4.989812   0.407415   0.411064
    11  H   -0.000060  -0.036988  -0.001023   0.407415   0.582914  -0.027955
    12  H   -0.000076  -0.039965  -0.004871   0.411064  -0.027955   0.580656
    13  C   -0.000083  -0.052180   0.004394   0.323401  -0.040754  -0.045132
    14  H   -0.000023  -0.005314   0.000026  -0.037002   0.004205  -0.003030
    15  H    0.000001   0.004443  -0.000063  -0.037988  -0.003514  -0.003707
    16  H    0.000051  -0.004644  -0.000110  -0.038218  -0.003038   0.004529
    17  O   -0.003147   0.132992  -0.028642  -0.047139   0.002474   0.000849
    18  C    0.003183  -0.018742  -0.006735   0.003205  -0.000052  -0.000017
    19  O    0.003400  -0.001369   0.008189   0.000215   0.000006   0.000001
    20  C    0.000101   0.004807   0.000181  -0.000110   0.000003  -0.000007
    21  H    0.000002  -0.000184  -0.000011   0.000010  -0.000000  -0.000001
    22  H   -0.000051  -0.000310   0.000003  -0.000023   0.000000  -0.000001
    23  H    0.000002  -0.000122   0.000002   0.000001  -0.000000   0.000000
              13         14         15         16         17         18
     1  C   -0.000120   0.000019  -0.000001  -0.000086   0.002569   0.000070
     2  H    0.000071  -0.000001   0.000001  -0.000026  -0.000007  -0.000003
     3  H    0.000241  -0.000020  -0.000008   0.000612  -0.000029  -0.000001
     4  H   -0.000025   0.000001   0.000000   0.000004  -0.000049  -0.000005
     5  C   -0.004361   0.000255  -0.000084   0.000996  -0.043059  -0.004439
     6  H    0.001292   0.000255   0.000015  -0.002275   0.000393   0.000185
     7  H   -0.000083  -0.000023   0.000001   0.000051  -0.003147   0.003183
     8  C   -0.052180  -0.005314   0.004443  -0.004644   0.132992  -0.018742
     9  H    0.004394   0.000026  -0.000063  -0.000110  -0.028642  -0.006735
    10  C    0.323401  -0.037002  -0.037988  -0.038218  -0.047139   0.003205
    11  H   -0.040754   0.004205  -0.003514  -0.003038   0.002474  -0.000052
    12  H   -0.045132  -0.003030  -0.003707   0.004529   0.000849  -0.000017
    13  C    4.942301   0.405093   0.404502   0.401208  -0.001339  -0.000201
    14  H    0.405093   0.559318  -0.028951  -0.028790   0.003457  -0.000004
    15  H    0.404502  -0.028951   0.582474  -0.029604  -0.000002   0.000005
    16  H    0.401208  -0.028790  -0.029604   0.589686   0.000058  -0.000011
    17  O   -0.001339   0.003457  -0.000002   0.000058   8.537736   0.256833
    18  C   -0.000201  -0.000004   0.000005  -0.000011   0.256833   4.156464
    19  O   -0.000007   0.000003   0.000000   0.000000  -0.069451   0.558644
    20  C   -0.000020   0.000010  -0.000000   0.000000  -0.093740   0.372137
    21  H    0.000001   0.000000   0.000000  -0.000000   0.001480  -0.027237
    22  H    0.000007   0.000026  -0.000000  -0.000000   0.003223  -0.035191
    23  H    0.000000  -0.000000  -0.000000  -0.000000   0.003074  -0.037510
              19         20         21         22         23
     1  C   -0.000043   0.000001   0.000000   0.000000  -0.000000
     2  H    0.000009  -0.000000   0.000000   0.000000  -0.000000
     3  H   -0.000002  -0.000000   0.000000   0.000000   0.000000
     4  H    0.000001  -0.000000  -0.000000  -0.000000   0.000000
     5  C   -0.003658  -0.000473   0.000000   0.000116   0.000022
     6  H    0.000105  -0.000036   0.000001   0.000009   0.000000
     7  H    0.003400   0.000101   0.000002  -0.000051   0.000002
     8  C   -0.001369   0.004807  -0.000184  -0.000310  -0.000122
     9  H    0.008189   0.000181  -0.000011   0.000003   0.000002
    10  C    0.000215  -0.000110   0.000010  -0.000023   0.000001
    11  H    0.000006   0.000003  -0.000000   0.000000  -0.000000
    12  H    0.000001  -0.000007  -0.000001  -0.000001   0.000000
    13  C   -0.000007  -0.000020   0.000001   0.000007   0.000000
    14  H    0.000003   0.000010   0.000000   0.000026  -0.000000
    15  H    0.000000  -0.000000   0.000000  -0.000000  -0.000000
    16  H    0.000000   0.000000  -0.000000  -0.000000  -0.000000
    17  O   -0.069451  -0.093740   0.001480   0.003223   0.003074
    18  C    0.558644   0.372137  -0.027237  -0.035191  -0.037510
    19  O    8.149534  -0.065102   0.000439   0.002015   0.002118
    20  C   -0.065102   5.016939   0.388110   0.389339   0.395775
    21  H    0.000439   0.388110   0.517176  -0.019850  -0.019102
    22  H    0.002015   0.389339  -0.019850   0.536821  -0.026646
    23  H    0.002118   0.395775  -0.019102  -0.026646   0.525414
 Mulliken charges:
               1
     1  C   -0.346094
     2  H    0.118150
     3  H    0.112130
     4  H    0.120256
     5  C   -0.234546
     6  H    0.118570
     7  H    0.138076
     8  C    0.194104
     9  H    0.154056
    10  C   -0.227312
    11  H    0.120512
    12  H    0.123207
    13  C   -0.338291
    14  H    0.130467
    15  H    0.112481
    16  H    0.109656
    17  O   -0.658533
    18  C    0.779421
    19  O   -0.585048
    20  C   -0.407916
    21  H    0.159166
    22  H    0.150514
    23  H    0.156973
 Sum of Mulliken charges =  -0.00000
 Mulliken charges with hydrogens summed into heavy atoms:
               1
     1  C    0.004442
     5  C    0.022101
     8  C    0.348159
    10  C    0.016408
    13  C    0.014313
    17  O   -0.658533
    18  C    0.779421
    19  O   -0.585048
    20  C    0.058737
 Electronic spatial extent (au):  <R**2>=           1544.7291
 Charge=             -0.0000 electrons
 Dipole moment (field-independent basis, Debye):
    X=              0.8306    Y=              1.5692    Z=             -1.0145  Tot=              2.0449
 Quadrupole moment (field-independent basis, Debye-Ang):
   XX=            -54.2664   YY=            -59.9258   ZZ=            -56.6406
   XY=             -5.5249   XZ=              3.9567   YZ=              2.7649
 Traceless Quadrupole moment (field-independent basis, Debye-Ang):
   XX=              2.6779   YY=             -2.9815   ZZ=              0.3037
   XY=             -5.5249   XZ=              3.9567   YZ=              2.7649
 Octapole moment (field-independent basis, Debye-Ang**2):
  XXX=            -23.3811  YYY=              1.5949  ZZZ=              1.3874  XYY=              1.6580
  XXY=             13.9225  XXZ=             -7.1547  XZZ=             -2.9894  YZZ=              0.4572
  YYZ=             -1.2659  XYZ=             -3.9297
 Hexadecapole moment (field-independent basis, Debye-Ang**3):
 XXXX=          -1248.2648 YYYY=           -589.4117 ZZZZ=           -195.1305 XXXY=            -19.5144
 XXXZ=             19.5812 YYYX=             -5.4420 YYYZ=              5.8724 ZZZX=             -1.1845
 ZZZY=             -2.8282 XXYY=           -322.6759 XXZZ=           -248.3492 YYZZ=           -129.2589
 XXYZ=             14.2072 YYXZ=              4.7738 ZZXY=             -5.2407
 N-N= 4.839273656480D+02 E-N=-1.957721582527D+03  KE= 4.220383431948D+02
 No NMR shielding tensors so no spin-rotation constants.
 Leave Link  601 at Sun Sep 19 20:04:28 2021, MaxMem=   524288000 cpu:               0.2 elap:               0.2
 (Enter /opt/gaussian/g16_legacy/l701.exe)
 ... and contract with generalized density number  2.
 Compute integral first derivatives.
 Leave Link  701 at Sun Sep 19 20:04:28 2021, MaxMem=   524288000 cpu:               0.2 elap:               0.2
 (Enter /opt/gaussian/g16_legacy/l702.exe)
 L702 exits ... SP integral derivatives will be done elsewhere.
 Leave Link  702 at Sun Sep 19 20:04:28 2021, MaxMem=   524288000 cpu:               0.0 elap:               0.0
 (Enter /opt/gaussian/g16_legacy/l703.exe)
 Integral derivatives from FoFJK, PRISM(SPDF).
 Compute integral first derivatives, UseDBF=F ICtDFT=           0.
 Calling FoFJK, ICntrl=  10002127 FMM=F ISym2X=0 I1Cent= 0 IOpClX= 0 NMat=1 NMatS=1 NMatT=0.
 FoFJK:  IHMeth= 1 ICntrl=10002127 DoSepK=F KAlg= 0 I1Cent=           0 FoldK=F
 IRaf=         0 NMat=       1 IRICut=       1 DoRegI=T DoRafI=F ISym2E= 0 IDoP0=0 IntGTp=1.
 FoFCou: FMM=F IPFlag=           0 FMFlag=      100000 FMFlg1=         800
         NFxFlg=           0 DoJE=F BraDBF=F KetDBF=F FulRan=T
         wScrn=  0.000000 ICntrl=  10002127 IOpCl=  0 I1Cent=           0 NGrid=           0
         NMat0=    1 NMatS0=      1 NMatT0=    0 NMatD0=    1 NMtDS0=    0 NMtDT0=    0
 Symmetry not used in FoFCou.
 Leave Link  703 at Sun Sep 19 20:04:41 2021, MaxMem=   524288000 cpu:              13.0 elap:              13.0
 (Enter /opt/gaussian/g16_legacy/l716.exe)
 Dipole        = 3.39812576D-01 4.96882474D-01-3.21484899D-01
 ***** Axes restored to original set *****
 -------------------------------------------------------------------
 Center     Atomic                   Forces (Hartrees/Bohr)
 Number     Number              X              Y              Z
 -------------------------------------------------------------------
      1        6          -0.001198709    0.005348427    0.001652587
      2        1          -0.001309099   -0.000667041    0.002696613
      3        1          -0.000473785   -0.000217297   -0.003263768
      4        1           0.004112099    0.000135930    0.000080170
      5        6          -0.002631292   -0.006522221   -0.003124729
      6        1           0.005335802    0.000891205   -0.000084843
      7        1           0.006000804    0.000292402    0.001017916
      8        6          -0.002518278    0.016655996    0.002512368
      9        1          -0.004353577   -0.004820203    0.000213041
     10        6           0.002535259   -0.008764687    0.001719887
     11        1          -0.001598032   -0.003618667   -0.004042950
     12        1          -0.003316914    0.001751511   -0.003510717
     13        6          -0.001874503   -0.000675439    0.005129054
     14        1          -0.001236881    0.004152262   -0.001637703
     15        1          -0.002488892   -0.001449832   -0.002156281
     16        1           0.002451815   -0.001368938    0.000084266
     17        8           0.002112349    0.000597711   -0.001383012
     18        6          -0.001604228   -0.000559242   -0.004667312
     19        8           0.000755403    0.004129775    0.006651118
     20        6          -0.008571251   -0.009135759   -0.000276706
     21        1          -0.002886620   -0.000159973    0.001598441
     22        1           0.006918768    0.000878255   -0.000937507
     23        1           0.005839760    0.003125824    0.001730070
 -------------------------------------------------------------------
 Cartesian Forces:  Max     0.016655996 RMS     0.003997707
 Leave Link  716 at Sun Sep 19 20:04:41 2021, MaxMem=   524288000 cpu:               0.0 elap:               0.0
 (Enter /opt/gaussian/g16_legacy/l103.exe)

 GradGradGradGradGradGradGradGradGradGradGradGradGradGradGradGradGradGrad
 Berny optimization.
 FormGI is forming the generalized inverse of G from B-inverse, IUseBI=4.
 Internal  Forces:  Max     0.009994495 RMS     0.002864630
 Search for a local minimum.
 Step number   1 out of a maximum of  119
 All quantities printed in internal units (Hartrees-Bohrs-Radians)
 RMS Force = .28646D-02 SwitMx=.10000D-02 MixMth= 1
 Mixed Optimization -- RFO/linear search
 Second derivative matrix not updated -- first step.
 ITU=  0
     Eigenvalues ---    0.00269   0.00271   0.00455   0.00517   0.00786
     Eigenvalues ---    0.01095   0.01150   0.02200   0.03347   0.03348
     Eigenvalues ---    0.04060   0.04787   0.04806   0.04808   0.05476
     Eigenvalues ---    0.05550   0.05705   0.05753   0.07391   0.07487
     Eigenvalues ---    0.07608   0.08650   0.08659   0.12439   0.12440
     Eigenvalues ---    0.16000   0.16000   0.16000   0.16000   0.16000
     Eigenvalues ---    0.16000   0.16000   0.16000   0.16000   0.17011
     Eigenvalues ---    0.19543   0.21874   0.21956   0.25000   0.25000
     Eigenvalues ---    0.25000   0.28738   0.28750   0.30035   0.30483
     Eigenvalues ---    0.32538   0.33908   0.33969   0.33981   0.34113
     Eigenvalues ---    0.34152   0.34240   0.34243   0.34305   0.34312
     Eigenvalues ---    0.34362   0.34368   0.34390   0.34425   0.34648
     Eigenvalues ---    0.38896   0.52631   0.94764
 RFO step:  Lambda=-5.54404894D-03 EMin= 2.69321725D-03
 Linear search not attempted -- first point.
 Iteration  1 RMS(Cart)=  0.08908107 RMS(Int)=  0.00320115
 Iteration  2 RMS(Cart)=  0.00548161 RMS(Int)=  0.00034462
 Iteration  3 RMS(Cart)=  0.00001275 RMS(Int)=  0.00034452
 Iteration  4 RMS(Cart)=  0.00000000 RMS(Int)=  0.00034452
 ITry= 1 IFail=0 DXMaxC= 3.03D-01 DCOld= 1.00D+10 DXMaxT= 3.00D-01 DXLimC= 3.00D+00 Rises=F
 Variable       Old X    -DE/DX   Delta X   Delta X   Delta X     New X
                                 (Linear)    (Quad)   (Total)
    R1        2.06818  -0.00299   0.00000  -0.00856  -0.00856   2.05962
    R2        2.06677  -0.00299   0.00000  -0.00854  -0.00854   2.05822
    R3        2.06922  -0.00402   0.00000  -0.01154  -0.01154   2.05768
    R4        2.87011   0.00430   0.00000   0.01387   0.01387   2.88398
    R5        2.07140  -0.00285   0.00000  -0.00823  -0.00823   2.06317
    R6        2.07362  -0.00361   0.00000  -0.01045  -0.01045   2.06316
    R7        2.90554  -0.00972   0.00000  -0.03320  -0.03320   2.87234
    R8        2.07485  -0.00363   0.00000  -0.01054  -0.01054   2.06431
    R9        2.90527  -0.00999   0.00000  -0.03411  -0.03411   2.87116
   R10        2.73082   0.00139   0.00000   0.00353   0.00353   2.73435
   R11        2.07075  -0.00349   0.00000  -0.01005  -0.01005   2.06070
   R12        2.07382  -0.00327   0.00000  -0.00947  -0.00947   2.06435
   R13        2.87894   0.00203   0.00000   0.00662   0.00662   2.88556
   R14        2.06806  -0.00434   0.00000  -0.01245  -0.01245   2.05561
   R15        2.06926  -0.00356   0.00000  -0.01022  -0.01022   2.05904
   R16        2.06618  -0.00267   0.00000  -0.00765  -0.00765   2.05854
   R17        2.57300  -0.00277   0.00000  -0.00521  -0.00521   2.56778
   R18        2.30812  -0.00430   0.00000  -0.00451  -0.00451   2.30361
   R19        2.83170   0.00553   0.00000   0.01670   0.01670   2.84840
   R20        2.06250  -0.00246   0.00000  -0.00700  -0.00700   2.05550
   R21        2.06714  -0.00469   0.00000  -0.01343  -0.01343   2.05371
   R22        2.06724  -0.00534   0.00000  -0.01530  -0.01530   2.05194
    A1        1.89638  -0.00124   0.00000  -0.01075  -0.01074   1.88563
    A2        1.88465  -0.00071   0.00000  -0.00480  -0.00480   1.87985
    A3        1.93868   0.00022   0.00000  -0.00069  -0.00068   1.93800
    A4        1.87695  -0.00070   0.00000  -0.00032  -0.00039   1.87656
    A5        1.94646   0.00131   0.00000   0.00813   0.00810   1.95456
    A6        1.91860   0.00101   0.00000   0.00788   0.00784   1.92644
    A7        1.91839   0.00141   0.00000   0.01112   0.01063   1.92901
    A8        1.88955   0.00245   0.00000   0.02540   0.02510   1.91465
    A9        1.99167  -0.00074   0.00000  -0.01006  -0.01005   1.98162
   A10        1.82978   0.00167   0.00000   0.03141   0.03071   1.86049
   A11        1.92615  -0.00200   0.00000  -0.02733  -0.02734   1.89881
   A12        1.90079  -0.00254   0.00000  -0.02632  -0.02618   1.87460
   A13        1.91291  -0.00268   0.00000  -0.00838  -0.00884   1.90407
   A14        1.99944   0.00071   0.00000   0.00743   0.00727   2.00671
   A15        1.88424   0.00452   0.00000   0.01716   0.01719   1.90143
   A16        1.86965   0.00407   0.00000   0.04278   0.04260   1.91225
   A17        1.91515  -0.00124   0.00000  -0.02521  -0.02479   1.89036
   A18        1.88149  -0.00558   0.00000  -0.03630  -0.03614   1.84535
   A19        1.92330  -0.00279   0.00000  -0.03792  -0.03799   1.88531
   A20        1.89132  -0.00184   0.00000  -0.01469  -0.01489   1.87643
   A21        1.99993  -0.00064   0.00000  -0.00291  -0.00286   1.99708
   A22        1.86051  -0.00004   0.00000   0.00059  -0.00043   1.86008
   A23        1.90868   0.00229   0.00000   0.01630   0.01591   1.92458
   A24        1.87432   0.00317   0.00000   0.04064   0.04051   1.91483
   A25        1.94268  -0.00166   0.00000  -0.01171  -0.01170   1.93098
   A26        1.91787   0.00098   0.00000   0.00900   0.00898   1.92686
   A27        1.94878   0.00110   0.00000   0.00520   0.00516   1.95394
   A28        1.87968   0.00066   0.00000   0.00667   0.00671   1.88639
   A29        1.89433  -0.00038   0.00000  -0.00788  -0.00790   1.88643
   A30        1.87802  -0.00069   0.00000  -0.00101  -0.00106   1.87695
   A31        2.02851  -0.00288   0.00000  -0.01127  -0.01127   2.01723
   A32        2.19586  -0.00915   0.00000  -0.03588  -0.03693   2.15893
   A33        1.91985   0.00311   0.00000   0.01209   0.01097   1.93082
   A34        2.16747   0.00604   0.00000   0.02357   0.02236   2.18983
   A35        1.91933   0.00076   0.00000  -0.00432  -0.00437   1.91497
   A36        1.92099   0.00100   0.00000   0.00858   0.00844   1.92943
   A37        1.90366  -0.00127   0.00000  -0.00151  -0.00165   1.90200
   A38        1.92666  -0.00326   0.00000  -0.03153  -0.03158   1.89508
   A39        1.91507  -0.00088   0.00000  -0.01076  -0.01080   1.90427
   A40        1.87755   0.00372   0.00000   0.04062   0.04039   1.91794
    D1        3.11570  -0.00216   0.00000  -0.03004  -0.03026   3.08544
    D2       -1.17818   0.00189   0.00000   0.02679   0.02702  -1.15115
    D3        0.94131  -0.00007   0.00000   0.00493   0.00492   0.94623
    D4        0.99746  -0.00163   0.00000  -0.02143  -0.02163   0.97583
    D5        2.98677   0.00241   0.00000   0.03540   0.03565   3.02242
    D6       -1.17693   0.00045   0.00000   0.01354   0.01355  -1.16339
    D7       -1.08268  -0.00225   0.00000  -0.03136  -0.03160  -1.11428
    D8        0.90663   0.00180   0.00000   0.02547   0.02568   0.93231
    D9        3.02611  -0.00016   0.00000   0.00361   0.00358   3.02969
   D10       -1.06611  -0.00178   0.00000  -0.03956  -0.03939  -1.10550
   D11        1.03565   0.00199   0.00000   0.01465   0.01461   1.05025
   D12        3.13173  -0.00143   0.00000  -0.01449  -0.01448   3.11726
   D13        3.04683  -0.00151   0.00000  -0.02501  -0.02494   3.02189
   D14       -1.13460   0.00226   0.00000   0.02920   0.02905  -1.10555
   D15        0.96149  -0.00116   0.00000   0.00006  -0.00003   0.96145
   D16        1.04715  -0.00098   0.00000  -0.03287  -0.03273   1.01442
   D17       -3.13428   0.00279   0.00000   0.02134   0.02126  -3.11302
   D18       -1.03819  -0.00063   0.00000  -0.00780  -0.00782  -1.04601
   D19       -1.09029  -0.00047   0.00000  -0.03873  -0.03886  -1.12915
   D20       -3.11986   0.00218   0.00000  -0.01007  -0.01045  -3.13030
   D21        1.07098  -0.00013   0.00000  -0.04947  -0.04953   1.02145
   D22        1.03527  -0.00047   0.00000  -0.01345  -0.01303   1.02225
   D23       -0.99430   0.00219   0.00000   0.01521   0.01539  -0.97891
   D24       -3.08665  -0.00012   0.00000  -0.02419  -0.02369  -3.11034
   D25        3.09529  -0.00267   0.00000  -0.03930  -0.03942   3.05586
   D26        1.06572  -0.00002   0.00000  -0.01064  -0.01101   1.05471
   D27       -1.02663  -0.00232   0.00000  -0.05003  -0.05009  -1.07672
   D28        1.42852  -0.00024   0.00000   0.01123   0.01118   1.43970
   D29       -0.65540   0.00102   0.00000   0.02563   0.02605  -0.62935
   D30       -2.68590  -0.00004   0.00000   0.00853   0.00816  -2.67774
   D31        1.04535   0.00002   0.00000  -0.00810  -0.00798   1.03737
   D32        3.12603   0.00043   0.00000  -0.00135  -0.00127   3.12476
   D33       -1.07468   0.00091   0.00000   0.00662   0.00674  -1.06795
   D34       -3.06879  -0.00233   0.00000  -0.04752  -0.04774  -3.11653
   D35       -0.98811  -0.00192   0.00000  -0.04078  -0.04103  -1.02914
   D36        1.09436  -0.00144   0.00000  -0.03280  -0.03302   1.06134
   D37       -1.05644   0.00050   0.00000  -0.01667  -0.01653  -1.07297
   D38        1.02424   0.00090   0.00000  -0.00992  -0.00982   1.01442
   D39        3.10672   0.00139   0.00000  -0.00195  -0.00182   3.10490
   D40        0.11822  -0.00185   0.00000  -0.05025  -0.05160   0.06661
   D41       -3.02612  -0.00331   0.00000  -0.13699  -0.13564   3.12142
   D42       -1.40976   0.00142   0.00000   0.06292   0.06333  -1.34643
   D43        0.71652  -0.00151   0.00000   0.02631   0.02664   0.74317
   D44        2.77256   0.00283   0.00000   0.07973   0.08021   2.85277
   D45        1.72914  -0.00004   0.00000  -0.02222  -0.02263   1.70651
   D46       -2.42776  -0.00297   0.00000  -0.05884  -0.05932  -2.48708
   D47       -0.37172   0.00137   0.00000  -0.00542  -0.00576  -0.37748
         Item               Value     Threshold  Converged?
 Maximum Force            0.009994     0.000450     NO 
 RMS     Force            0.002865     0.000300     NO 
 Maximum Displacement     0.302567     0.001800     NO 
 RMS     Displacement     0.088146     0.001200     NO 
 Predicted change in Energy=-3.014645D-03
 Lowest energy point so far.  Saving SCF results.
 GradGradGradGradGradGradGradGradGradGradGradGradGradGradGradGradGradGrad

 Leave Link  103 at Sun Sep 19 20:04:41 2021, MaxMem=   524288000 cpu:               0.0 elap:               0.0
 (Enter /opt/gaussian/g16_legacy/l202.exe)
                          Input orientation:                          
 ---------------------------------------------------------------------
 Center     Atomic      Atomic             Coordinates (Angstroms)
 Number     Number       Type             X           Y           Z
 ---------------------------------------------------------------------
      1          6           0       -2.165992    3.749124    1.244546
      2          1           0       -1.656630    4.186659    0.386058
      3          1           0       -1.792266    4.237601    2.143433
      4          1           0       -3.224954    3.987440    1.158160
      5          6           0       -1.963535    2.237151    1.289655
      6          1           0       -2.428774    1.815128    2.182650
      7          1           0       -2.456543    1.774058    0.432644
      8          6           0       -0.502629    1.819006    1.254468
      9          1           0       -0.063517    2.134039    0.305129
     10          6           0        0.342135    2.341687    2.404083
     11          1           0        0.381566    3.428700    2.326727
     12          1           0        1.362221    1.981303    2.252765
     13          6           0       -0.150370    1.927383    3.788801
     14          1           0       -0.167964    0.843663    3.881063
     15          1           0        0.509996    2.321821    4.560526
     16          1           0       -1.153297    2.300446    3.992775
     17          8           0       -0.424874    0.376375    1.334767
     18          6           0       -0.602471   -0.286894    0.162205
     19          8           0       -0.748043    0.268017   -0.913381
     20          6           0       -0.471621   -1.774291    0.368373
     21          1           0        0.579009   -2.041425    0.457592
     22          1           0       -0.984988   -2.080197    1.276095
     23          1           0       -0.897561   -2.288294   -0.488032
 ---------------------------------------------------------------------
                    Distance matrix (angstroms):
                    1          2          3          4          5
     1  C    0.000000
     2  H    1.089903   0.000000
     3  H    1.089165   1.763338   0.000000
     4  H    1.088879   1.759395   1.756684   0.000000
     5  C    1.526134   2.170544   2.181759   2.161477   0.000000
     6  H    2.165509   3.073778   2.505006   2.530301   1.091783
     7  H    2.155108   2.542179   3.071988   2.452731   1.091778
     8  C    2.547985   2.773380   2.881497   3.481729   1.519977
     9  H    2.812721   2.599578   3.285256   3.762637   2.142426
    10  C    3.100985   3.386947   2.866722   4.121280   2.563005
    11  H    2.786367   2.914609   2.326685   3.832065   2.827509
    12  H    4.073080   4.178715   3.879900   5.124931   3.471843
    13  C    3.722191   4.353367   3.277219   4.540613   3.103104
    14  H    4.402845   5.060318   4.144458   5.161659   3.446923
    15  H    4.493754   5.059454   3.848761   5.319796   4.101721
    16  H    3.267565   4.101165   2.753347   3.895222   2.822649
    17  O    3.796718   4.115281   4.175257   4.572901   2.414953
    18  C    4.461558   4.601526   5.080545   5.112658   3.081305
    19  O    4.334205   4.227272   5.117823   4.925493   3.195040
    20  C    5.843516   6.077622   6.406074   6.434450   4.377926
    21  H    6.456375   6.617570   6.920345   7.162971   5.046095
    22  H    5.947836   6.365278   6.427951   6.468971   4.426876
    23  H    6.407898   6.577631   7.093124   6.892862   4.977562
                    6          7          8          9         10
     6  H    0.000000
     7  H    1.750708   0.000000
     8  C    2.138123   2.120187   0.000000
     9  H    3.036647   2.423307   1.092386   0.000000
    10  C    2.829176   3.470068   1.519354   2.147854   0.000000
    11  H    3.243822   3.792130   2.126654   2.441537   1.090475
    12  H    3.795283   4.235416   2.121463   2.418542   1.092405
    13  C    2.789883   4.075013   2.560991   3.490876   1.526975
    14  H    2.989919   4.242030   2.821754   3.803062   2.164659
    15  H    3.814105   5.112710   3.494031   4.297973   2.163058
    16  H    2.266920   3.827540   2.855430   3.848901   2.182192
    17  O    2.608549   2.625837   1.446955   2.068844   2.365204
    18  C    3.440360   2.785362   2.374410   2.484314   3.581583
    19  O    3.847573   2.645546   2.676820   2.331390   4.061301
    20  C    4.472804   4.066303   3.701069   3.930088   4.663431
    21  H    5.186095   4.875768   4.087528   4.227362   4.801730
    22  H    4.252049   4.210958   3.928985   4.421727   4.752544
    23  H    5.129837   4.447558   4.479083   4.569657   5.598026
                   11         12         13         14         15
    11  H    0.000000
    12  H    1.749890   0.000000
    13  C    2.162074   2.156442   0.000000
    14  H    3.066000   2.507398   1.087783   0.000000
    15  H    2.496303   2.483546   1.089598   1.762456   0.000000
    16  H    2.530706   3.075275   1.089332   1.762265   1.757652
    17  O    3.309232   2.571425   2.916035   2.601535   3.881271
    18  C    4.411250   3.657209   4.273128   3.911120   5.233374
    19  O    4.665215   4.172894   5.022074   4.863595   5.980337
    20  C    5.624428   4.584582   5.050240   4.391455   5.942714
    21  H    5.784023   4.474194   5.232627   4.538926   5.989720
    22  H    5.772283   4.791562   4.803226   4.000293   5.692120
    23  H    6.499466   5.554101   6.051572   5.424984   6.980137
                   16         17         18         19         20
    16  H    0.000000
    17  O    3.361198   0.000000
    18  C    4.655213   1.358812   0.000000
    19  O    5.325914   2.273840   1.219017   0.000000
    20  C    5.495857   2.358276   1.507308   2.426999   0.000000
    21  H    5.860908   2.760974   2.135774   2.995690   1.087725
    22  H    5.157394   2.520301   2.145462   3.219326   1.086776
    23  H    6.418688   3.262896   2.124967   2.595767   1.085842
                   21         22         23
    21  H    0.000000
    22  H    1.765655   0.000000
    23  H    1.770709   1.778508   0.000000
 Stoichiometry    C7H14O2
 Framework group  C1[X(C7H14O2)]
 Deg. of freedom    63
 Full point group                 C1      NOp   1
 RotChk:  IX=0 Diff= 3.86D-02
 Largest Abelian subgroup         C1      NOp   1
 Largest concise Abelian subgroup C1      NOp   1
                         Standard orientation:                         
 ---------------------------------------------------------------------
 Center     Atomic      Atomic             Coordinates (Angstroms)
 Number     Number       Type             X           Y           Z
 ---------------------------------------------------------------------
      1          6           0        2.313998   -1.726068   -0.224282
[...]
    14  H    3.064777   2.530304   1.088291   0.000000
    15  H    2.523482   2.458157   1.089206   1.764053   0.000000
    16  H    2.500907   3.068596   1.089189   1.764068   1.757972
    17  O    3.319837   2.551787   2.940823   2.592233   3.871608
    18  C    4.415816   3.633757   4.297302   3.905205   5.220938
    19  O    4.690453   4.192756   5.048681   4.853674   5.989180
    20  C    5.623013   4.554475   5.070062   4.390922   5.911214
    21  H    5.634738   4.294426   4.993680   4.263143   5.680785
    22  H    5.910121   4.961328   5.012302   4.206920   5.883329
    23  H    6.481017   5.449402   6.104972   5.464259   6.959503
                   16         17         18         19         20
    16  H    0.000000
    17  O    3.449475   0.000000
    18  C    4.748102   1.358539   0.000000
    19  O    5.397811   2.281020   1.219789   0.000000
    20  C    5.593826   2.349360   1.505235   2.426354   0.000000
    21  H    5.690708   2.597334   2.135105   3.130586   1.087920
    22  H    5.405453   2.621205   2.132561   3.110693   1.088235
    23  H    6.599931   3.274626   2.126791   2.573268   1.084818
                   21         22         23
    21  H    0.000000
    22  H    1.758037   0.000000
    23  H    1.782624   1.780985   0.000000
 Stoichiometry    C7H14O2
 Framework group  C1[X(C7H14O2)]
 Deg. of freedom    63
 Full point group                 C1      NOp   1
 RotChk:  IX=0 Diff= 1.66D-15
 Largest Abelian subgroup         C1      NOp   1
 Largest concise Abelian subgroup C1      NOp   1
                         Standard orientation:                         
 ---------------------------------------------------------------------
 Center     Atomic      Atomic             Coordinates (Angstroms)
 Number     Number       Type             X           Y           Z
 ---------------------------------------------------------------------
      1          6           0        2.313714   -1.719042   -0.221775
      2          1           0        2.203994   -2.222802    0.739006
      3          1           0        3.133761   -1.007223   -0.137723
      4          1           0        2.599302   -2.468092   -0.958719
      5          6           0        1.011813   -1.035927   -0.628567
      6          1           0        1.144761   -0.483276   -1.559906
      7          1           0        0.243601   -1.788799   -0.806799
      8          6           0        0.480606   -0.088124    0.437651
      9          1           0        0.213870   -0.664570    1.325990
     10          6           0        1.407777    1.055013    0.822669
     11          1           0        2.279731    0.634058    1.327476
     12          1           0        0.884761    1.663956    1.562457
     13          6           0        1.843754    1.928909   -0.347960
     14          1           0        0.975693    2.310223   -0.882233
     15          1           0        2.426283    2.778623    0.005614
     16          1           0        2.462327    1.376188   -1.053791
     17          8           0       -0.734560    0.543895   -0.060773
     18          6           0       -1.879564   -0.172964    0.083127
     19          8           0       -1.939055   -1.279638    0.592656
     20          6           0       -3.046591    0.596978   -0.474521
     21          1           0       -3.122645    1.561887    0.022205
     22          1           0       -2.888627    0.780977   -1.535392
     23          1           0       -3.956954    0.025745   -0.326999
 ---------------------------------------------------------------------
 Rotational constants (GHZ):           2.3000243           1.0468574           0.8134206
 Leave Link  202 at Sun Sep 19 20:30:24 2021, MaxMem=   524288000 cpu:               0.0 elap:               0.0
 (Enter /opt/gaussian/g16_legacy/l601.exe)
 Copying SCF densities to generalized density rwf, IOpCl= 0 IROHF=0.

 **********************************************************************

            Population analysis using the SCF density.

 **********************************************************************

 Orbital symmetries:
       Occupied  (A) (A) (A) (A) (A) (A) (A) (A) (A) (A) (A) (A)
                 (A) (A) (A) (A) (A) (A) (A) (A) (A) (A) (A) (A)
                 (A) (A) (A) (A) (A) (A) (A) (A) (A) (A) (A) (A)
       Virtual   (A) (A) (A) (A) (A) (A) (A) (A) (A) (A) (A) (A)
                 (A) (A) (A) (A) (A) (A) (A) (A) (A) (A) (A) (A)
                 (A) (A) (A) (A) (A) (A) (A) (A) (A) (A) (A) (A)
                 (A) (A) (A) (A) (A) (A) (A) (A) (A) (A) (A) (A)
                 (A) (A) (A) (A) (A) (A) (A) (A) (A) (A) (A) (A)
                 (A) (A) (A) (A) (A) (A) (A) (A) (A) (A) (A) (A)
                 (A) (A) (A) (A) (A) (A) (A) (A) (A) (A) (A) (A)
                 (A) (A) (A) (A) (A) (A) (A) (A) (A) (A) (A) (A)
                 (A) (A) (A) (A) (A) (A) (A) (A) (A) (A) (A) (A)
                 (A) (A) (A) (A) (A) (A) (A) (A) (A) (A) (A) (A)
                 (A) (A) (A) (A) (A) (A) (A) (A) (A) (A) (A) (A)
                 (A) (A) (A) (A) (A) (A) (A) (A) (A) (A) (A) (A)
                 (A) (A) (A) (A) (A) (A) (A) (A) (A) (A) (A) (A)
                 (A) (A) (A) (A) (A) (A) (A) (A) (A) (A) (A) (A)
                 (A)
 The electronic state is 1-A.
 Alpha  occ. eigenvalues --  -20.60016 -20.54863 -11.38345 -11.28432 -11.23885
 Alpha  occ. eigenvalues --  -11.22408 -11.21938 -11.21773 -11.21367  -1.44476
 Alpha  occ. eigenvalues --   -1.34685  -1.09445  -1.01973  -1.01501  -0.92776
 Alpha  occ. eigenvalues --   -0.85776  -0.80459  -0.74946  -0.68976  -0.66300
 Alpha  occ. eigenvalues --   -0.65231  -0.63142  -0.60080  -0.58536  -0.57054
 Alpha  occ. eigenvalues --   -0.56578  -0.56288  -0.53619  -0.52011  -0.50315
 Alpha  occ. eigenvalues --   -0.50252  -0.48655  -0.47586  -0.46042  -0.44107
 Alpha  occ. eigenvalues --   -0.43076
 Alpha virt. eigenvalues --    0.18591   0.22100   0.25008   0.26521   0.27388
 Alpha virt. eigenvalues --    0.28310   0.30177   0.30902   0.31323   0.32685
 Alpha virt. eigenvalues --    0.33190   0.33658   0.34912   0.35972   0.36829
 Alpha virt. eigenvalues --    0.38585   0.39605   0.40015   0.42630   0.43619
 Alpha virt. eigenvalues --    0.48308   0.50289   0.54243   0.68814   0.70956
 Alpha virt. eigenvalues --    0.71403   0.74471   0.74869   0.75712   0.77947
 Alpha virt. eigenvalues --    0.79180   0.80281   0.82073   0.84432   0.87818
 Alpha virt. eigenvalues --    0.90518   0.93404   0.93717   0.94366   0.98843
 Alpha virt. eigenvalues --    1.01387   1.02448   1.07415   1.08502   1.09376
 Alpha virt. eigenvalues --    1.09854   1.11036   1.11956   1.13082   1.13768
 Alpha virt. eigenvalues --    1.14304   1.15261   1.16164   1.16322   1.18161
 Alpha virt. eigenvalues --    1.19108   1.21490   1.22269   1.23316   1.26963
 Alpha virt. eigenvalues --    1.27710   1.32342   1.37117   1.39781   1.42203
 Alpha virt. eigenvalues --    1.44220   1.47081   1.54224   1.57087   1.67058
 Alpha virt. eigenvalues --    1.68702   1.70136   1.71891   1.74698   1.76876
 Alpha virt. eigenvalues --    1.80135   1.82573   1.85248   1.92287   1.96400
 Alpha virt. eigenvalues --    1.98516   2.00746   2.03788   2.05712   2.08760
 Alpha virt. eigenvalues --    2.10371   2.12054   2.15450   2.16808   2.17827
 Alpha virt. eigenvalues --    2.20213   2.24104   2.27231   2.30528   2.32277
 Alpha virt. eigenvalues --    2.34185   2.35427   2.35903   2.36926   2.38052
 Alpha virt. eigenvalues --    2.39302   2.40903   2.41166   2.42595   2.44130
 Alpha virt. eigenvalues --    2.46161   2.48431   2.50082   2.53069   2.55889
 Alpha virt. eigenvalues --    2.57108   2.58655   2.60000   2.60298   2.64032
 Alpha virt. eigenvalues --    2.67011   2.70132   2.71647   2.76150   2.79875
 Alpha virt. eigenvalues --    2.82577   2.85557   2.87993   2.92951   2.94981
 Alpha virt. eigenvalues --    2.95584   2.98259   2.99875   3.02710   3.05037
 Alpha virt. eigenvalues --    3.06251   3.12312   3.12991   3.14798   3.16634
 Alpha virt. eigenvalues --    3.20547   3.21573   3.23461   3.24663   3.25690
 Alpha virt. eigenvalues --    3.26279   3.28270   3.32397   3.35102   3.45932
 Alpha virt. eigenvalues --    3.49447   3.57263   3.59722   3.62417   3.67703
 Alpha virt. eigenvalues --    3.71432   3.74711   3.78547   3.79229   3.82292
 Alpha virt. eigenvalues --    3.83313   3.84118   3.89397   3.93098   3.95411
 Alpha virt. eigenvalues --    4.47419   4.58135   4.67746   4.74469   4.84516
 Alpha virt. eigenvalues --    4.99259   5.01583   5.06537   5.16184
          Condensed to atoms (all electrons):
               1          2          3          4          5          6
     1  C    4.941946   0.402731   0.403269   0.404751   0.322868  -0.037459
     2  H    0.402731   0.579619  -0.031528  -0.028092  -0.041594   0.004342
     3  H    0.403269  -0.031528   0.587495  -0.029048  -0.038166  -0.003934
     4  H    0.404751  -0.028092  -0.029048   0.566908  -0.033950  -0.002507
     5  C    0.322868  -0.041594  -0.038166  -0.033950   5.006745   0.404253
     6  H   -0.037459   0.004342  -0.003934  -0.002507   0.404253   0.586320
     7  H   -0.035431  -0.002456   0.003886  -0.003947   0.414275  -0.029505
     8  C   -0.052256  -0.003380  -0.004294   0.004083   0.357494  -0.039235
     9  H    0.000180   0.002529   0.000101  -0.000153  -0.047543   0.004483
    10  C   -0.001295  -0.000517   0.000231  -0.000009  -0.058978  -0.005797
    11  H   -0.000903   0.000376  -0.002146   0.000071  -0.001828   0.000408
    12  H   -0.000068  -0.000043   0.000039   0.000002   0.004935  -0.000149
    13  C   -0.000579   0.000110   0.000008  -0.000023  -0.005068   0.001265
    14  H    0.000061  -0.000002  -0.000028   0.000002  -0.000027   0.000430
    15  H   -0.000002   0.000001  -0.000006   0.000000  -0.000047   0.000033
    16  H   -0.000248  -0.000036   0.000752   0.000008   0.000948  -0.002673
    17  O    0.002584  -0.000009  -0.000032  -0.000046  -0.041206   0.000224
    18  C    0.000064  -0.000007  -0.000001  -0.000004  -0.003317   0.000116
    19  O   -0.000016   0.000009  -0.000003   0.000001  -0.004907   0.000109
    20  C    0.000002  -0.000000  -0.000000  -0.000000  -0.000442  -0.000029
    21  H    0.000000   0.000000  -0.000000   0.000000   0.000009   0.000001
    22  H   -0.000000  -0.000000   0.000000   0.000000   0.000085   0.000000
    23  H   -0.000000   0.000000   0.000000   0.000000   0.000010   0.000000
               7          8          9         10         11         12
     1  C   -0.035431  -0.052256   0.000180  -0.001295  -0.000903  -0.000068
     2  H   -0.002456  -0.003380   0.002529  -0.000517   0.000376  -0.000043
     3  H    0.003886  -0.004294   0.000101   0.000231  -0.002146   0.000039
     4  H   -0.003947   0.004083  -0.000153  -0.000009   0.000071   0.000002
     5  C    0.414275   0.357494  -0.047543  -0.058978  -0.001828   0.004935
     6  H   -0.029505  -0.039235   0.004483  -0.005797   0.000408  -0.000149
     7  H    0.542762  -0.037679  -0.004853   0.004314  -0.000084  -0.000094
     8  C   -0.037679   4.819353   0.424724   0.363928  -0.040742  -0.041792
     9  H   -0.004853   0.424724   0.540984  -0.044532  -0.001360  -0.004533
    10  C    0.004314   0.363928  -0.044532   4.982954   0.407014   0.411952
    11  H   -0.000084  -0.040742  -0.001360   0.407014   0.587847  -0.027703
    12  H   -0.000094  -0.041792  -0.004533   0.411952  -0.027703   0.575082
    13  C   -0.000088  -0.050970   0.004150   0.325820  -0.039368  -0.041178
    14  H   -0.000041  -0.005860   0.000064  -0.039177   0.004248  -0.002104
    15  H    0.000001   0.004402  -0.000058  -0.036933  -0.002585  -0.004092
    16  H    0.000063  -0.004546  -0.000121  -0.036970  -0.003757   0.004212
    17  O   -0.003108   0.132198  -0.030443  -0.053527   0.002944   0.000701
    18  C    0.002623  -0.019162  -0.007172   0.003266  -0.000050   0.000027
    19  O    0.004601  -0.002835   0.008670   0.000343   0.000007   0.000001
    20  C    0.000109   0.004183   0.000248  -0.000114   0.000004  -0.000033
    21  H   -0.000001  -0.000190  -0.000029  -0.000002  -0.000000   0.000009
    22  H   -0.000038  -0.000234  -0.000001  -0.000007  -0.000000   0.000000
    23  H    0.000001  -0.000117   0.000008   0.000002  -0.000000   0.000000
              13         14         15         16         17         18
     1  C   -0.000579   0.000061  -0.000002  -0.000248   0.002584   0.000064
     2  H    0.000110  -0.000002   0.000001  -0.000036  -0.000009  -0.000007
     3  H    0.000008  -0.000028  -0.000006   0.000752  -0.000032  -0.000001
     4  H   -0.000023   0.000002   0.000000   0.000008  -0.000046  -0.000004
     5  C   -0.005068  -0.000027  -0.000047   0.000948  -0.041206  -0.003317
     6  H    0.001265   0.000430   0.000033  -0.002673   0.000224   0.000116
     7  H   -0.000088  -0.000041   0.000001   0.000063  -0.003108   0.002623
     8  C   -0.050970  -0.005860   0.004402  -0.004546   0.132198  -0.019162
     9  H    0.004150   0.000064  -0.000058  -0.000121  -0.030443  -0.007172
    10  C    0.325820  -0.039177  -0.036933  -0.036970  -0.053527   0.003266
    11  H   -0.039368   0.004248  -0.002585  -0.003757   0.002944  -0.000050
    12  H   -0.041178  -0.002104  -0.004092   0.004212   0.000701   0.000027
    13  C    4.939049   0.405721   0.405694   0.402286  -0.002738  -0.000227
    14  H    0.405721   0.557264  -0.027987  -0.029574   0.004182  -0.000007
    15  H    0.405694  -0.027987   0.576247  -0.029635  -0.000018   0.000005
    16  H    0.402286  -0.029574  -0.029635   0.587914   0.000112  -0.000006
    17  O   -0.002738   0.004182  -0.000018   0.000112   8.554340   0.256572
    18  C   -0.000227  -0.000007   0.000005  -0.000006   0.256572   4.158692
    19  O   -0.000012   0.000005   0.000000   0.000000  -0.074113   0.561802
    20  C   -0.000010   0.000008  -0.000000  -0.000000  -0.093813   0.374701
    21  H    0.000002   0.000009  -0.000000   0.000000   0.002470  -0.030373
    22  H    0.000001   0.000009  -0.000000  -0.000000   0.002240  -0.031326
    23  H    0.000000  -0.000000   0.000000  -0.000000   0.003267  -0.038484
              19         20         21         22         23
     1  C   -0.000016   0.000002   0.000000  -0.000000  -0.000000
     2  H    0.000009  -0.000000   0.000000  -0.000000   0.000000
     3  H   -0.000003  -0.000000  -0.000000   0.000000   0.000000
     4  H    0.000001  -0.000000   0.000000   0.000000   0.000000
     5  C   -0.004907  -0.000442   0.000009   0.000085   0.000010
     6  H    0.000109  -0.000029   0.000001   0.000000   0.000000
     7  H    0.004601   0.000109  -0.000001  -0.000038   0.000001
     8  C   -0.002835   0.004183  -0.000190  -0.000234  -0.000117
     9  H    0.008670   0.000248  -0.000029  -0.000001   0.000008
    10  C    0.000343  -0.000114  -0.000002  -0.000007   0.000002
    11  H    0.000007   0.000004  -0.000000  -0.000000  -0.000000
    12  H    0.000001  -0.000033   0.000009   0.000000   0.000000
    13  C   -0.000012  -0.000010   0.000002   0.000001   0.000000
    14  H    0.000005   0.000008   0.000009   0.000009  -0.000000
    15  H    0.000000  -0.000000  -0.000000  -0.000000   0.000000
    16  H    0.000000  -0.000000   0.000000  -0.000000  -0.000000
    17  O   -0.074113  -0.093813   0.002470   0.002240   0.003267
    18  C    0.561802   0.374701  -0.030373  -0.031326  -0.038484
    19  O    8.150851  -0.060629   0.001171   0.000930   0.003099
    20  C   -0.060629   5.005637   0.388684   0.389942   0.395253
    21  H    0.001171   0.388684   0.528383  -0.023451  -0.021356
    22  H    0.000930   0.389942  -0.023451   0.528056  -0.021151
    23  H    0.003099   0.395253  -0.021356  -0.021151   0.521592
 Mulliken charges:
               1
     1  C   -0.350197
     2  H    0.117949
     3  H    0.113404
     4  H    0.121951
     5  C   -0.234550
     6  H    0.119303
     7  H    0.144688
     8  C    0.192927
     9  H    0.154657
    10  C   -0.221967
    11  H    0.117606
    12  H    0.124830
    13  C   -0.343845
    14  H    0.132805
    15  H    0.114979
    16  H    0.111272
    17  O   -0.662781
    18  C    0.772267
    19  O   -0.589085
    20  C   -0.403698
    21  H    0.154664
    22  H    0.154944
    23  H    0.157876
 Sum of Mulliken charges =  -0.00000
 Mulliken charges with hydrogens summed into heavy atoms:
               1
     1  C    0.003108
     5  C    0.029442
     8  C    0.347584
    10  C    0.020469
    13  C    0.015211
    17  O   -0.662781
    18  C    0.772267
    19  O   -0.589085
    20  C    0.063785
 Electronic spatial extent (au):  <R**2>=           1535.3985
 Charge=              0.0000 electrons
 Dipole moment (field-independent basis, Debye):
    X=              0.7026    Y=              1.7190    Z=             -0.7779  Tot=              2.0134
 Quadrupole moment (field-independent basis, Debye-Ang):
   XX=            -53.6369   YY=            -60.2963   ZZ=            -56.2789
   XY=             -5.6661   XZ=              3.2464   YZ=              2.2942
 Traceless Quadrupole moment (field-independent basis, Debye-Ang):
   XX=              3.1004   YY=             -3.5589   ZZ=              0.4584
   XY=             -5.6661   XZ=              3.2464   YZ=              2.2942
 Octapole moment (field-independent basis, Debye-Ang**2):
  XXX=            -25.5129  YYY=              2.7849  ZZZ=              1.0272  XYY=              3.1744
  XXY=             12.9227  XXZ=             -6.1795  XZZ=             -3.8340  YZZ=              0.0215
  YYZ=             -1.2278  XYZ=             -2.8877
 Hexadecapole moment (field-independent basis, Debye-Ang**3):
 XXXX=          -1249.8807 YYYY=           -577.9654 ZZZZ=           -181.7260 XXXY=            -17.3549
 XXXZ=             13.5644 YYYX=             -7.7014 YYYZ=              6.3270 ZZZX=              0.5213
 ZZZY=             -3.5376 XXYY=           -324.4810 XXZZ=           -246.5792 YYZZ=           -125.7497
 XXYZ=              9.4490 YYXZ=              4.3267 ZZXY=             -4.3145
 N-N= 4.858209344163D+02 E-N=-1.961686388298D+03  KE= 4.221842586330D+02
 No NMR shielding tensors so no spin-rotation constants.
 Leave Link  601 at Sun Sep 19 20:30:25 2021, MaxMem=   524288000 cpu:               0.2 elap:               0.4
 (Enter /opt/gaussian/g16_legacy/l9999.exe)
 1\1\GINC-TRUENO95\FOpt\RMP2-FC\6-31G(d,p)\C7H14O2\JRAMOS\19-Sep-2021\0
 \\#p opt mp2/6-31g(d,p)\\Conformer number 003. Energy MM = -6.696 kcal
 /mol\\0,1\C,-2.1820907296,3.733791992,1.2831894308\H,-1.6823221251,4.1
 817623532,0.4238482151\H,-1.7932922393,4.2068361521,2.1839081367\H,-3.
 2418141696,3.9743366762,1.2135731211\C,-1.9757175848,2.2224909115,1.30
 44137179\H,-2.4259988444,1.7875944333,2.1980597283\H,-2.4701095765,1.7
 734329993,0.4426385266\C,-0.5079562997,1.8230648781,1.2455174517\H,-0.
 0916098195,2.1363288629,0.2857753078\C,0.3614799968,2.343364307,2.3804
 256233\H,0.4325166565,3.4290549178,2.2878671412\H,1.3686779368,1.95205
 30331,2.2252727087\C,-0.1305345748,1.961188747,3.7718293257\H,-0.24870
 74008,0.8822094574,3.8506759308\H,0.5819485095,2.2820482248,4.53063480
 35\H,-1.0882607192,2.4263448175,4.0014430331\O,-0.4147130732,0.3701409
 434,1.3149510612\C,-0.5863250864,-0.2933665031,0.1419481308\O,-0.80498
 53954,0.2478547936,-0.9291043865\C,-0.4668106677,-1.7773780023,0.36366
 83701\H,0.4998968758,-2.007107008,0.8066939366\H,-1.2371963643,-2.1054
 580601,1.0587397771\H,-0.5771753049,-2.2920889266,-0.5848690916\\Versi
 on=EM64L-G16RevA.03\State=1-A\HF=-422.9992372\MP2=-424.3596823\RMSD=5.
 426e-09\RMSF=7.019e-06\Dipole=0.0830732,-0.0346741,0.6690704\PG=C01 [X
 (C7H14O2)]\\@


 ON A TOMBSTONE, "HERE LIES LESTER MOORE,
 FOUR SLUGS FROM A 44, NO LES, NO MORE".
 Job cpu time:       0 days  0 hours 27 minutes 46.8 seconds.
 Elapsed time:       0 days  0 hours 27 minutes 49.7 seconds.
 File lengths (MBytes):  RWF=     29 Int=      0 D2E=      0 Chk=      6 Scr=      1
 Normal termination of Gaussian 16 at Sun Sep 19 20:30:25 2021.
