 Entering Gaussian System, Link 0=/opt/gaussian/g16_legacy/g16
 Input=07-EVA_012_gaussian.com
 Output=07-EVA_012_gaussian.log
 Initial command:
 /opt/gaussian/g16_legacy/l1.exe "/scratch-local/jramos/2661765/Gau-2470.inp" -scrdir="/scratch-local/jramos/2661765/"
 Entering Link 1 = /opt/gaussian/g16_legacy/l1.exe PID=      2472.
  
 Copyright (c) 1988,1990,1992,1993,1995,1998,2003,2009,2016,
            Gaussian, Inc.  All Rights Reserved.
  
 This is part of the Gaussian(R) 16 program.  It is based on
 the Gaussian(R) 09 system (copyright 2009, Gaussian, Inc.),
 the Gaussian(R) 03 system (copyright 2003, Gaussian, Inc.),
 the Gaussian(R) 98 system (copyright 1998, Gaussian, Inc.),
 the Gaussian(R) 94 system (copyright 1995, Gaussian, Inc.),
 the Gaussian 92(TM) system (copyright 1992, Gaussian, Inc.),
 the Gaussian 90(TM) system (copyright 1990, Gaussian, Inc.),
 the Gaussian 88(TM) system (copyright 1988, Gaussian, Inc.),
 the Gaussian 86(TM) system (copyright 1986, Carnegie Mellon
 University), and the Gaussian 82(TM) system (copyright 1983,
 Carnegie Mellon University). Gaussian is a federally registered
 trademark of Gaussian, Inc.
  
 This software contains proprietary and confidential information,
 including trade secrets, belonging to Gaussian, Inc.
  
 This software is provided under written license and may be
 used, copied, transmitted, or stored only in accord with that
 written license.
  
 The following legend is applicable only to US Government
 contracts under FAR:
  
                    RESTRICTED RIGHTS LEGEND
  
 Use, reproduction and disclosure by the US Government is
 subject to restrictions as set forth in subparagraphs (a)
 and (c) of the Commercial Computer Software - Restricted
 Rights clause in FAR 52.227-19.
  
 Gaussian, Inc.
 340 Quinnipiac St., Bldg. 40, Wallingford CT 06492
  
  
 ---------------------------------------------------------------
 Warning -- This program may not be used in any manner that
 competes with the business of Gaussian, Inc. or will provide
 assistance to any competitor of Gaussian, Inc.  The licensee
 of this program is prohibited from giving any competitor of
 Gaussian, Inc. access to this program.  By using this program,
 the user acknowledges that Gaussian, Inc. is engaged in the
 business of creating and licensing software in the field of
 computational chemistry and represents and warrants to the
 licensee that it is not a competitor of Gaussian, Inc. and that
 it will not use this program in any manner prohibited above.
 ---------------------------------------------------------------
  

 Cite this work as:
 Gaussian 16, Revision A.03,
 M. J. Frisch, G. W. Trucks, H. B. Schlegel, G. E. Scuseria, 
 M. A. Robb, J. R. Cheeseman, G. Scalmani, V. Barone, 
 G. A. Petersson, H. Nakatsuji, X. Li, M. Caricato, A. V. Marenich, 
 J. Bloino, B. G. Janesko, R. Gomperts, B. Mennucci, H. P. Hratchian, 
 J. V. Ortiz, A. F. Izmaylov, J. L. Sonnenberg, D. Williams-Young, 
 F. Ding, F. Lipparini, F. Egidi, J. Goings, B. Peng, A. Petrone, 
 T. Henderson, D. Ranasinghe, V. G. Zakrzewski, J. Gao, N. Rega, 
 G. Zheng, W. Liang, M. Hada, M. Ehara, K. Toyota, R. Fukuda, 
 J. Hasegawa, M. Ishida, T. Nakajima, Y. Honda, O. Kitao, H. Nakai, 
 T. Vreven, K. Throssell, J. A. Montgomery, Jr., J. E. Peralta, 
 F. Ogliaro, M. J. Bearpark, J. J. Heyd, E. N. Brothers, K. N. Kudin, 
 V. N. Staroverov, T. A. Keith, R. Kobayashi, J. Normand, 
 K. Raghavachari, A. P. Rendell, J. C. Burant, S. S. Iyengar, 
 J. Tomasi, M. Cossi, J. M. Millam, M. Klene, C. Adamo, R. Cammi, 
 J. W. Ochterski, R. L. Martin, K. Morokuma, O. Farkas, 
 J. B. Foresman, and D. J. Fox, Gaussian, Inc., Wallingford CT, 2016.
 
 ******************************************
 Gaussian 16:  EM64L-G16RevA.03 25-Dec-2016
                19-Sep-2021 
 ******************************************
 %chk=07-EVA_012_gaussian.chk
 %nproc=1
 Will use up to    1 processors via shared memory.
 %mem=4000Mb
 ---------------------
 #p opt mp2/6-31g(d,p)
 ---------------------
 1/18=20,19=15,38=1/1,3;
 2/9=110,12=2,17=6,18=5,40=1/2;
 3/5=1,6=6,7=101,11=9,25=1,30=1,71=1/1,2,3;
 4//1;
 5/5=2,38=5/2;
 8/6=4,10=2/1;
 9/15=2,16=-3/6;
 10/5=1/2;
 6/7=2,8=2,9=2,10=2/1;
 7/12=2/1,2,3,16;
 1/18=20,19=15/3(2);
 2/9=110/2;
 99//99;
 2/9=110/2;
 3/5=1,6=6,7=101,11=9,25=1,30=1,71=1/1,2,3;
 4/5=5,16=3,69=1/1;
 5/5=2,38=5/2;
 8/6=4,10=2/1;
 9/15=2,16=-3/6;
 10/5=1/2;
 7/12=2/1,2,3,16;
 1/18=20,19=15/3(-8);
 2/9=110/2;
 6/7=2,8=2,9=2,10=2/1;
 99//99;
 Leave Link    1 at Sun Sep 19 20:02:33 2021, MaxMem=   524288000 cpu:               0.0 elap:               0.1
 (Enter /opt/gaussian/g16_legacy/l101.exe)
 ------------------------------------------------
 Conformer number 012. Energy MM = 6.314 kcal/mol
 ------------------------------------------------
 Symbolic Z-matrix:
 Charge =  0 Multiplicity = 1
 C                    -2.2775    3.369     1.2482 
 H                    -1.9149    3.9023    0.3647 
 H                    -1.9955    3.938     2.1396 
 H                    -3.3714    3.3487    1.2046 
 C                    -1.7298    1.9501    1.2763 
 H                    -2.08      1.4174    2.1681 
 H                    -2.1809    1.4444    0.4194 
 C                    -0.193     1.8934    1.1922 
 H                     0.1391    2.4459    0.3058 
 C                     0.4385    2.5541    2.4376 
 H                     0.1012    2.0343    3.342 
 H                     0.1054    3.5957    2.5176 
 C                     1.9612    2.5671    2.437 
 H                     2.3482    3.0692    1.5462 
 H                     2.3242    3.1127    3.3149 
 H                     2.372     1.5552    2.4802 
 O                     0.3739    0.5641    1.062 
 C                    -0.1487   -0.3       0.1538 
 O                    -1.3341   -0.5658    0.004 
 C                     0.9255   -0.838    -0.7388 
 H                     1.1627   -0.0914   -1.4988 
 H                     1.818    -1.0936   -0.1604 
 H                     0.5645   -1.7483   -1.2297 
 
 ITRead=  0  0  0  0  0  0  0  0  0  0  0  0  0  0  0  0  0  0  0  0
 ITRead=  0  0  0
 MicOpt= -1 -1 -1 -1 -1 -1 -1 -1 -1 -1 -1 -1 -1 -1 -1 -1 -1 -1 -1 -1
 MicOpt= -1 -1 -1
 NAtoms=     23 NQM=       23 NQMF=       0 NMMI=      0 NMMIF=      0
                NMic=       0 NMicF=      0.
                    Isotopes and Nuclear Properties:
 (Nuclear quadrupole moments (NQMom) in fm**2, nuclear magnetic moments (NMagM)
  in nuclear magnetons)

  Atom         1           2           3           4           5           6           7           8           9          10
 IAtWgt=          12           1           1           1          12           1           1          12           1          12
 AtmWgt=  12.0000000   1.0078250   1.0078250   1.0078250  12.0000000   1.0078250   1.0078250  12.0000000   1.0078250  12.0000000
 NucSpn=           0           1           1           1           0           1           1           0           1           0
 AtZEff=  -0.0000000  -0.0000000  -0.0000000  -0.0000000  -0.0000000  -0.0000000  -0.0000000  -0.0000000  -0.0000000  -0.0000000
 NQMom=    0.0000000   0.0000000   0.0000000   0.0000000   0.0000000   0.0000000   0.0000000   0.0000000   0.0000000   0.0000000
 NMagM=    0.0000000   2.7928460   2.7928460   2.7928460   0.0000000   2.7928460   2.7928460   0.0000000   2.7928460   0.0000000
 AtZNuc=   6.0000000   1.0000000   1.0000000   1.0000000   6.0000000   1.0000000   1.0000000   6.0000000   1.0000000   6.0000000

  Atom        11          12          13          14          15          16          17          18          19          20
 IAtWgt=           1           1          12           1           1           1          16          12          16          12
 AtmWgt=   1.0078250   1.0078250  12.0000000   1.0078250   1.0078250   1.0078250  15.9949146  12.0000000  15.9949146  12.0000000
 NucSpn=           1           1           0           1           1           1           0           0           0           0
 AtZEff=  -0.0000000  -0.0000000  -0.0000000  -0.0000000  -0.0000000  -0.0000000  -0.0000000  -0.0000000  -0.0000000  -0.0000000
 NQMom=    0.0000000   0.0000000   0.0000000   0.0000000   0.0000000   0.0000000   0.0000000   0.0000000   0.0000000   0.0000000
 NMagM=    2.7928460   2.7928460   0.0000000   2.7928460   2.7928460   2.7928460   0.0000000   0.0000000   0.0000000   0.0000000
 AtZNuc=   1.0000000   1.0000000   6.0000000   1.0000000   1.0000000   1.0000000   8.0000000   6.0000000   8.0000000   6.0000000

  Atom        21          22          23
 IAtWgt=           1           1           1
 AtmWgt=   1.0078250   1.0078250   1.0078250
 NucSpn=           1           1           1
 AtZEff=  -0.0000000  -0.0000000  -0.0000000
 NQMom=    0.0000000   0.0000000   0.0000000
 NMagM=    2.7928460   2.7928460   2.7928460
 AtZNuc=   1.0000000   1.0000000   1.0000000
 Leave Link  101 at Sun Sep 19 20:02:34 2021, MaxMem=   524288000 cpu:               0.1 elap:               0.2
 (Enter /opt/gaussian/g16_legacy/l103.exe)

 GradGradGradGradGradGradGradGradGradGradGradGradGradGradGradGradGradGrad
 Berny optimization.
 Initialization pass.
                           ----------------------------
                           !    Initial Parameters    !
                           ! (Angstroms and Degrees)  !
 --------------------------                            --------------------------
 ! Name  Definition              Value          Derivative Info.                !
 --------------------------------------------------------------------------------
 ! R1    R(1,2)                  1.0938         estimate D2E/DX2                !
 ! R2    R(1,3)                  1.0945         estimate D2E/DX2                !
 ! R3    R(1,4)                  1.095          estimate D2E/DX2                !
 ! R4    R(1,5)                  1.5212         estimate D2E/DX2                !
 ! R5    R(5,6)                  1.0962         estimate D2E/DX2                !
 ! R6    R(5,7)                  1.0925         estimate D2E/DX2                !
 ! R7    R(5,8)                  1.5401         estimate D2E/DX2                !
 ! R8    R(8,9)                  1.096          estimate D2E/DX2                !
 ! R9    R(8,10)                 1.5448         estimate D2E/DX2                !
 ! R10   R(8,17)                 1.451          estimate D2E/DX2                !
 ! R11   R(10,11)                1.0963         estimate D2E/DX2                !
 ! R12   R(10,12)                1.0965         estimate D2E/DX2                !
 ! R13   R(10,13)                1.5228         estimate D2E/DX2                !
 ! R14   R(13,14)                1.0933         estimate D2E/DX2                !
 ! R15   R(13,15)                1.0955         estimate D2E/DX2                !
 ! R16   R(13,16)                1.093          estimate D2E/DX2                !
 ! R17   R(17,18)                1.3582         estimate D2E/DX2                !
 ! R18   R(18,19)                1.224          estimate D2E/DX2                !
 ! R19   R(18,20)                1.4967         estimate D2E/DX2                !
 ! R20   R(20,21)                1.0915         estimate D2E/DX2                !
 ! R21   R(20,22)                1.0938         estimate D2E/DX2                !
 ! R22   R(20,23)                1.0954         estimate D2E/DX2                !
 ! A1    A(2,1,3)              108.6001         estimate D2E/DX2                !
 ! A2    A(2,1,4)              107.9419         estimate D2E/DX2                !
 ! A3    A(2,1,5)              110.5077         estimate D2E/DX2                !
 ! A4    A(3,1,4)              107.4262         estimate D2E/DX2                !
 ! A5    A(3,1,5)              112.1547         estimate D2E/DX2                !
 ! A6    A(4,1,5)              110.0683         estimate D2E/DX2                !
 ! A7    A(1,5,6)              110.6873         estimate D2E/DX2                !
 ! A8    A(1,5,7)              105.5814         estimate D2E/DX2                !
 ! A9    A(1,5,8)              113.116          estimate D2E/DX2                !
 ! A10   A(6,5,7)              106.3346         estimate D2E/DX2                !
 ! A11   A(6,5,8)              110.2            estimate D2E/DX2                !
 ! A12   A(7,5,8)              110.6187         estimate D2E/DX2                !
 ! A13   A(5,8,9)              109.1445         estimate D2E/DX2                !
 ! A14   A(5,8,10)             110.3736         estimate D2E/DX2                !
 ! A15   A(5,8,17)             115.371          estimate D2E/DX2                !
 ! A16   A(9,8,10)             108.2125         estimate D2E/DX2                !
 ! A17   A(9,8,17)             105.7159         estimate D2E/DX2                !
 ! A18   A(10,8,17)            107.7254         estimate D2E/DX2                !
 ! A19   A(8,10,11)            109.6645         estimate D2E/DX2                !
 ! A20   A(8,10,12)            109.9331         estimate D2E/DX2                !
 ! A21   A(8,10,13)            114.3378         estimate D2E/DX2                !
 ! A22   A(11,10,12)           107.2623         estimate D2E/DX2                !
 ! A23   A(11,10,13)           108.1816         estimate D2E/DX2                !
 ! A24   A(12,10,13)           107.1993         estimate D2E/DX2                !
 ! A25   A(10,13,14)           110.989          estimate D2E/DX2                !
 ! A26   A(10,13,15)           109.5892         estimate D2E/DX2                !
 ! A27   A(10,13,16)           111.5878         estimate D2E/DX2                !
 ! A28   A(14,13,15)           107.873          estimate D2E/DX2                !
 ! A29   A(14,13,16)           108.9255         estimate D2E/DX2                !
 ! A30   A(15,13,16)           107.7508         estimate D2E/DX2                !
 ! A31   A(8,17,18)            119.5075         estimate D2E/DX2                !
 ! A32   A(17,18,19)           126.3441         estimate D2E/DX2                !
 ! A33   A(17,18,20)           110.5687         estimate D2E/DX2                !
 ! A34   A(19,18,20)           122.9577         estimate D2E/DX2                !
 ! A35   A(18,20,21)           108.9876         estimate D2E/DX2                !
 ! A36   A(18,20,22)           110.7479         estimate D2E/DX2                !
 ! A37   A(18,20,23)           109.2353         estimate D2E/DX2                !
 ! A38   A(21,20,22)           110.5317         estimate D2E/DX2                !
 ! A39   A(21,20,23)           109.1483         estimate D2E/DX2                !
 ! A40   A(22,20,23)           108.1607         estimate D2E/DX2                !
 ! D1    D(2,1,5,6)            179.1988         estimate D2E/DX2                !
 ! D2    D(2,1,5,7)            -66.1306         estimate D2E/DX2                !
 ! D3    D(2,1,5,8)             54.9693         estimate D2E/DX2                !
 ! D4    D(3,1,5,6)             57.8673         estimate D2E/DX2                !
 ! D5    D(3,1,5,7)            172.538          estimate D2E/DX2                !
 ! D6    D(3,1,5,8)            -66.3622         estimate D2E/DX2                !
 ! D7    D(4,1,5,6)            -61.6707         estimate D2E/DX2                !
 ! D8    D(4,1,5,7)             52.9999         estimate D2E/DX2                !
 ! D9    D(4,1,5,8)            174.0998         estimate D2E/DX2                !
 ! D10   D(1,5,8,9)            -54.4796         estimate D2E/DX2                !
 ! D11   D(1,5,8,10)            64.3261         estimate D2E/DX2                !
 ! D12   D(1,5,8,17)          -173.2927         estimate D2E/DX2                !
 ! D13   D(6,5,8,9)           -178.9748         estimate D2E/DX2                !
 ! D14   D(6,5,8,10)           -60.1692         estimate D2E/DX2                !
 ! D15   D(6,5,8,17)            62.2121         estimate D2E/DX2                !
 ! D16   D(7,5,8,9)             63.7271         estimate D2E/DX2                !
 ! D17   D(7,5,8,10)          -177.4673         estimate D2E/DX2                !
 ! D18   D(7,5,8,17)           -55.0861         estimate D2E/DX2                !
 ! D19   D(5,8,10,11)           59.2205         estimate D2E/DX2                !
 ! D20   D(5,8,10,12)          -58.4767         estimate D2E/DX2                !
 ! D21   D(5,8,10,13)         -179.0905         estimate D2E/DX2                !
 ! D22   D(9,8,10,11)          178.5925         estimate D2E/DX2                !
 ! D23   D(9,8,10,12)           60.8953         estimate D2E/DX2                !
 ! D24   D(9,8,10,13)          -59.7185         estimate D2E/DX2                !
 ! D25   D(17,8,10,11)         -67.5458         estimate D2E/DX2                !
 ! D26   D(17,8,10,12)         174.7569         estimate D2E/DX2                !
 ! D27   D(17,8,10,13)          54.1431         estimate D2E/DX2                !
 ! D28   D(5,8,17,18)           47.1232         estimate D2E/DX2                !
 ! D29   D(9,8,17,18)          -73.5734         estimate D2E/DX2                !
 ! D30   D(10,8,17,18)         170.9082         estimate D2E/DX2                !
 ! D31   D(8,10,13,14)          56.9966         estimate D2E/DX2                !
 ! D32   D(8,10,13,15)         176.038          estimate D2E/DX2                !
 ! D33   D(8,10,13,16)         -64.6982         estimate D2E/DX2                !
 ! D34   D(11,10,13,14)        179.4962         estimate D2E/DX2                !
 ! D35   D(11,10,13,15)        -61.4624         estimate D2E/DX2                !
 ! D36   D(11,10,13,16)         57.8014         estimate D2E/DX2                !
 ! D37   D(12,10,13,14)        -65.1236         estimate D2E/DX2                !
 ! D38   D(12,10,13,15)         53.9178         estimate D2E/DX2                !
 ! D39   D(12,10,13,16)        173.1816         estimate D2E/DX2                !
 ! D40   D(8,17,18,19)         -48.9517         estimate D2E/DX2                !
 ! D41   D(8,17,18,20)         126.985          estimate D2E/DX2                !
 ! D42   D(17,18,20,21)        -79.0931         estimate D2E/DX2                !
 ! D43   D(17,18,20,22)         42.7084         estimate D2E/DX2                !
 ! D44   D(17,18,20,23)        161.7331         estimate D2E/DX2                !
 ! D45   D(19,18,20,21)         97.0066         estimate D2E/DX2                !
 ! D46   D(19,18,20,22)       -141.192          estimate D2E/DX2                !
 ! D47   D(19,18,20,23)        -22.1672         estimate D2E/DX2                !
 --------------------------------------------------------------------------------
 Trust Radius=3.00D-01 FncErr=1.00D-07 GrdErr=1.00D-07 EigMax=2.50D+02 EigMin=1.00D-04
 Number of steps in this run=    119 maximum allowed number of steps=    138.
 GradGradGradGradGradGradGradGradGradGradGradGradGradGradGradGradGradGrad

 Leave Link  103 at Sun Sep 19 20:02:34 2021, MaxMem=   524288000 cpu:               0.0 elap:               0.1
 (Enter /opt/gaussian/g16_legacy/l202.exe)
                          Input orientation:                          
 ---------------------------------------------------------------------
 Center     Atomic      Atomic             Coordinates (Angstroms)
 Number     Number       Type             X           Y           Z
 ---------------------------------------------------------------------
      1          6           0       -2.277500    3.369000    1.248200
      2          1           0       -1.914900    3.902300    0.364700
      3          1           0       -1.995500    3.938000    2.139600
      4          1           0       -3.371400    3.348700    1.204600
      5          6           0       -1.729800    1.950100    1.276300
      6          1           0       -2.080000    1.417400    2.168100
      7          1           0       -2.180900    1.444400    0.419400
      8          6           0       -0.193000    1.893400    1.192200
      9          1           0        0.139100    2.445900    0.305800
     10          6           0        0.438500    2.554100    2.437600
     11          1           0        0.101200    2.034300    3.342000
     12          1           0        0.105400    3.595700    2.517600
     13          6           0        1.961200    2.567100    2.437000
     14          1           0        2.348200    3.069200    1.546200
     15          1           0        2.324200    3.112700    3.314900
     16          1           0        2.372000    1.555200    2.480200
     17          8           0        0.373900    0.564100    1.062000
     18          6           0       -0.148700   -0.300000    0.153800
     19          8           0       -1.334100   -0.565800    0.004000
     20          6           0        0.925500   -0.838000   -0.738800
     21          1           0        1.162700   -0.091400   -1.498800
     22          1           0        1.818000   -1.093600   -0.160400
     23          1           0        0.564500   -1.748300   -1.229700
 ---------------------------------------------------------------------
                    Distance matrix (angstroms):
                    1          2          3          4          5
     1  C    0.000000
     2  H    1.093828   0.000000
     3  H    1.094477   1.777088   0.000000
     4  H    1.094957   1.770112   1.764823   0.000000
     5  C    1.521198   2.162490   2.183490   2.157794   0.000000
     6  H    2.166556   3.074774   2.522177   2.515147   1.096228
     7  H    2.097695   2.472857   3.035046   2.379115   1.092475
     8  C    2.554539   2.772251   2.885648   3.495751   1.540143
     9  H    2.753214   2.518628   3.185232   3.734501   2.163441
    10  C    3.074962   3.413656   2.815731   4.082526   2.532777
    11  H    3.438551   4.051962   3.076685   4.284283   2.761660
    12  H    2.709425   2.968264   2.161905   3.724663   2.759852
    13  C    4.474692   4.593619   4.198010   5.528683   3.918086
    14  H    4.644974   4.501557   4.469303   5.736605   4.237371
    15  H    5.050998   5.224664   4.552171   6.078562   4.684276
    16  H    5.140578   5.325573   4.986863   6.150646   4.293027
    17  O    3.864202   4.107117   4.261277   4.669219   2.528334
    18  C    4.380760   4.563252   5.031373   4.980260   2.970325
    19  O    4.233283   4.520105   5.028166   4.573329   2.846942
    20  C    5.648560   5.635249   6.295046   6.306236   4.345658
    21  H    5.599585   5.375304   6.280784   6.300851   4.498384
    22  H    6.218687   6.258537   6.719359   6.966141   4.890307
    23  H    6.356391   6.373289   7.088003   6.884514   5.022152
                    6          7          8          9         10
     6  H    0.000000
     7  H    1.751817   0.000000
     8  C    2.177091   2.179580   0.000000
     9  H    3.074147   2.529488   1.096016   0.000000
    10  C    2.776249   3.487954   1.544778   2.155439   0.000000
    11  H    2.552693   3.754671   2.174407   3.064206   1.096313
    12  H    3.105336   3.775937   2.177970   2.493037   1.096488
    13  C    4.210156   4.742168   2.577591   2.806555   1.522756
    14  H    4.766986   4.941902   2.822325   2.609065   2.169534
    15  H    4.856559   5.609195   3.511245   3.778090   2.153498
    16  H    4.465053   4.998807   2.890078   3.241482   2.176704
    17  O    2.823686   2.777565   1.450988   2.041602   2.420031
    18  C    3.276704   2.691340   2.427188   2.765122   3.702220
    19  O    3.028659   2.220480   2.959999   3.366265   4.335700
    20  C    4.750782   4.024984   3.527088   3.534631   4.672583
    21  H    5.122278   4.149438   3.608162   3.277534   4.797747
    22  H    5.188587   4.771668   3.846533   3.945137   4.685973
    23  H    5.344163   4.522177   4.438624   4.486651   5.654698
                   11         12         13         14         15
    11  H    0.000000
    12  H    1.765679   0.000000
    13  C    2.136001   2.123325   0.000000
    14  H    3.056947   2.500194   1.093343   0.000000
    15  H    2.470913   2.406668   1.095517   1.769398   0.000000
    16  H    2.475635   3.050002   1.092961   1.779078   1.767715
    17  O    2.726583   3.373642   2.902095   3.226118   3.921045
    18  C    3.959296   4.563836   4.229059   4.418687   5.268236
    19  O    4.467981   5.070348   5.156894   5.399161   6.154395
    20  C    5.057915   5.561870   4.770020   4.744630   5.830684
    21  H    5.392470   5.553743   4.816196   4.546078   5.898054
    22  H    4.999797   5.665176   4.490848   4.530177   5.479681
    23  H    5.951735   6.543040   5.832507   5.839136   6.883259
                   16         17         18         19         20
    16  H    0.000000
    17  O    2.643099   0.000000
    18  C    3.899722   1.358163   0.000000
    19  O    4.936131   2.305060   1.224035   0.000000
    20  C    4.264004   2.347984   1.496691   2.394084   0.000000
    21  H    4.472822   2.758547   2.119993   2.952537   1.091456
    22  H    3.780982   2.515483   2.143929   3.200209   1.093816
    23  H    5.286164   3.261198   2.126100   2.554409   1.095422
                   21         22         23
    21  H    0.000000
    22  H    1.795867   0.000000
    23  H    1.782014   1.772935   0.000000
 Stoichiometry    C7H14O2
 Framework group  C1[X(C7H14O2)]
 Deg. of freedom    63
 Full point group                 C1      NOp   1
 Largest Abelian subgroup         C1      NOp   1
 Largest concise Abelian subgroup C1      NOp   1
                         Standard orientation:                         
 ---------------------------------------------------------------------
 Center     Atomic      Atomic             Coordinates (Angstroms)
 Number     Number       Type             X           Y           Z
 ---------------------------------------------------------------------
      1          6           0        2.122237   -1.977270    0.452864
      2          1           0        2.057090   -1.871866    1.539651
      3          1           0        3.033211   -1.478385    0.107729
      4          1           0        2.224704   -3.042884    0.222867
      5          6           0        0.874216   -1.417279   -0.212640
      6          1           0        0.942628   -1.508536   -1.302919
      7          1           0        0.056612   -2.071083    0.099714
      8          6           0        0.582080    0.042624    0.181546
      9          1           0        0.535499    0.117526    1.274007
     10          6           0        1.711141    0.970888   -0.318337
     11          1           0        1.795347    0.895191   -1.408787
     12          1           0        2.671364    0.653022    0.105007
     13          6           0        1.523388    2.438187    0.043006
     14          1           0        1.425014    2.565710    1.124421
     15          1           0        2.397044    3.011963   -0.285112
     16          1           0        0.642928    2.863179   -0.445603
     17          8           0       -0.676651    0.577489   -0.303100
     18          6           0       -1.812943   -0.152651   -0.160469
     19          8           0       -1.960694   -1.330429   -0.459250
     20          6           0       -2.875183    0.654806    0.517575
     21          1           0       -2.679778    0.668470    1.591309
     22          1           0       -2.901173    1.673238    0.119385
     23          1           0       -3.851340    0.192152    0.335865
 ---------------------------------------------------------------------
 Rotational constants (GHZ):           1.8887121           1.1708974           0.7783409
 Leave Link  202 at Sun Sep 19 20:02:34 2021, MaxMem=   524288000 cpu:               0.0 elap:               0.2
 (Enter /opt/gaussian/g16_legacy/l301.exe)
 Standard basis: 6-31G(d,p) (6D, 7F)
 Ernie: Thresh=  0.10000D-02 Tol=  0.10000D-05 Strict=F.
 There are   205 symmetry adapted cartesian basis functions of A   symmetry.
 There are   205 symmetry adapted basis functions of A   symmetry.
   205 basis functions,   350 primitive gaussians,   205 cartesian basis functions
    36 alpha electrons       36 beta electrons
       nuclear repulsion energy       481.8119028375 Hartrees.
 IExCor=    0 DFT=F Ex=HF Corr=None ExCW=0 ScaHFX=  1.000000
 ScaDFX=  1.000000  1.000000  1.000000  1.000000 ScalE2=  1.000000  1.000000
 IRadAn=      5 IRanWt=     -1 IRanGd=            0 ICorTp=0 IEmpDi=  4
 NAtoms=   23 NActive=   23 NUniq=   23 SFac= 1.00D+00 NAtFMM=   60 NAOKFM=F Big=F
 Integral buffers will be    131072 words long.
 Raffenetti 1 integral format.
 Two-electron integral symmetry is turned on.
 Leave Link  301 at Sun Sep 19 20:02:34 2021, MaxMem=   524288000 cpu:               0.1 elap:               0.2
 (Enter /opt/gaussian/g16_legacy/l302.exe)
 NPDir=0 NMtPBC=     1 NCelOv=     1 NCel=       1 NClECP=     1 NCelD=      1
         NCelK=      1 NCelE2=     1 NClLst=     1 CellRange=     0.0.
 One-electron integrals computed using PRISM.
 One-electron integral symmetry used in STVInt
 NBasis=   205 RedAO= T EigKep=  3.26D-03  NBF=   205
 NBsUse=   205 1.00D-06 EigRej= -1.00D+00 NBFU=   205
 Leave Link  302 at Sun Sep 19 20:02:35 2021, MaxMem=   524288000 cpu:               0.2 elap:               0.3
 (Enter /opt/gaussian/g16_legacy/l303.exe)
 DipDrv:  MaxL=1.
 Leave Link  303 at Sun Sep 19 20:02:35 2021, MaxMem=   524288000 cpu:               0.0 elap:               0.3
 (Enter /opt/gaussian/g16_legacy/l401.exe)
 ExpMin= 1.61D-01 ExpMax= 5.48D+03 ExpMxC= 8.25D+02 IAcc=3 IRadAn=         5 AccDes= 0.00D+00
 Harris functional with IExCor=  205 and IRadAn=       5 diagonalized for initial guess.
 HarFok:  IExCor=  205 AccDes= 0.00D+00 IRadAn=         5 IDoV= 1 UseB2=F ITyADJ=14
 ICtDFT=  3500011 ScaDFX=  1.000000  1.000000  1.000000  1.000000
 FoFCou: FMM=F IPFlag=           0 FMFlag=      100000 FMFlg1=           0
         NFxFlg=           0 DoJE=T BraDBF=F KetDBF=T FulRan=T
         wScrn=  0.000000 ICntrl=       500 IOpCl=  0 I1Cent=   200000004 NGrid=           0
         NMat0=    1 NMatS0=      1 NMatT0=    0 NMatD0=    1 NMtDS0=    0 NMtDT0=    0
 Petite list used in FoFCou.
 Harris En= -423.704428701661    
 JPrj=0 DoOrth=F DoCkMO=F.
 Leave Link  401 at Sun Sep 19 20:02:40 2021, MaxMem=   524288000 cpu:               4.5 elap:               4.9
 (Enter /opt/gaussian/g16_legacy/l502.exe)
 Keep R1 ints in memory in canonical form, NReq=227304434.
 FoFCou: FMM=F IPFlag=           0 FMFlag=           0 FMFlg1=           0
         NFxFlg=           0 DoJE=F BraDBF=F KetDBF=F FulRan=T
         wScrn=  0.000000 ICntrl=       600 IOpCl=  0 I1Cent=           0 NGrid=           0
         NMat0=    1 NMatS0=  21115 NMatT0=    0 NMatD0=    1 NMtDS0=    0 NMtDT0=    0
 Symmetry not used in FoFCou.
 Two-electron integral symmetry not used.
 Closed shell SCF:
 Using DIIS extrapolation, IDIIS=  1040.
 NGot=   524288000 LenX=   301268152 LenY=   301225686
 Requested convergence on RMS density matrix=1.00D-08 within 128 cycles.
 Requested convergence on MAX density matrix=1.00D-06.
 Requested convergence on             energy=1.00D-06.
 No special actions if energy rises.

 Cycle   1  Pass 1  IDiag  1:
 E= -422.490416483262    
 DIIS: error= 5.16D-02 at cycle   1 NSaved=   1.
 NSaved= 1 IEnMin= 1 EnMin= -422.490416483262     IErMin= 1 ErrMin= 5.16D-02
 ErrMax= 5.16D-02  0.00D+00 EMaxC= 1.00D-01 BMatC= 7.20D-01 BMatP= 7.20D-01
 IDIUse=3 WtCom= 4.84D-01 WtEn= 5.16D-01
 Coeff-Com:  0.100D+01
 Coeff-En:   0.100D+01
 Coeff:      0.100D+01
 Gap=     0.607 Goal=   None    Shift=    0.000
 GapD=    0.607 DampG=2.000 DampE=0.500 DampFc=1.0000 IDamp=-1.
 RMSDP=4.04D-03 MaxDP=1.17D-01              OVMax= 1.25D-01

 Cycle   2  Pass 1  IDiag  1:
 E= -422.898492412293     Delta-E=       -0.408075929030 Rises=F Damp=F
 DIIS: error= 1.25D-02 at cycle   2 NSaved=   2.
 NSaved= 2 IEnMin= 2 EnMin= -422.898492412293     IErMin= 2 ErrMin= 1.25D-02
 ErrMax= 1.25D-02  0.00D+00 EMaxC= 1.00D-01 BMatC= 9.44D-02 BMatP= 7.20D-01
 IDIUse=3 WtCom= 8.75D-01 WtEn= 1.25D-01
 Coeff-Com:  0.204D+00 0.796D+00
 Coeff-En:   0.000D+00 0.100D+01
 Coeff:      0.178D+00 0.822D+00
 Gap=     0.614 Goal=   None    Shift=    0.000
 RMSDP=1.44D-03 MaxDP=4.65D-02 DE=-4.08D-01 OVMax= 4.45D-02

 Cycle   3  Pass 1  IDiag  1:
 E= -422.971376963509     Delta-E=       -0.072884551216 Rises=F Damp=F
 DIIS: error= 6.19D-03 at cycle   3 NSaved=   3.
 NSaved= 3 IEnMin= 3 EnMin= -422.971376963509     IErMin= 3 ErrMin= 6.19D-03
 ErrMax= 6.19D-03  0.00D+00 EMaxC= 1.00D-01 BMatC= 7.77D-03 BMatP= 9.44D-02
 IDIUse=3 WtCom= 9.38D-01 WtEn= 6.19D-02
 Coeff-Com: -0.152D-01 0.182D+00 0.833D+00
 Coeff-En:   0.000D+00 0.000D+00 0.100D+01
 Coeff:     -0.143D-01 0.171D+00 0.844D+00
 Gap=     0.586 Goal=   None    Shift=    0.000
 RMSDP=3.80D-04 MaxDP=2.14D-02 DE=-7.29D-02 OVMax= 2.00D-02

 Cycle   4  Pass 1  IDiag  1:
 E= -422.977239077327     Delta-E=       -0.005862113818 Rises=F Damp=F
 DIIS: error= 2.31D-03 at cycle   4 NSaved=   4.
 NSaved= 4 IEnMin= 4 EnMin= -422.977239077327     IErMin= 4 ErrMin= 2.31D-03
 ErrMax= 2.31D-03  0.00D+00 EMaxC= 1.00D-01 BMatC= 9.54D-04 BMatP= 7.77D-03
 IDIUse=3 WtCom= 9.77D-01 WtEn= 2.31D-02
 Coeff-Com: -0.124D-01 0.315D-01 0.323D+00 0.658D+00
 Coeff-En:   0.000D+00 0.000D+00 0.000D+00 0.100D+01
 Coeff:     -0.122D-01 0.308D-01 0.315D+00 0.666D+00
 Gap=     0.587 Goal=   None    Shift=    0.000
 RMSDP=1.23D-04 MaxDP=5.89D-03 DE=-5.86D-03 OVMax= 5.46D-03

 Cycle   5  Pass 1  IDiag  1:
 E= -422.977995055021     Delta-E=       -0.000755977694 Rises=F Damp=F
 DIIS: error= 3.14D-04 at cycle   5 NSaved=   5.
 NSaved= 5 IEnMin= 5 EnMin= -422.977995055021     IErMin= 5 ErrMin= 3.14D-04
 ErrMax= 3.14D-04  0.00D+00 EMaxC= 1.00D-01 BMatC= 2.50D-05 BMatP= 9.54D-04
 IDIUse=3 WtCom= 9.97D-01 WtEn= 3.14D-03
 Coeff-Com:  0.234D-02-0.177D-01-0.927D-01-0.492D-01 0.116D+01
 Coeff-En:   0.000D+00 0.000D+00 0.000D+00 0.000D+00 0.100D+01
 Coeff:      0.233D-02-0.177D-01-0.924D-01-0.490D-01 0.116D+01
 Gap=     0.588 Goal=   None    Shift=    0.000
 RMSDP=4.97D-05 MaxDP=1.71D-03 DE=-7.56D-04 OVMax= 2.99D-03

 Cycle   6  Pass 1  IDiag  1:
 E= -422.978051269897     Delta-E=       -0.000056214877 Rises=F Damp=F
 DIIS: error= 9.71D-05 at cycle   6 NSaved=   6.
 NSaved= 6 IEnMin= 6 EnMin= -422.978051269897     IErMin= 6 ErrMin= 9.71D-05
 ErrMax= 9.71D-05  0.00D+00 EMaxC= 1.00D-01 BMatC= 2.99D-06 BMatP= 2.50D-05
 IDIUse=1 WtCom= 1.00D+00 WtEn= 0.00D+00
 Coeff-Com:  0.123D-02-0.561D-02-0.371D-01-0.651D-01 0.179D+00 0.927D+00
 Coeff:      0.123D-02-0.561D-02-0.371D-01-0.651D-01 0.179D+00 0.927D+00
 Gap=     0.588 Goal=   None    Shift=    0.000
 RMSDP=1.60D-05 MaxDP=5.25D-04 DE=-5.62D-05 OVMax= 8.72D-04

 Cycle   7  Pass 1  IDiag  1:
 E= -422.978057283455     Delta-E=       -0.000006013558 Rises=F Damp=F
 DIIS: error= 4.99D-05 at cycle   7 NSaved=   7.
 NSaved= 7 IEnMin= 7 EnMin= -422.978057283455     IErMin= 7 ErrMin= 4.99D-05
 ErrMax= 4.99D-05  0.00D+00 EMaxC= 1.00D-01 BMatC= 4.42D-07 BMatP= 2.99D-06
 IDIUse=1 WtCom= 1.00D+00 WtEn= 0.00D+00
 Coeff-Com: -0.361D-03 0.246D-02 0.155D-01 0.430D-02-0.134D+00-0.986D-01
 Coeff-Com:  0.121D+01
 Coeff:     -0.361D-03 0.246D-02 0.155D-01 0.430D-02-0.134D+00-0.986D-01
 Coeff:      0.121D+01
 Gap=     0.588 Goal=   None    Shift=    0.000
 RMSDP=7.57D-06 MaxDP=2.45D-04 DE=-6.01D-06 OVMax= 5.49D-04

 Cycle   8  Pass 1  IDiag  1:
 E= -422.978058550606     Delta-E=       -0.000001267151 Rises=F Damp=F
 DIIS: error= 1.68D-05 at cycle   8 NSaved=   8.
 NSaved= 8 IEnMin= 8 EnMin= -422.978058550606     IErMin= 8 ErrMin= 1.68D-05
 ErrMax= 1.68D-05  0.00D+00 EMaxC= 1.00D-01 BMatC= 7.03D-08 BMatP= 4.42D-07
 IDIUse=1 WtCom= 1.00D+00 WtEn= 0.00D+00
 Coeff-Com: -0.201D-03 0.100D-02 0.676D-02 0.680D-02-0.323D-01-0.146D+00
 Coeff-Com:  0.748D-01 0.109D+01
 Coeff:     -0.201D-03 0.100D-02 0.676D-02 0.680D-02-0.323D-01-0.146D+00
 Coeff:      0.748D-01 0.109D+01
 Gap=     0.588 Goal=   None    Shift=    0.000
 RMSDP=3.20D-06 MaxDP=1.16D-04 DE=-1.27D-06 OVMax= 2.17D-04

 Cycle   9  Pass 1  IDiag  1:
 E= -422.978058751377     Delta-E=       -0.000000200771 Rises=F Damp=F
 DIIS: error= 8.04D-06 at cycle   9 NSaved=   9.
 NSaved= 9 IEnMin= 9 EnMin= -422.978058751377     IErMin= 9 ErrMin= 8.04D-06
 ErrMax= 8.04D-06  0.00D+00 EMaxC= 1.00D-01 BMatC= 1.04D-08 BMatP= 7.03D-08
 IDIUse=1 WtCom= 1.00D+00 WtEn= 0.00D+00
 Coeff-Com:  0.228D-04-0.235D-03-0.128D-02-0.137D-03 0.195D-01-0.758D-02
 Coeff-Com: -0.191D+00 0.168D+00 0.101D+01
 Coeff:      0.228D-04-0.235D-03-0.128D-02-0.137D-03 0.195D-01-0.758D-02
 Coeff:     -0.191D+00 0.168D+00 0.101D+01
 Gap=     0.588 Goal=   None    Shift=    0.000
 RMSDP=1.08D-06 MaxDP=3.37D-05 DE=-2.01D-07 OVMax= 6.71D-05

 Cycle  10  Pass 1  IDiag  1:
 E= -422.978058774809     Delta-E=       -0.000000023432 Rises=F Damp=F
 DIIS: error= 2.10D-06 at cycle  10 NSaved=  10.
 NSaved=10 IEnMin=10 EnMin= -422.978058774809     IErMin=10 ErrMin= 2.10D-06
 ErrMax= 2.10D-06  0.00D+00 EMaxC= 1.00D-01 BMatC= 7.34D-10 BMatP= 1.04D-08
 IDIUse=1 WtCom= 1.00D+00 WtEn= 0.00D+00
 Coeff-Com:  0.217D-04-0.115D-03-0.725D-03-0.113D-02 0.353D-02 0.164D-01
 Coeff-Com: -0.325D-02-0.115D+00-0.490D-01 0.115D+01
 Coeff:      0.217D-04-0.115D-03-0.725D-03-0.113D-02 0.353D-02 0.164D-01
 Coeff:     -0.325D-02-0.115D+00-0.490D-01 0.115D+01
 Gap=     0.588 Goal=   None    Shift=    0.000
 RMSDP=2.85D-07 MaxDP=1.16D-05 DE=-2.34D-08 OVMax= 1.53D-05

 Cycle  11  Pass 1  IDiag  1:
 E= -422.978058776631     Delta-E=       -0.000000001822 Rises=F Damp=F
 DIIS: error= 7.64D-07 at cycle  11 NSaved=  11.
 NSaved=11 IEnMin=11 EnMin= -422.978058776631     IErMin=11 ErrMin= 7.64D-07
 ErrMax= 7.64D-07  0.00D+00 EMaxC= 1.00D-01 BMatC= 7.62D-11 BMatP= 7.34D-10
 IDIUse=1 WtCom= 1.00D+00 WtEn= 0.00D+00
 Coeff-Com:  0.360D-06 0.740D-05 0.541D-04-0.128D-03-0.123D-02 0.188D-02
 Coeff-Com:  0.151D-01-0.202D-01-0.101D+00 0.119D+00 0.987D+00
 Coeff:      0.360D-06 0.740D-05 0.541D-04-0.128D-03-0.123D-02 0.188D-02
 Coeff:      0.151D-01-0.202D-01-0.101D+00 0.119D+00 0.987D+00
 Gap=     0.588 Goal=   None    Shift=    0.000
 RMSDP=6.74D-08 MaxDP=2.39D-06 DE=-1.82D-09 OVMax= 2.77D-06

 Cycle  12  Pass 1  IDiag  1:
 E= -422.978058776754     Delta-E=       -0.000000000123 Rises=F Damp=F
 DIIS: error= 1.56D-07 at cycle  12 NSaved=  12.
 NSaved=12 IEnMin=12 EnMin= -422.978058776754     IErMin=12 ErrMin= 1.56D-07
 ErrMax= 1.56D-07  0.00D+00 EMaxC= 1.00D-01 BMatC= 6.32D-12 BMatP= 7.62D-11
 IDIUse=1 WtCom= 1.00D+00 WtEn= 0.00D+00
 Coeff-Com: -0.217D-05 0.115D-04 0.800D-04 0.105D-03-0.423D-03-0.167D-02
 Coeff-Com:  0.620D-03 0.141D-01-0.131D-02-0.119D+00 0.368D-02 0.110D+01
 Coeff:     -0.217D-05 0.115D-04 0.800D-04 0.105D-03-0.423D-03-0.167D-02
 Coeff:      0.620D-03 0.141D-01-0.131D-02-0.119D+00 0.368D-02 0.110D+01
 Gap=     0.588 Goal=   None    Shift=    0.000
 RMSDP=2.55D-08 MaxDP=7.03D-07 DE=-1.23D-10 OVMax= 1.12D-06

 Cycle  13  Pass 1  IDiag  1:
 E= -422.978058776764     Delta-E=       -0.000000000011 Rises=F Damp=F
 DIIS: error= 3.68D-08 at cycle  13 NSaved=  13.
 NSaved=13 IEnMin=13 EnMin= -422.978058776764     IErMin=13 ErrMin= 3.68D-08
 ErrMax= 3.68D-08  0.00D+00 EMaxC= 1.00D-01 BMatC= 4.84D-13 BMatP= 6.32D-12
 IDIUse=1 WtCom= 1.00D+00 WtEn= 0.00D+00
 Coeff-Com:  0.769D-08-0.691D-06-0.355D-05 0.691D-05 0.852D-04-0.106D-03
 Coeff-Com: -0.114D-02 0.161D-02 0.632D-02-0.723D-02-0.749D-01 0.152D-01
 Coeff-Com:  0.106D+01
 Coeff:      0.769D-08-0.691D-06-0.355D-05 0.691D-05 0.852D-04-0.106D-03
 Coeff:     -0.114D-02 0.161D-02 0.632D-02-0.723D-02-0.749D-01 0.152D-01
 Coeff:      0.106D+01
 Gap=     0.588 Goal=   None    Shift=    0.000
 RMSDP=7.00D-09 MaxDP=1.81D-07 DE=-1.09D-11 OVMax= 4.71D-07

 SCF Done:  E(RHF) =  -422.978058777     A.U. after   13 cycles
            NFock= 13  Conv=0.70D-08     -V/T= 2.0022
 KE= 4.220482041935D+02 PE=-1.953505807661D+03 EE= 6.266676418533D+02
 Leave Link  502 at Sun Sep 19 20:02:53 2021, MaxMem=   524288000 cpu:              12.7 elap:              12.8
 (Enter /opt/gaussian/g16_legacy/l801.exe)
 ExpMin= 1.61D-01 ExpMax= 5.48D+03 ExpMxC= 8.25D+02 IAcc=3 IRadAn=         5 AccDes= 0.00D+00
 HarFok:  IExCor=  205 AccDes= 0.00D+00 IRadAn=         5 IDoV=-2 UseB2=F ITyADJ=14
 ICtDFT= 12500011 ScaDFX=  1.000000  1.000000  1.000000  1.000000
 Largest valence mixing into a core orbital is  2.11D-04
 Largest core mixing into a valence orbital is  3.26D-05
 Range of M.O.s used for correlation:    10   205
 NBasis=   205 NAE=    36 NBE=    36 NFC=     9 NFV=     0
 NROrb=    196 NOA=    27 NOB=    27 NVA=   169 NVB=   169
 Leave Link  801 at Sun Sep 19 20:02:54 2021, MaxMem=   524288000 cpu:               0.7 elap:               0.9
 (Enter /opt/gaussian/g16_legacy/l906.exe)
 Frozen-core derivative calculation, NFC=   9 NFV=   0.
 FulOut=F Deriv=T AODrv=T NAtomX=    23
   MMem=         132  MDisk=          27 MDiskD=          27
  W3Min=     1512900 MinDsk=     1927595 NBas6D=         205
 NBas2D=       21400    NTT=       21115    LW2=     2040000
    MDV=   523794709 MDiskM=       35351 NBas2p=       19207
 Fully direct method using O(ONN) memory.
 IMap=   1   2   3   4   5   6   7   8   9  10  11  12  13  14  15  16  17  18  19  20
 IMap=  21  22  23  24  25  26  27  28  29  30  31  32  33  34  35  36
 JobTyp=1 Pass  1:  I=  10 to  36 NPSUse=  1 ParTrn=F ParDer=F DoDerP=T.
 Spin components of T(2) and E(2):
     alpha-alpha T2 =       0.5275468360D-01 E2=     -0.1648273264D+00
     alpha-beta  T2 =       0.3174350377D+00 E2=     -0.1030051136D+01
     beta-beta   T2 =       0.5275468360D-01 E2=     -0.1648273264D+00
 The integrals were generated   1 times.
 ANorm=    0.1192872334D+01
 E2 =    -0.1359705788D+01 EUMP2 =    -0.42433776456502D+03
 Leave Link  906 at Sun Sep 19 20:04:29 2021, MaxMem=   524288000 cpu:              95.3 elap:              95.5
 (Enter /opt/gaussian/g16_legacy/l1002.exe)
 Minotr:  Closed shell wavefunction.
          Computing MP2/KS-MP2 derivatives.
          Using Z-Vector for PSCF gradient.
          Skipping F1 and S1 gradient terms here.
          IDoAtm=11111111111111111111111
          Frozen-core window.
          Direct CPHF calculation.
          Differentiating once with respect to electric field.
                with respect to dipole field.
          Differentiating once with respect to nuclear coordinates.
          Requested convergence is 1.0D-10 RMS, and 1.0D-09 maximum.
          NewPWx=F KeepS1=T KeepF1=T KeepIn=T MapXYZ=F SortEE=F KeepMc=T.
 Keep R1 ints in memory in canonical form, NReq=227306992.
 FoFCou: FMM=F IPFlag=           0 FMFlag=           0 FMFlg1=           0
         NFxFlg=           0 DoJE=F BraDBF=F KetDBF=F FulRan=T
         wScrn=  0.000000 ICntrl=       600 IOpCl=  0 I1Cent=           0 NGrid=           0
         NMat0=    1 NMatS0=  21115 NMatT0=    0 NMatD0=    1 NMtDS0=    0 NMtDT0=    0
 Symmetry not used in FoFCou.
 Two-electron integral symmetry not used.
          MDV=     524288000 using IRadAn=       5.
          Solving linear equations separately, MaxMat=       0.
          There are     1 degrees of freedom in the 1st order CPHF.  IDoFFX=0 NUNeed=     1.
 LinEq1:  Iter=  0 NonCon=     1 RMS=3.67D-03 Max=9.34D-02 NDo=     1
 AX will form     1 AO Fock derivatives at one time.
 LinEq1:  Iter=  1 NonCon=     1 RMS=1.18D-03 Max=1.68D-02 NDo=     1
 LinEq1:  Iter=  2 NonCon=     1 RMS=3.77D-04 Max=7.10D-03 NDo=     1
 LinEq1:  Iter=  3 NonCon=     1 RMS=1.56D-04 Max=3.50D-03 NDo=     1
 LinEq1:  Iter=  4 NonCon=     1 RMS=5.10D-05 Max=9.61D-04 NDo=     1
 LinEq1:  Iter=  5 NonCon=     1 RMS=2.24D-05 Max=2.61D-04 NDo=     1
 LinEq1:  Iter=  6 NonCon=     1 RMS=5.94D-06 Max=1.18D-04 NDo=     1
 LinEq1:  Iter=  7 NonCon=     1 RMS=1.69D-06 Max=2.68D-05 NDo=     1
 LinEq1:  Iter=  8 NonCon=     1 RMS=5.91D-07 Max=1.17D-05 NDo=     1
 LinEq1:  Iter=  9 NonCon=     1 RMS=1.41D-07 Max=2.03D-06 NDo=     1
 LinEq1:  Iter= 10 NonCon=     1 RMS=4.17D-08 Max=7.91D-07 NDo=     1
 LinEq1:  Iter= 11 NonCon=     1 RMS=1.33D-08 Max=3.97D-07 NDo=     1
 LinEq1:  Iter= 12 NonCon=     1 RMS=4.28D-09 Max=1.23D-07 NDo=     1
 LinEq1:  Iter= 13 NonCon=     1 RMS=1.24D-09 Max=2.73D-08 NDo=     1
 LinEq1:  Iter= 14 NonCon=     1 RMS=3.19D-10 Max=5.33D-09 NDo=     1
 LinEq1:  Iter= 15 NonCon=     1 RMS=9.45D-11 Max=1.24D-09 NDo=     1
 LinEq1:  Iter= 16 NonCon=     0 RMS=2.65D-11 Max=5.07D-10 NDo=     1
 Linear equations converged to 1.000D-10 1.000D-09 after    16 iterations.
 End of Minotr F.D. properties file   721 does not exist.
 End of Minotr F.D. properties file   722 does not exist.
 End of Minotr F.D. properties file   788 does not exist.
 Leave Link 1002 at Sun Sep 19 20:04:44 2021, MaxMem=   524288000 cpu:              14.4 elap:              14.7
 (Enter /opt/gaussian/g16_legacy/l601.exe)
 Copying SCF densities to generalized density rwf, IOpCl= 0 IROHF=0.

 **********************************************************************

            Population analysis using the SCF density.

 **********************************************************************

 Orbital symmetries:
       Occupied  (A) (A) (A) (A) (A) (A) (A) (A) (A) (A) (A) (A)
                 (A) (A) (A) (A) (A) (A) (A) (A) (A) (A) (A) (A)
                 (A) (A) (A) (A) (A) (A) (A) (A) (A) (A) (A) (A)
       Virtual   (A) (A) (A) (A) (A) (A) (A) (A) (A) (A) (A) (A)
                 (A) (A) (A) (A) (A) (A) (A) (A) (A) (A) (A) (A)
                 (A) (A) (A) (A) (A) (A) (A) (A) (A) (A) (A) (A)
                 (A) (A) (A) (A) (A) (A) (A) (A) (A) (A) (A) (A)
                 (A) (A) (A) (A) (A) (A) (A) (A) (A) (A) (A) (A)
                 (A) (A) (A) (A) (A) (A) (A) (A) (A) (A) (A) (A)
                 (A) (A) (A) (A) (A) (A) (A) (A) (A) (A) (A) (A)
                 (A) (A) (A) (A) (A) (A) (A) (A) (A) (A) (A) (A)
                 (A) (A) (A) (A) (A) (A) (A) (A) (A) (A) (A) (A)
                 (A) (A) (A) (A) (A) (A) (A) (A) (A) (A) (A) (A)
                 (A) (A) (A) (A) (A) (A) (A) (A) (A) (A) (A) (A)
                 (A) (A) (A) (A) (A) (A) (A) (A) (A) (A) (A) (A)
                 (A) (A) (A) (A) (A) (A) (A) (A) (A) (A) (A) (A)
                 (A) (A) (A) (A) (A) (A) (A) (A) (A) (A) (A) (A)
                 (A)
 The electronic state is 1-A.
 Alpha  occ. eigenvalues --  -20.59638 -20.55206 -11.38587 -11.29963 -11.23886
 Alpha  occ. eigenvalues --  -11.22893 -11.21784 -11.21661 -11.21565  -1.44133
 Alpha  occ. eigenvalues --   -1.34977  -1.09075  -1.02195  -1.01351  -0.92734
 Alpha  occ. eigenvalues --   -0.83939  -0.82007  -0.75527  -0.68377  -0.66769
 Alpha  occ. eigenvalues --   -0.65020  -0.61408  -0.60611  -0.59760  -0.57954
 Alpha  occ. eigenvalues --   -0.56263  -0.55461  -0.53801  -0.51083  -0.50116
 Alpha  occ. eigenvalues --   -0.49448  -0.48676  -0.48036  -0.46397  -0.43860
 Alpha  occ. eigenvalues --   -0.41956
 Alpha virt. eigenvalues --    0.16893   0.22665   0.24300   0.25303   0.26907
 Alpha virt. eigenvalues --    0.28300   0.29887   0.30713   0.31204   0.31956
 Alpha virt. eigenvalues --    0.33018   0.33581   0.33911   0.34660   0.36956
 Alpha virt. eigenvalues --    0.39046   0.41258   0.42400   0.43003   0.43424
 Alpha virt. eigenvalues --    0.45493   0.50650   0.56032   0.69772   0.71237
 Alpha virt. eigenvalues --    0.71319   0.73826   0.75031   0.75869   0.77634
 Alpha virt. eigenvalues --    0.78086   0.80072   0.81652   0.84360   0.88419
 Alpha virt. eigenvalues --    0.90050   0.92267   0.92533   0.93423   0.95562
 Alpha virt. eigenvalues --    1.03159   1.03913   1.05421   1.07715   1.08955
 Alpha virt. eigenvalues --    1.10058   1.11562   1.12685   1.12862   1.14305
 Alpha virt. eigenvalues --    1.14762   1.15217   1.16134   1.17144   1.18211
 Alpha virt. eigenvalues --    1.19139   1.20776   1.22312   1.24494   1.24851
 Alpha virt. eigenvalues --    1.26086   1.32622   1.34532   1.41075   1.43370
 Alpha virt. eigenvalues --    1.45979   1.51840   1.54090   1.56989   1.61728
 Alpha virt. eigenvalues --    1.62020   1.69783   1.72273   1.76396   1.78040
 Alpha virt. eigenvalues --    1.81775   1.86500   1.88395   1.94099   1.96865
 Alpha virt. eigenvalues --    1.98694   1.99511   2.00546   2.02331   2.08478
 Alpha virt. eigenvalues --    2.09265   2.10564   2.15536   2.16453   2.19535
 Alpha virt. eigenvalues --    2.19722   2.22300   2.26019   2.28686   2.31125
 Alpha virt. eigenvalues --    2.32440   2.34739   2.35606   2.36149   2.36839
 Alpha virt. eigenvalues --    2.37676   2.39075   2.39768   2.40227   2.42450
 Alpha virt. eigenvalues --    2.43673   2.45331   2.50295   2.50528   2.55081
 Alpha virt. eigenvalues --    2.57546   2.58736   2.60146   2.61535   2.63120
 Alpha virt. eigenvalues --    2.64996   2.68364   2.69266   2.78345   2.80035
 Alpha virt. eigenvalues --    2.83909   2.85855   2.88863   2.90751   2.94244
 Alpha virt. eigenvalues --    2.95366   2.98863   3.01881   3.04195   3.05911
 Alpha virt. eigenvalues --    3.07545   3.09753   3.11318   3.13476   3.15242
 Alpha virt. eigenvalues --    3.18810   3.21374   3.23004   3.23959   3.24504
 Alpha virt. eigenvalues --    3.25677   3.26840   3.29351   3.36575   3.44587
 Alpha virt. eigenvalues --    3.47166   3.55776   3.56818   3.58704   3.64695
 Alpha virt. eigenvalues --    3.68770   3.72120   3.76996   3.78266   3.80924
 Alpha virt. eigenvalues --    3.81309   3.85265   3.86696   3.93644   3.95304
 Alpha virt. eigenvalues --    4.43417   4.59809   4.65641   4.76730   4.83215
 Alpha virt. eigenvalues --    4.94944   5.00628   5.04612   5.15135
          Condensed to atoms (all electrons):
               1          2          3          4          5          6
     1  C    4.969550   0.399228   0.397912   0.407555   0.307889  -0.037704
     2  H    0.399228   0.593708  -0.031259  -0.027943  -0.042316   0.004392
     3  H    0.397912  -0.031259   0.596415  -0.029478  -0.036632  -0.003421
     4  H    0.407555  -0.027943  -0.029478   0.564791  -0.035518  -0.002598
     5  C    0.307889  -0.042316  -0.036632  -0.035518   5.021855   0.402245
     6  H   -0.037704   0.004392  -0.003421  -0.002598   0.402245   0.572864
     7  H   -0.046121  -0.002963   0.004402  -0.004805   0.420299  -0.025401
     8  C   -0.047407  -0.004306  -0.004533   0.003982   0.367407  -0.037109
     9  H   -0.000398   0.003468   0.000143  -0.000154  -0.055376   0.004704
    10  C   -0.005428  -0.000138   0.000217   0.000051  -0.060363  -0.006818
    11  H    0.000352   0.000048   0.000426  -0.000043  -0.004973   0.003154
    12  H   -0.002107   0.000387  -0.003182   0.000149  -0.004035   0.000482
    13  C   -0.000005  -0.000049   0.000014   0.000002   0.004414  -0.000126
    14  H   -0.000000  -0.000001   0.000011  -0.000000  -0.000040   0.000002
    15  H   -0.000001   0.000000   0.000005  -0.000000  -0.000080  -0.000002
    16  H   -0.000006   0.000000  -0.000003   0.000000  -0.000044   0.000009
    17  O    0.002046  -0.000009  -0.000037  -0.000032  -0.031545   0.000830
    18  C    0.000258   0.000003  -0.000009  -0.000005  -0.005466  -0.000138
    19  O    0.000499   0.000005  -0.000008   0.000005  -0.009095   0.000557
    20  C    0.000014  -0.000000  -0.000000  -0.000000   0.000091   0.000008
    21  H   -0.000001  -0.000000   0.000000   0.000000   0.000026  -0.000000
    22  H   -0.000000   0.000000   0.000000   0.000000  -0.000011   0.000000
    23  H   -0.000000  -0.000000   0.000000   0.000000   0.000004  -0.000001
               7          8          9         10         11         12
     1  C   -0.046121  -0.047407  -0.000398  -0.005428   0.000352  -0.002107
     2  H   -0.002963  -0.004306   0.003468  -0.000138   0.000048   0.000387
     3  H    0.004402  -0.004533   0.000143   0.000217   0.000426  -0.003182
     4  H   -0.004805   0.003982  -0.000154   0.000051  -0.000043   0.000149
     5  C    0.420299   0.367407  -0.055376  -0.060363  -0.004973  -0.004035
     6  H   -0.025401  -0.037109   0.004704  -0.006818   0.003154   0.000482
     7  H    0.525032  -0.033941  -0.002316   0.004022  -0.000000  -0.000060
     8  C   -0.033941   4.742201   0.416387   0.366390  -0.038746  -0.036203
     9  H   -0.002316   0.416387   0.614943  -0.050036   0.004782   0.000054
    10  C    0.004022   0.366390  -0.050036   4.999209   0.403528   0.408109
    11  H   -0.000000  -0.038746   0.004782   0.403528   0.577375  -0.027821
    12  H   -0.000060  -0.036203   0.000054   0.408109  -0.027821   0.584242
    13  C   -0.000087  -0.049912  -0.005107   0.334312  -0.042365  -0.042732
    14  H    0.000002  -0.004241   0.002837  -0.041592   0.004559  -0.002832
    15  H    0.000001   0.004490  -0.000124  -0.039439  -0.003034  -0.004349
    16  H   -0.000002  -0.005355   0.000385  -0.035839  -0.003143   0.004357
    17  O   -0.001450   0.156993  -0.043675  -0.048425   0.000666   0.002360
    18  C    0.000714  -0.016495  -0.002948   0.001976  -0.000078  -0.000026
    19  O   -0.001088  -0.001078   0.000332  -0.000190  -0.000006   0.000002
    20  C   -0.000004   0.001118   0.000428  -0.000254   0.000002   0.000004
    21  H   -0.000013  -0.000211   0.000335  -0.000001   0.000000  -0.000000
    22  H   -0.000001   0.000180   0.000033  -0.000012   0.000001   0.000000
    23  H    0.000006  -0.000051  -0.000030   0.000002  -0.000000  -0.000000
              13         14         15         16         17         18
     1  C   -0.000005  -0.000000  -0.000001  -0.000006   0.002046   0.000258
     2  H   -0.000049  -0.000001   0.000000   0.000000  -0.000009   0.000003
     3  H    0.000014   0.000011   0.000005  -0.000003  -0.000037  -0.000009
     4  H    0.000002  -0.000000  -0.000000   0.000000  -0.000032  -0.000005
     5  C    0.004414  -0.000040  -0.000080  -0.000044  -0.031545  -0.005466
     6  H   -0.000126   0.000002  -0.000002   0.000009   0.000830  -0.000138
     7  H   -0.000087   0.000002   0.000001  -0.000002  -0.001450   0.000714
     8  C   -0.049912  -0.004241   0.004490  -0.005355   0.156993  -0.016495
     9  H   -0.005107   0.002837  -0.000124   0.000385  -0.043675  -0.002948
    10  C    0.334312  -0.041592  -0.039439  -0.035839  -0.048425   0.001976
    11  H   -0.042365   0.004559  -0.003034  -0.003143   0.000666  -0.000078
    12  H   -0.042732  -0.002832  -0.004349   0.004357   0.002360  -0.000026
    13  C    4.923674   0.400031   0.404747   0.404531  -0.000230  -0.000135
    14  H    0.400031   0.594165  -0.029745  -0.027817   0.000067  -0.000032
    15  H    0.404747  -0.029745   0.585699  -0.029414   0.000046   0.000004
    16  H    0.404531  -0.027817  -0.029414   0.557963   0.003210   0.000011
    17  O   -0.000230   0.000067   0.000046   0.003210   8.540521   0.245649
    18  C   -0.000135  -0.000032   0.000004   0.000011   0.245649   4.164309
    19  O    0.000005   0.000000   0.000000   0.000002  -0.065338   0.563125
    20  C   -0.000004   0.000007  -0.000000   0.000014  -0.095212   0.376122
    21  H    0.000001   0.000002   0.000000  -0.000001   0.000907  -0.028352
    22  H    0.000006   0.000001  -0.000000   0.000071   0.001986  -0.032669
    23  H    0.000001  -0.000000   0.000000  -0.000001   0.003733  -0.038128
              19         20         21         22         23
     1  C    0.000499   0.000014  -0.000001  -0.000000  -0.000000
     2  H    0.000005  -0.000000  -0.000000   0.000000  -0.000000
     3  H   -0.000008  -0.000000   0.000000   0.000000   0.000000
     4  H    0.000005  -0.000000   0.000000   0.000000   0.000000
     5  C   -0.009095   0.000091   0.000026  -0.000011   0.000004
     6  H    0.000557   0.000008  -0.000000   0.000000  -0.000001
     7  H   -0.001088  -0.000004  -0.000013  -0.000001   0.000006
     8  C   -0.001078   0.001118  -0.000211   0.000180  -0.000051
     9  H    0.000332   0.000428   0.000335   0.000033  -0.000030
    10  C   -0.000190  -0.000254  -0.000001  -0.000012   0.000002
    11  H   -0.000006   0.000002   0.000000   0.000001  -0.000000
    12  H    0.000002   0.000004  -0.000000   0.000000  -0.000000
    13  C    0.000005  -0.000004   0.000001   0.000006   0.000001
    14  H    0.000000   0.000007   0.000002   0.000001  -0.000000
    15  H    0.000000  -0.000000   0.000000  -0.000000   0.000000
    16  H    0.000002   0.000014  -0.000001   0.000071  -0.000001
    17  O   -0.065338  -0.095212   0.000907   0.001986   0.003733
    18  C    0.563125   0.376122  -0.028352  -0.032669  -0.038128
    19  O    8.142509  -0.072564  -0.000130   0.002156   0.003199
    20  C   -0.072564   5.024150   0.389696   0.387640   0.391157
    21  H   -0.000130   0.389696   0.527002  -0.020551  -0.020692
    22  H    0.002156   0.387640  -0.020551   0.537027  -0.025979
    23  H    0.003199   0.391157  -0.020692  -0.025979   0.533506
 Mulliken charges:
               1
     1  C   -0.346127
     2  H    0.107744
     3  H    0.109017
     4  H    0.124041
     5  C   -0.238737
     6  H    0.124069
     7  H    0.163773
     8  C    0.220440
     9  H    0.111334
    10  C   -0.229282
    11  H    0.125316
    12  H    0.123202
    13  C   -0.330985
    14  H    0.104616
    15  H    0.111195
    16  H    0.131071
    17  O   -0.673062
    18  C    0.772311
    19  O   -0.562900
    20  C   -0.402413
    21  H    0.151984
    22  H    0.150121
    23  H    0.153273
 Sum of Mulliken charges =   0.00000
 Mulliken charges with hydrogens summed into heavy atoms:
               1
     1  C   -0.005325
     5  C    0.049105
     8  C    0.331773
    10  C    0.019236
    13  C    0.015896
    17  O   -0.673062
    18  C    0.772311
    19  O   -0.562900
    20  C    0.052965
 Electronic spatial extent (au):  <R**2>=           1563.7945
 Charge=              0.0000 electrons
 Dipole moment (field-independent basis, Debye):
    X=              0.9744    Y=              1.7245    Z=              1.5073  Tot=              2.4890
 Quadrupole moment (field-independent basis, Debye-Ang):
   XX=            -54.7137   YY=            -60.8533   ZZ=            -56.1649
   XY=             -5.3826   XZ=             -2.8059   YZ=             -1.1910
 Traceless Quadrupole moment (field-independent basis, Debye-Ang):
   XX=              2.5303   YY=             -3.6093   ZZ=              1.0791
   XY=             -5.3826   XZ=             -2.8059   YZ=             -1.1910
 Octapole moment (field-independent basis, Debye-Ang**2):
  XXX=            -19.8195  YYY=             -1.3486  ZZZ=             -0.9125  XYY=              3.8130
  XXY=             14.8953  XXZ=              2.2888  XZZ=             -4.5740  YZZ=              0.3210
  YYZ=             -0.4446  XYZ=              2.7585
 Hexadecapole moment (field-independent basis, Debye-Ang**3):
 XXXX=          -1157.7207 YYYY=           -769.3187 ZZZZ=           -132.0231 XXXY=            -13.0451
 XXXZ=             -9.3237 YYYX=            -12.1699 YYYZ=             -3.4669 ZZZX=             -0.9513
 ZZZY=              3.2895 XXYY=           -342.3914 XXZZ=           -222.1283 YYZZ=           -153.4056
 XXYZ=             -4.9204 YYXZ=             -5.3622 ZZXY=              1.0859
 N-N= 4.818119028375D+02 E-N=-1.953505805692D+03  KE= 4.220482041935D+02
 No NMR shielding tensors so no spin-rotation constants.
 Leave Link  601 at Sun Sep 19 20:04:44 2021, MaxMem=   524288000 cpu:               0.2 elap:               0.4
 (Enter /opt/gaussian/g16_legacy/l701.exe)
 ... and contract with generalized density number  2.
 Compute integral first derivatives.
 Leave Link  701 at Sun Sep 19 20:04:45 2021, MaxMem=   524288000 cpu:               0.2 elap:               0.3
 (Enter /opt/gaussian/g16_legacy/l702.exe)
 L702 exits ... SP integral derivatives will be done elsewhere.
 Leave Link  702 at Sun Sep 19 20:04:45 2021, MaxMem=   524288000 cpu:               0.0 elap:               0.0
 (Enter /opt/gaussian/g16_legacy/l703.exe)
 Integral derivatives from FoFJK, PRISM(SPDF).
 Compute integral first derivatives, UseDBF=F ICtDFT=           0.
 Calling FoFJK, ICntrl=  10002127 FMM=F ISym2X=0 I1Cent= 0 IOpClX= 0 NMat=1 NMatS=1 NMatT=0.
 FoFJK:  IHMeth= 1 ICntrl=10002127 DoSepK=F KAlg= 0 I1Cent=           0 FoldK=F
 IRaf=         0 NMat=       1 IRICut=       1 DoRegI=T DoRafI=F ISym2E= 0 IDoP0=0 IntGTp=1.
 FoFCou: FMM=F IPFlag=           0 FMFlag=      100000 FMFlg1=         800
         NFxFlg=           0 DoJE=F BraDBF=F KetDBF=F FulRan=T
         wScrn=  0.000000 ICntrl=  10002127 IOpCl=  0 I1Cent=           0 NGrid=           0
         NMat0=    1 NMatS0=      1 NMatT0=    0 NMatD0=    1 NMtDS0=    0 NMtDT0=    0
 Symmetry not used in FoFCou.
 Leave Link  703 at Sun Sep 19 20:04:59 2021, MaxMem=   524288000 cpu:              13.2 elap:              13.4
 (Enter /opt/gaussian/g16_legacy/l716.exe)
 Dipole        = 3.69123486D-01 5.26275151D-01 5.00381551D-01
 ***** Axes restored to original set *****
 -------------------------------------------------------------------
 Center     Atomic                   Forces (Hartrees/Bohr)
 Number     Number              X              Y              Z
 -------------------------------------------------------------------
      1        6           0.000587651    0.007168427    0.006709488
      2        1          -0.000953619    0.000110290    0.002314116
      3        1          -0.001736390   -0.000030169   -0.004207662
      4        1           0.004318590   -0.000226796   -0.000390371
      5        6          -0.004310905   -0.005843061   -0.008084496
      6        1           0.003687538    0.001095859   -0.002026800
      7        1           0.005448628   -0.002030957    0.004262720
      8        6          -0.012761829    0.013625047    0.014596552
      9        1          -0.001004464    0.001036498   -0.001393218
     10        6           0.004818259   -0.006234894   -0.002945425
     11        1          -0.003420945    0.000249352   -0.004145686
     12        1          -0.003322158   -0.005856566   -0.003485650
     13        6           0.005013835   -0.001307768    0.001512343
     14        1           0.000004142   -0.001817915    0.001542846
     15        1          -0.000349609   -0.001750685   -0.003571735
     16        1          -0.001622694    0.003271494   -0.002045739
     17        8           0.002637041    0.006967986    0.009771895
     18        6          -0.012835303   -0.002083342   -0.014772211
     19        8           0.009354305    0.002239667    0.005562527
     20        6           0.005120579   -0.020105316    0.000630892
     21        1           0.001802121   -0.000275219    0.003220542
     22        1          -0.001355865    0.005510461   -0.003709807
     23        1           0.000881092    0.006287608    0.000654879
 -------------------------------------------------------------------
 Cartesian Forces:  Max     0.020105316 RMS     0.005793121
 Leave Link  716 at Sun Sep 19 20:04:59 2021, MaxMem=   524288000 cpu:               0.0 elap:               0.2
 (Enter /opt/gaussian/g16_legacy/l103.exe)

 GradGradGradGradGradGradGradGradGradGradGradGradGradGradGradGradGradGrad
 Berny optimization.
 FormGI is forming the generalized inverse of G from B-inverse, IUseBI=4.
 Internal  Forces:  Max     0.017563842 RMS     0.004239124
 Search for a local minimum.
 Step number   1 out of a maximum of  119
 All quantities printed in internal units (Hartrees-Bohrs-Radians)
 RMS Force = .42391D-02 SwitMx=.10000D-02 MixMth= 1
 Mixed Optimization -- RFO/linear search
 Second derivative matrix not updated -- first step.
 ITU=  0
     Eigenvalues ---    0.00230   0.00235   0.00465   0.00486   0.00810
     Eigenvalues ---    0.01017   0.01208   0.02245   0.03397   0.03450
     Eigenvalues ---    0.04122   0.04648   0.04787   0.04809   0.05500
     Eigenvalues ---    0.05510   0.05735   0.05765   0.07140   0.07413
     Eigenvalues ---    0.07631   0.08431   0.08586   0.12274   0.12376
     Eigenvalues ---    0.16000   0.16000   0.16000   0.16000   0.16000
     Eigenvalues ---    0.16000   0.16000   0.16000   0.16000   0.16598
     Eigenvalues ---    0.20296   0.21901   0.21973   0.24959   0.25000
     Eigenvalues ---    0.25000   0.28100   0.28506   0.30103   0.30252
     Eigenvalues ---    0.32727   0.34073   0.34093   0.34103   0.34127
     Eigenvalues ---    0.34183   0.34193   0.34246   0.34300   0.34374
     Eigenvalues ---    0.34375   0.34429   0.34473   0.34528   0.34645
     Eigenvalues ---    0.38116   0.53321   0.93617
 RFO step:  Lambda=-1.35227260D-02 EMin= 2.30000000D-03
 Linear search not attempted -- first point.
 Iteration  1 RMS(Cart)=  0.19783031 RMS(Int)=  0.01401129
 Iteration  2 RMS(Cart)=  0.03592299 RMS(Int)=  0.00133999
 Iteration  3 RMS(Cart)=  0.00125378 RMS(Int)=  0.00117535
 Iteration  4 RMS(Cart)=  0.00000233 RMS(Int)=  0.00117535
 Iteration  5 RMS(Cart)=  0.00000001 RMS(Int)=  0.00117535
 ITry= 1 IFail=0 DXMaxC= 8.10D-01 DCOld= 1.00D+10 DXMaxT= 3.00D-01 DXLimC= 3.00D+00 Rises=F
 Variable       Old X    -DE/DX   Delta X   Delta X   Delta X     New X
                                 (Linear)    (Quad)   (Total)
    R1        2.06704  -0.00213   0.00000  -0.00597  -0.00597   2.06107
    R2        2.06826  -0.00389   0.00000  -0.01091  -0.01091   2.05735
    R3        2.06917  -0.00429   0.00000  -0.01206  -0.01206   2.05710
    R4        2.87465   0.00567   0.00000   0.01794   0.01794   2.89259
    R5        2.07157  -0.00336   0.00000  -0.00948  -0.00948   2.06210
    R6        2.06448  -0.00465   0.00000  -0.01297  -0.01297   2.05151
    R7        2.91045  -0.00709   0.00000  -0.02376  -0.02376   2.88669
    R8        2.07117   0.00134   0.00000   0.00379   0.00379   2.07496
    R9        2.91921  -0.01589   0.00000  -0.05394  -0.05394   2.86527
   R10        2.74197   0.00340   0.00000   0.00862   0.00862   2.75059
   R11        2.07173  -0.00249   0.00000  -0.00701  -0.00701   2.06472
   R12        2.07206  -0.00481   0.00000  -0.01357  -0.01357   2.05849
   R13        2.87759   0.00303   0.00000   0.00964   0.00964   2.88723
   R14        2.06612  -0.00209   0.00000  -0.00584  -0.00584   2.06028
   R15        2.07023  -0.00385   0.00000  -0.01083  -0.01083   2.05939
   R16        2.06540  -0.00372   0.00000  -0.01038  -0.01038   2.05501
   R17        2.56656   0.00985   0.00000   0.01801   0.01801   2.58456
   R18        2.31309  -0.01023   0.00000  -0.01077  -0.01077   2.30232
   R19        2.82834   0.00724   0.00000   0.02124   0.02124   2.84957
   R20        2.06255  -0.00204   0.00000  -0.00566  -0.00566   2.05689
   R21        2.06701  -0.00436   0.00000  -0.01219  -0.01219   2.05482
   R22        2.07005  -0.00581   0.00000  -0.01634  -0.01634   2.05371
    A1        1.89543  -0.00219   0.00000  -0.01148  -0.01157   1.88386
    A2        1.88394  -0.00042   0.00000  -0.00561  -0.00560   1.87834
    A3        1.92872   0.00112   0.00000   0.00547   0.00542   1.93414
    A4        1.87494  -0.00072   0.00000  -0.00218  -0.00216   1.87278
    A5        1.95747   0.00324   0.00000   0.02028   0.02024   1.97771
    A6        1.92105  -0.00123   0.00000  -0.00766  -0.00764   1.91341
    A7        1.93186   0.00105   0.00000   0.00040  -0.00015   1.93171
    A8        1.84274   0.00550   0.00000   0.05511   0.05508   1.89782
    A9        1.97425  -0.00300   0.00000  -0.01315  -0.01324   1.96101
   A10        1.85589  -0.00042   0.00000   0.00099   0.00036   1.85625
   A11        1.92335  -0.00055   0.00000  -0.02380  -0.02407   1.89928
   A12        1.93066  -0.00223   0.00000  -0.01579  -0.01582   1.91485
   A13        1.90493  -0.00350   0.00000   0.00418   0.00370   1.90863
   A14        1.92638   0.00811   0.00000   0.02997   0.03012   1.95651
   A15        2.01360   0.00518   0.00000   0.02594   0.02612   2.03973
   A16        1.88866   0.00023   0.00000   0.00142   0.00107   1.88973
   A17        1.84509   0.00278   0.00000   0.01752   0.01672   1.86181
   A18        1.88016  -0.01330   0.00000  -0.08115  -0.08109   1.79907
   A19        1.91401  -0.00162   0.00000  -0.02501  -0.02490   1.88910
   A20        1.91869  -0.00264   0.00000  -0.03154  -0.03138   1.88731
   A21        1.99557  -0.00388   0.00000  -0.01680  -0.01650   1.97907
   A22        1.87208  -0.00039   0.00000   0.00203   0.00039   1.87247
   A23        1.88812   0.00392   0.00000   0.03278   0.03229   1.92041
   A24        1.87098   0.00499   0.00000   0.04169   0.04120   1.91218
   A25        1.93712   0.00069   0.00000   0.00141   0.00136   1.93848
   A26        1.91269   0.00175   0.00000   0.01412   0.01409   1.92679
   A27        1.94757  -0.00091   0.00000  -0.00681  -0.00684   1.94073
   A28        1.88274  -0.00081   0.00000  -0.00171  -0.00175   1.88099
   A29        1.90111  -0.00098   0.00000  -0.01301  -0.01306   1.88805
   A30        1.88061   0.00024   0.00000   0.00620   0.00620   1.88680
   A31        2.08580   0.01756   0.00000   0.06665   0.06665   2.15245
   A32        2.20512  -0.00452   0.00000  -0.01287  -0.01944   2.18568
   A33        1.92979   0.00088   0.00000   0.00741   0.00072   1.93051
   A34        2.14602   0.00399   0.00000   0.01902   0.01216   2.15818
   A35        1.90219  -0.00140   0.00000  -0.01609  -0.01618   1.88602
   A36        1.93292   0.00124   0.00000   0.00710   0.00679   1.93971
   A37        1.90651   0.00104   0.00000   0.01399   0.01380   1.92031
   A38        1.92914  -0.00333   0.00000  -0.03434  -0.03455   1.89460
   A39        1.90500   0.00013   0.00000   0.00077   0.00080   1.90580
   A40        1.88776   0.00237   0.00000   0.02933   0.02894   1.91670
    D1        3.12761  -0.00157   0.00000  -0.02676  -0.02686   3.10074
    D2       -1.15420   0.00143   0.00000   0.00456   0.00469  -1.14951
    D3        0.95939   0.00059   0.00000   0.01415   0.01419   0.97359
    D4        1.00998  -0.00178   0.00000  -0.02984  -0.02999   0.97998
    D5        3.01136   0.00121   0.00000   0.00148   0.00156   3.01292
    D6       -1.15824   0.00037   0.00000   0.01107   0.01107  -1.14717
    D7       -1.07636  -0.00216   0.00000  -0.03512  -0.03524  -1.11160
    D8        0.92502   0.00084   0.00000  -0.00380  -0.00369   0.92133
    D9        3.03861  -0.00000   0.00000   0.00579   0.00582   3.04443
   D10       -0.95085  -0.00144   0.00000  -0.04027  -0.04015  -0.99100
   D11        1.12270   0.00156   0.00000  -0.01797  -0.01776   1.10494
   D12       -3.02453  -0.00586   0.00000  -0.08293  -0.08282  -3.10734
   D13       -3.12370  -0.00017   0.00000  -0.01273  -0.01280  -3.13650
   D14       -1.05015   0.00282   0.00000   0.00958   0.00960  -1.04055
   D15        1.08581  -0.00460   0.00000  -0.05539  -0.05546   1.03034
   D16        1.11225   0.00204   0.00000   0.01025   0.01012   1.12236
   D17       -3.09739   0.00503   0.00000   0.03256   0.03251  -3.06488
   D18       -0.96143  -0.00238   0.00000  -0.03241  -0.03255  -0.99398
   D19        1.03359  -0.00090   0.00000  -0.03581  -0.03581   0.99778
   D20       -1.02061   0.00210   0.00000  -0.00460  -0.00479  -1.02540
   D21       -3.12572   0.00026   0.00000  -0.02370  -0.02381   3.13366
   D22        3.11703  -0.00027   0.00000  -0.01227  -0.01233   3.10470
   D23        1.06282   0.00274   0.00000   0.01894   0.01869   1.08152
   D24       -1.04228   0.00090   0.00000  -0.00017  -0.00033  -1.04261
   D25       -1.17890  -0.00358   0.00000  -0.03185  -0.03150  -1.21040
   D26        3.05008  -0.00058   0.00000  -0.00064  -0.00048   3.04961
   D27        0.94498  -0.00241   0.00000  -0.01974  -0.01950   0.92548
   D28        0.82245   0.00185   0.00000   0.13473   0.13502   0.95747
   D29       -1.28410   0.00112   0.00000   0.10107   0.10081  -1.18329
   D30        2.98291   0.00567   0.00000   0.12856   0.12853   3.11144
   D31        0.99478  -0.00065   0.00000  -0.00202  -0.00204   0.99274
   D32        3.07244  -0.00012   0.00000   0.00573   0.00572   3.07817
   D33       -1.12920   0.00075   0.00000   0.01839   0.01836  -1.11084
   D34        3.13280  -0.00245   0.00000  -0.02122  -0.02165   3.11115
   D35       -1.07272  -0.00192   0.00000  -0.01347  -0.01389  -1.08661
   D36        1.00883  -0.00105   0.00000  -0.00082  -0.00125   1.00757
   D37       -1.13662   0.00160   0.00000   0.01875   0.01919  -1.11743
   D38        0.94104   0.00213   0.00000   0.02650   0.02696   0.96800
   D39        3.02259   0.00300   0.00000   0.03916   0.03959   3.06218
   D40       -0.85437   0.00300   0.00000   0.05659   0.05853  -0.79584
   D41        2.21631   0.00874   0.00000   0.26982   0.26788   2.48418
   D42       -1.38043  -0.00094   0.00000  -0.07557  -0.07604  -1.45647
   D43        0.74540  -0.00521   0.00000  -0.12442  -0.12486   0.62054
   D44        2.82278  -0.00088   0.00000  -0.07522  -0.07542   2.74735
   D45        1.69308   0.00417   0.00000   0.12759   0.12786   1.82094
   D46       -2.46427  -0.00010   0.00000   0.07874   0.07903  -2.38523
   D47       -0.38689   0.00423   0.00000   0.12794   0.12847  -0.25842
         Item               Value     Threshold  Converged?
 Maximum Force            0.017564     0.000450     NO 
 RMS     Force            0.004239     0.000300     NO 
 Maximum Displacement     0.809635     0.001800     NO 
 RMS     Displacement     0.217681     0.001200     NO 
 Predicted change in Energy=-8.423520D-03
 Lowest energy point so far.  Saving SCF results.
 GradGradGradGradGradGradGradGradGradGradGradGradGradGradGradGradGradGrad

 Leave Link  103 at Sun Sep 19 20:04:59 2021, MaxMem=   524288000 cpu:               0.0 elap:               0.1
 (Enter /opt/gaussian/g16_legacy/l202.exe)
                          Input orientation:                          
 ---------------------------------------------------------------------
 Center     Atomic      Atomic             Coordinates (Angstroms)
 Number     Number       Type             X           Y           Z
 ---------------------------------------------------------------------
      1          6           0       -2.346953    3.464854    1.421471
      2          1           0       -2.023586    4.075614    0.577688
      3          1           0       -2.022822    3.958245    2.336227
      4          1           0       -3.435498    3.458212    1.425443
      5          6           0       -1.824448    2.032309    1.287980
      6          1           0       -2.114393    1.434177    2.153381
      7          1           0       -2.293226    1.569094    0.425291
      8          6           0       -0.305067    1.979484    1.139121
      9          1           0       -0.003020    2.583278    0.273180
     10          6           0        0.407230    2.516778    2.365056
     11          1           0        0.077397    1.939978    3.232403
     12          1           0        0.086180    3.546132    2.519799
     13          6           0        1.930106    2.467427    2.252093
     14          1           0        2.275799    3.012809    1.373627
     15          1           0        2.390921    2.922289    3.128665
     16          1           0        2.285772    1.442529    2.176789
     17          8           0        0.293072    0.664590    0.960479
     18          6           0       -0.082393   -0.203824   -0.027177
     19          8           0       -1.232284   -0.469151   -0.329997
     20          6           0        1.115967   -0.941232   -0.569409
     21          1           0        1.591140   -0.309120   -1.317330
     22          1           0        1.837542   -1.148769    0.217115
     23          1           0        0.801164   -1.871199   -1.035392
 ---------------------------------------------------------------------
                    Distance matrix (angstroms):
                    1          2          3          4          5
     1  C    0.000000
     2  H    1.090671   0.000000
     3  H    1.088703   1.762451   0.000000
     4  H    1.088573   1.758798   1.753629   0.000000
     5  C    1.530691   2.172387   2.201681   2.155824   0.000000
     6  H    2.171043   3.077051   2.532338   2.524268   1.091214
     7  H    2.142234   2.525584   3.071292   2.423605   1.085612
     8  C    2.540737   2.768082   2.880840   3.473934   1.527569
     9  H    2.754953   2.530312   3.197858   3.724933   2.156614
    10  C    3.061817   3.396103   2.825563   4.066414   2.524913
    11  H    3.388539   4.002822   3.047532   4.232088   2.721455
    12  H    2.670781   2.916035   2.156717   3.688843   2.731215
    13  C    4.469679   4.584930   4.225548   5.518579   3.900707
    14  H    4.645048   4.499754   4.505395   5.728872   4.216721
    15  H    5.065208   5.227381   4.602422   6.093877   4.685031
    16  H    5.111012   5.297247   4.991816   6.112318   4.246378
    17  O    3.876045   4.141077   4.254904   4.682174   2.542008
    18  C    4.548188   4.737899   5.164665   5.173387   3.124850
    19  O    4.448205   4.701589   5.228339   4.833209   3.037402
    20  C    5.947185   6.028380   6.503813   6.637046   4.575793
    21  H    6.103482   5.990262   6.679791   6.854392   4.892461
    22  H    6.343973   6.506343   6.743488   7.105581   4.967513
    23  H    6.664854   6.778335   7.302405   7.239312   5.246834
                    6          7          8          9         10
     6  H    0.000000
     7  H    1.742549   0.000000
     8  C    2.144701   2.151917   0.000000
     9  H    3.051799   2.509332   1.098022   0.000000
    10  C    2.752346   3.457348   1.516235   2.132762   0.000000
    11  H    2.494807   3.692869   2.128302   3.029406   1.092602
    12  H    3.071992   3.735936   2.124555   2.445882   1.089305
    13  C    4.175562   4.688362   2.544169   2.768844   1.527858
    14  H    4.730103   4.884633   2.789914   2.566807   2.172677
    15  H    4.843914   5.574997   3.480735   3.741614   2.163924
    16  H    4.400234   4.904180   2.842098   3.188041   2.172183
    17  O    2.794846   2.791682   1.455551   2.059469   2.327331
    18  C    3.401015   2.869799   2.485290   2.804363   3.655706
    19  O    3.250836   2.418781   3.002308   3.345480   4.343626
    20  C    4.846790   4.348995   3.670013   3.792659   4.590341
    21  H    5.368044   4.653248   3.855835   3.665657   4.790336
    22  H    5.102796   4.949077   3.902158   4.161609   4.482821
    23  H    5.440060   4.852263   4.558509   4.711840   5.565301
                   11         12         13         14         15
    11  H    0.000000
    12  H    1.757160   0.000000
    13  C    2.161422   2.152983   0.000000
    14  H    3.072293   2.528353   1.090251   0.000000
    15  H    2.515570   2.464087   1.089783   1.761138   0.000000
    16  H    2.497738   3.062842   1.087467   1.763788   1.762616
    17  O    2.614339   3.282921   2.756514   3.100972   3.768183
    18  C    3.904649   4.536262   4.047321   4.227298   5.084211
    19  O    4.495537   5.097272   5.029054   5.228099   6.049117
    20  C    4.881984   5.544376   4.499183   4.555770   5.498004
    21  H    5.296218   5.643707   4.534853   4.329575   5.554145
    22  H    4.661591   5.514682   4.150491   4.341465   5.035560
    23  H    5.767406   6.519053   5.559293   5.641937   6.545550
                   16         17         18         19         20
    16  H    0.000000
    17  O    2.460783   0.000000
    18  C    3.629897   1.367692   0.000000
    19  O    4.723898   2.297261   1.218337   0.000000
    20  C    3.819995   2.365666   1.507930   2.407168   0.000000
    21  H    3.969843   2.796695   2.115726   2.995356   1.088458
    22  H    3.279643   2.495245   2.153776   3.191401   1.087365
    23  H    4.847985   3.266785   2.139464   2.568702   1.086774
                   21         22         23
    21  H    0.000000
    22  H    1.766422   0.000000
    23  H    1.773031   1.778977   0.000000
 Stoichiometry    C7H14O2
 Framework group  C1[X(C7H14O2)]
 Deg. of freedom    63
 Full point group                 C1      NOp   1
 RotChk:  IX=0 Diff= 2.44D-01
 Largest Abelian subgroup         C1      NOp   1
 Largest concise Abelian subgroup C1      NOp   1
                         Standard orientation:                         
 ---------------------------------------------------------------------
 Center     Atomic      Atomic             Coordinates (Angstroms)
 Number     Number       Type             X           Y           Z
 ---------------------------------------------------------------------
[...]
    14  H    3.069136   2.514009   1.090378   0.000000
    15  H    2.513348   2.482671   1.089093   1.762715   0.000000
    16  H    2.503247   3.059206   1.087514   1.763664   1.764797
    17  O    2.610376   3.319064   2.865382   3.246796   3.857576
    18  C    3.957224   4.435149   3.882324   3.971763   4.939335
    19  O    4.659694   4.723595   4.448608   4.277627   5.536725
    20  C    4.814952   5.636255   4.721599   4.928857   5.687644
    21  H    4.786300   5.672890   4.374449   4.605400   5.248549
    22  H    4.808803   5.879488   5.147943   5.543288   6.045660
    23  H    5.827898   6.507937   5.613546   5.674418   6.610242
                   16         17         18         19         20
    16  H    0.000000
    17  O    2.549692   0.000000
    18  C    3.471383   1.358912   0.000000
    19  O    4.250597   2.280931   1.219673   0.000000
    20  C    4.002151   2.349464   1.505137   2.426574   0.000000
    21  H    3.490157   2.612298   2.134138   3.118848   1.088157
    22  H    4.423363   2.606160   2.133502   3.123030   1.088066
    23  H    4.921149   3.275004   2.126755   2.573696   1.084823
                   21         22         23
    21  H    0.000000
    22  H    1.758063   0.000000
    23  H    1.781675   1.781909   0.000000
 Stoichiometry    C7H14O2
 Framework group  C1[X(C7H14O2)]
 Deg. of freedom    63
 Full point group                 C1      NOp   1
 RotChk:  IX=0 Diff= 2.23D-15
 Largest Abelian subgroup         C1      NOp   1
 Largest concise Abelian subgroup C1      NOp   1
                         Standard orientation:                         
 ---------------------------------------------------------------------
 Center     Atomic      Atomic             Coordinates (Angstroms)
 Number     Number       Type             X           Y           Z
 ---------------------------------------------------------------------
      1          6           0        2.542274   -1.647475    0.060401
      2          1           0        2.508840   -1.705209    1.148649
      3          1           0        3.319770   -0.938041   -0.217615
      4          1           0        2.838770   -2.625667   -0.315041
      5          6           0        1.180676   -1.250556   -0.502510
      6          1           0        1.234370   -1.131800   -1.587191
      7          1           0        0.459771   -2.041996   -0.295199
      8          6           0        0.631704    0.037816    0.094140
      9          1           0        0.519540   -0.079326    1.174999
     10          6           0        1.443512    1.281246   -0.221414
     11          1           0        1.524015    1.376644   -1.307132
     12          1           0        2.454566    1.134437    0.162249
     13          6           0        0.845011    2.548302    0.378084
     14          1           0        0.756452    2.457237    1.461038
     15          1           0        1.470526    3.413761    0.163994
     16          1           0       -0.146464    2.733489   -0.028572
     17          8           0       -0.690919    0.281240   -0.465574
     18          6           0       -1.723343   -0.353996    0.148605
     19          8           0       -1.600599   -1.095063    1.109519
     20          6           0       -3.022062   -0.005001   -0.527389
     21          1           0       -3.181032    1.070607   -0.484003
     22          1           0       -2.977912   -0.292182   -1.575943
     23          1           0       -3.835695   -0.523392   -0.031291
 ---------------------------------------------------------------------
 Rotational constants (GHZ):           1.9341305           1.1397806           0.8200697
 Leave Link  202 at Sun Sep 19 20:39:03 2021, MaxMem=   524288000 cpu:               0.0 elap:               0.0
 (Enter /opt/gaussian/g16_legacy/l601.exe)
 Copying SCF densities to generalized density rwf, IOpCl= 0 IROHF=0.

 **********************************************************************

            Population analysis using the SCF density.

 **********************************************************************

 Orbital symmetries:
       Occupied  (A) (A) (A) (A) (A) (A) (A) (A) (A) (A) (A) (A)
                 (A) (A) (A) (A) (A) (A) (A) (A) (A) (A) (A) (A)
                 (A) (A) (A) (A) (A) (A) (A) (A) (A) (A) (A) (A)
       Virtual   (A) (A) (A) (A) (A) (A) (A) (A) (A) (A) (A) (A)
                 (A) (A) (A) (A) (A) (A) (A) (A) (A) (A) (A) (A)
                 (A) (A) (A) (A) (A) (A) (A) (A) (A) (A) (A) (A)
                 (A) (A) (A) (A) (A) (A) (A) (A) (A) (A) (A) (A)
                 (A) (A) (A) (A) (A) (A) (A) (A) (A) (A) (A) (A)
                 (A) (A) (A) (A) (A) (A) (A) (A) (A) (A) (A) (A)
                 (A) (A) (A) (A) (A) (A) (A) (A) (A) (A) (A) (A)
                 (A) (A) (A) (A) (A) (A) (A) (A) (A) (A) (A) (A)
                 (A) (A) (A) (A) (A) (A) (A) (A) (A) (A) (A) (A)
                 (A) (A) (A) (A) (A) (A) (A) (A) (A) (A) (A) (A)
                 (A) (A) (A) (A) (A) (A) (A) (A) (A) (A) (A) (A)
                 (A) (A) (A) (A) (A) (A) (A) (A) (A) (A) (A) (A)
                 (A) (A) (A) (A) (A) (A) (A) (A) (A) (A) (A) (A)
                 (A) (A) (A) (A) (A) (A) (A) (A) (A) (A) (A) (A)
                 (A)
 The electronic state is 1-A.
 Alpha  occ. eigenvalues --  -20.60046 -20.54886 -11.38353 -11.28423 -11.23903
 Alpha  occ. eigenvalues --  -11.22390 -11.22058 -11.21753 -11.21373  -1.44513
 Alpha  occ. eigenvalues --   -1.34721  -1.09353  -1.02413  -1.01476  -0.92622
 Alpha  occ. eigenvalues --   -0.84619  -0.80976  -0.76325  -0.68768  -0.66182
 Alpha  occ. eigenvalues --   -0.64878  -0.61765  -0.60375  -0.60012  -0.57431
 Alpha  occ. eigenvalues --   -0.56746  -0.55394  -0.52914  -0.52423  -0.50522
 Alpha  occ. eigenvalues --   -0.49740  -0.48526  -0.47970  -0.46347  -0.44101
 Alpha  occ. eigenvalues --   -0.43179
 Alpha virt. eigenvalues --    0.18562   0.23208   0.24032   0.26036   0.27199
 Alpha virt. eigenvalues --    0.28056   0.30567   0.30949   0.31133   0.32000
 Alpha virt. eigenvalues --    0.32869   0.33383   0.34460   0.34578   0.37035
 Alpha virt. eigenvalues --    0.38915   0.40614   0.42214   0.42912   0.44455
 Alpha virt. eigenvalues --    0.46254   0.50176   0.54254   0.68515   0.69862
 Alpha virt. eigenvalues --    0.71226   0.74389   0.75420   0.76069   0.77533
 Alpha virt. eigenvalues --    0.77840   0.80412   0.82684   0.86386   0.88988
 Alpha virt. eigenvalues --    0.90171   0.91977   0.93343   0.94277   0.98600
 Alpha virt. eigenvalues --    1.01331   1.03985   1.04611   1.08843   1.09287
 Alpha virt. eigenvalues --    1.10064   1.11548   1.12601   1.13185   1.14246
 Alpha virt. eigenvalues --    1.15123   1.15753   1.16617   1.17059   1.18409
 Alpha virt. eigenvalues --    1.19180   1.20892   1.22002   1.22775   1.25292
 Alpha virt. eigenvalues --    1.25952   1.32150   1.34528   1.39554   1.41442
 Alpha virt. eigenvalues --    1.43564   1.51578   1.53635   1.58071   1.65235
 Alpha virt. eigenvalues --    1.68416   1.69979   1.71248   1.78150   1.79152
 Alpha virt. eigenvalues --    1.81403   1.82238   1.89531   1.90369   1.95148
 Alpha virt. eigenvalues --    1.98458   2.00661   2.01891   2.04616   2.07337
 Alpha virt. eigenvalues --    2.11173   2.13720   2.14713   2.16911   2.18349
 Alpha virt. eigenvalues --    2.19651   2.24502   2.25791   2.30423   2.32291
 Alpha virt. eigenvalues --    2.34928   2.35213   2.35793   2.36821   2.37816
 Alpha virt. eigenvalues --    2.38342   2.39794   2.40700   2.42202   2.43569
 Alpha virt. eigenvalues --    2.45926   2.46154   2.49000   2.53617   2.54156
 Alpha virt. eigenvalues --    2.57555   2.58146   2.59096   2.61732   2.63904
 Alpha virt. eigenvalues --    2.66656   2.69171   2.71715   2.78968   2.80760
 Alpha virt. eigenvalues --    2.84583   2.85675   2.88473   2.93099   2.93817
 Alpha virt. eigenvalues --    2.94835   2.97003   3.02576   3.05152   3.07016
 Alpha virt. eigenvalues --    3.08855   3.10565   3.12574   3.15172   3.17501
 Alpha virt. eigenvalues --    3.20115   3.21463   3.23114   3.24698   3.26226
 Alpha virt. eigenvalues --    3.26383   3.29086   3.31478   3.34313   3.46044
 Alpha virt. eigenvalues --    3.49177   3.57608   3.58415   3.62472   3.65492
 Alpha virt. eigenvalues --    3.69284   3.73534   3.78268   3.79367   3.82113
 Alpha virt. eigenvalues --    3.83211   3.86158   3.88634   3.94083   3.95287
 Alpha virt. eigenvalues --    4.47789   4.58313   4.67006   4.76490   4.83211
 Alpha virt. eigenvalues --    4.95131   5.00662   5.05769   5.16776
          Condensed to atoms (all electrons):
               1          2          3          4          5          6
     1  C    4.941472   0.402595   0.403221   0.404630   0.324109  -0.037466
     2  H    0.402595   0.578118  -0.031401  -0.027916  -0.041339   0.004339
     3  H    0.403221  -0.031401   0.586896  -0.029139  -0.038015  -0.003659
     4  H    0.404630  -0.027916  -0.029139   0.567098  -0.034085  -0.002480
     5  C    0.324109  -0.041339  -0.038015  -0.034085   4.985684   0.401833
     6  H   -0.037466   0.004339  -0.003659  -0.002480   0.401833   0.590324
     7  H   -0.035974  -0.002414   0.003929  -0.004138   0.414334  -0.029021
     8  C   -0.052152  -0.004090  -0.004129   0.004203   0.371284  -0.041977
     9  H    0.000054   0.002730   0.000109  -0.000135  -0.045815   0.004701
    10  C   -0.001123  -0.000065   0.000368  -0.000014  -0.061499  -0.006021
    11  H    0.000337   0.000044   0.000336  -0.000035  -0.004471   0.003348
    12  H   -0.001636   0.000336  -0.001846   0.000091  -0.002432   0.000428
    13  C   -0.000074  -0.000041   0.000000   0.000002   0.004280  -0.000138
    14  H   -0.000001  -0.000000   0.000007  -0.000000  -0.000034   0.000002
    15  H    0.000000   0.000000   0.000002  -0.000000  -0.000077  -0.000000
    16  H   -0.000006   0.000000  -0.000001   0.000000  -0.000019   0.000011
    17  O    0.002537  -0.000012  -0.000034  -0.000045  -0.038913   0.000379
    18  C    0.000038  -0.000010  -0.000000  -0.000003  -0.003040   0.000107
    19  O   -0.000049   0.000018  -0.000003   0.000000  -0.004269   0.000100
    20  C    0.000002  -0.000000  -0.000000  -0.000000  -0.000389  -0.000024
    21  H    0.000000   0.000000  -0.000000   0.000000   0.000005   0.000001
    22  H   -0.000000  -0.000000   0.000000   0.000000   0.000088  -0.000002
    23  H   -0.000000  -0.000000   0.000000   0.000000   0.000010   0.000000
               7          8          9         10         11         12
     1  C   -0.035974  -0.052152   0.000054  -0.001123   0.000337  -0.001636
     2  H   -0.002414  -0.004090   0.002730  -0.000065   0.000044   0.000336
     3  H    0.003929  -0.004129   0.000109   0.000368   0.000336  -0.001846
     4  H   -0.004138   0.004203  -0.000135  -0.000014  -0.000035   0.000091
     5  C    0.414334   0.371284  -0.045815  -0.061499  -0.004471  -0.002432
     6  H   -0.029021  -0.041977   0.004701  -0.006021   0.003348   0.000428
     7  H    0.547126  -0.038876  -0.004081   0.004287  -0.000077  -0.000052
     8  C   -0.038876   4.817396   0.416770   0.361942  -0.039634  -0.042174
     9  H   -0.004081   0.416770   0.547327  -0.043582   0.004522  -0.000621
    10  C    0.004287   0.361942  -0.043582   4.986133   0.402876   0.408945
    11  H   -0.000077  -0.039634   0.004522   0.402876   0.583555  -0.028849
    12  H   -0.000052  -0.042174  -0.000621   0.408945  -0.028849   0.585241
    13  C   -0.000104  -0.053179  -0.005358   0.336747  -0.039678  -0.037539
    14  H    0.000001  -0.003715   0.002695  -0.041671   0.004341  -0.002917
    15  H    0.000002   0.004395  -0.000081  -0.037375  -0.002818  -0.003186
    16  H   -0.000003  -0.006406   0.000399  -0.037939  -0.002759   0.004225
    17  O   -0.003618   0.132514  -0.031968  -0.054475  -0.000700   0.002885
    18  C    0.002862  -0.019295  -0.007398   0.003118  -0.000202  -0.000029
    19  O    0.004147  -0.003335   0.008521   0.000478  -0.000010   0.000008
    20  C    0.000083   0.004151   0.000238  -0.000121  -0.000009   0.000004
    21  H    0.000000  -0.000193  -0.000026  -0.000009   0.000004   0.000000
    22  H   -0.000041  -0.000236  -0.000000  -0.000007   0.000001  -0.000000
    23  H    0.000002  -0.000116   0.000007   0.000002   0.000000  -0.000000
              13         14         15         16         17         18
     1  C   -0.000074  -0.000001   0.000000  -0.000006   0.002537   0.000038
     2  H   -0.000041  -0.000000   0.000000   0.000000  -0.000012  -0.000010
     3  H    0.000000   0.000007   0.000002  -0.000001  -0.000034  -0.000000
     4  H    0.000002  -0.000000  -0.000000   0.000000  -0.000045  -0.000003
     5  C    0.004280  -0.000034  -0.000077  -0.000019  -0.038913  -0.003040
     6  H   -0.000138   0.000002  -0.000000   0.000011   0.000379   0.000107
     7  H   -0.000104   0.000001   0.000002  -0.000003  -0.003618   0.002862
     8  C   -0.053179  -0.003715   0.004395  -0.006406   0.132514  -0.019295
     9  H   -0.005358   0.002695  -0.000081   0.000399  -0.031968  -0.007398
    10  C    0.336747  -0.041671  -0.037375  -0.037939  -0.054475   0.003118
    11  H   -0.039678   0.004341  -0.002818  -0.002759  -0.000700  -0.000202
    12  H   -0.037539  -0.002917  -0.003186   0.004225   0.002885  -0.000029
    13  C    4.922728   0.401707   0.405105   0.405125  -0.001685   0.000154
    14  H    0.401707   0.586740  -0.028947  -0.029289   0.000083   0.000047
    15  H    0.405105  -0.028947   0.576939  -0.028335   0.000124  -0.000003
    16  H    0.405125  -0.029289  -0.028335   0.561792   0.004274  -0.000069
    17  O   -0.001685   0.000083   0.000124   0.004274   8.556723   0.254654
    18  C    0.000154   0.000047  -0.000003  -0.000069   0.254654   4.159509
    19  O   -0.000062  -0.000009  -0.000000   0.000000  -0.073990   0.562106
    20  C   -0.000024  -0.000001  -0.000000   0.000005  -0.093057   0.374604
    21  H    0.000009   0.000001  -0.000000   0.000182   0.002094  -0.030152
    22  H    0.000001   0.000000  -0.000000  -0.000000   0.002343  -0.031493
    23  H    0.000000  -0.000000   0.000000  -0.000001   0.003267  -0.038506
              19         20         21         22         23
     1  C   -0.000049   0.000002   0.000000  -0.000000  -0.000000
     2  H    0.000018  -0.000000   0.000000  -0.000000  -0.000000
     3  H   -0.000003  -0.000000  -0.000000   0.000000   0.000000
     4  H    0.000000  -0.000000   0.000000   0.000000   0.000000
     5  C   -0.004269  -0.000389   0.000005   0.000088   0.000010
     6  H    0.000100  -0.000024   0.000001  -0.000002   0.000000
     7  H    0.004147   0.000083   0.000000  -0.000041   0.000002
     8  C   -0.003335   0.004151  -0.000193  -0.000236  -0.000116
     9  H    0.008521   0.000238  -0.000026  -0.000000   0.000007
    10  C    0.000478  -0.000121  -0.000009  -0.000007   0.000002
    11  H   -0.000010  -0.000009   0.000004   0.000001   0.000000
    12  H    0.000008   0.000004   0.000000  -0.000000  -0.000000
    13  C   -0.000062  -0.000024   0.000009   0.000001   0.000000
    14  H   -0.000009  -0.000001   0.000001   0.000000  -0.000000
    15  H   -0.000000  -0.000000  -0.000000  -0.000000   0.000000
    16  H    0.000000   0.000005   0.000182  -0.000000  -0.000001
    17  O   -0.073990  -0.093057   0.002094   0.002343   0.003267
    18  C    0.562106   0.374604  -0.030152  -0.031493  -0.038506
    19  O    8.150265  -0.060376   0.001063   0.001021   0.003086
    20  C   -0.060376   5.004765   0.388883   0.389989   0.395322
    21  H    0.001063   0.388883   0.528296  -0.023458  -0.021251
    22  H    0.001021   0.389989  -0.023458   0.527889  -0.021286
    23  H    0.003086   0.395322  -0.021251  -0.021286   0.521493
 Mulliken charges:
               1
     1  C   -0.350516
     2  H    0.119107
     3  H    0.113358
     4  H    0.121967
     5  C   -0.227230
     6  H    0.115214
     7  H    0.141627
     8  C    0.196851
     9  H    0.150992
    10  C   -0.220996
    11  H    0.119879
    12  H    0.119120
    13  C   -0.337976
    14  H    0.110960
    15  H    0.114255
    16  H    0.128812
    17  O   -0.663380
    18  C    0.772999
    19  O   -0.588711
    20  C   -0.404045
    21  H    0.154550
    22  H    0.155192
    23  H    0.157972
 Sum of Mulliken charges =  -0.00000
 Mulliken charges with hydrogens summed into heavy atoms:
               1
     1  C    0.003916
     5  C    0.029611
     8  C    0.347843
    10  C    0.018003
    13  C    0.016051
    17  O   -0.663380
    18  C    0.772999
    19  O   -0.588711
    20  C    0.063669
 Electronic spatial extent (au):  <R**2>=           1536.9871
 Charge=             -0.0000 electrons
 Dipole moment (field-independent basis, Debye):
    X=              0.4349    Y=              1.1766    Z=             -1.5673  Tot=              2.0075
 Quadrupole moment (field-independent basis, Debye-Ang):
   XX=            -51.6637   YY=            -58.5580   ZZ=            -59.3847
   XY=             -2.5098   XZ=              3.9795   YZ=              3.3492
 Traceless Quadrupole moment (field-independent basis, Debye-Ang):
   XX=              4.8718   YY=             -2.0226   ZZ=             -2.8492
   XY=             -2.5098   XZ=              3.9795   YZ=              3.3492
 Octapole moment (field-independent basis, Debye-Ang**2):
  XXX=            -27.9883  YYY=             -2.1284  ZZZ=             -1.7765  XYY=              0.8791
  XXY=              4.4219  XXZ=             -7.8719  XZZ=              0.9674  YZZ=              1.8426
  YYZ=             -4.0776  XYZ=             -5.3090
 Hexadecapole moment (field-independent basis, Debye-Ang**3):
 XXXX=          -1135.4003 YYYY=           -697.5393 ZZZZ=           -177.4583 XXXY=              5.4893
 XXXZ=              9.2621 YYYX=             -2.4007 YYYZ=             -2.6009 ZZZX=              5.5386
 ZZZY=             -0.1657 XXYY=           -314.0978 XXZZ=           -233.8827 YYZZ=           -152.1290
 XXYZ=              7.0340 YYXZ=              2.5640 ZZXY=             -3.0603
 N-N= 4.844635014222D+02 E-N=-1.958960503022D+03  KE= 4.221816033866D+02
 No NMR shielding tensors so no spin-rotation constants.
 Leave Link  601 at Sun Sep 19 20:39:03 2021, MaxMem=   524288000 cpu:               0.1 elap:               0.4
 (Enter /opt/gaussian/g16_legacy/l9999.exe)
 1\1\GINC-TRUENO93\FOpt\RMP2-FC\6-31G(d,p)\C7H14O2\JRAMOS\19-Sep-2021\0
 \\#p opt mp2/6-31g(d,p)\\Conformer number 012. Energy MM = 6.314 kcal/
 mol\\0,1\C,-2.47433553,3.2257179614,1.5579724188\H,-2.2740204174,3.869
 9205134,0.7014612783\H,-2.1603210552,3.7512926005,2.4581142305\H,-3.55
 17908096,3.0807388548,1.6196014258\C,-1.7637404243,1.8841871718,1.4039
 816372\H,-1.9147308019,1.2664639378,2.2923165125\H,-2.1878246056,1.346
 4198355,0.555443292\C,-0.2668374639,2.0169281181,1.1612398079\H,-0.094
 8769009,2.5875295813,0.245051339\C,0.51333153,2.6214129412,2.314781570
 6\H,0.3315057231,2.0203417192,3.2092184898\H,0.112812776,3.6172047173,
 2.5121733187\C,2.0086869452,2.7148053494,2.0350946583\H,2.1966506608,3
 .3085744369,1.1400907698\H,2.5318873595,3.1855081062,2.8662527671\H,2.
 4322532865,1.7251994764,1.8803107693\O,0.291084884,0.6855429653,0.9662
 871935\C,0.2079019221,0.1839289103,-0.2939129535\O,-0.2968133773,0.771
 7572009,-1.2358911663\C,0.827889738,-1.1865206614,-0.3479425341\H,1.87
 26030852,-1.1288388241,-0.0490556945\H,0.318462172,-1.8467799508,0.350
 9344334\H,0.7488213036,-1.5768349613,-1.357023564\\Version=EM64L-G16Re
 vA.03\State=1-A\HF=-423.0007157\MP2=-424.3604351\RMSD=6.417e-09\RMSF=4
 .340e-06\Dipole=0.1609441,-0.0973011,0.6412463\PG=C01 [X(C7H14O2)]\\@


 In the race for quality, there is no finish line.
                               -- David T. Kearns
 Job cpu time:       0 days  0 hours 36 minutes 23.0 seconds.
 Elapsed time:       0 days  0 hours 36 minutes 26.8 seconds.
 File lengths (MBytes):  RWF=     22 Int=      0 D2E=      0 Chk=      6 Scr=      1
 Normal termination of Gaussian 16 at Sun Sep 19 20:39:03 2021.
