 Entering Gaussian System, Link 0=/opt/gaussian/g16_legacy/g16
 Input=07-EVA_022_gaussian.com
 Output=07-EVA_022_gaussian.log
 Initial command:
 /opt/gaussian/g16_legacy/l1.exe "/scratch-local/jramos/2661769/Gau-9469.inp" -scrdir="/scratch-local/jramos/2661769/"
 Entering Link 1 = /opt/gaussian/g16_legacy/l1.exe PID=      9473.
  
 Copyright (c) 1988,1990,1992,1993,1995,1998,2003,2009,2016,
            Gaussian, Inc.  All Rights Reserved.
  
 This is part of the Gaussian(R) 16 program.  It is based on
 the Gaussian(R) 09 system (copyright 2009, Gaussian, Inc.),
 the Gaussian(R) 03 system (copyright 2003, Gaussian, Inc.),
 the Gaussian(R) 98 system (copyright 1998, Gaussian, Inc.),
 the Gaussian(R) 94 system (copyright 1995, Gaussian, Inc.),
 the Gaussian 92(TM) system (copyright 1992, Gaussian, Inc.),
 the Gaussian 90(TM) system (copyright 1990, Gaussian, Inc.),
 the Gaussian 88(TM) system (copyright 1988, Gaussian, Inc.),
 the Gaussian 86(TM) system (copyright 1986, Carnegie Mellon
 University), and the Gaussian 82(TM) system (copyright 1983,
 Carnegie Mellon University). Gaussian is a federally registered
 trademark of Gaussian, Inc.
  
 This software contains proprietary and confidential information,
 including trade secrets, belonging to Gaussian, Inc.
  
 This software is provided under written license and may be
 used, copied, transmitted, or stored only in accord with that
 written license.
  
 The following legend is applicable only to US Government
 contracts under FAR:
  
                    RESTRICTED RIGHTS LEGEND
  
 Use, reproduction and disclosure by the US Government is
 subject to restrictions as set forth in subparagraphs (a)
 and (c) of the Commercial Computer Software - Restricted
 Rights clause in FAR 52.227-19.
  
 Gaussian, Inc.
 340 Quinnipiac St., Bldg. 40, Wallingford CT 06492
  
  
 ---------------------------------------------------------------
 Warning -- This program may not be used in any manner that
 competes with the business of Gaussian, Inc. or will provide
 assistance to any competitor of Gaussian, Inc.  The licensee
 of this program is prohibited from giving any competitor of
 Gaussian, Inc. access to this program.  By using this program,
 the user acknowledges that Gaussian, Inc. is engaged in the
 business of creating and licensing software in the field of
 computational chemistry and represents and warrants to the
 licensee that it is not a competitor of Gaussian, Inc. and that
 it will not use this program in any manner prohibited above.
 ---------------------------------------------------------------
  

 Cite this work as:
 Gaussian 16, Revision A.03,
 M. J. Frisch, G. W. Trucks, H. B. Schlegel, G. E. Scuseria, 
 M. A. Robb, J. R. Cheeseman, G. Scalmani, V. Barone, 
 G. A. Petersson, H. Nakatsuji, X. Li, M. Caricato, A. V. Marenich, 
 J. Bloino, B. G. Janesko, R. Gomperts, B. Mennucci, H. P. Hratchian, 
 J. V. Ortiz, A. F. Izmaylov, J. L. Sonnenberg, D. Williams-Young, 
 F. Ding, F. Lipparini, F. Egidi, J. Goings, B. Peng, A. Petrone, 
 T. Henderson, D. Ranasinghe, V. G. Zakrzewski, J. Gao, N. Rega, 
 G. Zheng, W. Liang, M. Hada, M. Ehara, K. Toyota, R. Fukuda, 
 J. Hasegawa, M. Ishida, T. Nakajima, Y. Honda, O. Kitao, H. Nakai, 
 T. Vreven, K. Throssell, J. A. Montgomery, Jr., J. E. Peralta, 
 F. Ogliaro, M. J. Bearpark, J. J. Heyd, E. N. Brothers, K. N. Kudin, 
 V. N. Staroverov, T. A. Keith, R. Kobayashi, J. Normand, 
 K. Raghavachari, A. P. Rendell, J. C. Burant, S. S. Iyengar, 
 J. Tomasi, M. Cossi, J. M. Millam, M. Klene, C. Adamo, R. Cammi, 
 J. W. Ochterski, R. L. Martin, K. Morokuma, O. Farkas, 
 J. B. Foresman, and D. J. Fox, Gaussian, Inc., Wallingford CT, 2016.
 
 ******************************************
 Gaussian 16:  EM64L-G16RevA.03 25-Dec-2016
                19-Sep-2021 
 ******************************************
 %chk=07-EVA_022_gaussian.chk
 %nproc=1
 Will use up to    1 processors via shared memory.
 %mem=4000Mb
 ---------------------
 #p opt mp2/6-31g(d,p)
 ---------------------
 1/18=20,19=15,38=1/1,3;
 2/9=110,12=2,17=6,18=5,40=1/2;
 3/5=1,6=6,7=101,11=9,25=1,30=1,71=1/1,2,3;
 4//1;
 5/5=2,38=5/2;
 8/6=4,10=2/1;
 9/15=2,16=-3/6;
 10/5=1/2;
 6/7=2,8=2,9=2,10=2/1;
 7/12=2/1,2,3,16;
 1/18=20,19=15/3(2);
 2/9=110/2;
 99//99;
 2/9=110/2;
 3/5=1,6=6,7=101,11=9,25=1,30=1,71=1/1,2,3;
 4/5=5,16=3,69=1/1;
 5/5=2,38=5/2;
 8/6=4,10=2/1;
 9/15=2,16=-3/6;
 10/5=1/2;
 7/12=2/1,2,3,16;
 1/18=20,19=15/3(-8);
 2/9=110/2;
 6/7=2,8=2,9=2,10=2/1;
 99//99;
 Leave Link    1 at Sun Sep 19 20:02:34 2021, MaxMem=   524288000 cpu:               0.0 elap:               0.4
 (Enter /opt/gaussian/g16_legacy/l101.exe)
 ------------------------------------------------
 Conformer number 022. Energy MM = 0.626 kcal/mol
 ------------------------------------------------
 Symbolic Z-matrix:
 Charge =  0 Multiplicity = 1
 C                    -2.4604    1.3342    2.4424 
 H                    -2.2408    1.8872    3.3602 
 H                    -2.2481    0.2753    2.6252 
 H                    -3.5323    1.4182    2.2425 
 C                    -1.6556    1.8674    1.2569 
 H                    -1.8778    1.2208    0.398 
 H                    -1.9995    2.8722    0.9848 
 C                    -0.1364    1.8404    1.5063 
 H                     0.3872    2.0126    0.5554 
 C                     0.3343    2.8568    2.5679 
 H                     1.4293    2.9105    2.5436 
 H                     0.0829    2.4944    3.5716 
 C                    -0.1842    4.2737    2.396 
 H                    -1.2635    4.329     2.5617 
 H                     0.2904    4.9318    3.1321 
 H                     0.0428    4.6611    1.3984 
 O                     0.106     0.4829    1.9427 
 C                     1.2918    0.1234    2.4821 
 O                     2.3625    0.6939    2.3292 
 C                     1.041    -1.0102    3.4252 
 H                     0.422    -0.648     4.2515 
 H                     0.5326   -1.8281    2.9063 
 H                     1.9884   -1.3781    3.8268 
 
 ITRead=  0  0  0  0  0  0  0  0  0  0  0  0  0  0  0  0  0  0  0  0
 ITRead=  0  0  0
 MicOpt= -1 -1 -1 -1 -1 -1 -1 -1 -1 -1 -1 -1 -1 -1 -1 -1 -1 -1 -1 -1
 MicOpt= -1 -1 -1
 NAtoms=     23 NQM=       23 NQMF=       0 NMMI=      0 NMMIF=      0
                NMic=       0 NMicF=      0.
                    Isotopes and Nuclear Properties:
 (Nuclear quadrupole moments (NQMom) in fm**2, nuclear magnetic moments (NMagM)
  in nuclear magnetons)

  Atom         1           2           3           4           5           6           7           8           9          10
 IAtWgt=          12           1           1           1          12           1           1          12           1          12
 AtmWgt=  12.0000000   1.0078250   1.0078250   1.0078250  12.0000000   1.0078250   1.0078250  12.0000000   1.0078250  12.0000000
 NucSpn=           0           1           1           1           0           1           1           0           1           0
 AtZEff=  -0.0000000  -0.0000000  -0.0000000  -0.0000000  -0.0000000  -0.0000000  -0.0000000  -0.0000000  -0.0000000  -0.0000000
 NQMom=    0.0000000   0.0000000   0.0000000   0.0000000   0.0000000   0.0000000   0.0000000   0.0000000   0.0000000   0.0000000
 NMagM=    0.0000000   2.7928460   2.7928460   2.7928460   0.0000000   2.7928460   2.7928460   0.0000000   2.7928460   0.0000000
 AtZNuc=   6.0000000   1.0000000   1.0000000   1.0000000   6.0000000   1.0000000   1.0000000   6.0000000   1.0000000   6.0000000

  Atom        11          12          13          14          15          16          17          18          19          20
 IAtWgt=           1           1          12           1           1           1          16          12          16          12
 AtmWgt=   1.0078250   1.0078250  12.0000000   1.0078250   1.0078250   1.0078250  15.9949146  12.0000000  15.9949146  12.0000000
 NucSpn=           1           1           0           1           1           1           0           0           0           0
 AtZEff=  -0.0000000  -0.0000000  -0.0000000  -0.0000000  -0.0000000  -0.0000000  -0.0000000  -0.0000000  -0.0000000  -0.0000000
 NQMom=    0.0000000   0.0000000   0.0000000   0.0000000   0.0000000   0.0000000   0.0000000   0.0000000   0.0000000   0.0000000
 NMagM=    2.7928460   2.7928460   0.0000000   2.7928460   2.7928460   2.7928460   0.0000000   0.0000000   0.0000000   0.0000000
 AtZNuc=   1.0000000   1.0000000   6.0000000   1.0000000   1.0000000   1.0000000   8.0000000   6.0000000   8.0000000   6.0000000

  Atom        21          22          23
 IAtWgt=           1           1           1
 AtmWgt=   1.0078250   1.0078250   1.0078250
 NucSpn=           1           1           1
 AtZEff=  -0.0000000  -0.0000000  -0.0000000
 NQMom=    0.0000000   0.0000000   0.0000000
 NMagM=    2.7928460   2.7928460   2.7928460
 AtZNuc=   1.0000000   1.0000000   1.0000000
 Leave Link  101 at Sun Sep 19 20:02:34 2021, MaxMem=   524288000 cpu:               0.3 elap:               0.5
 (Enter /opt/gaussian/g16_legacy/l103.exe)

 GradGradGradGradGradGradGradGradGradGradGradGradGradGradGradGradGradGrad
 Berny optimization.
 Initialization pass.
                           ----------------------------
                           !    Initial Parameters    !
                           ! (Angstroms and Degrees)  !
 --------------------------                            --------------------------
 ! Name  Definition              Value          Derivative Info.                !
 --------------------------------------------------------------------------------
 ! R1    R(1,2)                  1.0938         estimate D2E/DX2                !
 ! R2    R(1,3)                  1.0953         estimate D2E/DX2                !
 ! R3    R(1,4)                  1.0936         estimate D2E/DX2                !
 ! R4    R(1,5)                  1.5289         estimate D2E/DX2                !
 ! R5    R(5,6)                  1.0978         estimate D2E/DX2                !
 ! R6    R(5,7)                  1.0963         estimate D2E/DX2                !
 ! R7    R(5,8)                  1.5398         estimate D2E/DX2                !
 ! R8    R(8,9)                  1.0991         estimate D2E/DX2                !
 ! R9    R(8,10)                 1.5433         estimate D2E/DX2                !
 ! R10   R(8,17)                 1.4464         estimate D2E/DX2                !
 ! R11   R(10,11)                1.0966         estimate D2E/DX2                !
 ! R12   R(10,12)                1.0963         estimate D2E/DX2                !
 ! R13   R(10,13)                1.5186         estimate D2E/DX2                !
 ! R14   R(13,14)                1.0933         estimate D2E/DX2                !
 ! R15   R(13,15)                1.0955         estimate D2E/DX2                !
 ! R16   R(13,16)                1.094          estimate D2E/DX2                !
 ! R17   R(17,18)                1.3514         estimate D2E/DX2                !
 ! R18   R(18,19)                1.2228         estimate D2E/DX2                !
 ! R19   R(18,20)                1.4958         estimate D2E/DX2                !
 ! R20   R(20,21)                1.0941         estimate D2E/DX2                !
 ! R21   R(20,22)                1.0939         estimate D2E/DX2                !
 ! R22   R(20,23)                1.0928         estimate D2E/DX2                !
 ! A1    A(2,1,3)              108.0479         estimate D2E/DX2                !
 ! A2    A(2,1,4)              108.1392         estimate D2E/DX2                !
 ! A3    A(2,1,5)              111.6316         estimate D2E/DX2                !
 ! A4    A(3,1,4)              107.1416         estimate D2E/DX2                !
 ! A5    A(3,1,5)              111.379          estimate D2E/DX2                !
 ! A6    A(4,1,5)              110.3302         estimate D2E/DX2                !
 ! A7    A(1,5,6)              107.1399         estimate D2E/DX2                !
 ! A8    A(1,5,7)              110.302          estimate D2E/DX2                !
 ! A9    A(1,5,8)              112.809          estimate D2E/DX2                !
 ! A10   A(6,5,7)              106.3886         estimate D2E/DX2                !
 ! A11   A(6,5,8)              108.427          estimate D2E/DX2                !
 ! A12   A(7,5,8)              111.4547         estimate D2E/DX2                !
 ! A13   A(5,8,9)              109.0956         estimate D2E/DX2                !
 ! A14   A(5,8,10)             113.6283         estimate D2E/DX2                !
 ! A15   A(5,8,17)             103.3371         estimate D2E/DX2                !
 ! A16   A(9,8,10)             110.2829         estimate D2E/DX2                !
 ! A17   A(9,8,17)             109.1622         estimate D2E/DX2                !
 ! A18   A(10,8,17)            111.0677         estimate D2E/DX2                !
 ! A19   A(8,10,11)            108.7581         estimate D2E/DX2                !
 ! A20   A(8,10,12)            110.0065         estimate D2E/DX2                !
 ! A21   A(8,10,13)            115.627          estimate D2E/DX2                !
 ! A22   A(11,10,12)           105.3939         estimate D2E/DX2                !
 ! A23   A(11,10,13)           107.0226         estimate D2E/DX2                !
 ! A24   A(12,10,13)           109.4976         estimate D2E/DX2                !
 ! A25   A(10,13,14)           111.5366         estimate D2E/DX2                !
 ! A26   A(10,13,15)           109.6652         estimate D2E/DX2                !
 ! A27   A(10,13,16)           111.2716         estimate D2E/DX2                !
 ! A28   A(14,13,15)           107.1837         estimate D2E/DX2                !
 ! A29   A(14,13,16)           108.9729         estimate D2E/DX2                !
 ! A30   A(15,13,16)           108.0651         estimate D2E/DX2                !
 ! A31   A(8,17,18)            121.1414         estimate D2E/DX2                !
 ! A32   A(17,18,19)           126.4619         estimate D2E/DX2                !
 ! A33   A(17,18,20)           107.8267         estimate D2E/DX2                !
 ! A34   A(19,18,20)           125.3966         estimate D2E/DX2                !
 ! A35   A(18,20,21)           108.6714         estimate D2E/DX2                !
 ! A36   A(18,20,22)           110.211          estimate D2E/DX2                !
 ! A37   A(18,20,23)           109.9675         estimate D2E/DX2                !
 ! A38   A(21,20,22)           110.0482         estimate D2E/DX2                !
 ! A39   A(21,20,23)           108.9282         estimate D2E/DX2                !
 ! A40   A(22,20,23)           108.9972         estimate D2E/DX2                !
 ! D1    D(2,1,5,6)            176.1377         estimate D2E/DX2                !
 ! D2    D(2,1,5,7)            -68.4636         estimate D2E/DX2                !
 ! D3    D(2,1,5,8)             56.8926         estimate D2E/DX2                !
 ! D4    D(3,1,5,6)             55.2634         estimate D2E/DX2                !
 ! D5    D(3,1,5,7)            170.6621         estimate D2E/DX2                !
 ! D6    D(3,1,5,8)            -63.9817         estimate D2E/DX2                !
 ! D7    D(4,1,5,6)            -63.5911         estimate D2E/DX2                !
 ! D8    D(4,1,5,7)             51.8077         estimate D2E/DX2                !
 ! D9    D(4,1,5,8)            177.1639         estimate D2E/DX2                !
 ! D10   D(1,5,8,9)            167.206          estimate D2E/DX2                !
 ! D11   D(1,5,8,10)           -69.299          estimate D2E/DX2                !
 ! D12   D(1,5,8,17)            51.1622         estimate D2E/DX2                !
 ! D13   D(6,5,8,9)             48.7097         estimate D2E/DX2                !
 ! D14   D(6,5,8,10)           172.2047         estimate D2E/DX2                !
 ! D15   D(6,5,8,17)           -67.3341         estimate D2E/DX2                !
 ! D16   D(7,5,8,9)            -68.0647         estimate D2E/DX2                !
 ! D17   D(7,5,8,10)            55.4302         estimate D2E/DX2                !
 ! D18   D(7,5,8,17)           175.8914         estimate D2E/DX2                !
 ! D19   D(5,8,10,11)         -169.1093         estimate D2E/DX2                !
 ! D20   D(5,8,10,12)           75.9298         estimate D2E/DX2                !
 ! D21   D(5,8,10,13)          -48.7239         estimate D2E/DX2                !
 ! D22   D(9,8,10,11)          -46.2644         estimate D2E/DX2                !
 ! D23   D(9,8,10,12)         -161.2253         estimate D2E/DX2                !
 ! D24   D(9,8,10,13)           74.1211         estimate D2E/DX2                !
 ! D25   D(17,8,10,11)          74.8921         estimate D2E/DX2                !
 ! D26   D(17,8,10,12)         -40.0688         estimate D2E/DX2                !
 ! D27   D(17,8,10,13)        -164.7225         estimate D2E/DX2                !
 ! D28   D(5,8,17,18)         -168.3819         estimate D2E/DX2                !
 ! D29   D(9,8,17,18)           75.6215         estimate D2E/DX2                !
 ! D30   D(10,8,17,18)         -46.1909         estimate D2E/DX2                !
 ! D31   D(8,10,13,14)          67.4004         estimate D2E/DX2                !
 ! D32   D(8,10,13,15)        -174.024          estimate D2E/DX2                !
 ! D33   D(8,10,13,16)         -54.5185         estimate D2E/DX2                !
 ! D34   D(11,10,13,14)       -171.2763         estimate D2E/DX2                !
 ! D35   D(11,10,13,15)        -52.7008         estimate D2E/DX2                !
 ! D36   D(11,10,13,16)         66.8047         estimate D2E/DX2                !
 ! D37   D(12,10,13,14)        -57.5163         estimate D2E/DX2                !
 ! D38   D(12,10,13,15)         61.0593         estimate D2E/DX2                !
 ! D39   D(12,10,13,16)       -179.4352         estimate D2E/DX2                !
 ! D40   D(8,17,18,19)         -22.4465         estimate D2E/DX2                !
 ! D41   D(8,17,18,20)         151.3597         estimate D2E/DX2                !
 ! D42   D(17,18,20,21)        -65.0071         estimate D2E/DX2                !
 ! D43   D(17,18,20,22)         55.657          estimate D2E/DX2                !
 ! D44   D(17,18,20,23)        175.844          estimate D2E/DX2                !
 ! D45   D(19,18,20,21)        108.8823         estimate D2E/DX2                !
 ! D46   D(19,18,20,22)       -130.4537         estimate D2E/DX2                !
 ! D47   D(19,18,20,23)        -10.2666         estimate D2E/DX2                !
 --------------------------------------------------------------------------------
 Trust Radius=3.00D-01 FncErr=1.00D-07 GrdErr=1.00D-07 EigMax=2.50D+02 EigMin=1.00D-04
 Number of steps in this run=    119 maximum allowed number of steps=    138.
 GradGradGradGradGradGradGradGradGradGradGradGradGradGradGradGradGradGrad

 Leave Link  103 at Sun Sep 19 20:02:34 2021, MaxMem=   524288000 cpu:               0.1 elap:               0.1
 (Enter /opt/gaussian/g16_legacy/l202.exe)
                          Input orientation:                          
 ---------------------------------------------------------------------
 Center     Atomic      Atomic             Coordinates (Angstroms)
 Number     Number       Type             X           Y           Z
 ---------------------------------------------------------------------
      1          6           0       -2.460400    1.334200    2.442400
      2          1           0       -2.240800    1.887200    3.360200
      3          1           0       -2.248100    0.275300    2.625200
      4          1           0       -3.532300    1.418200    2.242500
      5          6           0       -1.655600    1.867400    1.256900
      6          1           0       -1.877800    1.220800    0.398000
      7          1           0       -1.999500    2.872200    0.984800
      8          6           0       -0.136400    1.840400    1.506300
      9          1           0        0.387200    2.012600    0.555400
     10          6           0        0.334300    2.856800    2.567900
     11          1           0        1.429300    2.910500    2.543600
     12          1           0        0.082900    2.494400    3.571600
     13          6           0       -0.184200    4.273700    2.396000
     14          1           0       -1.263500    4.329000    2.561700
     15          1           0        0.290400    4.931800    3.132100
     16          1           0        0.042800    4.661100    1.398400
     17          8           0        0.106000    0.482900    1.942700
     18          6           0        1.291800    0.123400    2.482100
     19          8           0        2.362500    0.693900    2.329200
     20          6           0        1.041000   -1.010200    3.425200
     21          1           0        0.422000   -0.648000    4.251500
     22          1           0        0.532600   -1.828100    2.906300
     23          1           0        1.988400   -1.378100    3.826800
 ---------------------------------------------------------------------
                    Distance matrix (angstroms):
                    1          2          3          4          5
     1  C    0.000000
     2  H    1.093796   0.000000
     3  H    1.095334   1.771581   0.000000
     4  H    1.093611   1.771210   1.761207   0.000000
     5  C    1.528861   2.183282   2.181303   2.166839   0.000000
     6  H    2.128815   3.057857   2.447757   2.485662   1.097804
     7  H    2.168518   2.582823   3.081656   2.458740   1.096325
     8  C    2.556071   2.804930   2.856703   3.500340   1.539772
     9  H    3.482789   3.845648   3.774532   4.308375   2.164767
    10  C    3.185029   2.863390   3.651878   4.138363   2.580181
    11  H    4.198182   3.896616   4.524843   5.189903   3.501466
    12  H    3.014885   2.411009   3.354644   3.999298   2.961984
    13  C    3.718051   3.294642   4.505488   4.403092   3.041849
    14  H    3.227325   2.748655   4.172044   3.704335   2.813489
    15  H    4.580973   3.965929   5.327656   5.267809   4.085809
    16  H    4.292343   4.093655   5.097892   4.900025   3.272513
    17  O    2.749695   3.080395   2.459815   3.768540   2.343160
    18  C    3.942920   4.044912   3.546046   5.000586   3.637282
    19  O    4.866535   4.865932   4.639017   5.939764   4.321118
    20  C    4.326882   4.378283   3.620869   5.311401   4.500418
    21  H    3.938298   3.783141   3.259872   4.893031   4.428463
    22  H    4.378743   4.658458   3.497942   5.244283   4.600593
    23  H    5.391192   5.363397   4.703776   6.388069   5.515106
                    6          7          8          9         10
     6  H    0.000000
     7  H    1.756777   0.000000
     8  C    2.155158   2.192650   0.000000
     9  H    2.404568   2.572865   1.099100   0.000000
    10  C    3.504047   2.820118   1.543250   2.183032   0.000000
    11  H    4.289009   3.766695   2.161602   2.417672   1.096585
    12  H    3.941845   3.342253   2.177446   3.069559   1.096335
    13  C    4.022497   2.692768   2.591293   2.971006   1.518551
    14  H    3.836648   2.269488   2.928712   3.480770   2.172643
    15  H    5.093910   3.754529   3.518826   3.894930   2.150784
    16  H    4.065116   2.746310   2.828445   2.800681   2.169839
    17  O    2.620316   3.325576   1.446378   2.084144   2.465441
    18  C    3.948940   4.542077   2.437218   2.845971   2.897524
    19  O    4.689062   5.057613   2.869865   2.964312   2.974678
    20  C    4.760325   5.502111   3.632405   4.219067   4.023441
    21  H    4.861168   5.378364   3.747008   4.554246   3.889193
    22  H    4.625731   5.674197   3.983146   4.505424   4.701290
    23  H    5.784328   6.484239   4.500915   4.976218   4.717547
                   11         12         13         14         15
    11  H    0.000000
    12  H    1.744338   0.000000
    13  C    2.117423   2.149252   0.000000
    14  H    3.043623   2.489668   1.093345   0.000000
    15  H    2.393549   2.485384   1.095529   1.761627   0.000000
    16  H    2.509674   3.069038   1.093990   1.780443   1.772089
    17  O    2.829390   2.588432   3.828820   4.129307   4.608838
    18  C    2.791167   2.875776   4.405789   4.921683   4.954393
    19  O    2.414569   3.159420   4.393758   5.139639   4.785190
    20  C    4.037311   3.636153   5.520866   5.879065   5.996388
    21  H    4.073634   3.232945   5.294666   5.519680   5.692499
    22  H    4.836316   4.396460   6.164915   6.422975   6.768005
    23  H    4.511240   4.323461   6.221754   6.689269   6.571199
                   16         17         18         19         20
    16  H    0.000000
    17  O    4.213978   0.000000
    18  C    4.829610   1.351412   0.000000
    19  O    4.688931   2.299064   1.222803   0.000000
    20  C    6.104749   2.302472   1.495790   2.418995   0.000000
    21  H    6.039082   2.590241   2.117165   3.043267   1.094130
    22  H    6.680074   2.539928   2.136512   3.168921   1.093932
    23  H    6.793705   3.249090   2.132597   2.583784   1.092794
                   21         22         23
    21  H    0.000000
    22  H    1.792884   0.000000
    23  H    1.779614   1.780217   0.000000
 Stoichiometry    C7H14O2
 Framework group  C1[X(C7H14O2)]
 Deg. of freedom    63
 Full point group                 C1      NOp   1
 Largest Abelian subgroup         C1      NOp   1
 Largest concise Abelian subgroup C1      NOp   1
                         Standard orientation:                         
 ---------------------------------------------------------------------
 Center     Atomic      Atomic             Coordinates (Angstroms)
 Number     Number       Type             X           Y           Z
 ---------------------------------------------------------------------
      1          6           0        1.397201    1.986931    0.512057
      2          1           0        1.521262    1.430966    1.445814
      3          1           0        0.413719    2.468717    0.532074
      4          1           0        2.145984    2.783634    0.488110
      5          6           0        1.548325    1.079078   -0.708754
      6          1           0        1.342179    1.692452   -1.595574
      7          1           0        2.585952    0.737933   -0.802989
      8          6           0        0.564837   -0.105621   -0.697031
      9          1           0        0.561424   -0.579932   -1.688514
     10          6           0        0.869898   -1.151983    0.395528
     11          1           0        0.256098   -2.042077    0.212550
     12          1           0        0.551823   -0.775413    1.374799
     13          6           0        2.313523   -1.616251    0.475527
     14          1           0        2.975824   -0.812357    0.807966
     15          1           0        2.399523   -2.428994    1.205073
     16          1           0        2.664546   -1.989473   -0.491065
     17          8           0       -0.715996    0.526285   -0.468621
     18          6           0       -1.810865   -0.204124   -0.161894
     19          8           0       -1.985080   -1.389730   -0.405278
     20          6           0       -2.715981    0.652690    0.665161
     21          1           0       -2.217231    0.876107    1.613029
     22          1           0       -2.946339    1.581219    0.134635
     23          1           0       -3.647780    0.120447    0.871724
 ---------------------------------------------------------------------
 Rotational constants (GHZ):           2.1466485           1.1453019           0.8692095
 Leave Link  202 at Sun Sep 19 20:02:35 2021, MaxMem=   524288000 cpu:               0.0 elap:               0.2
 (Enter /opt/gaussian/g16_legacy/l301.exe)
 Standard basis: 6-31G(d,p) (6D, 7F)
 Ernie: Thresh=  0.10000D-02 Tol=  0.10000D-05 Strict=F.
 There are   205 symmetry adapted cartesian basis functions of A   symmetry.
 There are   205 symmetry adapted basis functions of A   symmetry.
   205 basis functions,   350 primitive gaussians,   205 cartesian basis functions
    36 alpha electrons       36 beta electrons
       nuclear repulsion energy       489.2902122432 Hartrees.
 IExCor=    0 DFT=F Ex=HF Corr=None ExCW=0 ScaHFX=  1.000000
 ScaDFX=  1.000000  1.000000  1.000000  1.000000 ScalE2=  1.000000  1.000000
 IRadAn=      5 IRanWt=     -1 IRanGd=            0 ICorTp=0 IEmpDi=  4
 NAtoms=   23 NActive=   23 NUniq=   23 SFac= 1.00D+00 NAtFMM=   60 NAOKFM=F Big=F
 Integral buffers will be    131072 words long.
 Raffenetti 1 integral format.
 Two-electron integral symmetry is turned on.
 Leave Link  301 at Sun Sep 19 20:02:35 2021, MaxMem=   524288000 cpu:               0.1 elap:               0.3
 (Enter /opt/gaussian/g16_legacy/l302.exe)
 NPDir=0 NMtPBC=     1 NCelOv=     1 NCel=       1 NClECP=     1 NCelD=      1
         NCelK=      1 NCelE2=     1 NClLst=     1 CellRange=     0.0.
 One-electron integrals computed using PRISM.
 One-electron integral symmetry used in STVInt
 NBasis=   205 RedAO= T EigKep=  2.95D-03  NBF=   205
 NBsUse=   205 1.00D-06 EigRej= -1.00D+00 NBFU=   205
 Leave Link  302 at Sun Sep 19 20:02:36 2021, MaxMem=   524288000 cpu:               0.3 elap:               0.5
 (Enter /opt/gaussian/g16_legacy/l303.exe)
 DipDrv:  MaxL=1.
 Leave Link  303 at Sun Sep 19 20:02:36 2021, MaxMem=   524288000 cpu:               0.1 elap:               0.2
 (Enter /opt/gaussian/g16_legacy/l401.exe)
 ExpMin= 1.61D-01 ExpMax= 5.48D+03 ExpMxC= 8.25D+02 IAcc=3 IRadAn=         5 AccDes= 0.00D+00
 Harris functional with IExCor=  205 and IRadAn=       5 diagonalized for initial guess.
 HarFok:  IExCor=  205 AccDes= 0.00D+00 IRadAn=         5 IDoV= 1 UseB2=F ITyADJ=14
 ICtDFT=  3500011 ScaDFX=  1.000000  1.000000  1.000000  1.000000
 FoFCou: FMM=F IPFlag=           0 FMFlag=      100000 FMFlg1=           0
         NFxFlg=           0 DoJE=T BraDBF=F KetDBF=T FulRan=T
         wScrn=  0.000000 ICntrl=       500 IOpCl=  0 I1Cent=   200000004 NGrid=           0
         NMat0=    1 NMatS0=      1 NMatT0=    0 NMatD0=    1 NMtDS0=    0 NMtDT0=    0
 Petite list used in FoFCou.
 Harris En= -423.710364478322    
 JPrj=0 DoOrth=F DoCkMO=F.
 Leave Link  401 at Sun Sep 19 20:02:44 2021, MaxMem=   524288000 cpu:               8.2 elap:               8.5
 (Enter /opt/gaussian/g16_legacy/l502.exe)
 Keep R1 ints in memory in canonical form, NReq=227304434.
 FoFCou: FMM=F IPFlag=           0 FMFlag=           0 FMFlg1=           0
         NFxFlg=           0 DoJE=F BraDBF=F KetDBF=F FulRan=T
         wScrn=  0.000000 ICntrl=       600 IOpCl=  0 I1Cent=           0 NGrid=           0
         NMat0=    1 NMatS0=  21115 NMatT0=    0 NMatD0=    1 NMtDS0=    0 NMtDT0=    0
 Symmetry not used in FoFCou.
 Two-electron integral symmetry not used.
 Closed shell SCF:
 Using DIIS extrapolation, IDIIS=  1040.
 NGot=   524288000 LenX=   301268152 LenY=   301225686
 Requested convergence on RMS density matrix=1.00D-08 within 128 cycles.
 Requested convergence on MAX density matrix=1.00D-06.
 Requested convergence on             energy=1.00D-06.
 No special actions if energy rises.

 Cycle   1  Pass 1  IDiag  1:
 E= -422.498888927669    
 DIIS: error= 5.94D-02 at cycle   1 NSaved=   1.
 NSaved= 1 IEnMin= 1 EnMin= -422.498888927669     IErMin= 1 ErrMin= 5.94D-02
 ErrMax= 5.94D-02  0.00D+00 EMaxC= 1.00D-01 BMatC= 7.21D-01 BMatP= 7.21D-01
 IDIUse=3 WtCom= 4.06D-01 WtEn= 5.94D-01
 Coeff-Com:  0.100D+01
 Coeff-En:   0.100D+01
 Coeff:      0.100D+01
 Gap=     0.557 Goal=   None    Shift=    0.000
 GapD=    0.557 DampG=2.000 DampE=0.500 DampFc=1.0000 IDamp=-1.
 RMSDP=4.06D-03 MaxDP=1.17D-01              OVMax= 1.31D-01

 Cycle   2  Pass 1  IDiag  1:
 E= -422.902428909730     Delta-E=       -0.403539982061 Rises=F Damp=F
 DIIS: error= 1.14D-02 at cycle   2 NSaved=   2.
 NSaved= 2 IEnMin= 2 EnMin= -422.902428909730     IErMin= 2 ErrMin= 1.14D-02
 ErrMax= 1.14D-02  0.00D+00 EMaxC= 1.00D-01 BMatC= 9.84D-02 BMatP= 7.21D-01
 IDIUse=3 WtCom= 8.86D-01 WtEn= 1.14D-01
 Coeff-Com:  0.208D+00 0.792D+00
 Coeff-En:   0.000D+00 0.100D+01
 Coeff:      0.185D+00 0.815D+00
 Gap=     0.626 Goal=   None    Shift=    0.000
 RMSDP=1.49D-03 MaxDP=4.62D-02 DE=-4.04D-01 OVMax= 4.42D-02

 Cycle   3  Pass 1  IDiag  1:
 E= -422.979018743688     Delta-E=       -0.076589833958 Rises=F Damp=F
 DIIS: error= 4.87D-03 at cycle   3 NSaved=   3.
 NSaved= 3 IEnMin= 3 EnMin= -422.979018743688     IErMin= 3 ErrMin= 4.87D-03
 ErrMax= 4.87D-03  0.00D+00 EMaxC= 1.00D-01 BMatC= 7.90D-03 BMatP= 9.84D-02
 IDIUse=3 WtCom= 9.51D-01 WtEn= 4.87D-02
 Coeff-Com: -0.162D-01 0.181D+00 0.835D+00
 Coeff-En:   0.000D+00 0.000D+00 0.100D+01
 Coeff:     -0.154D-01 0.172D+00 0.843D+00
 Gap=     0.602 Goal=   None    Shift=    0.000
 RMSDP=3.80D-04 MaxDP=1.98D-02 DE=-7.66D-02 OVMax= 2.07D-02

 Cycle   4  Pass 1  IDiag  1:
 E= -422.985140989924     Delta-E=       -0.006122246236 Rises=F Damp=F
 DIIS: error= 2.15D-03 at cycle   4 NSaved=   4.
 NSaved= 4 IEnMin= 4 EnMin= -422.985140989924     IErMin= 4 ErrMin= 2.15D-03
 ErrMax= 2.15D-03  0.00D+00 EMaxC= 1.00D-01 BMatC= 8.42D-04 BMatP= 7.90D-03
 IDIUse=3 WtCom= 9.78D-01 WtEn= 2.15D-02
 Coeff-Com: -0.122D-01 0.325D-01 0.311D+00 0.669D+00
 Coeff-En:   0.000D+00 0.000D+00 0.000D+00 0.100D+01
 Coeff:     -0.119D-01 0.318D-01 0.304D+00 0.676D+00
 Gap=     0.604 Goal=   None    Shift=    0.000
 RMSDP=1.20D-04 MaxDP=5.34D-03 DE=-6.12D-03 OVMax= 5.38D-03

 Cycle   5  Pass 1  IDiag  1:
 E= -422.985815920991     Delta-E=       -0.000674931067 Rises=F Damp=F
 DIIS: error= 3.87D-04 at cycle   5 NSaved=   5.
 NSaved= 5 IEnMin= 5 EnMin= -422.985815920991     IErMin= 5 ErrMin= 3.87D-04
 ErrMax= 3.87D-04  0.00D+00 EMaxC= 1.00D-01 BMatC= 2.89D-05 BMatP= 8.42D-04
 IDIUse=3 WtCom= 9.96D-01 WtEn= 3.87D-03
 Coeff-Com:  0.148D-02-0.159D-01-0.716D-01 0.515D-02 0.108D+01
 Coeff-En:   0.000D+00 0.000D+00 0.000D+00 0.000D+00 0.100D+01
 Coeff:      0.148D-02-0.159D-01-0.713D-01 0.513D-02 0.108D+01
 Gap=     0.604 Goal=   None    Shift=    0.000
 RMSDP=4.82D-05 MaxDP=1.44D-03 DE=-6.75D-04 OVMax= 3.14D-03

 Cycle   6  Pass 1  IDiag  1:
 E= -422.985874424590     Delta-E=       -0.000058503599 Rises=F Damp=F
 DIIS: error= 1.15D-04 at cycle   6 NSaved=   6.
 NSaved= 6 IEnMin= 6 EnMin= -422.985874424590     IErMin= 6 ErrMin= 1.15D-04
 ErrMax= 1.15D-04  0.00D+00 EMaxC= 1.00D-01 BMatC= 3.75D-06 BMatP= 2.89D-05
 IDIUse=3 WtCom= 9.99D-01 WtEn= 1.15D-03
 Coeff-Com:  0.130D-02-0.592D-02-0.384D-01-0.710D-01 0.158D+00 0.956D+00
 Coeff-En:   0.000D+00 0.000D+00 0.000D+00 0.000D+00 0.000D+00 0.100D+01
 Coeff:      0.130D-02-0.591D-02-0.383D-01-0.709D-01 0.157D+00 0.956D+00
 Gap=     0.604 Goal=   None    Shift=    0.000
 RMSDP=1.83D-05 MaxDP=4.61D-04 DE=-5.85D-05 OVMax= 9.89D-04

 Cycle   7  Pass 1  IDiag  1:
 E= -422.985881990529     Delta-E=       -0.000007565939 Rises=F Damp=F
 DIIS: error= 6.15D-05 at cycle   7 NSaved=   7.
 NSaved= 7 IEnMin= 7 EnMin= -422.985881990529     IErMin= 7 ErrMin= 6.15D-05
 ErrMax= 6.15D-05  0.00D+00 EMaxC= 1.00D-01 BMatC= 4.61D-07 BMatP= 3.75D-06
 IDIUse=1 WtCom= 1.00D+00 WtEn= 0.00D+00
 Coeff-Com: -0.204D-03 0.177D-02 0.104D-01-0.284D-02-0.946D-01-0.729D-01
 Coeff-Com:  0.116D+01
 Coeff:     -0.204D-03 0.177D-02 0.104D-01-0.284D-02-0.946D-01-0.729D-01
 Coeff:      0.116D+01
 Gap=     0.605 Goal=   None    Shift=    0.000
 RMSDP=7.36D-06 MaxDP=2.66D-04 DE=-7.57D-06 OVMax= 5.63D-04

 Cycle   8  Pass 1  IDiag  1:
 E= -422.985883284757     Delta-E=       -0.000001294228 Rises=F Damp=F
 DIIS: error= 1.56D-05 at cycle   8 NSaved=   8.
 NSaved= 8 IEnMin= 8 EnMin= -422.985883284757     IErMin= 8 ErrMin= 1.56D-05
 ErrMax= 1.56D-05  0.00D+00 EMaxC= 1.00D-01 BMatC= 8.88D-08 BMatP= 4.61D-07
 IDIUse=1 WtCom= 1.00D+00 WtEn= 0.00D+00
 Coeff-Com: -0.233D-03 0.117D-02 0.775D-02 0.853D-02-0.317D-01-0.178D+00
 Coeff-Com:  0.959D-01 0.110D+01
 Coeff:     -0.233D-03 0.117D-02 0.775D-02 0.853D-02-0.317D-01-0.178D+00
 Coeff:      0.959D-01 0.110D+01
 Gap=     0.605 Goal=   None    Shift=    0.000
 RMSDP=3.66D-06 MaxDP=1.03D-04 DE=-1.29D-06 OVMax= 2.54D-04

 Cycle   9  Pass 1  IDiag  1:
 E= -422.985883534443     Delta-E=       -0.000000249686 Rises=F Damp=F
 DIIS: error= 7.51D-06 at cycle   9 NSaved=   9.
 NSaved= 9 IEnMin= 9 EnMin= -422.985883534443     IErMin= 9 ErrMin= 7.51D-06
 ErrMax= 7.51D-06  0.00D+00 EMaxC= 1.00D-01 BMatC= 1.09D-08 BMatP= 8.88D-08
 IDIUse=1 WtCom= 1.00D+00 WtEn= 0.00D+00
 Coeff-Com: -0.163D-05-0.112D-03-0.437D-03 0.876D-03 0.134D-01-0.109D-01
 Coeff-Com: -0.161D+00 0.127D+00 0.103D+01
 Coeff:     -0.163D-05-0.112D-03-0.437D-03 0.876D-03 0.134D-01-0.109D-01
 Coeff:     -0.161D+00 0.127D+00 0.103D+01
 Gap=     0.605 Goal=   None    Shift=    0.000
 RMSDP=1.12D-06 MaxDP=3.74D-05 DE=-2.50D-07 OVMax= 7.37D-05

 Cycle  10  Pass 1  IDiag  1:
 E= -422.985883559567     Delta-E=       -0.000000025125 Rises=F Damp=F
 DIIS: error= 2.03D-06 at cycle  10 NSaved=  10.
 NSaved=10 IEnMin=10 EnMin= -422.985883559567     IErMin=10 ErrMin= 2.03D-06
 ErrMax= 2.03D-06  0.00D+00 EMaxC= 1.00D-01 BMatC= 9.09D-10 BMatP= 1.09D-08
 IDIUse=1 WtCom= 1.00D+00 WtEn= 0.00D+00
 Coeff-Com:  0.271D-04-0.150D-03-0.926D-03-0.137D-02 0.452D-02 0.206D-01
 Coeff-Com: -0.167D-01-0.115D+00 0.873D-02 0.110D+01
 Coeff:      0.271D-04-0.150D-03-0.926D-03-0.137D-02 0.452D-02 0.206D-01
 Coeff:     -0.167D-01-0.115D+00 0.873D-02 0.110D+01
 Gap=     0.605 Goal=   None    Shift=    0.000
 RMSDP=3.11D-07 MaxDP=1.28D-05 DE=-2.51D-08 OVMax= 1.64D-05

 Cycle  11  Pass 1  IDiag  1:
 E= -422.985883561762     Delta-E=       -0.000000002195 Rises=F Damp=F
 DIIS: error= 8.67D-07 at cycle  11 NSaved=  11.
 NSaved=11 IEnMin=11 EnMin= -422.985883561762     IErMin=11 ErrMin= 8.67D-07
 ErrMax= 8.67D-07  0.00D+00 EMaxC= 1.00D-01 BMatC= 1.02D-10 BMatP= 9.09D-10
 IDIUse=1 WtCom= 1.00D+00 WtEn= 0.00D+00
 Coeff-Com:  0.267D-05-0.447D-05-0.225D-04-0.240D-03-0.710D-03 0.235D-02
 Coeff-Com:  0.128D-01-0.162D-01-0.108D+00 0.107D+00 0.100D+01
 Coeff:      0.267D-05-0.447D-05-0.225D-04-0.240D-03-0.710D-03 0.235D-02
 Coeff:      0.128D-01-0.162D-01-0.108D+00 0.107D+00 0.100D+01
 Gap=     0.605 Goal=   None    Shift=    0.000
 RMSDP=7.71D-08 MaxDP=3.30D-06 DE=-2.20D-09 OVMax= 3.16D-06

 Cycle  12  Pass 1  IDiag  1:
 E= -422.985883561938     Delta-E=       -0.000000000176 Rises=F Damp=F
 DIIS: error= 1.45D-07 at cycle  12 NSaved=  12.
 NSaved=12 IEnMin=12 EnMin= -422.985883561938     IErMin=12 ErrMin= 1.45D-07
 ErrMax= 1.45D-07  0.00D+00 EMaxC= 1.00D-01 BMatC= 8.07D-12 BMatP= 1.02D-10
 IDIUse=1 WtCom= 1.00D+00 WtEn= 0.00D+00
 Coeff-Com: -0.244D-05 0.134D-04 0.919D-04 0.112D-03-0.467D-03-0.200D-02
 Coeff-Com:  0.178D-02 0.133D-01-0.771D-02-0.103D+00-0.186D-02 0.110D+01
 Coeff:     -0.244D-05 0.134D-04 0.919D-04 0.112D-03-0.467D-03-0.200D-02
 Coeff:      0.178D-02 0.133D-01-0.771D-02-0.103D+00-0.186D-02 0.110D+01
 Gap=     0.605 Goal=   None    Shift=    0.000
 RMSDP=2.70D-08 MaxDP=9.14D-07 DE=-1.76D-10 OVMax= 1.23D-06

 Cycle  13  Pass 1  IDiag  1:
 E= -422.985883561966     Delta-E=       -0.000000000028 Rises=F Damp=F
 DIIS: error= 5.60D-08 at cycle  13 NSaved=  13.
 NSaved=13 IEnMin=13 EnMin= -422.985883561966     IErMin=13 ErrMin= 5.60D-08
 ErrMax= 5.60D-08  0.00D+00 EMaxC= 1.00D-01 BMatC= 7.13D-13 BMatP= 8.07D-12
 IDIUse=1 WtCom= 1.00D+00 WtEn= 0.00D+00
 Coeff-Com: -0.224D-06 0.430D-06 0.420D-05 0.198D-04 0.565D-04-0.231D-03
 Coeff-Com: -0.118D-02 0.205D-02 0.832D-02-0.111D-01-0.915D-01 0.471D-01
 Coeff-Com:  0.105D+01
 Coeff:     -0.224D-06 0.430D-06 0.420D-05 0.198D-04 0.565D-04-0.231D-03
 Coeff:     -0.118D-02 0.205D-02 0.832D-02-0.111D-01-0.915D-01 0.471D-01
 Coeff:      0.105D+01
 Gap=     0.605 Goal=   None    Shift=    0.000
 RMSDP=8.37D-09 MaxDP=2.78D-07 DE=-2.80D-11 OVMax= 5.21D-07

 SCF Done:  E(RHF) =  -422.985883562     A.U. after   13 cycles
            NFock= 13  Conv=0.84D-08     -V/T= 2.0022
 KE= 4.220558002827D+02 PE=-1.968429529186D+03 EE= 6.340976330976D+02
 Leave Link  502 at Sun Sep 19 20:03:02 2021, MaxMem=   524288000 cpu:              17.0 elap:              17.3
 (Enter /opt/gaussian/g16_legacy/l801.exe)
 ExpMin= 1.61D-01 ExpMax= 5.48D+03 ExpMxC= 8.25D+02 IAcc=3 IRadAn=         5 AccDes= 0.00D+00
 HarFok:  IExCor=  205 AccDes= 0.00D+00 IRadAn=         5 IDoV=-2 UseB2=F ITyADJ=14
 ICtDFT= 12500011 ScaDFX=  1.000000  1.000000  1.000000  1.000000
 Largest valence mixing into a core orbital is  2.11D-04
 Largest core mixing into a valence orbital is  3.23D-05
 Range of M.O.s used for correlation:    10   205
 NBasis=   205 NAE=    36 NBE=    36 NFC=     9 NFV=     0
 NROrb=    196 NOA=    27 NOB=    27 NVA=   169 NVB=   169
 Leave Link  801 at Sun Sep 19 20:03:03 2021, MaxMem=   524288000 cpu:               1.3 elap:               1.5
 (Enter /opt/gaussian/g16_legacy/l906.exe)
 Frozen-core derivative calculation, NFC=   9 NFV=   0.
 FulOut=F Deriv=T AODrv=T NAtomX=    23
   MMem=         129  MDisk=          27 MDiskD=          27
  W3Min=     1512900 MinDsk=     1927595 NBas6D=         205
 NBas2D=       21400    NTT=       21115    LW2=     2040000
    MDV=   523789847 MDiskM=       35351 NBas2p=       19629
 Fully direct method using O(ONN) memory.
 IMap=   1   2   3   4   5   6   7   8   9  10  11  12  13  14  15  16  17  18  19  20
 IMap=  21  22  23  24  25  26  27  28  29  30  31  32  33  34  35  36
 JobTyp=1 Pass  1:  I=  10 to  36 NPSUse=  1 ParTrn=F ParDer=F DoDerP=T.
 Spin components of T(2) and E(2):
     alpha-alpha T2 =       0.5286139330D-01 E2=     -0.1652492482D+00
     alpha-beta  T2 =       0.3174392596D+00 E2=     -0.1030893372D+01
     beta-beta   T2 =       0.5286139330D-01 E2=     -0.1652492482D+00
 The integrals were generated   1 times.
 ANorm=    0.1192963556D+01
 E2 =    -0.1361391868D+01 EUMP2 =    -0.42434727543039D+03
 Leave Link  906 at Sun Sep 19 20:05:18 2021, MaxMem=   524288000 cpu:             134.4 elap:             134.6
 (Enter /opt/gaussian/g16_legacy/l1002.exe)
 Minotr:  Closed shell wavefunction.
          Computing MP2/KS-MP2 derivatives.
          Using Z-Vector for PSCF gradient.
          Skipping F1 and S1 gradient terms here.
          IDoAtm=11111111111111111111111
          Frozen-core window.
          Direct CPHF calculation.
          Differentiating once with respect to electric field.
                with respect to dipole field.
          Differentiating once with respect to nuclear coordinates.
          Requested convergence is 1.0D-10 RMS, and 1.0D-09 maximum.
          NewPWx=F KeepS1=T KeepF1=T KeepIn=T MapXYZ=F SortEE=F KeepMc=T.
 Keep R1 ints in memory in canonical form, NReq=227306992.
 FoFCou: FMM=F IPFlag=           0 FMFlag=           0 FMFlg1=           0
         NFxFlg=           0 DoJE=F BraDBF=F KetDBF=F FulRan=T
         wScrn=  0.000000 ICntrl=       600 IOpCl=  0 I1Cent=           0 NGrid=           0
         NMat0=    1 NMatS0=  21115 NMatT0=    0 NMatD0=    1 NMtDS0=    0 NMtDT0=    0
 Symmetry not used in FoFCou.
 Two-electron integral symmetry not used.
          MDV=     524288000 using IRadAn=       5.
          Solving linear equations separately, MaxMat=       0.
          There are     1 degrees of freedom in the 1st order CPHF.  IDoFFX=0 NUNeed=     1.
 LinEq1:  Iter=  0 NonCon=     1 RMS=3.70D-03 Max=8.65D-02 NDo=     1
 AX will form     1 AO Fock derivatives at one time.
 LinEq1:  Iter=  1 NonCon=     1 RMS=1.18D-03 Max=1.80D-02 NDo=     1
 LinEq1:  Iter=  2 NonCon=     1 RMS=3.72D-04 Max=6.85D-03 NDo=     1
 LinEq1:  Iter=  3 NonCon=     1 RMS=1.52D-04 Max=3.47D-03 NDo=     1
 LinEq1:  Iter=  4 NonCon=     1 RMS=4.95D-05 Max=7.86D-04 NDo=     1
 LinEq1:  Iter=  5 NonCon=     1 RMS=2.11D-05 Max=3.64D-04 NDo=     1
 LinEq1:  Iter=  6 NonCon=     1 RMS=5.67D-06 Max=1.24D-04 NDo=     1
 LinEq1:  Iter=  7 NonCon=     1 RMS=1.80D-06 Max=3.23D-05 NDo=     1
 LinEq1:  Iter=  8 NonCon=     1 RMS=6.03D-07 Max=1.42D-05 NDo=     1
 LinEq1:  Iter=  9 NonCon=     1 RMS=1.56D-07 Max=2.06D-06 NDo=     1
 LinEq1:  Iter= 10 NonCon=     1 RMS=4.78D-08 Max=8.40D-07 NDo=     1
 LinEq1:  Iter= 11 NonCon=     1 RMS=1.39D-08 Max=3.49D-07 NDo=     1
 LinEq1:  Iter= 12 NonCon=     1 RMS=4.73D-09 Max=1.40D-07 NDo=     1
 LinEq1:  Iter= 13 NonCon=     1 RMS=1.43D-09 Max=3.62D-08 NDo=     1
 LinEq1:  Iter= 14 NonCon=     1 RMS=3.07D-10 Max=5.34D-09 NDo=     1
 LinEq1:  Iter= 15 NonCon=     0 RMS=7.39D-11 Max=9.75D-10 NDo=     1
 Linear equations converged to 1.000D-10 1.000D-09 after    15 iterations.
 End of Minotr F.D. properties file   721 does not exist.
 End of Minotr F.D. properties file   722 does not exist.
 End of Minotr F.D. properties file   788 does not exist.
 Leave Link 1002 at Sun Sep 19 20:05:37 2021, MaxMem=   524288000 cpu:              19.4 elap:              19.4
 (Enter /opt/gaussian/g16_legacy/l601.exe)
 Copying SCF densities to generalized density rwf, IOpCl= 0 IROHF=0.

 **********************************************************************

            Population analysis using the SCF density.

 **********************************************************************

 Orbital symmetries:
       Occupied  (A) (A) (A) (A) (A) (A) (A) (A) (A) (A) (A) (A)
                 (A) (A) (A) (A) (A) (A) (A) (A) (A) (A) (A) (A)
                 (A) (A) (A) (A) (A) (A) (A) (A) (A) (A) (A) (A)
       Virtual   (A) (A) (A) (A) (A) (A) (A) (A) (A) (A) (A) (A)
                 (A) (A) (A) (A) (A) (A) (A) (A) (A) (A) (A) (A)
                 (A) (A) (A) (A) (A) (A) (A) (A) (A) (A) (A) (A)
                 (A) (A) (A) (A) (A) (A) (A) (A) (A) (A) (A) (A)
                 (A) (A) (A) (A) (A) (A) (A) (A) (A) (A) (A) (A)
                 (A) (A) (A) (A) (A) (A) (A) (A) (A) (A) (A) (A)
                 (A) (A) (A) (A) (A) (A) (A) (A) (A) (A) (A) (A)
                 (A) (A) (A) (A) (A) (A) (A) (A) (A) (A) (A) (A)
                 (A) (A) (A) (A) (A) (A) (A) (A) (A) (A) (A) (A)
                 (A) (A) (A) (A) (A) (A) (A) (A) (A) (A) (A) (A)
                 (A) (A) (A) (A) (A) (A) (A) (A) (A) (A) (A) (A)
                 (A) (A) (A) (A) (A) (A) (A) (A) (A) (A) (A) (A)
                 (A) (A) (A) (A) (A) (A) (A) (A) (A) (A) (A) (A)
                 (A) (A) (A) (A) (A) (A) (A) (A) (A) (A) (A) (A)
                 (A)
 The electronic state is 1-A.
 Alpha  occ. eigenvalues --  -20.59956 -20.54935 -11.38366 -11.29647 -11.23829
 Alpha  occ. eigenvalues --  -11.22816 -11.22326 -11.22119 -11.21564  -1.44565
 Alpha  occ. eigenvalues --   -1.34923  -1.09234  -1.02184  -1.01366  -0.92951
 Alpha  occ. eigenvalues --   -0.85409  -0.81371  -0.74000  -0.68869  -0.66374
 Alpha  occ. eigenvalues --   -0.66114  -0.63161  -0.59818  -0.58968  -0.57515
 Alpha  occ. eigenvalues --   -0.56714  -0.55677  -0.52531  -0.51962  -0.50441
 Alpha  occ. eigenvalues --   -0.50133  -0.48911  -0.47166  -0.46319  -0.44001
 Alpha  occ. eigenvalues --   -0.42686
 Alpha virt. eigenvalues --    0.17781   0.21626   0.23939   0.25796   0.26984
 Alpha virt. eigenvalues --    0.28711   0.29827   0.30220   0.31025   0.32382
 Alpha virt. eigenvalues --    0.32532   0.34064   0.35815   0.36192   0.36574
 Alpha virt. eigenvalues --    0.37950   0.39997   0.40390   0.42359   0.43695
 Alpha virt. eigenvalues --    0.47567   0.50013   0.55393   0.68834   0.70787
 Alpha virt. eigenvalues --    0.72243   0.74134   0.74925   0.76035   0.77955
 Alpha virt. eigenvalues --    0.78710   0.80631   0.82444   0.83578   0.89176
 Alpha virt. eigenvalues --    0.91013   0.91930   0.92799   0.94152   0.95162
 Alpha virt. eigenvalues --    0.99062   1.04868   1.06844   1.07443   1.08660
 Alpha virt. eigenvalues --    1.09094   1.10162   1.11996   1.12589   1.13541
 Alpha virt. eigenvalues --    1.14258   1.15009   1.15442   1.16976   1.17809
 Alpha virt. eigenvalues --    1.20347   1.22681   1.23122   1.23486   1.26856
 Alpha virt. eigenvalues --    1.30008   1.30281   1.37573   1.38100   1.41966
 Alpha virt. eigenvalues --    1.44209   1.52249   1.54582   1.59512   1.62885
 Alpha virt. eigenvalues --    1.65397   1.71659   1.72705   1.73430   1.78823
 Alpha virt. eigenvalues --    1.80462   1.83682   1.85122   1.91228   1.97485
 Alpha virt. eigenvalues --    1.98956   2.00060   2.01365   2.05490   2.09445
 Alpha virt. eigenvalues --    2.10162   2.11372   2.14039   2.16240   2.18113
 Alpha virt. eigenvalues --    2.19296   2.25186   2.26135   2.28994   2.30851
 Alpha virt. eigenvalues --    2.32625   2.33240   2.35978   2.36202   2.37583
 Alpha virt. eigenvalues --    2.38145   2.39710   2.40677   2.41684   2.44027
 Alpha virt. eigenvalues --    2.46179   2.47535   2.48953   2.52810   2.54199
 Alpha virt. eigenvalues --    2.57651   2.58549   2.59343   2.61907   2.64919
 Alpha virt. eigenvalues --    2.66636   2.69763   2.71027   2.74620   2.79433
 Alpha virt. eigenvalues --    2.82683   2.84521   2.87671   2.90412   2.94640
 Alpha virt. eigenvalues --    2.95582   2.97306   2.97996   3.03194   3.05259
 Alpha virt. eigenvalues --    3.05735   3.09308   3.09928   3.11564   3.15620
 Alpha virt. eigenvalues --    3.20397   3.21258   3.22562   3.23267   3.24896
 Alpha virt. eigenvalues --    3.25918   3.26947   3.29011   3.34030   3.46841
 Alpha virt. eigenvalues --    3.49221   3.55411   3.58001   3.59878   3.66319
 Alpha virt. eigenvalues --    3.69937   3.73373   3.77478   3.77725   3.79981
 Alpha virt. eigenvalues --    3.81396   3.83166   3.87421   3.92180   3.94301
 Alpha virt. eigenvalues --    4.48612   4.56749   4.68668   4.74786   4.84190
 Alpha virt. eigenvalues --    4.98988   5.00200   5.06180   5.15265
          Condensed to atoms (all electrons):
               1          2          3          4          5          6
     1  C    4.939076   0.400398   0.406614   0.403470   0.323336  -0.044707
     2  H    0.400398   0.593084  -0.029213  -0.028626  -0.040028   0.004478
     3  H    0.406614  -0.029213   0.556512  -0.029986  -0.034990  -0.003711
     4  H    0.403470  -0.028626  -0.029986   0.583148  -0.037633  -0.002672
     5  C    0.323336  -0.040028  -0.034990  -0.037633   5.005261   0.410690
     6  H   -0.044707   0.004478  -0.003711  -0.002672   0.410690   0.578929
     7  H   -0.037386  -0.002174   0.003911  -0.003700   0.407966  -0.028904
     8  C   -0.054315  -0.003998  -0.005383   0.004293   0.371373  -0.038595
     9  H    0.004578  -0.000079  -0.000005  -0.000052  -0.048620  -0.005685
    10  C   -0.003597   0.000926   0.000363  -0.000140  -0.058867   0.004641
    11  H   -0.000070   0.000034  -0.000015   0.000001   0.003868  -0.000077
    12  H    0.001282  -0.001772   0.000122   0.000017  -0.003932  -0.000146
    13  C   -0.000263  -0.000113   0.000011   0.000009  -0.004519   0.000023
    14  H    0.000247   0.000518  -0.000023   0.000020  -0.000773   0.000045
    15  H   -0.000041   0.000008   0.000001   0.000000   0.000125   0.000002
    16  H    0.000112  -0.000023  -0.000001   0.000001  -0.000865  -0.000060
    17  O   -0.004217   0.000090   0.002820   0.000256  -0.060708   0.000800
    18  C   -0.000230  -0.000034  -0.000119   0.000005   0.003503  -0.000135
    19  O   -0.000008   0.000002   0.000008   0.000000   0.000074   0.000002
    20  C   -0.000099   0.000000   0.000015  -0.000001  -0.000129  -0.000003
    21  H    0.000081   0.000039   0.000128  -0.000001  -0.000033   0.000001
    22  H   -0.000007  -0.000001   0.000103  -0.000000  -0.000015   0.000001
    23  H    0.000002  -0.000000   0.000001  -0.000000   0.000000  -0.000000
               7          8          9         10         11         12
     1  C   -0.037386  -0.054315   0.004578  -0.003597  -0.000070   0.001282
     2  H   -0.002174  -0.003998  -0.000079   0.000926   0.000034  -0.001772
     3  H    0.003911  -0.005383  -0.000005   0.000363  -0.000015   0.000122
     4  H   -0.003700   0.004293  -0.000052  -0.000140   0.000001   0.000017
     5  C    0.407966   0.371373  -0.048620  -0.058867   0.003868  -0.003932
     6  H   -0.028904  -0.038595  -0.005685   0.004641  -0.000077  -0.000146
     7  H    0.577999  -0.036263   0.000532  -0.003318  -0.000058   0.000422
     8  C   -0.036263   4.759580   0.419436   0.351724  -0.034034  -0.039875
     9  H    0.000532   0.419436   0.567369  -0.044352  -0.005090   0.004151
    10  C   -0.003318   0.351724  -0.044352   5.041981   0.416162   0.402707
    11  H   -0.000058  -0.034034  -0.005090   0.416162   0.523201  -0.030646
    12  H    0.000422  -0.039875   0.004151   0.402707  -0.030646   0.595365
    13  C   -0.001802  -0.042966   0.000909   0.321847  -0.040210  -0.037174
    14  H   -0.002704  -0.003792   0.000070  -0.039261   0.004212  -0.004164
    15  H    0.000119   0.003736  -0.000164  -0.036105  -0.004452  -0.003110
    16  H    0.000464  -0.002584   0.001862  -0.042397  -0.003010   0.004553
    17  O    0.002671   0.135914  -0.029830  -0.035011  -0.000975  -0.000085
    18  C   -0.000031  -0.017926  -0.002972  -0.005271   0.000128  -0.000185
    19  O    0.000003   0.006572   0.001604  -0.007657   0.003300  -0.000308
    20  C    0.000005   0.005062  -0.000180  -0.000776   0.000245  -0.000377
    21  H   -0.000000  -0.000197   0.000002   0.000047  -0.000034   0.000269
    22  H    0.000000  -0.000151  -0.000004   0.000036  -0.000006   0.000000
    23  H   -0.000000  -0.000144   0.000009   0.000019  -0.000002   0.000022
              13         14         15         16         17         18
     1  C   -0.000263   0.000247  -0.000041   0.000112  -0.004217  -0.000230
     2  H   -0.000113   0.000518   0.000008  -0.000023   0.000090  -0.000034
     3  H    0.000011  -0.000023   0.000001  -0.000001   0.002820  -0.000119
     4  H    0.000009   0.000020   0.000000   0.000001   0.000256   0.000005
     5  C   -0.004519  -0.000773   0.000125  -0.000865  -0.060708   0.003503
     6  H    0.000023   0.000045   0.000002  -0.000060   0.000800  -0.000135
     7  H   -0.001802  -0.002704   0.000119   0.000464   0.002671  -0.000031
     8  C   -0.042966  -0.003792   0.003736  -0.002584   0.135914  -0.017926
     9  H    0.000909   0.000070  -0.000164   0.001862  -0.029830  -0.002972
    10  C    0.321847  -0.039261  -0.036105  -0.042397  -0.035011  -0.005271
    11  H   -0.040210   0.004212  -0.004452  -0.003010  -0.000975   0.000128
    12  H   -0.037174  -0.004164  -0.003110   0.004553  -0.000085  -0.000185
    13  C    4.932918   0.401596   0.407081   0.402569   0.002016   0.000377
    14  H    0.401596   0.592640  -0.030502  -0.030367  -0.000003  -0.000015
    15  H    0.407081  -0.030502   0.568786  -0.027728  -0.000041  -0.000010
    16  H    0.402569  -0.030367  -0.027728   0.582931  -0.000008  -0.000001
    17  O    0.002016  -0.000003  -0.000041  -0.000008   8.573831   0.245676
    18  C    0.000377  -0.000015  -0.000010  -0.000001   0.245676   4.147620
    19  O    0.000152  -0.000004   0.000005  -0.000000  -0.068642   0.567636
    20  C    0.000001  -0.000000   0.000000  -0.000000  -0.106934   0.379163
    21  H   -0.000006   0.000000   0.000000   0.000000   0.000860  -0.030681
    22  H    0.000000  -0.000000   0.000000   0.000000   0.002102  -0.029017
    23  H   -0.000000   0.000000   0.000000   0.000000   0.003866  -0.038406
              19         20         21         22         23
     1  C   -0.000008  -0.000099   0.000081  -0.000007   0.000002
     2  H    0.000002   0.000000   0.000039  -0.000001  -0.000000
     3  H    0.000008   0.000015   0.000128   0.000103   0.000001
     4  H    0.000000  -0.000001  -0.000001  -0.000000  -0.000000
     5  C    0.000074  -0.000129  -0.000033  -0.000015   0.000000
     6  H    0.000002  -0.000003   0.000001   0.000001  -0.000000
     7  H    0.000003   0.000005  -0.000000   0.000000  -0.000000
     8  C    0.006572   0.005062  -0.000197  -0.000151  -0.000144
     9  H    0.001604  -0.000180   0.000002  -0.000004   0.000009
    10  C   -0.007657  -0.000776   0.000047   0.000036   0.000019
    11  H    0.003300   0.000245  -0.000034  -0.000006  -0.000002
    12  H   -0.000308  -0.000377   0.000269   0.000000   0.000022
    13  C    0.000152   0.000001  -0.000006   0.000000  -0.000000
    14  H   -0.000004  -0.000000   0.000000  -0.000000   0.000000
    15  H    0.000005   0.000000   0.000000   0.000000   0.000000
    16  H   -0.000000  -0.000000   0.000000   0.000000   0.000000
    17  O   -0.068642  -0.106934   0.000860   0.002102   0.003866
    18  C    0.567636   0.379163  -0.030681  -0.029017  -0.038406
    19  O    8.141689  -0.066190   0.000348   0.001766   0.002944
    20  C   -0.066190   5.023250   0.390814   0.384682   0.392634
    21  H    0.000348   0.390814   0.528245  -0.020802  -0.022303
    22  H    0.001766   0.384682  -0.020802   0.533122  -0.023299
    23  H    0.002944   0.392634  -0.022303  -0.023299   0.532649
 Mulliken charges:
               1
     1  C   -0.334257
     2  H    0.106484
     3  H    0.132837
     4  H    0.111591
     5  C   -0.235085
     6  H    0.125082
     7  H    0.122250
     8  C    0.222533
     9  H    0.136510
    10  C   -0.263701
    11  H    0.167527
    12  H    0.112864
    13  C   -0.342455
    14  H    0.112261
    15  H    0.122290
    16  H    0.114552
    17  O   -0.664449
    18  C    0.780928
    19  O   -0.583297
    20  C   -0.401183
    21  H    0.153222
    22  H    0.151490
    23  H    0.152009
 Sum of Mulliken charges =  -0.00000
 Mulliken charges with hydrogens summed into heavy atoms:
               1
     1  C    0.016655
     5  C    0.012247
     8  C    0.359043
    10  C    0.016689
    13  C    0.006648
    17  O   -0.664449
    18  C    0.780928
    19  O   -0.583297
    20  C    0.055537
 Electronic spatial extent (au):  <R**2>=           1464.3319
 Charge=              0.0000 electrons
 Dipole moment (field-independent basis, Debye):
    X=              1.2485    Y=              1.8086    Z=              0.8513  Tot=              2.3568
 Quadrupole moment (field-independent basis, Debye-Ang):
   XX=            -55.8306   YY=            -60.8110   ZZ=            -55.7715
   XY=             -6.2459   XZ=             -3.0532   YZ=             -1.0182
 Traceless Quadrupole moment (field-independent basis, Debye-Ang):
   XX=              1.6404   YY=             -3.3399   ZZ=              1.6995
   XY=             -6.2459   XZ=             -3.0532   YZ=             -1.0182
 Octapole moment (field-independent basis, Debye-Ang**2):
  XXX=            -17.8964  YYY=              2.4190  ZZZ=             -3.5021  XYY=              5.4191
  XXY=             14.5031  XXZ=              2.8606  XZZ=             -4.1360  YZZ=             -1.5363
  YYZ=              0.3869  XYZ=              1.7880
 Hexadecapole moment (field-independent basis, Debye-Ang**3):
 XXXX=          -1132.5810 YYYY=           -600.9867 ZZZZ=           -200.1464 XXXY=            -17.6304
 XXXZ=            -11.6648 YYYX=             -9.6147 YYYZ=             -7.1169 ZZZX=              0.2709
 ZZZY=              0.9871 XXYY=           -306.8517 XXZZ=           -225.4986 YYZZ=           -134.2597
 XXYZ=             -5.4583 YYXZ=             -3.0448 ZZXY=             -2.0745
 N-N= 4.892902122432D+02 E-N=-1.968429526982D+03  KE= 4.220558002827D+02
 No NMR shielding tensors so no spin-rotation constants.
 Leave Link  601 at Sun Sep 19 20:05:38 2021, MaxMem=   524288000 cpu:               0.3 elap:               0.3
 (Enter /opt/gaussian/g16_legacy/l701.exe)
 ... and contract with generalized density number  2.
 Compute integral first derivatives.
 Leave Link  701 at Sun Sep 19 20:05:38 2021, MaxMem=   524288000 cpu:               0.3 elap:               0.3
 (Enter /opt/gaussian/g16_legacy/l702.exe)
 L702 exits ... SP integral derivatives will be done elsewhere.
 Leave Link  702 at Sun Sep 19 20:05:38 2021, MaxMem=   524288000 cpu:               0.1 elap:               0.1
 (Enter /opt/gaussian/g16_legacy/l703.exe)
 Integral derivatives from FoFJK, PRISM(SPDF).
 Compute integral first derivatives, UseDBF=F ICtDFT=           0.
 Calling FoFJK, ICntrl=  10002127 FMM=F ISym2X=0 I1Cent= 0 IOpClX= 0 NMat=1 NMatS=1 NMatT=0.
 FoFJK:  IHMeth= 1 ICntrl=10002127 DoSepK=F KAlg= 0 I1Cent=           0 FoldK=F
 IRaf=         0 NMat=       1 IRICut=       1 DoRegI=T DoRafI=F ISym2E= 0 IDoP0=0 IntGTp=1.
 FoFCou: FMM=F IPFlag=           0 FMFlag=      100000 FMFlg1=         800
         NFxFlg=           0 DoJE=F BraDBF=F KetDBF=F FulRan=T
         wScrn=  0.000000 ICntrl=  10002127 IOpCl=  0 I1Cent=           0 NGrid=           0
         NMat0=    1 NMatS0=      1 NMatT0=    0 NMatD0=    1 NMtDS0=    0 NMtDT0=    0
 Symmetry not used in FoFCou.
 Leave Link  703 at Sun Sep 19 20:06:02 2021, MaxMem=   524288000 cpu:              23.8 elap:              23.8
 (Enter /opt/gaussian/g16_legacy/l716.exe)
 Dipole        = 4.77234055D-01 5.64200950D-01 2.82587999D-01
 ***** Axes restored to original set *****
 -------------------------------------------------------------------
 Center     Atomic                   Forces (Hartrees/Bohr)
 Number     Number              X              Y              Z
 -------------------------------------------------------------------
      1        6          -0.002867784   -0.000977005    0.003518297
      2        1          -0.001532895   -0.001153433   -0.002004090
      3        1           0.000949428    0.006331655   -0.001430640
      4        1           0.002588112    0.001492276    0.000789899
      5        6          -0.001030263   -0.009120311   -0.001758629
      6        1           0.003222628    0.003282435    0.001087717
      7        1           0.005512285   -0.002830837    0.001284608
      8        6          -0.006141692    0.012317038   -0.001625830
      9        1           0.000593860    0.000543202    0.004458462
     10        6           0.012824592   -0.003509180    0.001287847
     11        1          -0.004808281   -0.004676585   -0.000749115
     12        1          -0.002598291   -0.001513307   -0.004017223
     13        6          -0.006161950    0.003875230    0.000199252
     14        1           0.002613681    0.001407610   -0.002251553
     15        1          -0.001166724   -0.002444022   -0.003758422
     16        1          -0.001593128   -0.000298751    0.002486715
     17        8          -0.005479520    0.001270119   -0.002055360
     18        6           0.009358641    0.009709743    0.008812899
     19        8          -0.008062796   -0.002238794   -0.004856377
     20        6           0.008498606   -0.014517949    0.003372661
     21        1           0.000020689   -0.002647427   -0.004716686
     22        1          -0.001433960    0.003777373    0.004196275
     23        1          -0.003305239    0.001920919   -0.002270705
 -------------------------------------------------------------------
 Cartesian Forces:  Max     0.014517949 RMS     0.004750058
 Leave Link  716 at Sun Sep 19 20:06:02 2021, MaxMem=   524288000 cpu:               0.1 elap:               0.1
 (Enter /opt/gaussian/g16_legacy/l103.exe)

 GradGradGradGradGradGradGradGradGradGradGradGradGradGradGradGradGradGrad
 Berny optimization.
 FormGI is forming the generalized inverse of G from B-inverse, IUseBI=4.
 Internal  Forces:  Max     0.012021183 RMS     0.003625703
 Search for a local minimum.
 Step number   1 out of a maximum of  119
 All quantities printed in internal units (Hartrees-Bohrs-Radians)
 RMS Force = .36257D-02 SwitMx=.10000D-02 MixMth= 1
 Mixed Optimization -- RFO/linear search
 Second derivative matrix not updated -- first step.
 ITU=  0
     Eigenvalues ---    0.00230   0.00240   0.00384   0.00521   0.00822
     Eigenvalues ---    0.01078   0.01249   0.02335   0.03225   0.03421
     Eigenvalues ---    0.04016   0.04761   0.04825   0.04856   0.05429
     Eigenvalues ---    0.05522   0.05598   0.05789   0.07458   0.07575
     Eigenvalues ---    0.07617   0.08349   0.08876   0.12242   0.12594
     Eigenvalues ---    0.16000   0.16000   0.16000   0.16000   0.16000
     Eigenvalues ---    0.16000   0.16000   0.16000   0.16000   0.16467
     Eigenvalues ---    0.19428   0.21907   0.21930   0.24894   0.25000
     Eigenvalues ---    0.25000   0.28233   0.28539   0.29529   0.30507
     Eigenvalues ---    0.32823   0.33782   0.33926   0.34063   0.34091
     Eigenvalues ---    0.34092   0.34181   0.34203   0.34340   0.34356
     Eigenvalues ---    0.34362   0.34378   0.34399   0.34429   0.34492
     Eigenvalues ---    0.38723   0.54722   0.94152
 RFO step:  Lambda=-1.30334436D-02 EMin= 2.30000000D-03
 Linear search not attempted -- first point.
 Iteration  1 RMS(Cart)=  0.18234542 RMS(Int)=  0.01291740
 Iteration  2 RMS(Cart)=  0.02948513 RMS(Int)=  0.00191911
 Iteration  3 RMS(Cart)=  0.00079714 RMS(Int)=  0.00187803
 Iteration  4 RMS(Cart)=  0.00000185 RMS(Int)=  0.00187803
 Iteration  5 RMS(Cart)=  0.00000001 RMS(Int)=  0.00187803
 ITry= 1 IFail=0 DXMaxC= 6.88D-01 DCOld= 1.00D+10 DXMaxT= 3.00D-01 DXLimC= 3.00D+00 Rises=F
 Variable       Old X    -DE/DX   Delta X   Delta X   Delta X     New X
                                 (Linear)    (Quad)   (Total)
    R1        2.06698  -0.00257   0.00000  -0.00721  -0.00721   2.05977
    R2        2.06988  -0.00618   0.00000  -0.01739  -0.01739   2.05249
    R3        2.06663  -0.00257   0.00000  -0.00719  -0.00719   2.05944
    R4        2.88913  -0.00085   0.00000  -0.00277  -0.00277   2.88636
    R5        2.07455  -0.00344   0.00000  -0.00975  -0.00975   2.06479
    R6        2.07175  -0.00464   0.00000  -0.01312  -0.01312   2.05864
    R7        2.90975  -0.00704   0.00000  -0.02360  -0.02360   2.88615
    R8        2.07700  -0.00349   0.00000  -0.00995  -0.00995   2.06705
    R9        2.91632  -0.00967   0.00000  -0.03273  -0.03273   2.88360
   R10        2.73326   0.00324   0.00000   0.00809   0.00809   2.74135
   R11        2.07225  -0.00501   0.00000  -0.01418  -0.01418   2.05807
   R12        2.07177  -0.00258   0.00000  -0.00729  -0.00729   2.06448
   R13        2.86965   0.00490   0.00000   0.01540   0.01540   2.88505
   R14        2.06612  -0.00285   0.00000  -0.00798  -0.00798   2.05815
   R15        2.07025  -0.00450   0.00000  -0.01268  -0.01268   2.05757
   R16        2.06734  -0.00270   0.00000  -0.00758  -0.00758   2.05976
   R17        2.55380   0.00733   0.00000   0.01308   0.01308   2.56688
   R18        2.31076  -0.00750   0.00000  -0.00785  -0.00785   2.30291
   R19        2.82663   0.00842   0.00000   0.02468   0.02468   2.85132
   R20        2.06761  -0.00445   0.00000  -0.01249  -0.01249   2.05512
   R21        2.06723  -0.00415   0.00000  -0.01163  -0.01163   2.05560
   R22        2.06508  -0.00435   0.00000  -0.01214  -0.01214   2.05294
    A1        1.88579   0.00039   0.00000   0.00060   0.00060   1.88639
    A2        1.88739  -0.00085   0.00000  -0.00775  -0.00775   1.87964
    A3        1.94834   0.00111   0.00000   0.00403   0.00403   1.95237
    A4        1.86997   0.00196   0.00000   0.01596   0.01598   1.88595
    A5        1.94393  -0.00226   0.00000  -0.01163  -0.01162   1.93231
    A6        1.92562  -0.00027   0.00000  -0.00065  -0.00064   1.92498
    A7        1.86994   0.00212   0.00000   0.04376   0.04346   1.91341
    A8        1.92513  -0.00107   0.00000  -0.01069  -0.01055   1.91458
    A9        1.96889   0.00521   0.00000   0.02307   0.02266   1.99155
   A10        1.85683   0.00106   0.00000   0.00199   0.00161   1.85844
   A11        1.89241  -0.00276   0.00000  -0.00671  -0.00797   1.88444
   A12        1.94525  -0.00456   0.00000  -0.04859  -0.04871   1.89654
   A13        1.90408  -0.00003   0.00000  -0.00230  -0.00211   1.90196
   A14        1.98319  -0.00023   0.00000   0.00888   0.00857   1.99176
   A15        1.80357   0.00257   0.00000   0.02692   0.02666   1.83023
   A16        1.92480  -0.00044   0.00000  -0.01447  -0.01447   1.91033
   A17        1.90524  -0.00198   0.00000  -0.02811  -0.02807   1.87717
   A18        1.93850   0.00016   0.00000   0.00970   0.00923   1.94772
   A19        1.89819  -0.00061   0.00000  -0.00871  -0.00822   1.88997
   A20        1.91998  -0.00049   0.00000  -0.02421  -0.02438   1.89559
   A21        2.01807  -0.00617   0.00000  -0.03053  -0.03062   1.98745
   A22        1.83947  -0.00016   0.00000   0.01419   0.01352   1.85299
   A23        1.86790   0.00497   0.00000   0.04321   0.04300   1.91090
   A24        1.91109   0.00308   0.00000   0.01184   0.01078   1.92188
   A25        1.94668   0.00254   0.00000   0.01614   0.01610   1.96278
   A26        1.91402  -0.00032   0.00000  -0.00034  -0.00038   1.91363
   A27        1.94206   0.00064   0.00000   0.00071   0.00071   1.94277
   A28        1.87071  -0.00023   0.00000   0.00460   0.00452   1.87523
   A29        1.90194  -0.00214   0.00000  -0.01509  -0.01508   1.88686
   A30        1.88609  -0.00063   0.00000  -0.00662  -0.00662   1.87947
   A31        2.11432  -0.00893   0.00000  -0.03395  -0.03395   2.08037
   A32        2.20718  -0.01201   0.00000  -0.03723  -0.04769   2.15948
   A33        1.88193   0.01202   0.00000   0.05374   0.04302   1.92495
   A34        2.18858   0.00072   0.00000   0.01043  -0.00065   2.18793
   A35        1.89667  -0.00008   0.00000  -0.00399  -0.00400   1.89267
   A36        1.92354   0.00198   0.00000   0.00959   0.00954   1.93308
   A37        1.91930  -0.00076   0.00000   0.00099   0.00095   1.92024
   A38        1.92070  -0.00338   0.00000  -0.03028  -0.03030   1.89041
   A39        1.90116   0.00132   0.00000   0.01162   0.01162   1.91278
   A40        1.90236   0.00089   0.00000   0.01194   0.01186   1.91422
    D1        3.07418  -0.00009   0.00000   0.01244   0.01279   3.08697
    D2       -1.19491   0.00180   0.00000   0.03360   0.03359  -1.16133
    D3        0.99296  -0.00114   0.00000  -0.02151  -0.02185   0.97111
    D4        0.96453   0.00022   0.00000   0.01697   0.01732   0.98184
    D5        2.97862   0.00211   0.00000   0.03813   0.03812   3.01673
    D6       -1.11669  -0.00083   0.00000  -0.01698  -0.01732  -1.13401
    D7       -1.10987  -0.00061   0.00000   0.00487   0.00523  -1.10465
    D8        0.90422   0.00128   0.00000   0.02603   0.02603   0.93024
    D9        3.09209  -0.00166   0.00000  -0.02908  -0.02941   3.06268
   D10        2.91830   0.00262   0.00000   0.09824   0.09816   3.01646
   D11       -1.20950   0.00187   0.00000   0.08396   0.08378  -1.12572
   D12        0.89295   0.00360   0.00000   0.11789   0.11790   1.01085
   D13        0.85015  -0.00136   0.00000   0.03424   0.03448   0.88463
   D14        3.00554  -0.00212   0.00000   0.01997   0.02010   3.02564
   D15       -1.17520  -0.00038   0.00000   0.05389   0.05422  -1.12098
   D16       -1.18795   0.00163   0.00000   0.06368   0.06353  -1.12442
   D17        0.96744   0.00087   0.00000   0.04940   0.04915   1.01659
   D18        3.06988   0.00261   0.00000   0.08332   0.08327  -3.13003
   D19       -2.95151  -0.00011   0.00000  -0.02349  -0.02354  -2.97505
   D20        1.32522   0.00069   0.00000  -0.02240  -0.02214   1.30308
   D21       -0.85039   0.00172   0.00000   0.00543   0.00526  -0.84513
   D22       -0.80747  -0.00064   0.00000  -0.03107  -0.03114  -0.83861
   D23       -2.81391   0.00016   0.00000  -0.02999  -0.02975  -2.84366
   D24        1.29366   0.00118   0.00000  -0.00216  -0.00234   1.29131
   D25        1.30711  -0.00332   0.00000  -0.06982  -0.06989   1.23722
   D26       -0.69933  -0.00252   0.00000  -0.06873  -0.06850  -0.76783
   D27       -2.87495  -0.00150   0.00000  -0.04090  -0.04109  -2.91604
   D28       -2.93882  -0.00347   0.00000  -0.14304  -0.14328  -3.08210
   D29        1.31984  -0.00387   0.00000  -0.14175  -0.14159   1.17825
   D30       -0.80618  -0.00210   0.00000  -0.11111  -0.11101  -0.91719
   D31        1.17636  -0.00107   0.00000  -0.02060  -0.02056   1.15580
   D32       -3.03729   0.00003   0.00000  -0.00507  -0.00498  -3.04227
   D33       -0.95153  -0.00055   0.00000  -0.01308  -0.01301  -0.96454
   D34       -2.98934  -0.00215   0.00000  -0.01935  -0.01972  -3.00905
   D35       -0.91980  -0.00106   0.00000  -0.00381  -0.00414  -0.92394
   D36        1.16596  -0.00164   0.00000  -0.01183  -0.01217   1.15379
   D37       -1.00385   0.00177   0.00000   0.02559   0.02584  -0.97801
   D38        1.06569   0.00286   0.00000   0.04112   0.04142   1.10711
   D39       -3.13174   0.00228   0.00000   0.03311   0.03339  -3.09835
   D40       -0.39176   0.00178   0.00000   0.01900   0.02273  -0.36903
   D41        2.64172   0.00927   0.00000   0.28480   0.28108   2.92280
   D42       -1.13459  -0.00213   0.00000  -0.12853  -0.12925  -1.26383
   D43        0.97140  -0.00512   0.00000  -0.16237  -0.16311   0.80829
   D44        3.06906  -0.00324   0.00000  -0.14084  -0.14152   2.92753
   D45        1.90035   0.00424   0.00000   0.12993   0.13064   2.03099
   D46       -2.27685   0.00125   0.00000   0.09609   0.09678  -2.18007
   D47       -0.17919   0.00313   0.00000   0.11762   0.11836  -0.06082
         Item               Value     Threshold  Converged?
 Maximum Force            0.012021     0.000450     NO 
 RMS     Force            0.003626     0.000300     NO 
 Maximum Displacement     0.687747     0.001800     NO 
 RMS     Displacement     0.197119     0.001200     NO 
 Predicted change in Energy=-8.719015D-03
 Lowest energy point so far.  Saving SCF results.
 GradGradGradGradGradGradGradGradGradGradGradGradGradGradGradGradGradGrad

 Leave Link  103 at Sun Sep 19 20:06:02 2021, MaxMem=   524288000 cpu:               0.1 elap:               0.1
 (Enter /opt/gaussian/g16_legacy/l202.exe)
                          Input orientation:                          
 ---------------------------------------------------------------------
 Center     Atomic      Atomic             Coordinates (Angstroms)
 Number     Number       Type             X           Y           Z
 ---------------------------------------------------------------------
      1          6           0       -2.575765    1.523898    2.438832
      2          1           0       -2.401702    2.178264    3.292978
      3          1           0       -2.438748    0.497622    2.766949
      4          1           0       -3.615236    1.645431    2.134842
      5          6           0       -1.641946    1.848016    1.274415
      6          1           0       -1.808647    1.137315    0.461407
      7          1           0       -1.879587    2.833944    0.876634
      8          6           0       -0.158446    1.811281    1.635624
      9          1           0        0.432859    1.927182    0.722713
     10          6           0        0.262371    2.869338    2.651448
     11          1           0        1.349794    2.872032    2.711501
     12          1           0       -0.096059    2.567272    3.638253
     13          6           0       -0.232893    4.275062    2.320577
     14          1           0       -1.317277    4.358500    2.378385
     15          1           0        0.187466    4.987360    3.028715
     16          1           0        0.077513    4.579409    1.321042
     17          8           0        0.069365    0.469228    2.137035
     18          6           0        1.298269    0.139200    2.612375
     19          8           0        2.318721    0.740287    2.325198
     20          6           0        1.237419   -1.173726    3.353425
     21          1           0        0.724046   -1.011940    4.298402
     22          1           0        0.678899   -1.912748    2.783196
     23          1           0        2.242183   -1.540826    3.542855
 ---------------------------------------------------------------------
                    Distance matrix (angstroms):
                    1          2          3          4          5
     1  C    0.000000
     2  H    1.089981   0.000000
     3  H    1.086130   1.761431   0.000000
     4  H    1.089807   1.760072   1.761008   0.000000
     5  C    1.527395   2.181946   2.164744   2.162232   0.000000
     6  H    2.155951   3.074586   2.474219   2.514424   1.092642
     7  H    2.154378   2.557584   3.056854   2.451148   1.089384
     8  C    2.563428   2.813129   2.864503   3.496587   1.527283
     9  H    3.487050   3.834584   3.803770   4.296575   2.148361
    10  C    3.148084   2.826028   3.596446   4.098862   2.562371
    11  H    4.159547   3.859165   4.471459   5.146709   3.473375
    12  H    2.945535   2.363584   3.245121   3.936323   2.914588
    13  C    3.615513   3.169520   4.397056   4.288321   2.995069
    14  H    3.102002   2.601131   4.039190   3.563800   2.761646
    15  H    4.469785   3.829444   5.208000   5.140821   4.034823
    16  H    4.198272   3.974989   5.008314   4.786115   3.227882
    17  O    2.863585   3.219189   2.586161   3.867782   2.360880
    18  C    4.117723   4.279111   3.757346   5.161327   3.654456
    19  O    4.958120   5.028596   4.784093   6.005611   4.244772
    20  C    4.759625   4.947999   4.080633   5.742896   4.663041
    21  H    4.558205   4.578055   3.824577   5.529194   4.787668
    22  H    4.745731   5.146490   3.940795   5.614320   4.669698
    23  H    5.815843   5.954808   5.164147   6.814990   5.631743
                    6          7          8          9         10
     6  H    0.000000
     7  H    1.748140   0.000000
     8  C    2.134521   2.141082   0.000000
     9  H    2.390924   2.488637   1.093837   0.000000
    10  C    3.476392   2.781943   1.525933   2.153310   0.000000
    11  H    4.248284   3.714444   2.134829   2.385119   1.089083
    12  H    3.882020   3.298276   2.141480   3.031475   1.092475
    13  C    3.973030   2.621716   2.558304   2.917008   1.526703
    14  H    3.780513   2.212627   2.895325   3.422796   2.188025
    15  H    5.039680   3.679859   3.485374   3.839602   2.152662
    16  H    4.018032   2.659772   2.795921   2.742002   2.174510
    17  O    2.604035   3.313443   1.450661   2.063508   2.462194
    18  C    3.908430   4.513669   2.423204   2.741649   2.920320
    19  O    4.546044   4.909943   2.785480   2.744660   2.977898
    20  C    4.794080   5.649039   3.716121   4.145310   4.217803
    21  H    5.075073   5.768728   3.979920   4.637756   4.241453
    22  H    4.569625   5.719433   3.985783   4.364767   4.802000
    23  H    5.751260   6.575435   4.542816   4.822234   4.915670
                   11         12         13         14         15
    11  H    0.000000
    12  H    1.744202   0.000000
    13  C    2.150864   2.161375   0.000000
    14  H    3.071453   2.507416   1.089124   0.000000
    15  H    2.434388   2.511723   1.088820   1.755746   0.000000
    16  H    2.543072   3.073807   1.089977   1.764147   1.759164
    17  O    2.782620   2.585112   3.822227   4.136116   4.606794
    18  C    2.735115   2.981964   4.419837   4.969741   4.991180
    19  O    2.373265   3.300478   4.359518   5.129793   4.803625
    20  C    4.097908   3.981753   5.737411   6.171118   6.258340
    21  H    4.242058   3.730835   5.725375   6.057647   6.155617
    22  H    4.832117   4.626257   6.271712   6.593720   6.921941
    23  H    4.578299   4.727890   6.437742   6.987689   6.863193
                   16         17         18         19         20
    16  H    0.000000
    17  O    4.190406   0.000000
    18  C    4.782599   1.358334   0.000000
    19  O    4.557435   2.273430   1.218647   0.000000
    20  C    6.210840   2.354412   1.508851   2.426914   0.000000
    21  H    6.367564   2.700735   2.120741   3.083313   1.087523
    22  H    6.681891   2.542217   2.150183   3.152360   1.087778
    23  H    6.861453   3.276856   2.139919   2.586894   1.086369
                   21         22         23
    21  H    0.000000
    22  H    1.763333   0.000000
    23  H    1.776320   1.777432   0.000000
 Stoichiometry    C7H14O2
 Framework group  C1[X(C7H14O2)]
 Deg. of freedom    63
 Full point group                 C1      NOp   1
 RotChk:  IX=2 Diff= 2.97D-02
 Largest Abelian subgroup         C1      NOp   1
 Largest concise Abelian subgroup C1      NOp   1
                         Standard orientation:                         
 ---------------------------------------------------------------------
 Center     Atomic      Atomic             Coordinates (Angstroms)
 Number     Number       Type             X           Y           Z
 ---------------------------------------------------------------------
[...]
    12  H    1.756000   0.000000
    13  C    2.152311   2.164280   0.000000
    14  H    3.067830   2.500698   1.089142   0.000000
    15  H    2.456351   2.532970   1.088908   1.758920   0.000000
    16  H    2.533947   3.071311   1.090369   1.763733   1.760323
    17  O    2.637119   2.614088   3.799815   4.168409   4.581694
    18  C    2.812485   3.455625   4.479547   5.087008   5.139261
    19  O    2.642155   3.843996   4.352158   5.132215   4.941115
    20  C    4.077557   4.462203   5.844661   6.394028   6.442281
    21  H    4.116388   4.226687   5.919303   6.435679   6.403373
    22  H    4.821481   4.989931   6.354630   6.765613   7.067228
    23  H    4.600373   5.272799   6.509487   7.167903   7.042485
                   16         17         18         19         20
    16  H    0.000000
    17  O    4.114644   0.000000
    18  C    4.616034   1.358552   0.000000
    19  O    4.251493   2.280993   1.219776   0.000000
    20  C    6.082179   2.349431   1.505241   2.426331   0.000000
    21  H    6.334803   2.620974   2.132549   3.110835   1.088240
    22  H    6.573773   2.597717   2.135109   3.130387   1.087915
    23  H    6.644413   3.274711   2.126827   2.573279   1.084816
                   21         22         23
    21  H    0.000000
    22  H    1.758061   0.000000
    23  H    1.780953   1.782612   0.000000
 Stoichiometry    C7H14O2
 Framework group  C1[X(C7H14O2)]
 Deg. of freedom    63
 Full point group                 C1      NOp   1
 RotChk:  IX=2 Diff= 1.62D-15
 Largest Abelian subgroup         C1      NOp   1
 Largest concise Abelian subgroup C1      NOp   1
                         Standard orientation:                         
 ---------------------------------------------------------------------
 Center     Atomic      Atomic             Coordinates (Angstroms)
 Number     Number       Type             X           Y           Z
 ---------------------------------------------------------------------
      1          6           0        1.843980    1.928774    0.347956
      2          1           0        2.462394    1.375910    1.053810
      3          1           0        0.976009    2.310336    0.882196
      4          1           0        2.426738    2.778313   -0.005663
      5          6           0        1.407831    1.054976   -0.822665
      6          1           0        0.884908    1.664051   -1.562407
      7          1           0        2.279728    0.633918   -1.327493
      8          6           0        0.480555   -0.088056   -0.437654
      9          1           0        0.213704   -0.664404   -1.326016
     10          6           0        1.011687   -1.035936    0.628489
     11          1           0        0.243425   -1.788786    0.806685
     12          1           0        1.144576   -0.483353    1.559882
     13          6           0        2.313579   -1.719135    0.221831
     14          1           0        3.133671   -1.007368    0.137771
     15          1           0        2.599062   -2.468101    0.958899
     16          1           0        2.203914   -2.222996   -0.738899
     17          8           0       -0.734540    0.543975    0.060888
     18          6           0       -1.879555   -0.172862   -0.083155
     19          8           0       -1.938982   -1.279453   -0.592838
     20          6           0       -3.046655    0.596911    0.474587
     21          1           0       -2.888406    0.781298    1.535353
     22          1           0       -3.123180    1.561614   -0.022455
     23          1           0       -3.956905    0.025363    0.327601
 ---------------------------------------------------------------------
 Rotational constants (GHZ):           2.3001111           1.0468447           0.8134333
 Leave Link  202 at Sun Sep 19 20:50:56 2021, MaxMem=   524288000 cpu:               0.0 elap:               0.0
 (Enter /opt/gaussian/g16_legacy/l601.exe)
 Copying SCF densities to generalized density rwf, IOpCl= 0 IROHF=0.

 **********************************************************************

            Population analysis using the SCF density.

 **********************************************************************

 Orbital symmetries:
       Occupied  (A) (A) (A) (A) (A) (A) (A) (A) (A) (A) (A) (A)
                 (A) (A) (A) (A) (A) (A) (A) (A) (A) (A) (A) (A)
                 (A) (A) (A) (A) (A) (A) (A) (A) (A) (A) (A) (A)
       Virtual   (A) (A) (A) (A) (A) (A) (A) (A) (A) (A) (A) (A)
                 (A) (A) (A) (A) (A) (A) (A) (A) (A) (A) (A) (A)
                 (A) (A) (A) (A) (A) (A) (A) (A) (A) (A) (A) (A)
                 (A) (A) (A) (A) (A) (A) (A) (A) (A) (A) (A) (A)
                 (A) (A) (A) (A) (A) (A) (A) (A) (A) (A) (A) (A)
                 (A) (A) (A) (A) (A) (A) (A) (A) (A) (A) (A) (A)
                 (A) (A) (A) (A) (A) (A) (A) (A) (A) (A) (A) (A)
                 (A) (A) (A) (A) (A) (A) (A) (A) (A) (A) (A) (A)
                 (A) (A) (A) (A) (A) (A) (A) (A) (A) (A) (A) (A)
                 (A) (A) (A) (A) (A) (A) (A) (A) (A) (A) (A) (A)
                 (A) (A) (A) (A) (A) (A) (A) (A) (A) (A) (A) (A)
                 (A) (A) (A) (A) (A) (A) (A) (A) (A) (A) (A) (A)
                 (A) (A) (A) (A) (A) (A) (A) (A) (A) (A) (A) (A)
                 (A) (A) (A) (A) (A) (A) (A) (A) (A) (A) (A) (A)
                 (A)
 The electronic state is 1-A.
 Alpha  occ. eigenvalues --  -20.60016 -20.54863 -11.38345 -11.28431 -11.23885
 Alpha  occ. eigenvalues --  -11.22407 -11.21937 -11.21773 -11.21366  -1.44476
 Alpha  occ. eigenvalues --   -1.34686  -1.09445  -1.01973  -1.01501  -0.92776
 Alpha  occ. eigenvalues --   -0.85776  -0.80458  -0.74945  -0.68977  -0.66300
 Alpha  occ. eigenvalues --   -0.65231  -0.63142  -0.60080  -0.58536  -0.57054
 Alpha  occ. eigenvalues --   -0.56579  -0.56288  -0.53620  -0.52011  -0.50314
 Alpha  occ. eigenvalues --   -0.50252  -0.48655  -0.47587  -0.46041  -0.44107
 Alpha  occ. eigenvalues --   -0.43076
 Alpha virt. eigenvalues --    0.18591   0.22100   0.25008   0.26522   0.27388
 Alpha virt. eigenvalues --    0.28310   0.30178   0.30902   0.31322   0.32684
 Alpha virt. eigenvalues --    0.33190   0.33658   0.34912   0.35972   0.36829
 Alpha virt. eigenvalues --    0.38586   0.39605   0.40015   0.42631   0.43619
 Alpha virt. eigenvalues --    0.48309   0.50291   0.54242   0.68814   0.70956
 Alpha virt. eigenvalues --    0.71404   0.74471   0.74870   0.75712   0.77947
 Alpha virt. eigenvalues --    0.79180   0.80282   0.82073   0.84434   0.87819
 Alpha virt. eigenvalues --    0.90519   0.93403   0.93718   0.94367   0.98843
 Alpha virt. eigenvalues --    1.01388   1.02449   1.07415   1.08503   1.09376
 Alpha virt. eigenvalues --    1.09852   1.11037   1.11956   1.13083   1.13768
 Alpha virt. eigenvalues --    1.14304   1.15261   1.16164   1.16322   1.18162
 Alpha virt. eigenvalues --    1.19108   1.21491   1.22270   1.23316   1.26963
 Alpha virt. eigenvalues --    1.27711   1.32343   1.37117   1.39780   1.42204
 Alpha virt. eigenvalues --    1.44218   1.47080   1.54224   1.57088   1.67061
 Alpha virt. eigenvalues --    1.68704   1.70137   1.71890   1.74696   1.76877
 Alpha virt. eigenvalues --    1.80134   1.82573   1.85250   1.92286   1.96401
 Alpha virt. eigenvalues --    1.98517   2.00745   2.03790   2.05711   2.08763
 Alpha virt. eigenvalues --    2.10372   2.12053   2.15452   2.16808   2.17829
 Alpha virt. eigenvalues --    2.20215   2.24107   2.27233   2.30530   2.32278
 Alpha virt. eigenvalues --    2.34187   2.35428   2.35903   2.36928   2.38050
 Alpha virt. eigenvalues --    2.39302   2.40903   2.41166   2.42596   2.44130
 Alpha virt. eigenvalues --    2.46160   2.48431   2.50083   2.53070   2.55890
 Alpha virt. eigenvalues --    2.57109   2.58655   2.59999   2.60300   2.64032
 Alpha virt. eigenvalues --    2.67012   2.70133   2.71646   2.76152   2.79877
 Alpha virt. eigenvalues --    2.82580   2.85556   2.87994   2.92955   2.94980
 Alpha virt. eigenvalues --    2.95584   2.98261   2.99877   3.02711   3.05038
 Alpha virt. eigenvalues --    3.06252   3.12313   3.12992   3.14797   3.16634
 Alpha virt. eigenvalues --    3.20549   3.21573   3.23463   3.24664   3.25690
 Alpha virt. eigenvalues --    3.26280   3.28272   3.32397   3.35103   3.45930
 Alpha virt. eigenvalues --    3.49447   3.57264   3.59723   3.62417   3.67703
 Alpha virt. eigenvalues --    3.71434   3.74711   3.78547   3.79228   3.82293
 Alpha virt. eigenvalues --    3.83314   3.84118   3.89398   3.93099   3.95412
 Alpha virt. eigenvalues --    4.47418   4.58136   4.67746   4.74468   4.84516
 Alpha virt. eigenvalues --    4.99259   5.01583   5.06536   5.16186
          Condensed to atoms (all electrons):
               1          2          3          4          5          6
     1  C    4.939052   0.402288   0.405720   0.405695   0.325820  -0.041182
     2  H    0.402288   0.587911  -0.029574  -0.029634  -0.036971   0.004213
     3  H    0.405720  -0.029574   0.557267  -0.027986  -0.039175  -0.002105
     4  H    0.405695  -0.029634  -0.027986   0.576255  -0.036938  -0.004092
     5  C    0.325820  -0.036971  -0.039175  -0.036938   4.982952   0.411954
     6  H   -0.041182   0.004213  -0.002105  -0.004092   0.411954   0.575084
     7  H   -0.039373  -0.003756   0.004249  -0.002587   0.407018  -0.027702
     8  C   -0.050974  -0.004547  -0.005860   0.004403   0.363925  -0.041789
     9  H    0.004150  -0.000121   0.000064  -0.000058  -0.044536  -0.004533
    10  C   -0.005068   0.000948  -0.000027  -0.000047  -0.058980   0.004934
    11  H   -0.000088   0.000063  -0.000041   0.000001   0.004314  -0.000094
    12  H    0.001265  -0.002674   0.000430   0.000033  -0.005797  -0.000149
    13  C   -0.000580  -0.000248   0.000061  -0.000002  -0.001295  -0.000068
    14  H    0.000008   0.000752  -0.000028  -0.000006   0.000232   0.000039
    15  H   -0.000023   0.000008   0.000002   0.000000  -0.000009   0.000002
    16  H    0.000110  -0.000036  -0.000002   0.000001  -0.000517  -0.000043
    17  O   -0.002735   0.000112   0.004181  -0.000018  -0.053517   0.000701
    18  C   -0.000227  -0.000006  -0.000007   0.000005   0.003267   0.000027
    19  O   -0.000012   0.000000   0.000005   0.000000   0.000343   0.000001
    20  C   -0.000010  -0.000000   0.000008  -0.000000  -0.000114  -0.000033
    21  H    0.000001  -0.000000   0.000009  -0.000000  -0.000007   0.000000
    22  H    0.000002   0.000000   0.000009  -0.000000  -0.000002   0.000009
    23  H    0.000000  -0.000000  -0.000000   0.000000   0.000002   0.000000
               7          8          9         10         11         12
     1  C   -0.039373  -0.050974   0.004150  -0.005068  -0.000088   0.001265
     2  H   -0.003756  -0.004547  -0.000121   0.000948   0.000063  -0.002674
     3  H    0.004249  -0.005860   0.000064  -0.000027  -0.000041   0.000430
     4  H   -0.002587   0.004403  -0.000058  -0.000047   0.000001   0.000033
     5  C    0.407018   0.363925  -0.044536  -0.058980   0.004314  -0.005797
     6  H   -0.027702  -0.041789  -0.004533   0.004934  -0.000094  -0.000149
     7  H    0.587852  -0.040744  -0.001360  -0.001828  -0.000084   0.000408
     8  C   -0.040744   4.819355   0.424732   0.357494  -0.037678  -0.039237
     9  H   -0.001360   0.424732   0.540975  -0.047540  -0.004855   0.004483
    10  C   -0.001828   0.357494  -0.047540   5.006755   0.414277   0.404254
    11  H   -0.000084  -0.037678  -0.004855   0.414277   0.542775  -0.029510
    12  H    0.000408  -0.039237   0.004483   0.404254  -0.029510   0.586333
    13  C   -0.000903  -0.052250   0.000182   0.322870  -0.035431  -0.037460
    14  H   -0.002146  -0.004294   0.000100  -0.038167   0.003887  -0.003933
    15  H    0.000071   0.004083  -0.000153  -0.033953  -0.003947  -0.002508
    16  H    0.000376  -0.003378   0.002528  -0.041591  -0.002457   0.004343
    17  O    0.002944   0.132203  -0.030447  -0.041217  -0.003108   0.000223
    18  C   -0.000050  -0.019167  -0.007176  -0.003317   0.002624   0.000116
    19  O    0.000007  -0.002844   0.008672  -0.004908   0.004601   0.000109
    20  C    0.000004   0.004183   0.000248  -0.000442   0.000109  -0.000029
    21  H   -0.000000  -0.000234  -0.000001   0.000085  -0.000038   0.000000
    22  H   -0.000000  -0.000190  -0.000029   0.000009  -0.000001   0.000001
    23  H   -0.000000  -0.000117   0.000008   0.000010   0.000001   0.000000
              13         14         15         16         17         18
     1  C   -0.000580   0.000008  -0.000023   0.000110  -0.002735  -0.000227
     2  H   -0.000248   0.000752   0.000008  -0.000036   0.000112  -0.000006
     3  H    0.000061  -0.000028   0.000002  -0.000002   0.004181  -0.000007
     4  H   -0.000002  -0.000006   0.000000   0.000001  -0.000018   0.000005
     5  C   -0.001295   0.000232  -0.000009  -0.000517  -0.053517   0.003267
     6  H   -0.000068   0.000039   0.000002  -0.000043   0.000701   0.000027
     7  H   -0.000903  -0.002146   0.000071   0.000376   0.002944  -0.000050
     8  C   -0.052250  -0.004294   0.004083  -0.003378   0.132203  -0.019167
     9  H    0.000182   0.000100  -0.000153   0.002528  -0.030447  -0.007176
    10  C    0.322870  -0.038167  -0.033953  -0.041591  -0.041217  -0.003317
    11  H   -0.035431   0.003887  -0.003947  -0.002457  -0.003108   0.002624
    12  H   -0.037460  -0.003933  -0.002508   0.004343   0.000223   0.000116
    13  C    4.941931   0.403270   0.404751   0.402730   0.002584   0.000064
    14  H    0.403270   0.587501  -0.029050  -0.031529  -0.000032  -0.000001
    15  H    0.404751  -0.029050   0.566916  -0.028090  -0.000046  -0.000004
    16  H    0.402730  -0.031529  -0.028090   0.579613  -0.000010  -0.000007
    17  O    0.002584  -0.000032  -0.000046  -0.000010   8.554327   0.256573
    18  C    0.000064  -0.000001  -0.000004  -0.000007   0.256573   4.158708
    19  O   -0.000016  -0.000003   0.000001   0.000009  -0.074119   0.561803
    20  C    0.000002  -0.000000  -0.000000  -0.000000  -0.093796   0.374699
    21  H   -0.000000   0.000000   0.000000  -0.000000   0.002242  -0.031335
    22  H    0.000000  -0.000000   0.000000   0.000000   0.002469  -0.030367
    23  H   -0.000000   0.000000   0.000000   0.000000   0.003266  -0.038480
              19         20         21         22         23
     1  C   -0.000012  -0.000010   0.000001   0.000002   0.000000
     2  H    0.000000  -0.000000  -0.000000   0.000000  -0.000000
     3  H    0.000005   0.000008   0.000009   0.000009  -0.000000
     4  H    0.000000  -0.000000  -0.000000  -0.000000   0.000000
     5  C    0.000343  -0.000114  -0.000007  -0.000002   0.000002
     6  H    0.000001  -0.000033   0.000000   0.000009   0.000000
     7  H    0.000007   0.000004  -0.000000  -0.000000  -0.000000
     8  C   -0.002844   0.004183  -0.000234  -0.000190  -0.000117
     9  H    0.008672   0.000248  -0.000001  -0.000029   0.000008
    10  C   -0.004908  -0.000442   0.000085   0.000009   0.000010
    11  H    0.004601   0.000109  -0.000038  -0.000001   0.000001
    12  H    0.000109  -0.000029   0.000000   0.000001   0.000000
    13  C   -0.000016   0.000002  -0.000000   0.000000  -0.000000
    14  H   -0.000003  -0.000000   0.000000  -0.000000   0.000000
    15  H    0.000001  -0.000000   0.000000   0.000000   0.000000
    16  H    0.000009  -0.000000  -0.000000   0.000000   0.000000
    17  O   -0.074119  -0.093796   0.002242   0.002469   0.003266
    18  C    0.561803   0.374699  -0.031335  -0.030367  -0.038480
    19  O    8.150849  -0.060629   0.000932   0.001169   0.003099
    20  C   -0.060629   5.005619   0.389943   0.388682   0.395256
    21  H    0.000932   0.389943   0.528073  -0.023447  -0.021160
    22  H    0.001169   0.388682  -0.023447   0.528369  -0.021352
    23  H    0.003099   0.395256  -0.021160  -0.021352   0.521587
 Mulliken charges:
               1
     1  C   -0.343840
     2  H    0.111273
     3  H    0.132801
     4  H    0.114975
     5  C   -0.221969
     6  H    0.124827
     7  H    0.117605
     8  C    0.192924
     9  H    0.154666
    10  C   -0.234550
    11  H    0.144682
    12  H    0.119300
    13  C   -0.350191
    14  H    0.113400
    15  H    0.121948
    16  H    0.117951
    17  O   -0.662781
    18  C    0.772259
    19  O   -0.589070
    20  C   -0.403697
    21  H    0.154937
    22  H    0.154670
    23  H    0.157880
 Sum of Mulliken charges =  -0.00000
 Mulliken charges with hydrogens summed into heavy atoms:
               1
     1  C    0.015209
     5  C    0.020462
     8  C    0.347590
    10  C    0.029432
    13  C    0.003109
    17  O   -0.662781
    18  C    0.772259
    19  O   -0.589070
    20  C    0.063790
 Electronic spatial extent (au):  <R**2>=           1535.3887
 Charge=              0.0000 electrons
 Dipole moment (field-independent basis, Debye):
    X=              0.7020    Y=              1.7187    Z=              0.7780  Tot=              2.0130
 Quadrupole moment (field-independent basis, Debye-Ang):
   XX=            -53.6355   YY=            -60.2955   ZZ=            -56.2796
   XY=             -5.6653   XZ=             -3.2470   YZ=             -2.2951
 Traceless Quadrupole moment (field-independent basis, Debye-Ang):
   XX=              3.1014   YY=             -3.5586   ZZ=              0.4573
   XY=             -5.6653   XZ=             -3.2470   YZ=             -2.2951
 Octapole moment (field-independent basis, Debye-Ang**2):
  XXX=            -25.5191  YYY=              2.7828  ZZZ=             -1.0274  XYY=              3.1702
  XXY=             12.9217  XXZ=              6.1806  XZZ=             -3.8325  YZZ=              0.0226
  YYZ=              1.2272  XYZ=              2.8891
 Hexadecapole moment (field-independent basis, Debye-Ang**3):
 XXXX=          -1249.8750 YYYY=           -577.9381 ZZZZ=           -181.7359 XXXY=            -17.3518
 XXXZ=            -13.5762 YYYX=             -7.6972 YYYZ=             -6.3256 ZZZX=             -0.5184
 ZZZY=              3.5373 XXYY=           -324.4698 XXZZ=           -246.5861 YYZZ=           -125.7444
 XXYZ=             -9.4552 YYXZ=             -4.3273 ZZXY=             -4.3174
 N-N= 4.858237570939D+02 E-N=-1.961692234635D+03  KE= 4.221844352055D+02
 No NMR shielding tensors so no spin-rotation constants.
 Leave Link  601 at Sun Sep 19 20:50:57 2021, MaxMem=   524288000 cpu:               0.3 elap:               0.3
 (Enter /opt/gaussian/g16_legacy/l9999.exe)
 1\1\GINC-TRUENO90\FOpt\RMP2-FC\6-31G(d,p)\C7H14O2\JRAMOS\19-Sep-2021\0
 \\#p opt mp2/6-31g(d,p)\\Conformer number 022. Energy MM = 0.626 kcal/
 mol\\0,1\C,-2.6909104374,1.6489265354,2.4167553802\H,-2.715922663,2.53
 8889119,3.0441822439\H,-2.4910946325,0.7892292148,3.0534416023\H,-3.68
 09161902,1.5260779005,1.9795277084\C,-1.6337191723,1.760313232,1.32403
 2998\H,-1.708940497,0.9050015618,0.6499230546\H,-1.8081509825,2.650740
 0795,0.7165302194\C,-0.2035624099,1.8072861956,1.8407918304\H,0.491393
 9244,1.8861217177,1.002105196\C,0.0985585239,2.9134157111,2.8420110062
 \H,1.14621919,2.8164376145,3.127957256\H,-0.4979863054,2.7506520986,3.
 7409783957\C,-0.1517072603,4.3092585585,2.2798339486\H,-1.208749175,4.
 4806982375,2.0810845029\H,0.180843525,5.0705307906,2.983819513\H,0.395
 2871231,4.4563132377,1.3481275103\O,0.0234096426,0.5189517954,2.483553
 1414\C,1.3090861474,0.0802200673,2.4981498737\O,2.2493253428,0.6889945
 648,2.0152452903\C,1.3939605271,-1.2530890122,3.1915709991\H,1.0544397
 32,-1.1512637721,4.2204651586\H,0.7414099323,-1.9685364579,2.695717525
 8\H,2.4203261148,-1.60376899,3.1709956451\\Version=EM64L-G16RevA.03\St
 ate=1-A\HF=-422.9992381\MP2=-424.3596823\RMSD=4.084e-09\RMSF=3.291e-06
 \Dipole=-0.6377657,-0.0939656,0.1999382\PG=C01 [X(C7H14O2)]\\@


 TRUST EVERYONE, BUT CUT THE CARDS.
 Job cpu time:       0 days  0 hours 48 minutes 19.4 seconds.
 Elapsed time:       0 days  0 hours 48 minutes 21.0 seconds.
 File lengths (MBytes):  RWF=     22 Int=      0 D2E=      0 Chk=      6 Scr=      1
 Normal termination of Gaussian 16 at Sun Sep 19 20:50:57 2021.
