 Entering Gaussian System, Link 0=/opt/gaussian/g16_legacy/g16
 Input=07-EVA_017_gaussian.com
 Output=07-EVA_017_gaussian.log
 Initial command:
 /opt/gaussian/g16_legacy/l1.exe "/scratch-local/jramos/2661766/Gau-2469.inp" -scrdir="/scratch-local/jramos/2661766/"
 Entering Link 1 = /opt/gaussian/g16_legacy/l1.exe PID=      2474.
  
 Copyright (c) 1988,1990,1992,1993,1995,1998,2003,2009,2016,
            Gaussian, Inc.  All Rights Reserved.
  
 This is part of the Gaussian(R) 16 program.  It is based on
 the Gaussian(R) 09 system (copyright 2009, Gaussian, Inc.),
 the Gaussian(R) 03 system (copyright 2003, Gaussian, Inc.),
 the Gaussian(R) 98 system (copyright 1998, Gaussian, Inc.),
 the Gaussian(R) 94 system (copyright 1995, Gaussian, Inc.),
 the Gaussian 92(TM) system (copyright 1992, Gaussian, Inc.),
 the Gaussian 90(TM) system (copyright 1990, Gaussian, Inc.),
 the Gaussian 88(TM) system (copyright 1988, Gaussian, Inc.),
 the Gaussian 86(TM) system (copyright 1986, Carnegie Mellon
 University), and the Gaussian 82(TM) system (copyright 1983,
 Carnegie Mellon University). Gaussian is a federally registered
 trademark of Gaussian, Inc.
  
 This software contains proprietary and confidential information,
 including trade secrets, belonging to Gaussian, Inc.
  
 This software is provided under written license and may be
 used, copied, transmitted, or stored only in accord with that
 written license.
  
 The following legend is applicable only to US Government
 contracts under FAR:
  
                    RESTRICTED RIGHTS LEGEND
  
 Use, reproduction and disclosure by the US Government is
 subject to restrictions as set forth in subparagraphs (a)
 and (c) of the Commercial Computer Software - Restricted
 Rights clause in FAR 52.227-19.
  
 Gaussian, Inc.
 340 Quinnipiac St., Bldg. 40, Wallingford CT 06492
  
  
 ---------------------------------------------------------------
 Warning -- This program may not be used in any manner that
 competes with the business of Gaussian, Inc. or will provide
 assistance to any competitor of Gaussian, Inc.  The licensee
 of this program is prohibited from giving any competitor of
 Gaussian, Inc. access to this program.  By using this program,
 the user acknowledges that Gaussian, Inc. is engaged in the
 business of creating and licensing software in the field of
 computational chemistry and represents and warrants to the
 licensee that it is not a competitor of Gaussian, Inc. and that
 it will not use this program in any manner prohibited above.
 ---------------------------------------------------------------
  

 Cite this work as:
 Gaussian 16, Revision A.03,
 M. J. Frisch, G. W. Trucks, H. B. Schlegel, G. E. Scuseria, 
 M. A. Robb, J. R. Cheeseman, G. Scalmani, V. Barone, 
 G. A. Petersson, H. Nakatsuji, X. Li, M. Caricato, A. V. Marenich, 
 J. Bloino, B. G. Janesko, R. Gomperts, B. Mennucci, H. P. Hratchian, 
 J. V. Ortiz, A. F. Izmaylov, J. L. Sonnenberg, D. Williams-Young, 
 F. Ding, F. Lipparini, F. Egidi, J. Goings, B. Peng, A. Petrone, 
 T. Henderson, D. Ranasinghe, V. G. Zakrzewski, J. Gao, N. Rega, 
 G. Zheng, W. Liang, M. Hada, M. Ehara, K. Toyota, R. Fukuda, 
 J. Hasegawa, M. Ishida, T. Nakajima, Y. Honda, O. Kitao, H. Nakai, 
 T. Vreven, K. Throssell, J. A. Montgomery, Jr., J. E. Peralta, 
 F. Ogliaro, M. J. Bearpark, J. J. Heyd, E. N. Brothers, K. N. Kudin, 
 V. N. Staroverov, T. A. Keith, R. Kobayashi, J. Normand, 
 K. Raghavachari, A. P. Rendell, J. C. Burant, S. S. Iyengar, 
 J. Tomasi, M. Cossi, J. M. Millam, M. Klene, C. Adamo, R. Cammi, 
 J. W. Ochterski, R. L. Martin, K. Morokuma, O. Farkas, 
 J. B. Foresman, and D. J. Fox, Gaussian, Inc., Wallingford CT, 2016.
 
 ******************************************
 Gaussian 16:  EM64L-G16RevA.03 25-Dec-2016
                19-Sep-2021 
 ******************************************
 %chk=07-EVA_017_gaussian.chk
 %nproc=1
 Will use up to    1 processors via shared memory.
 %mem=4000Mb
 ---------------------
 #p opt mp2/6-31g(d,p)
 ---------------------
 1/18=20,19=15,38=1/1,3;
 2/9=110,12=2,17=6,18=5,40=1/2;
 3/5=1,6=6,7=101,11=9,25=1,30=1,71=1/1,2,3;
 4//1;
 5/5=2,38=5/2;
 8/6=4,10=2/1;
 9/15=2,16=-3/6;
 10/5=1/2;
 6/7=2,8=2,9=2,10=2/1;
 7/12=2/1,2,3,16;
 1/18=20,19=15/3(2);
 2/9=110/2;
 99//99;
 2/9=110/2;
 3/5=1,6=6,7=101,11=9,25=1,30=1,71=1/1,2,3;
 4/5=5,16=3,69=1/1;
 5/5=2,38=5/2;
 8/6=4,10=2/1;
 9/15=2,16=-3/6;
 10/5=1/2;
 7/12=2/1,2,3,16;
 1/18=20,19=15/3(-8);
 2/9=110/2;
 6/7=2,8=2,9=2,10=2/1;
 99//99;
 Leave Link    1 at Sun Sep 19 20:02:33 2021, MaxMem=   524288000 cpu:               0.0 elap:               0.1
 (Enter /opt/gaussian/g16_legacy/l101.exe)
 -------------------------------------------------
 Conformer number 017. Energy MM = -6.229 kcal/mol
 -------------------------------------------------
 Symbolic Z-matrix:
 Charge =  0 Multiplicity = 1
 C                    -2.0455    0.9821    0.0029 
 H                    -1.66     -0.0417    0.0043 
 H                    -1.7143    1.48     -0.9135 
 H                    -3.1393    0.927    -0.0191 
 C                    -1.5939    1.7502    1.2374 
 H                    -2.1103    2.7152    1.2427 
 H                    -1.9269    1.1946    2.1227 
 C                    -0.069     1.9654    1.3049 
 H                     0.2429    2.5323    0.4156 
 C                     0.314     2.7282    2.5857 
 H                     1.4       2.7175    2.7266 
 H                    -0.0952    2.2143    3.464 
 C                    -0.1499    4.1778    2.5707 
 H                    -1.2397    4.2541    2.6195 
 H                     0.2566    4.7132    3.4348 
 H                     0.1924    4.6892    1.6652 
 O                     0.5664    0.6692    1.2668 
 C                     1.8926    0.6631    0.954 
 O                     2.6153    1.6426    0.8599 
 C                     2.3566   -0.7428    0.6849 
 H                     2.3679   -1.3239    1.6077 
 H                     1.7051   -1.208    -0.0582 
 H                     3.3681   -0.7099    0.2705 
 
 ITRead=  0  0  0  0  0  0  0  0  0  0  0  0  0  0  0  0  0  0  0  0
 ITRead=  0  0  0
 MicOpt= -1 -1 -1 -1 -1 -1 -1 -1 -1 -1 -1 -1 -1 -1 -1 -1 -1 -1 -1 -1
 MicOpt= -1 -1 -1
 NAtoms=     23 NQM=       23 NQMF=       0 NMMI=      0 NMMIF=      0
                NMic=       0 NMicF=      0.
                    Isotopes and Nuclear Properties:
 (Nuclear quadrupole moments (NQMom) in fm**2, nuclear magnetic moments (NMagM)
  in nuclear magnetons)

  Atom         1           2           3           4           5           6           7           8           9          10
 IAtWgt=          12           1           1           1          12           1           1          12           1          12
 AtmWgt=  12.0000000   1.0078250   1.0078250   1.0078250  12.0000000   1.0078250   1.0078250  12.0000000   1.0078250  12.0000000
 NucSpn=           0           1           1           1           0           1           1           0           1           0
 AtZEff=  -0.0000000  -0.0000000  -0.0000000  -0.0000000  -0.0000000  -0.0000000  -0.0000000  -0.0000000  -0.0000000  -0.0000000
 NQMom=    0.0000000   0.0000000   0.0000000   0.0000000   0.0000000   0.0000000   0.0000000   0.0000000   0.0000000   0.0000000
 NMagM=    0.0000000   2.7928460   2.7928460   2.7928460   0.0000000   2.7928460   2.7928460   0.0000000   2.7928460   0.0000000
 AtZNuc=   6.0000000   1.0000000   1.0000000   1.0000000   6.0000000   1.0000000   1.0000000   6.0000000   1.0000000   6.0000000

  Atom        11          12          13          14          15          16          17          18          19          20
 IAtWgt=           1           1          12           1           1           1          16          12          16          12
 AtmWgt=   1.0078250   1.0078250  12.0000000   1.0078250   1.0078250   1.0078250  15.9949146  12.0000000  15.9949146  12.0000000
 NucSpn=           1           1           0           1           1           1           0           0           0           0
 AtZEff=  -0.0000000  -0.0000000  -0.0000000  -0.0000000  -0.0000000  -0.0000000  -0.0000000  -0.0000000  -0.0000000  -0.0000000
 NQMom=    0.0000000   0.0000000   0.0000000   0.0000000   0.0000000   0.0000000   0.0000000   0.0000000   0.0000000   0.0000000
 NMagM=    2.7928460   2.7928460   0.0000000   2.7928460   2.7928460   2.7928460   0.0000000   0.0000000   0.0000000   0.0000000
 AtZNuc=   1.0000000   1.0000000   6.0000000   1.0000000   1.0000000   1.0000000   8.0000000   6.0000000   8.0000000   6.0000000

  Atom        21          22          23
 IAtWgt=           1           1           1
 AtmWgt=   1.0078250   1.0078250   1.0078250
 NucSpn=           1           1           1
 AtZEff=  -0.0000000  -0.0000000  -0.0000000
 NQMom=    0.0000000   0.0000000   0.0000000
 NMagM=    2.7928460   2.7928460   2.7928460
 AtZNuc=   1.0000000   1.0000000   1.0000000
 Leave Link  101 at Sun Sep 19 20:02:34 2021, MaxMem=   524288000 cpu:               0.1 elap:               0.2
 (Enter /opt/gaussian/g16_legacy/l103.exe)

 GradGradGradGradGradGradGradGradGradGradGradGradGradGradGradGradGradGrad
 Berny optimization.
 Initialization pass.
                           ----------------------------
                           !    Initial Parameters    !
                           ! (Angstroms and Degrees)  !
 --------------------------                            --------------------------
 ! Name  Definition              Value          Derivative Info.                !
 --------------------------------------------------------------------------------
 ! R1    R(1,2)                  1.094          estimate D2E/DX2                !
 ! R2    R(1,3)                  1.0943         estimate D2E/DX2                !
 ! R3    R(1,4)                  1.0954         estimate D2E/DX2                !
 ! R4    R(1,5)                  1.5225         estimate D2E/DX2                !
 ! R5    R(5,6)                  1.0945         estimate D2E/DX2                !
 ! R6    R(5,7)                  1.097          estimate D2E/DX2                !
 ! R7    R(5,8)                  1.5415         estimate D2E/DX2                !
 ! R8    R(8,9)                  1.0998         estimate D2E/DX2                !
 ! R9    R(8,10)                 1.5392         estimate D2E/DX2                !
 ! R10   R(8,17)                 1.4441         estimate D2E/DX2                !
 ! R11   R(10,11)                1.0952         estimate D2E/DX2                !
 ! R12   R(10,12)                1.0968         estimate D2E/DX2                !
 ! R13   R(10,13)                1.5221         estimate D2E/DX2                !
 ! R14   R(13,14)                1.0936         estimate D2E/DX2                !
 ! R15   R(13,15)                1.0948         estimate D2E/DX2                !
 ! R16   R(13,16)                1.0948         estimate D2E/DX2                !
 ! R17   R(17,18)                1.3626         estimate D2E/DX2                !
 ! R18   R(18,19)                1.2209         estimate D2E/DX2                !
 ! R19   R(18,20)                1.5047         estimate D2E/DX2                !
 ! R20   R(20,21)                1.0906         estimate D2E/DX2                !
 ! R21   R(20,22)                1.0923         estimate D2E/DX2                !
 ! R22   R(20,23)                1.0936         estimate D2E/DX2                !
 ! A1    A(2,1,3)              108.6775         estimate D2E/DX2                !
 ! A2    A(2,1,4)              107.7473         estimate D2E/DX2                !
 ! A3    A(2,1,5)              111.5051         estimate D2E/DX2                !
 ! A4    A(3,1,4)              107.9566         estimate D2E/DX2                !
 ! A5    A(3,1,5)              111.0833         estimate D2E/DX2                !
 ! A6    A(4,1,5)              109.746          estimate D2E/DX2                !
 ! A7    A(1,5,6)              107.9865         estimate D2E/DX2                !
 ! A8    A(1,5,7)              107.9883         estimate D2E/DX2                !
 ! A9    A(1,5,8)              113.5388         estimate D2E/DX2                !
 ! A10   A(6,5,7)              107.4232         estimate D2E/DX2                !
 ! A11   A(6,5,8)              110.0865         estimate D2E/DX2                !
 ! A12   A(7,5,8)              109.6131         estimate D2E/DX2                !
 ! A13   A(5,8,9)              108.4879         estimate D2E/DX2                !
 ! A14   A(5,8,10)             110.5966         estimate D2E/DX2                !
 ! A15   A(5,8,17)             107.9874         estimate D2E/DX2                !
 ! A16   A(9,8,10)             110.2949         estimate D2E/DX2                !
 ! A17   A(9,8,17)             108.4553         estimate D2E/DX2                !
 ! A18   A(10,8,17)            110.9354         estimate D2E/DX2                !
 ! A19   A(8,10,11)            110.4248         estimate D2E/DX2                !
 ! A20   A(8,10,12)            109.9576         estimate D2E/DX2                !
 ! A21   A(8,10,13)            112.8271         estimate D2E/DX2                !
 ! A22   A(11,10,12)           105.2104         estimate D2E/DX2                !
 ! A23   A(11,10,13)           108.2282         estimate D2E/DX2                !
 ! A24   A(12,10,13)           109.9022         estimate D2E/DX2                !
 ! A25   A(10,13,14)           111.6996         estimate D2E/DX2                !
 ! A26   A(10,13,15)           110.1701         estimate D2E/DX2                !
 ! A27   A(10,13,16)           110.9604         estimate D2E/DX2                !
 ! A28   A(14,13,15)           107.4988         estimate D2E/DX2                !
 ! A29   A(14,13,16)           108.415          estimate D2E/DX2                !
 ! A30   A(15,13,16)           107.9551         estimate D2E/DX2                !
 ! A31   A(8,17,18)            115.9973         estimate D2E/DX2                !
 ! A32   A(17,18,19)           126.1735         estimate D2E/DX2                !
 ! A33   A(17,18,20)           110.2035         estimate D2E/DX2                !
 ! A34   A(19,18,20)           123.5914         estimate D2E/DX2                !
 ! A35   A(18,20,21)           110.4694         estimate D2E/DX2                !
 ! A36   A(18,20,22)           109.613          estimate D2E/DX2                !
 ! A37   A(18,20,23)           108.9576         estimate D2E/DX2                !
 ! A38   A(21,20,22)           110.7876         estimate D2E/DX2                !
 ! A39   A(21,20,23)           109.0919         estimate D2E/DX2                !
 ! A40   A(22,20,23)           107.8606         estimate D2E/DX2                !
 ! D1    D(2,1,5,6)           -172.9278         estimate D2E/DX2                !
 ! D2    D(2,1,5,7)            -57.0529         estimate D2E/DX2                !
 ! D3    D(2,1,5,8)             64.709          estimate D2E/DX2                !
 ! D4    D(3,1,5,6)             65.6861         estimate D2E/DX2                !
 ! D5    D(3,1,5,7)           -178.4391         estimate D2E/DX2                !
 ! D6    D(3,1,5,8)            -56.6771         estimate D2E/DX2                !
 ! D7    D(4,1,5,6)            -53.6182         estimate D2E/DX2                !
 ! D8    D(4,1,5,7)             62.2567         estimate D2E/DX2                !
 ! D9    D(4,1,5,8)           -175.9814         estimate D2E/DX2                !
 ! D10   D(1,5,8,9)             59.7414         estimate D2E/DX2                !
 ! D11   D(1,5,8,10)          -179.1705         estimate D2E/DX2                !
 ! D12   D(1,5,8,17)           -57.6136         estimate D2E/DX2                !
 ! D13   D(6,5,8,9)            -61.4521         estimate D2E/DX2                !
 ! D14   D(6,5,8,10)            59.636          estimate D2E/DX2                !
 ! D15   D(6,5,8,17)          -178.8072         estimate D2E/DX2                !
 ! D16   D(7,5,8,9)           -179.4062         estimate D2E/DX2                !
 ! D17   D(7,5,8,10)           -58.3181         estimate D2E/DX2                !
 ! D18   D(7,5,8,17)            63.2388         estimate D2E/DX2                !
 ! D19   D(5,8,10,11)          169.476          estimate D2E/DX2                !
 ! D20   D(5,8,10,12)           53.8129         estimate D2E/DX2                !
 ! D21   D(5,8,10,13)          -69.2657         estimate D2E/DX2                !
 ! D22   D(9,8,10,11)          -70.5136         estimate D2E/DX2                !
 ! D23   D(9,8,10,12)          173.8233         estimate D2E/DX2                !
 ! D24   D(9,8,10,13)           50.7447         estimate D2E/DX2                !
 ! D25   D(17,8,10,11)          49.6753         estimate D2E/DX2                !
 ! D26   D(17,8,10,12)         -65.9878         estimate D2E/DX2                !
 ! D27   D(17,8,10,13)         170.9336         estimate D2E/DX2                !
 ! D28   D(5,8,17,18)          162.8274         estimate D2E/DX2                !
 ! D29   D(9,8,17,18)           45.4513         estimate D2E/DX2                !
 ! D30   D(10,8,17,18)         -75.8257         estimate D2E/DX2                !
 ! D31   D(8,10,13,14)          68.0786         estimate D2E/DX2                !
 ! D32   D(8,10,13,15)        -172.5191         estimate D2E/DX2                !
 ! D33   D(8,10,13,16)         -53.0206         estimate D2E/DX2                !
 ! D34   D(11,10,13,14)       -169.4243         estimate D2E/DX2                !
 ! D35   D(11,10,13,15)        -50.022          estimate D2E/DX2                !
 ! D36   D(11,10,13,16)         69.4764         estimate D2E/DX2                !
 ! D37   D(12,10,13,14)        -55.0308         estimate D2E/DX2                !
 ! D38   D(12,10,13,15)         64.3715         estimate D2E/DX2                !
 ! D39   D(12,10,13,16)       -176.1301         estimate D2E/DX2                !
 ! D40   D(8,17,18,19)           9.1323         estimate D2E/DX2                !
 ! D41   D(8,17,18,20)        -168.8747         estimate D2E/DX2                !
 ! D42   D(17,18,20,21)        -69.8725         estimate D2E/DX2                !
 ! D43   D(17,18,20,22)         52.4829         estimate D2E/DX2                !
 ! D44   D(17,18,20,23)        170.3012         estimate D2E/DX2                !
 ! D45   D(19,18,20,21)        112.0588         estimate D2E/DX2                !
 ! D46   D(19,18,20,22)       -125.5858         estimate D2E/DX2                !
 ! D47   D(19,18,20,23)         -7.7675         estimate D2E/DX2                !
 --------------------------------------------------------------------------------
 Trust Radius=3.00D-01 FncErr=1.00D-07 GrdErr=1.00D-07 EigMax=2.50D+02 EigMin=1.00D-04
 Number of steps in this run=    119 maximum allowed number of steps=    138.
 GradGradGradGradGradGradGradGradGradGradGradGradGradGradGradGradGradGrad

 Leave Link  103 at Sun Sep 19 20:02:34 2021, MaxMem=   524288000 cpu:               0.0 elap:               0.1
 (Enter /opt/gaussian/g16_legacy/l202.exe)
                          Input orientation:                          
 ---------------------------------------------------------------------
 Center     Atomic      Atomic             Coordinates (Angstroms)
 Number     Number       Type             X           Y           Z
 ---------------------------------------------------------------------
      1          6           0       -2.045500    0.982100    0.002900
      2          1           0       -1.660000   -0.041700    0.004300
      3          1           0       -1.714300    1.480000   -0.913500
      4          1           0       -3.139300    0.927000   -0.019100
      5          6           0       -1.593900    1.750200    1.237400
      6          1           0       -2.110300    2.715200    1.242700
      7          1           0       -1.926900    1.194600    2.122700
      8          6           0       -0.069000    1.965400    1.304900
      9          1           0        0.242900    2.532300    0.415600
     10          6           0        0.314000    2.728200    2.585700
     11          1           0        1.400000    2.717500    2.726600
     12          1           0       -0.095200    2.214300    3.464000
     13          6           0       -0.149900    4.177800    2.570700
     14          1           0       -1.239700    4.254100    2.619500
     15          1           0        0.256600    4.713200    3.434800
     16          1           0        0.192400    4.689200    1.665200
     17          8           0        0.566400    0.669200    1.266800
     18          6           0        1.892600    0.663100    0.954000
     19          8           0        2.615300    1.642600    0.859900
     20          6           0        2.356600   -0.742800    0.684900
     21          1           0        2.367900   -1.323900    1.607700
     22          1           0        1.705100   -1.208000   -0.058200
     23          1           0        3.368100   -0.709900    0.270500
 ---------------------------------------------------------------------
                    Distance matrix (angstroms):
                    1          2          3          4          5
     1  C    0.000000
     2  H    1.093974   0.000000
     3  H    1.094252   1.777885   0.000000
     4  H    1.095408   1.768405   1.770984   0.000000
     5  C    1.522469   2.176192   2.171146   2.155159   0.000000
     6  H    2.131886   3.055635   2.516294   2.418396   1.094496
     7  H    2.133723   2.467244   3.056986   2.475648   1.096967
     8  C    2.562935   2.872506   2.804269   3.501142   1.541489
     9  H    2.794676   3.227332   2.589300   3.768982   2.158905
    10  C    3.909854   4.269970   4.232777   4.685572   2.532682
    11  H    4.722460   4.938391   4.947787   5.599107   3.480923
    12  H    4.159471   4.416748   4.724742   4.801632   2.723828
    13  C    4.516569   5.164397   4.676016   5.119695   3.123470
    14  H    4.266368   5.046763   4.516964   4.651912   2.881870
    15  H    5.567648   6.168530   5.765912   6.147916   4.127019
    16  H    4.638322   5.345221   4.536977   5.300117   3.465776
    17  O    2.918454   2.656340   3.257713   3.930930   2.415848
    18  C    4.063863   3.744281   4.143019   5.131918   3.663029
    19  O    4.784743   4.674089   4.681541   5.865164   4.227464
    20  C    4.776912   4.133743   4.905910   5.786948   4.703909
    21  H    5.231741   4.520941   5.557217   6.167842   5.028228
    22  H    4.343647   3.562030   4.432739   5.294144   4.616593
    23  H    5.678163   5.079286   5.659356   6.716365   5.622138
                    6          7          8          9         10
     6  H    0.000000
     7  H    1.766426   0.000000
     8  C    2.175540   2.171341   0.000000
     9  H    2.501019   3.067843   1.099778   0.000000
    10  C    2.771470   2.754620   1.539156   2.180084   0.000000
    11  H    3.811059   3.708394   2.178267   2.591120   1.095154
    12  H    3.040675   2.488775   2.173557   3.083533   1.096790
    13  C    2.783155   3.501131   2.550198   2.739784   1.522093
    14  H    2.240923   3.174838   2.887362   3.165418   2.177957
    15  H    3.794670   4.343941   3.491833   3.724524   2.159743
    16  H    3.062288   4.112538   2.759933   2.493244   2.169707
    17  O    3.369187   2.687965   1.444063   2.073725   2.458187
    18  C    4.507513   4.029508   2.380544   2.550548   3.069049
    19  O    4.860895   4.735710   2.740017   2.572402   3.074556
    20  C    5.676451   4.916214   3.688127   3.907241   4.453436
    21  H    6.041674   5.005335   4.104834   4.561470   4.646989
    22  H    5.625044   4.870342   3.882775   4.043805   4.941562
    23  H    6.533709   5.924086   4.476703   4.505529   5.148612
                   11         12         13         14         15
    11  H    0.000000
    12  H    1.741434   0.000000
    13  C    2.135175   2.157848   0.000000
    14  H    3.056244   2.486734   1.093557   0.000000
    15  H    2.406601   2.523711   1.094790   1.764766   0.000000
    16  H    2.544105   3.073032   1.094819   1.775081   1.770927
    17  O    2.649800   2.766358   3.810973   4.235954   4.598928
    18  C    2.757775   3.557762   4.374773   5.047819   5.023363
    19  O    2.473243   3.801972   4.123155   4.977665   4.649963
    20  C    4.130048   4.741219   5.835331   6.453298   6.460641
    21  H    4.303682   4.693780   6.126613   6.719569   6.651500
    22  H    4.822629   5.230594   6.273674   6.758436   7.025654
    23  H    4.653269   5.544712   6.446461   7.168746   7.007442
                   16         17         18         19         20
    16  H    0.000000
    17  O    4.056969   0.000000
    18  C    4.427863   1.362603   0.000000
    19  O    3.975012   2.304575   1.220889   0.000000
    20  C    5.928859   2.353119   1.504748   2.405761   0.000000
    21  H    6.394801   2.708147   2.145088   3.069289   1.090580
    22  H    6.327348   2.564399   2.135584   3.130063   1.092273
    23  H    6.417207   3.277812   2.128239   2.539361   1.093591
                   21         22         23
    21  H    0.000000
    22  H    1.796652   0.000000
    23  H    1.779185   1.766838   0.000000
 Stoichiometry    C7H14O2
 Framework group  C1[X(C7H14O2)]
 Deg. of freedom    63
 Full point group                 C1      NOp   1
 Largest Abelian subgroup         C1      NOp   1
 Largest concise Abelian subgroup C1      NOp   1
                         Standard orientation:                         
 ---------------------------------------------------------------------
 Center     Atomic      Atomic             Coordinates (Angstroms)
 Number     Number       Type             X           Y           Z
 ---------------------------------------------------------------------
      1          6           0        1.120805    2.533911   -0.377177
      2          1           0        0.183778    2.876110    0.071887
      3          1           0        0.984782    2.462967   -1.460622
      4          1           0        1.882731    3.296252   -0.181673
      5          6           0        1.565566    1.200372    0.207437
      6          1           0        2.562550    0.975373   -0.184125
      7          1           0        1.658840    1.320954    1.293759
      8          6           0        0.600321    0.039371   -0.103311
      9          1           0        0.528825   -0.072003   -1.195097
     10          6           0        1.102691   -1.268023    0.534926
     11          1           0        0.331850   -2.043605    0.474599
     12          1           0        1.276900   -1.118259    1.607386
     13          6           0        2.366335   -1.800246   -0.125915
     14          1           0        3.225682   -1.150869    0.063031
     15          1           0        2.609917   -2.791849    0.268999
     16          1           0        2.233318   -1.891559   -1.208781
     17          8           0       -0.703277    0.394690    0.406295
     18          6           0       -1.752042   -0.325224   -0.082074
     19          8           0       -1.677526   -1.326614   -0.776507
     20          6           0       -3.053374    0.316980    0.315886
     21          1           0       -3.220275    0.207977    1.388093
     22          1           0       -3.044458    1.371180    0.030151
     23          1           0       -3.869834   -0.170117   -0.224550
 ---------------------------------------------------------------------
 Rotational constants (GHZ):           1.9083543           1.1574430           0.7907348
 Leave Link  202 at Sun Sep 19 20:02:34 2021, MaxMem=   524288000 cpu:               0.0 elap:               0.2
 (Enter /opt/gaussian/g16_legacy/l301.exe)
 Standard basis: 6-31G(d,p) (6D, 7F)
 Ernie: Thresh=  0.10000D-02 Tol=  0.10000D-05 Strict=F.
 There are   205 symmetry adapted cartesian basis functions of A   symmetry.
 There are   205 symmetry adapted basis functions of A   symmetry.
   205 basis functions,   350 primitive gaussians,   205 cartesian basis functions
    36 alpha electrons       36 beta electrons
       nuclear repulsion energy       482.2470951571 Hartrees.
 IExCor=    0 DFT=F Ex=HF Corr=None ExCW=0 ScaHFX=  1.000000
 ScaDFX=  1.000000  1.000000  1.000000  1.000000 ScalE2=  1.000000  1.000000
 IRadAn=      5 IRanWt=     -1 IRanGd=            0 ICorTp=0 IEmpDi=  4
 NAtoms=   23 NActive=   23 NUniq=   23 SFac= 1.00D+00 NAtFMM=   60 NAOKFM=F Big=F
 Integral buffers will be    131072 words long.
 Raffenetti 1 integral format.
 Two-electron integral symmetry is turned on.
 Leave Link  301 at Sun Sep 19 20:02:34 2021, MaxMem=   524288000 cpu:               0.0 elap:               0.2
 (Enter /opt/gaussian/g16_legacy/l302.exe)
 NPDir=0 NMtPBC=     1 NCelOv=     1 NCel=       1 NClECP=     1 NCelD=      1
         NCelK=      1 NCelE2=     1 NClLst=     1 CellRange=     0.0.
 One-electron integrals computed using PRISM.
 One-electron integral symmetry used in STVInt
 NBasis=   205 RedAO= T EigKep=  3.09D-03  NBF=   205
 NBsUse=   205 1.00D-06 EigRej= -1.00D+00 NBFU=   205
 Leave Link  302 at Sun Sep 19 20:02:35 2021, MaxMem=   524288000 cpu:               0.2 elap:               0.3
 (Enter /opt/gaussian/g16_legacy/l303.exe)
 DipDrv:  MaxL=1.
 Leave Link  303 at Sun Sep 19 20:02:35 2021, MaxMem=   524288000 cpu:               0.0 elap:               0.3
 (Enter /opt/gaussian/g16_legacy/l401.exe)
 ExpMin= 1.61D-01 ExpMax= 5.48D+03 ExpMxC= 8.25D+02 IAcc=3 IRadAn=         5 AccDes= 0.00D+00
 Harris functional with IExCor=  205 and IRadAn=       5 diagonalized for initial guess.
 HarFok:  IExCor=  205 AccDes= 0.00D+00 IRadAn=         5 IDoV= 1 UseB2=F ITyADJ=14
 ICtDFT=  3500011 ScaDFX=  1.000000  1.000000  1.000000  1.000000
 FoFCou: FMM=F IPFlag=           0 FMFlag=      100000 FMFlg1=           0
         NFxFlg=           0 DoJE=T BraDBF=F KetDBF=T FulRan=T
         wScrn=  0.000000 ICntrl=       500 IOpCl=  0 I1Cent=   200000004 NGrid=           0
         NMat0=    1 NMatS0=      1 NMatT0=    0 NMatD0=    1 NMtDS0=    0 NMtDT0=    0
 Petite list used in FoFCou.
 Harris En= -423.717515544167    
 JPrj=0 DoOrth=F DoCkMO=F.
 Leave Link  401 at Sun Sep 19 20:02:40 2021, MaxMem=   524288000 cpu:               4.5 elap:               4.9
 (Enter /opt/gaussian/g16_legacy/l502.exe)
 Keep R1 ints in memory in canonical form, NReq=227304434.
 FoFCou: FMM=F IPFlag=           0 FMFlag=           0 FMFlg1=           0
         NFxFlg=           0 DoJE=F BraDBF=F KetDBF=F FulRan=T
         wScrn=  0.000000 ICntrl=       600 IOpCl=  0 I1Cent=           0 NGrid=           0
         NMat0=    1 NMatS0=  21115 NMatT0=    0 NMatD0=    1 NMtDS0=    0 NMtDT0=    0
 Symmetry not used in FoFCou.
 Two-electron integral symmetry not used.
 Closed shell SCF:
 Using DIIS extrapolation, IDIIS=  1040.
 NGot=   524288000 LenX=   301268152 LenY=   301225686
 Requested convergence on RMS density matrix=1.00D-08 within 128 cycles.
 Requested convergence on MAX density matrix=1.00D-06.
 Requested convergence on             energy=1.00D-06.
 No special actions if energy rises.

 Cycle   1  Pass 1  IDiag  1:
 E= -422.506492052367    
 DIIS: error= 5.35D-02 at cycle   1 NSaved=   1.
 NSaved= 1 IEnMin= 1 EnMin= -422.506492052367     IErMin= 1 ErrMin= 5.35D-02
 ErrMax= 5.35D-02  0.00D+00 EMaxC= 1.00D-01 BMatC= 7.21D-01 BMatP= 7.21D-01
 IDIUse=3 WtCom= 4.65D-01 WtEn= 5.35D-01
 Coeff-Com:  0.100D+01
 Coeff-En:   0.100D+01
 Coeff:      0.100D+01
 Gap=     0.552 Goal=   None    Shift=    0.000
 GapD=    0.552 DampG=2.000 DampE=0.500 DampFc=1.0000 IDamp=-1.
 RMSDP=4.05D-03 MaxDP=1.15D-01              OVMax= 1.23D-01

 Cycle   2  Pass 1  IDiag  1:
 E= -422.913836917110     Delta-E=       -0.407344864744 Rises=F Damp=F
 DIIS: error= 1.40D-02 at cycle   2 NSaved=   2.
 NSaved= 2 IEnMin= 2 EnMin= -422.913836917110     IErMin= 2 ErrMin= 1.40D-02
 ErrMax= 1.40D-02  0.00D+00 EMaxC= 1.00D-01 BMatC= 9.66D-02 BMatP= 7.21D-01
 IDIUse=3 WtCom= 8.60D-01 WtEn= 1.40D-01
 Coeff-Com:  0.206D+00 0.794D+00
 Coeff-En:   0.000D+00 0.100D+01
 Coeff:      0.177D+00 0.823D+00
 Gap=     0.645 Goal=   None    Shift=    0.000
 RMSDP=1.46D-03 MaxDP=4.85D-02 DE=-4.07D-01 OVMax= 4.81D-02

 Cycle   3  Pass 1  IDiag  1:
 E= -422.988084721961     Delta-E=       -0.074247804850 Rises=F Damp=F
 DIIS: error= 4.52D-03 at cycle   3 NSaved=   3.
 NSaved= 3 IEnMin= 3 EnMin= -422.988084721961     IErMin= 3 ErrMin= 4.52D-03
 ErrMax= 4.52D-03  0.00D+00 EMaxC= 1.00D-01 BMatC= 8.59D-03 BMatP= 9.66D-02
 IDIUse=3 WtCom= 9.55D-01 WtEn= 4.52D-02
 Coeff-Com: -0.144D-01 0.191D+00 0.824D+00
 Coeff-En:   0.000D+00 0.000D+00 0.100D+01
 Coeff:     -0.137D-01 0.182D+00 0.832D+00
 Gap=     0.612 Goal=   None    Shift=    0.000
 RMSDP=3.93D-04 MaxDP=2.11D-02 DE=-7.42D-02 OVMax= 2.38D-02

 Cycle   4  Pass 1  IDiag  1:
 E= -422.994557186456     Delta-E=       -0.006472464495 Rises=F Damp=F
 DIIS: error= 2.44D-03 at cycle   4 NSaved=   4.
 NSaved= 4 IEnMin= 4 EnMin= -422.994557186456     IErMin= 4 ErrMin= 2.44D-03
 ErrMax= 2.44D-03  0.00D+00 EMaxC= 1.00D-01 BMatC= 9.81D-04 BMatP= 8.59D-03
 IDIUse=3 WtCom= 9.76D-01 WtEn= 2.44D-02
 Coeff-Com: -0.127D-01 0.336D-01 0.316D+00 0.663D+00
 Coeff-En:   0.000D+00 0.000D+00 0.000D+00 0.100D+01
 Coeff:     -0.124D-01 0.328D-01 0.308D+00 0.672D+00
 Gap=     0.611 Goal=   None    Shift=    0.000
 RMSDP=1.25D-04 MaxDP=5.96D-03 DE=-6.47D-03 OVMax= 5.02D-03

 Cycle   5  Pass 1  IDiag  1:
 E= -422.995341440984     Delta-E=       -0.000784254528 Rises=F Damp=F
 DIIS: error= 3.46D-04 at cycle   5 NSaved=   5.
 NSaved= 5 IEnMin= 5 EnMin= -422.995341440984     IErMin= 5 ErrMin= 3.46D-04
 ErrMax= 3.46D-04  0.00D+00 EMaxC= 1.00D-01 BMatC= 2.55D-05 BMatP= 9.81D-04
 IDIUse=3 WtCom= 9.97D-01 WtEn= 3.46D-03
 Coeff-Com:  0.239D-02-0.181D-01-0.920D-01-0.572D-01 0.116D+01
 Coeff-En:   0.000D+00 0.000D+00 0.000D+00 0.000D+00 0.100D+01
 Coeff:      0.239D-02-0.180D-01-0.917D-01-0.570D-01 0.116D+01
 Gap=     0.611 Goal=   None    Shift=    0.000
 RMSDP=5.03D-05 MaxDP=1.44D-03 DE=-7.84D-04 OVMax= 2.84D-03

 Cycle   6  Pass 1  IDiag  1:
 E= -422.995400550262     Delta-E=       -0.000059109279 Rises=F Damp=F
 DIIS: error= 1.08D-04 at cycle   6 NSaved=   6.
 NSaved= 6 IEnMin= 6 EnMin= -422.995400550262     IErMin= 6 ErrMin= 1.08D-04
 ErrMax= 1.08D-04  0.00D+00 EMaxC= 1.00D-01 BMatC= 3.23D-06 BMatP= 2.55D-05
 IDIUse=3 WtCom= 9.99D-01 WtEn= 1.08D-03
 Coeff-Com:  0.129D-02-0.592D-02-0.375D-01-0.680D-01 0.183D+00 0.927D+00
 Coeff-En:   0.000D+00 0.000D+00 0.000D+00 0.000D+00 0.000D+00 0.100D+01
 Coeff:      0.129D-02-0.592D-02-0.374D-01-0.680D-01 0.183D+00 0.927D+00
 Gap=     0.611 Goal=   None    Shift=    0.000
 RMSDP=1.61D-05 MaxDP=5.75D-04 DE=-5.91D-05 OVMax= 8.64D-04

 Cycle   7  Pass 1  IDiag  1:
 E= -422.995407023760     Delta-E=       -0.000006473498 Rises=F Damp=F
 DIIS: error= 6.95D-05 at cycle   7 NSaved=   7.
 NSaved= 7 IEnMin= 7 EnMin= -422.995407023760     IErMin= 7 ErrMin= 6.95D-05
 ErrMax= 6.95D-05  0.00D+00 EMaxC= 1.00D-01 BMatC= 4.70D-07 BMatP= 3.23D-06
 IDIUse=1 WtCom= 1.00D+00 WtEn= 0.00D+00
 Coeff-Com: -0.368D-03 0.256D-02 0.154D-01 0.561D-02-0.138D+00-0.816D-01
 Coeff-Com:  0.120D+01
 Coeff:     -0.368D-03 0.256D-02 0.154D-01 0.561D-02-0.138D+00-0.816D-01
 Coeff:      0.120D+01
 Gap=     0.611 Goal=   None    Shift=    0.000
 RMSDP=7.54D-06 MaxDP=2.77D-04 DE=-6.47D-06 OVMax= 5.07D-04

 Cycle   8  Pass 1  IDiag  1:
 E= -422.995408349359     Delta-E=       -0.000001325599 Rises=F Damp=F
 DIIS: error= 1.49D-05 at cycle   8 NSaved=   8.
 NSaved= 8 IEnMin= 8 EnMin= -422.995408349359     IErMin= 8 ErrMin= 1.49D-05
 ErrMax= 1.49D-05  0.00D+00 EMaxC= 1.00D-01 BMatC= 7.73D-08 BMatP= 4.70D-07
 IDIUse=1 WtCom= 1.00D+00 WtEn= 0.00D+00
 Coeff-Com: -0.226D-03 0.118D-02 0.753D-02 0.778D-02-0.409D-01-0.149D+00
 Coeff-Com:  0.126D+00 0.105D+01
 Coeff:     -0.226D-03 0.118D-02 0.753D-02 0.778D-02-0.409D-01-0.149D+00
 Coeff:      0.126D+00 0.105D+01
 Gap=     0.611 Goal=   None    Shift=    0.000
 RMSDP=3.16D-06 MaxDP=9.42D-05 DE=-1.33D-06 OVMax= 2.08D-04

 Cycle   9  Pass 1  IDiag  1:
 E= -422.995408557162     Delta-E=       -0.000000207803 Rises=F Damp=F
 DIIS: error= 5.61D-06 at cycle   9 NSaved=   9.
 NSaved= 9 IEnMin= 9 EnMin= -422.995408557162     IErMin= 9 ErrMin= 5.61D-06
 ErrMax= 5.61D-06  0.00D+00 EMaxC= 1.00D-01 BMatC= 1.09D-08 BMatP= 7.73D-08
 IDIUse=1 WtCom= 1.00D+00 WtEn= 0.00D+00
 Coeff-Com:  0.274D-04-0.263D-03-0.141D-02-0.413D-03 0.206D-01-0.533D-02
 Coeff-Com: -0.190D+00 0.139D+00 0.104D+01
 Coeff:      0.274D-04-0.263D-03-0.141D-02-0.413D-03 0.206D-01-0.533D-02
 Coeff:     -0.190D+00 0.139D+00 0.104D+01
 Gap=     0.611 Goal=   None    Shift=    0.000
 RMSDP=1.11D-06 MaxDP=3.75D-05 DE=-2.08D-07 OVMax= 7.18D-05

 Cycle  10  Pass 1  IDiag  1:
 E= -422.995408581522     Delta-E=       -0.000000024360 Rises=F Damp=F
 DIIS: error= 1.49D-06 at cycle  10 NSaved=  10.
 NSaved=10 IEnMin=10 EnMin= -422.995408581522     IErMin=10 ErrMin= 1.49D-06
 ErrMax= 1.49D-06  0.00D+00 EMaxC= 1.00D-01 BMatC= 7.04D-10 BMatP= 1.09D-08
 IDIUse=1 WtCom= 1.00D+00 WtEn= 0.00D+00
 Coeff-Com:  0.208D-04-0.113D-03-0.670D-03-0.110D-02 0.329D-02 0.154D-01
 Coeff-Com: -0.419D-02-0.977D-01-0.837D-01 0.117D+01
 Coeff:      0.208D-04-0.113D-03-0.670D-03-0.110D-02 0.329D-02 0.154D-01
 Coeff:     -0.419D-02-0.977D-01-0.837D-01 0.117D+01
 Gap=     0.611 Goal=   None    Shift=    0.000
 RMSDP=2.78D-07 MaxDP=1.20D-05 DE=-2.44D-08 OVMax= 1.87D-05

 Cycle  11  Pass 1  IDiag  1:
 E= -422.995408583296     Delta-E=       -0.000000001774 Rises=F Damp=F
 DIIS: error= 4.40D-07 at cycle  11 NSaved=  11.
 NSaved=11 IEnMin=11 EnMin= -422.995408583296     IErMin=11 ErrMin= 4.40D-07
 ErrMax= 4.40D-07  0.00D+00 EMaxC= 1.00D-01 BMatC= 7.89D-11 BMatP= 7.04D-10
 IDIUse=1 WtCom= 1.00D+00 WtEn= 0.00D+00
 Coeff-Com:  0.134D-06 0.848D-05 0.628D-04-0.118D-03-0.131D-02 0.183D-02
 Coeff-Com:  0.143D-01-0.154D-01-0.106D+00 0.125D+00 0.982D+00
 Coeff:      0.134D-06 0.848D-05 0.628D-04-0.118D-03-0.131D-02 0.183D-02
 Coeff:      0.143D-01-0.154D-01-0.106D+00 0.125D+00 0.982D+00
 Gap=     0.611 Goal=   None    Shift=    0.000
 RMSDP=6.40D-08 MaxDP=2.72D-06 DE=-1.77D-09 OVMax= 3.45D-06

 Cycle  12  Pass 1  IDiag  1:
 E= -422.995408583435     Delta-E=       -0.000000000139 Rises=F Damp=F
 DIIS: error= 1.16D-07 at cycle  12 NSaved=  12.
 NSaved=12 IEnMin=12 EnMin= -422.995408583435     IErMin=12 ErrMin= 1.16D-07
 ErrMax= 1.16D-07  0.00D+00 EMaxC= 1.00D-01 BMatC= 6.76D-12 BMatP= 7.89D-11
 IDIUse=1 WtCom= 1.00D+00 WtEn= 0.00D+00
 Coeff-Com: -0.214D-05 0.114D-04 0.760D-04 0.105D-03-0.381D-03-0.162D-02
 Coeff-Com:  0.225D-03 0.131D-01 0.463D-02-0.129D+00-0.100D-01 0.112D+01
 Coeff:     -0.214D-05 0.114D-04 0.760D-04 0.105D-03-0.381D-03-0.162D-02
 Coeff:      0.225D-03 0.131D-01 0.463D-02-0.129D+00-0.100D-01 0.112D+01
 Gap=     0.611 Goal=   None    Shift=    0.000
 RMSDP=2.48D-08 MaxDP=8.27D-07 DE=-1.39D-10 OVMax= 1.16D-06

 Cycle  13  Pass 1  IDiag  1:
 E= -422.995408583431     Delta-E=        0.000000000005 Rises=F Damp=F
 DIIS: error= 4.55D-08 at cycle  13 NSaved=  13.
 NSaved=13 IEnMin=12 EnMin= -422.995408583435     IErMin=13 ErrMin= 4.55D-08
 ErrMax= 4.55D-08  0.00D+00 EMaxC= 1.00D-01 BMatC= 4.44D-13 BMatP= 6.76D-12
 IDIUse=1 WtCom= 1.00D+00 WtEn= 0.00D+00
 Coeff-Com:  0.572D-07-0.954D-06-0.518D-05 0.285D-05 0.968D-04-0.673D-04
 Coeff-Com: -0.110D-02 0.107D-02 0.661D-02-0.616D-02-0.713D-01-0.134D-02
 Coeff-Com:  0.107D+01
 Coeff:      0.572D-07-0.954D-06-0.518D-05 0.285D-05 0.968D-04-0.673D-04
 Coeff:     -0.110D-02 0.107D-02 0.661D-02-0.616D-02-0.713D-01-0.134D-02
 Coeff:      0.107D+01
 Gap=     0.611 Goal=   None    Shift=    0.000
 RMSDP=6.64D-09 MaxDP=1.50D-07 DE= 4.55D-12 OVMax= 2.74D-07

 SCF Done:  E(RHF) =  -422.995408583     A.U. after   13 cycles
            NFock= 13  Conv=0.66D-08     -V/T= 2.0023
 KE= 4.220178932673D+02 PE=-1.954356873224D+03 EE= 6.270964762159D+02
 Leave Link  502 at Sun Sep 19 20:02:53 2021, MaxMem=   524288000 cpu:              12.7 elap:              12.9
 (Enter /opt/gaussian/g16_legacy/l801.exe)
 ExpMin= 1.61D-01 ExpMax= 5.48D+03 ExpMxC= 8.25D+02 IAcc=3 IRadAn=         5 AccDes= 0.00D+00
 HarFok:  IExCor=  205 AccDes= 0.00D+00 IRadAn=         5 IDoV=-2 UseB2=F ITyADJ=14
 ICtDFT= 12500011 ScaDFX=  1.000000  1.000000  1.000000  1.000000
 Largest valence mixing into a core orbital is  2.11D-04
 Largest core mixing into a valence orbital is  3.27D-05
 Range of M.O.s used for correlation:    10   205
 NBasis=   205 NAE=    36 NBE=    36 NFC=     9 NFV=     0
 NROrb=    196 NOA=    27 NOB=    27 NVA=   169 NVB=   169
 Leave Link  801 at Sun Sep 19 20:02:54 2021, MaxMem=   524288000 cpu:               0.7 elap:               0.9
 (Enter /opt/gaussian/g16_legacy/l906.exe)
 Frozen-core derivative calculation, NFC=   9 NFV=   0.
 FulOut=F Deriv=T AODrv=T NAtomX=    23
   MMem=         132  MDisk=          27 MDiskD=          27
  W3Min=     1512900 MinDsk=     1927595 NBas6D=         205
 NBas2D=       21400    NTT=       21115    LW2=     2040000
    MDV=   523794888 MDiskM=       35351 NBas2p=       19193
 Fully direct method using O(ONN) memory.
 IMap=   1   2   3   4   5   6   7   8   9  10  11  12  13  14  15  16  17  18  19  20
 IMap=  21  22  23  24  25  26  27  28  29  30  31  32  33  34  35  36
 JobTyp=1 Pass  1:  I=  10 to  36 NPSUse=  1 ParTrn=F ParDer=F DoDerP=T.
 Spin components of T(2) and E(2):
     alpha-alpha T2 =       0.5274434166D-01 E2=     -0.1648784652D+00
     alpha-beta  T2 =       0.3172671682D+00 E2=     -0.1030263624D+01
     beta-beta   T2 =       0.5274434166D-01 E2=     -0.1648784652D+00
 The integrals were generated   1 times.
 ANorm=    0.1192793298D+01
 E2 =    -0.1360020554D+01 EUMP2 =    -0.42435542913788D+03
 Leave Link  906 at Sun Sep 19 20:04:30 2021, MaxMem=   524288000 cpu:              95.9 elap:              96.1
 (Enter /opt/gaussian/g16_legacy/l1002.exe)
 Minotr:  Closed shell wavefunction.
          Computing MP2/KS-MP2 derivatives.
          Using Z-Vector for PSCF gradient.
          Skipping F1 and S1 gradient terms here.
          IDoAtm=11111111111111111111111
          Frozen-core window.
          Direct CPHF calculation.
          Differentiating once with respect to electric field.
                with respect to dipole field.
          Differentiating once with respect to nuclear coordinates.
          Requested convergence is 1.0D-10 RMS, and 1.0D-09 maximum.
          NewPWx=F KeepS1=T KeepF1=T KeepIn=T MapXYZ=F SortEE=F KeepMc=T.
 Keep R1 ints in memory in canonical form, NReq=227306992.
 FoFCou: FMM=F IPFlag=           0 FMFlag=           0 FMFlg1=           0
         NFxFlg=           0 DoJE=F BraDBF=F KetDBF=F FulRan=T
         wScrn=  0.000000 ICntrl=       600 IOpCl=  0 I1Cent=           0 NGrid=           0
         NMat0=    1 NMatS0=  21115 NMatT0=    0 NMatD0=    1 NMtDS0=    0 NMtDT0=    0
 Symmetry not used in FoFCou.
 Two-electron integral symmetry not used.
          MDV=     524288000 using IRadAn=       5.
          Solving linear equations separately, MaxMat=       0.
          There are     1 degrees of freedom in the 1st order CPHF.  IDoFFX=0 NUNeed=     1.
 LinEq1:  Iter=  0 NonCon=     1 RMS=3.69D-03 Max=1.02D-01 NDo=     1
 AX will form     1 AO Fock derivatives at one time.
 LinEq1:  Iter=  1 NonCon=     1 RMS=1.18D-03 Max=1.59D-02 NDo=     1
 LinEq1:  Iter=  2 NonCon=     1 RMS=3.70D-04 Max=7.59D-03 NDo=     1
 LinEq1:  Iter=  3 NonCon=     1 RMS=1.51D-04 Max=3.17D-03 NDo=     1
 LinEq1:  Iter=  4 NonCon=     1 RMS=4.66D-05 Max=8.55D-04 NDo=     1
 LinEq1:  Iter=  5 NonCon=     1 RMS=2.08D-05 Max=3.48D-04 NDo=     1
 LinEq1:  Iter=  6 NonCon=     1 RMS=4.90D-06 Max=7.33D-05 NDo=     1
 LinEq1:  Iter=  7 NonCon=     1 RMS=1.37D-06 Max=1.79D-05 NDo=     1
 LinEq1:  Iter=  8 NonCon=     1 RMS=4.38D-07 Max=9.66D-06 NDo=     1
 LinEq1:  Iter=  9 NonCon=     1 RMS=1.11D-07 Max=1.75D-06 NDo=     1
 LinEq1:  Iter= 10 NonCon=     1 RMS=3.56D-08 Max=4.39D-07 NDo=     1
 LinEq1:  Iter= 11 NonCon=     1 RMS=1.01D-08 Max=1.30D-07 NDo=     1
 LinEq1:  Iter= 12 NonCon=     1 RMS=2.44D-09 Max=3.12D-08 NDo=     1
 LinEq1:  Iter= 13 NonCon=     1 RMS=6.14D-10 Max=9.43D-09 NDo=     1
 LinEq1:  Iter= 14 NonCon=     1 RMS=1.75D-10 Max=4.18D-09 NDo=     1
 LinEq1:  Iter= 15 NonCon=     1 RMS=5.80D-11 Max=1.35D-09 NDo=     1
 LinEq1:  Iter= 16 NonCon=     0 RMS=1.71D-11 Max=3.56D-10 NDo=     1
 Linear equations converged to 1.000D-10 1.000D-09 after    16 iterations.
 End of Minotr F.D. properties file   721 does not exist.
 End of Minotr F.D. properties file   722 does not exist.
 End of Minotr F.D. properties file   788 does not exist.
 Leave Link 1002 at Sun Sep 19 20:04:45 2021, MaxMem=   524288000 cpu:              14.7 elap:              14.7
 (Enter /opt/gaussian/g16_legacy/l601.exe)
 Copying SCF densities to generalized density rwf, IOpCl= 0 IROHF=0.

 **********************************************************************

            Population analysis using the SCF density.

 **********************************************************************

 Orbital symmetries:
       Occupied  (A) (A) (A) (A) (A) (A) (A) (A) (A) (A) (A) (A)
                 (A) (A) (A) (A) (A) (A) (A) (A) (A) (A) (A) (A)
                 (A) (A) (A) (A) (A) (A) (A) (A) (A) (A) (A) (A)
       Virtual   (A) (A) (A) (A) (A) (A) (A) (A) (A) (A) (A) (A)
                 (A) (A) (A) (A) (A) (A) (A) (A) (A) (A) (A) (A)
                 (A) (A) (A) (A) (A) (A) (A) (A) (A) (A) (A) (A)
                 (A) (A) (A) (A) (A) (A) (A) (A) (A) (A) (A) (A)
                 (A) (A) (A) (A) (A) (A) (A) (A) (A) (A) (A) (A)
                 (A) (A) (A) (A) (A) (A) (A) (A) (A) (A) (A) (A)
                 (A) (A) (A) (A) (A) (A) (A) (A) (A) (A) (A) (A)
                 (A) (A) (A) (A) (A) (A) (A) (A) (A) (A) (A) (A)
                 (A) (A) (A) (A) (A) (A) (A) (A) (A) (A) (A) (A)
                 (A) (A) (A) (A) (A) (A) (A) (A) (A) (A) (A) (A)
                 (A) (A) (A) (A) (A) (A) (A) (A) (A) (A) (A) (A)
                 (A) (A) (A) (A) (A) (A) (A) (A) (A) (A) (A) (A)
                 (A) (A) (A) (A) (A) (A) (A) (A) (A) (A) (A) (A)
                 (A) (A) (A) (A) (A) (A) (A) (A) (A) (A) (A) (A)
                 (A)
 The electronic state is 1-A.
 Alpha  occ. eigenvalues --  -20.60603 -20.55168 -11.38612 -11.29161 -11.23945
 Alpha  occ. eigenvalues --  -11.22752 -11.21874 -11.21658 -11.21588  -1.44675
 Alpha  occ. eigenvalues --   -1.35167  -1.08959  -1.02130  -1.01361  -0.92367
 Alpha  occ. eigenvalues --   -0.83840  -0.81456  -0.76256  -0.68694  -0.66647
 Alpha  occ. eigenvalues --   -0.64789  -0.61323  -0.60513  -0.59949  -0.57392
 Alpha  occ. eigenvalues --   -0.56305  -0.55675  -0.52964  -0.52248  -0.50090
 Alpha  occ. eigenvalues --   -0.49601  -0.48183  -0.48077  -0.46417  -0.43930
 Alpha  occ. eigenvalues --   -0.42933
 Alpha virt. eigenvalues --    0.18180   0.23136   0.24230   0.25929   0.26695
 Alpha virt. eigenvalues --    0.27786   0.30386   0.30683   0.31283   0.31932
 Alpha virt. eigenvalues --    0.32870   0.33371   0.34347   0.34414   0.37124
 Alpha virt. eigenvalues --    0.38731   0.41048   0.42552   0.42887   0.44330
 Alpha virt. eigenvalues --    0.46298   0.49535   0.55087   0.68939   0.70818
 Alpha virt. eigenvalues --    0.71027   0.74778   0.75551   0.75930   0.76579
 Alpha virt. eigenvalues --    0.78334   0.79735   0.82343   0.85225   0.88301
 Alpha virt. eigenvalues --    0.89787   0.92077   0.92955   0.94284   0.98401
 Alpha virt. eigenvalues --    1.00526   1.03731   1.05320   1.08877   1.09582
 Alpha virt. eigenvalues --    1.10029   1.11939   1.12152   1.13286   1.14076
 Alpha virt. eigenvalues --    1.15167   1.15478   1.16073   1.16573   1.17602
 Alpha virt. eigenvalues --    1.19811   1.21196   1.21369   1.22616   1.25086
 Alpha virt. eigenvalues --    1.26970   1.31969   1.34208   1.39694   1.42048
 Alpha virt. eigenvalues --    1.45368   1.51644   1.54009   1.56060   1.63282
 Alpha virt. eigenvalues --    1.66958   1.68449   1.72608   1.75739   1.78177
 Alpha virt. eigenvalues --    1.80746   1.83081   1.89947   1.91181   1.95628
 Alpha virt. eigenvalues --    1.98802   1.99872   2.01075   2.02477   2.06781
 Alpha virt. eigenvalues --    2.09369   2.13967   2.15305   2.16624   2.17381
 Alpha virt. eigenvalues --    2.20175   2.21324   2.25698   2.30383   2.31081
 Alpha virt. eigenvalues --    2.32409   2.34205   2.35535   2.36083   2.37035
 Alpha virt. eigenvalues --    2.37566   2.38936   2.40206   2.42073   2.43038
 Alpha virt. eigenvalues --    2.44306   2.45299   2.50741   2.53647   2.54993
 Alpha virt. eigenvalues --    2.58014   2.58306   2.59336   2.60391   2.63125
 Alpha virt. eigenvalues --    2.66266   2.68945   2.69881   2.78838   2.80180
 Alpha virt. eigenvalues --    2.84420   2.86360   2.87472   2.92943   2.93390
 Alpha virt. eigenvalues --    2.95260   2.96259   3.02652   3.03678   3.05880
 Alpha virt. eigenvalues --    3.07723   3.08539   3.10737   3.13298   3.16330
 Alpha virt. eigenvalues --    3.19400   3.20190   3.22565   3.24476   3.24774
 Alpha virt. eigenvalues --    3.25044   3.27516   3.30309   3.33519   3.45268
 Alpha virt. eigenvalues --    3.49247   3.55807   3.57061   3.60586   3.64773
 Alpha virt. eigenvalues --    3.68882   3.71812   3.76998   3.78043   3.81163
 Alpha virt. eigenvalues --    3.81770   3.85128   3.86687   3.93503   3.94517
 Alpha virt. eigenvalues --    4.46473   4.58835   4.66958   4.76051   4.82988
 Alpha virt. eigenvalues --    4.95278   5.00076   5.05246   5.14979
          Condensed to atoms (all electrons):
               1          2          3          4          5          6
     1  C    4.928517   0.404453   0.400482   0.404479   0.332375  -0.040541
     2  H    0.404453   0.563343  -0.028541  -0.029234  -0.036575   0.004270
     3  H    0.400482  -0.028541   0.590956  -0.029049  -0.041808  -0.002698
     4  H    0.404479  -0.029234  -0.029049   0.583384  -0.038972  -0.004060
     5  C    0.332375  -0.036575  -0.041808  -0.038972   4.995008   0.409781
     6  H   -0.040541   0.004270  -0.002698  -0.004060   0.409781   0.579060
     7  H   -0.042971  -0.003342   0.004585  -0.002903   0.403344  -0.028168
     8  C   -0.052095  -0.005411  -0.003907   0.004464   0.362216  -0.037599
     9  H   -0.004846   0.000349   0.002691  -0.000105  -0.045109  -0.000541
    10  C    0.004566  -0.000029  -0.000033  -0.000090  -0.066690  -0.002647
    11  H   -0.000086  -0.000001   0.000001   0.000001   0.003802  -0.000024
    12  H   -0.000091   0.000009   0.000001  -0.000003  -0.006847   0.000462
    13  C   -0.000090  -0.000005   0.000001   0.000001  -0.001563  -0.001814
    14  H    0.000006  -0.000002   0.000009   0.000003   0.000038  -0.002070
    15  H    0.000002   0.000000  -0.000000  -0.000000  -0.000024   0.000098
    16  H   -0.000038   0.000000  -0.000002   0.000000   0.000108   0.000328
    17  O    0.000574   0.003231   0.000091   0.000070  -0.046660   0.002325
    18  C   -0.000034   0.000009  -0.000005   0.000001   0.003306  -0.000032
    19  O   -0.000013   0.000005  -0.000003   0.000000   0.000263   0.000006
    20  C   -0.000042  -0.000007  -0.000003   0.000000  -0.000047   0.000003
    21  H    0.000000   0.000000  -0.000000  -0.000000   0.000000  -0.000000
    22  H    0.000029   0.000148   0.000005  -0.000001  -0.000038   0.000000
    23  H    0.000000  -0.000000  -0.000000   0.000000   0.000001  -0.000000
               7          8          9         10         11         12
     1  C   -0.042971  -0.052095  -0.004846   0.004566  -0.000086  -0.000091
     2  H   -0.003342  -0.005411   0.000349  -0.000029  -0.000001   0.000009
     3  H    0.004585  -0.003907   0.002691  -0.000033   0.000001   0.000001
     4  H   -0.002903   0.004464  -0.000105  -0.000090   0.000001  -0.000003
     5  C    0.403344   0.362216  -0.045109  -0.066690   0.003802  -0.006847
     6  H   -0.028168  -0.037599  -0.000541  -0.002647  -0.000024   0.000462
     7  H    0.582905  -0.037807   0.004374  -0.005063  -0.000033   0.003028
     8  C   -0.037807   4.785763   0.415463   0.367040  -0.033897  -0.039682
     9  H    0.004374   0.415463   0.569500  -0.047226  -0.002341   0.004275
    10  C   -0.005063   0.367040  -0.047226   5.011852   0.414556   0.400140
    11  H   -0.000033  -0.033897  -0.002341   0.414556   0.531763  -0.031540
    12  H    0.003028  -0.039682   0.004275   0.400140  -0.031540   0.598262
    13  C    0.000461  -0.051010  -0.000215   0.320732  -0.035987  -0.038557
    14  H    0.000340  -0.003490   0.000160  -0.039525   0.004069  -0.004503
    15  H   -0.000032   0.004085  -0.000112  -0.034768  -0.004707  -0.002058
    16  H    0.000027  -0.004865   0.002930  -0.041453  -0.002367   0.004410
    17  O    0.000011   0.136826  -0.034343  -0.034840  -0.003151   0.000851
    18  C   -0.000154  -0.021056  -0.005777  -0.002759   0.002394   0.000078
    19  O   -0.000004   0.002145   0.005583  -0.007401   0.004308   0.000241
    20  C   -0.000005   0.004094   0.000132  -0.000313   0.000147  -0.000006
    21  H   -0.000000  -0.000141  -0.000002   0.000034  -0.000020  -0.000004
    22  H    0.000002  -0.000199  -0.000030   0.000011  -0.000003  -0.000000
    23  H    0.000000  -0.000118   0.000010   0.000007   0.000003  -0.000000
              13         14         15         16         17         18
     1  C   -0.000090   0.000006   0.000002  -0.000038   0.000574  -0.000034
     2  H   -0.000005  -0.000002   0.000000   0.000000   0.003231   0.000009
     3  H    0.000001   0.000009  -0.000000  -0.000002   0.000091  -0.000005
     4  H    0.000001   0.000003  -0.000000   0.000000   0.000070   0.000001
     5  C   -0.001563   0.000038  -0.000024   0.000108  -0.046660   0.003306
     6  H   -0.001814  -0.002070   0.000098   0.000328   0.002325  -0.000032
     7  H    0.000461   0.000340  -0.000032   0.000027   0.000011  -0.000154
     8  C   -0.051010  -0.003490   0.004085  -0.004865   0.136826  -0.021056
     9  H   -0.000215   0.000160  -0.000112   0.002930  -0.034343  -0.005777
    10  C    0.320732  -0.039525  -0.034768  -0.041453  -0.034840  -0.002759
    11  H   -0.035987   0.004069  -0.004707  -0.002367  -0.003151   0.002394
    12  H   -0.038557  -0.004503  -0.002058   0.004410   0.000851   0.000078
    13  C    4.942811   0.402270   0.404442   0.402518   0.002263   0.000058
    14  H    0.402270   0.594217  -0.029278  -0.031574  -0.000033   0.000002
    15  H    0.404442  -0.029278   0.569065  -0.027157  -0.000042  -0.000005
    16  H    0.402518  -0.031574  -0.027157   0.578637   0.000002  -0.000022
    17  O    0.002263  -0.000033  -0.000042   0.000002   8.533330   0.253499
    18  C    0.000058   0.000002  -0.000005  -0.000022   0.253499   4.163977
    19  O   -0.000019  -0.000005  -0.000002   0.000086  -0.068510   0.556380
    20  C    0.000002  -0.000000  -0.000000  -0.000000  -0.092813   0.375913
    21  H   -0.000000   0.000000   0.000000  -0.000000   0.001896  -0.029305
    22  H    0.000000  -0.000000   0.000000  -0.000000   0.002462  -0.032832
    23  H   -0.000000   0.000000   0.000000  -0.000000   0.003169  -0.038733
              19         20         21         22         23
     1  C   -0.000013  -0.000042   0.000000   0.000029   0.000000
     2  H    0.000005  -0.000007   0.000000   0.000148  -0.000000
     3  H   -0.000003  -0.000003  -0.000000   0.000005  -0.000000
     4  H    0.000000   0.000000  -0.000000  -0.000001   0.000000
     5  C    0.000263  -0.000047   0.000000  -0.000038   0.000001
     6  H    0.000006   0.000003  -0.000000   0.000000  -0.000000
     7  H   -0.000004  -0.000005  -0.000000   0.000002   0.000000
     8  C    0.002145   0.004094  -0.000141  -0.000199  -0.000118
     9  H    0.005583   0.000132  -0.000002  -0.000030   0.000010
    10  C   -0.007401  -0.000313   0.000034   0.000011   0.000007
    11  H    0.004308   0.000147  -0.000020  -0.000003   0.000003
    12  H    0.000241  -0.000006  -0.000004  -0.000000  -0.000000
    13  C   -0.000019   0.000002  -0.000000   0.000000  -0.000000
    14  H   -0.000005  -0.000000   0.000000  -0.000000   0.000000
    15  H   -0.000002  -0.000000   0.000000   0.000000   0.000000
    16  H    0.000086  -0.000000  -0.000000  -0.000000  -0.000000
    17  O   -0.068510  -0.092813   0.001896   0.002462   0.003169
    18  C    0.556380   0.375913  -0.029305  -0.032832  -0.038733
    19  O    8.148362  -0.064415   0.000920   0.001505   0.002747
    20  C   -0.064415   5.007326   0.388179   0.389043   0.396245
    21  H    0.000920   0.388179   0.523575  -0.019690  -0.021229
    22  H    0.001505   0.389043  -0.019690   0.533221  -0.025159
    23  H    0.002747   0.396245  -0.021229  -0.025159   0.525838
 Mulliken charges:
               1
     1  C   -0.334638
     2  H    0.127330
     3  H    0.107226
     4  H    0.112013
     5  C   -0.225908
     6  H    0.123862
     7  H    0.121409
     8  C    0.209180
     9  H    0.135180
    10  C   -0.236101
    11  H    0.153112
    12  H    0.111536
    13  C   -0.346297
    14  H    0.109365
    15  H    0.120493
    16  H    0.118431
    17  O   -0.660207
    18  C    0.775097
    19  O   -0.582178
    20  C   -0.403432
    21  H    0.155788
    22  H    0.151524
    23  H    0.157218
 Sum of Mulliken charges =  -0.00000
 Mulliken charges with hydrogens summed into heavy atoms:
               1
     1  C    0.011930
     5  C    0.019363
     8  C    0.344359
    10  C    0.028547
    13  C    0.001992
    17  O   -0.660207
    18  C    0.775097
    19  O   -0.582178
    20  C    0.061097
 Electronic spatial extent (au):  <R**2>=           1558.6681
 Charge=             -0.0000 electrons
 Dipole moment (field-independent basis, Debye):
    X=              0.4644    Y=              1.6765    Z=              0.9734  Tot=              1.9934
 Quadrupole moment (field-independent basis, Debye-Ang):
   XX=            -52.0530   YY=            -60.3955   ZZ=            -57.6932
   XY=             -3.6816   XZ=             -2.7451   YZ=             -3.0700
 Traceless Quadrupole moment (field-independent basis, Debye-Ang):
   XX=              4.6609   YY=             -3.6816   ZZ=             -0.9793
   XY=             -3.6816   XZ=             -2.7451   YZ=             -3.0700
 Octapole moment (field-independent basis, Debye-Ang**2):
  XXX=            -27.7690  YYY=             -0.7531  ZZZ=              0.2860  XYY=              3.4395
  XXY=              8.6666  XXZ=              6.1393  XZZ=             -2.4180  YZZ=              0.4462
  YYZ=              4.7755  XYZ=              5.0231
 Hexadecapole moment (field-independent basis, Debye-Ang**3):
 XXXX=          -1149.8623 YYYY=           -746.8346 ZZZZ=           -146.1240 XXXY=              1.4862
 XXXZ=             -6.4074 YYYX=             -7.8266 YYYZ=              0.1606 ZZZX=             -2.7238
 ZZZY=              3.1050 XXYY=           -332.0400 XXZZ=           -226.2361 YYZZ=           -153.4210
 XXYZ=             -7.3773 YYXZ=             -1.2437 ZZXY=             -1.1165
 N-N= 4.822470951571D+02 E-N=-1.954356871573D+03  KE= 4.220178932673D+02
 No NMR shielding tensors so no spin-rotation constants.
 Leave Link  601 at Sun Sep 19 20:04:45 2021, MaxMem=   524288000 cpu:               0.2 elap:               0.2
 (Enter /opt/gaussian/g16_legacy/l701.exe)
 ... and contract with generalized density number  2.
 Compute integral first derivatives.
 Leave Link  701 at Sun Sep 19 20:04:45 2021, MaxMem=   524288000 cpu:               0.1 elap:               0.1
 (Enter /opt/gaussian/g16_legacy/l702.exe)
 L702 exits ... SP integral derivatives will be done elsewhere.
 Leave Link  702 at Sun Sep 19 20:04:45 2021, MaxMem=   524288000 cpu:               0.0 elap:               0.0
 (Enter /opt/gaussian/g16_legacy/l703.exe)
 Integral derivatives from FoFJK, PRISM(SPDF).
 Compute integral first derivatives, UseDBF=F ICtDFT=           0.
 Calling FoFJK, ICntrl=  10002127 FMM=F ISym2X=0 I1Cent= 0 IOpClX= 0 NMat=1 NMatS=1 NMatT=0.
 FoFJK:  IHMeth= 1 ICntrl=10002127 DoSepK=F KAlg= 0 I1Cent=           0 FoldK=F
 IRaf=         0 NMat=       1 IRICut=       1 DoRegI=T DoRafI=F ISym2E= 0 IDoP0=0 IntGTp=1.
 FoFCou: FMM=F IPFlag=           0 FMFlag=      100000 FMFlg1=         800
         NFxFlg=           0 DoJE=F BraDBF=F KetDBF=F FulRan=T
         wScrn=  0.000000 ICntrl=  10002127 IOpCl=  0 I1Cent=           0 NGrid=           0
         NMat0=    1 NMatS0=      1 NMatT0=    0 NMatD0=    1 NMtDS0=    0 NMtDT0=    0
 Symmetry not used in FoFCou.
 Leave Link  703 at Sun Sep 19 20:04:58 2021, MaxMem=   524288000 cpu:              13.2 elap:              13.4
 (Enter /opt/gaussian/g16_legacy/l716.exe)
 Dipole        = 2.20132909D-01 5.39996597D-01 3.08261965D-01
 ***** Axes restored to original set *****
 -------------------------------------------------------------------
 Center     Atomic                   Forces (Hartrees/Bohr)
 Number     Number              X              Y              Z
 -------------------------------------------------------------------
      1        6          -0.002774468   -0.003545807   -0.003941068
      2        1           0.000043621    0.004537964   -0.000295691
      3        1          -0.000707029   -0.001856854    0.001878620
      4        1           0.003843057   -0.000135373   -0.001203665
      5        6           0.004957311   -0.009531001   -0.002811530
      6        1           0.005911656   -0.000598493    0.002294895
      7        1           0.003521531    0.003877522    0.000187489
      8        6          -0.012342797    0.015219119    0.012258037
      9        1           0.002572274   -0.001788306    0.004137550
     10        6           0.008241115   -0.002590008    0.001504261
     11        1          -0.003302740   -0.001344748   -0.005700456
     12        1          -0.002250699   -0.000998443   -0.004730519
     13        6          -0.003263097    0.004382083    0.001479122
     14        1           0.003287640    0.001042785   -0.000702602
     15        1          -0.001565341   -0.001409007   -0.003390419
     16        1          -0.000930907   -0.001252074    0.002858616
     17        8          -0.000377443    0.000136026   -0.002209233
     18        6           0.005262541   -0.003205853   -0.005266023
     19        8          -0.008655115    0.002150453    0.000875256
     20        6           0.006438305   -0.002652598   -0.005001433
     21        1          -0.003169225   -0.000922177   -0.002791665
     22        1          -0.000779666   -0.001079720    0.006265397
     23        1          -0.003960522    0.001564508    0.004305060
 -------------------------------------------------------------------
 Cartesian Forces:  Max     0.015219119 RMS     0.004464281
 Leave Link  716 at Sun Sep 19 20:04:59 2021, MaxMem=   524288000 cpu:               0.0 elap:               0.2
 (Enter /opt/gaussian/g16_legacy/l103.exe)

 GradGradGradGradGradGradGradGradGradGradGradGradGradGradGradGradGradGrad
 Berny optimization.
 FormGI is forming the generalized inverse of G from B-inverse, IUseBI=4.
 Internal  Forces:  Max     0.013453654 RMS     0.003328523
 Search for a local minimum.
 Step number   1 out of a maximum of  119
 All quantities printed in internal units (Hartrees-Bohrs-Radians)
 RMS Force = .33285D-02 SwitMx=.10000D-02 MixMth= 1
 Mixed Optimization -- RFO/linear search
 Second derivative matrix not updated -- first step.
 ITU=  0
     Eigenvalues ---    0.00230   0.00248   0.00469   0.00474   0.00703
     Eigenvalues ---    0.01096   0.01109   0.02186   0.03455   0.03474
     Eigenvalues ---    0.04375   0.04781   0.04787   0.04811   0.05517
     Eigenvalues ---    0.05520   0.05692   0.05740   0.07092   0.07314
     Eigenvalues ---    0.07598   0.08423   0.08451   0.12265   0.12280
     Eigenvalues ---    0.16000   0.16000   0.16000   0.16000   0.16000
     Eigenvalues ---    0.16000   0.16000   0.16000   0.16000   0.16324
     Eigenvalues ---    0.19728   0.21856   0.21962   0.24990   0.25000
     Eigenvalues ---    0.25000   0.28387   0.28594   0.30130   0.30166
     Eigenvalues ---    0.31884   0.33707   0.34020   0.34040   0.34195
     Eigenvalues ---    0.34224   0.34262   0.34265   0.34298   0.34326
     Eigenvalues ---    0.34357   0.34401   0.34405   0.34551   0.34746
     Eigenvalues ---    0.39033   0.52425   0.94990
 RFO step:  Lambda=-8.93228103D-03 EMin= 2.30000000D-03
 Linear search not attempted -- first point.
 Iteration  1 RMS(Cart)=  0.12639923 RMS(Int)=  0.00998562
 Iteration  2 RMS(Cart)=  0.01919809 RMS(Int)=  0.00043160
 Iteration  3 RMS(Cart)=  0.00037839 RMS(Int)=  0.00040205
 Iteration  4 RMS(Cart)=  0.00000018 RMS(Int)=  0.00040205
 ITry= 1 IFail=0 DXMaxC= 7.73D-01 DCOld= 1.00D+10 DXMaxT= 3.00D-01 DXLimC= 3.00D+00 Rises=F
 Variable       Old X    -DE/DX   Delta X   Delta X   Delta X     New X
                                 (Linear)    (Quad)   (Total)
    R1        2.06731  -0.00423   0.00000  -0.01201  -0.01201   2.05531
    R2        2.06784  -0.00263   0.00000  -0.00747  -0.00747   2.06036
    R3        2.07002  -0.00381   0.00000  -0.01085  -0.01085   2.05917
    R4        2.87705   0.00327   0.00000   0.01055   0.01055   2.88760
    R5        2.06830  -0.00331   0.00000  -0.00939  -0.00939   2.05890
    R6        2.07297  -0.00288   0.00000  -0.00825  -0.00825   2.06471
    R7        2.91299  -0.01345   0.00000  -0.04595  -0.04595   2.86704
    R8        2.07828  -0.00354   0.00000  -0.01023  -0.01023   2.06805
    R9        2.90858  -0.00825   0.00000  -0.02797  -0.02797   2.88062
   R10        2.72888   0.00139   0.00000   0.00349   0.00349   2.73237
   R11        2.06954  -0.00400   0.00000  -0.01138  -0.01138   2.05816
   R12        2.07263  -0.00248   0.00000  -0.00710  -0.00710   2.06553
   R13        2.87634   0.00338   0.00000   0.01089   0.01089   2.88723
   R14        2.06652  -0.00323   0.00000  -0.00916  -0.00916   2.05736
   R15        2.06885  -0.00395   0.00000  -0.01122  -0.01122   2.05763
   R16        2.06891  -0.00324   0.00000  -0.00922  -0.00922   2.05969
   R17        2.57495  -0.00434   0.00000  -0.00815  -0.00815   2.56680
   R18        2.30715  -0.00347   0.00000  -0.00361  -0.00361   2.30353
   R19        2.84356   0.00194   0.00000   0.00591   0.00591   2.84947
   R20        2.06090  -0.00190   0.00000  -0.00534  -0.00534   2.05556
   R21        2.06410  -0.00334   0.00000  -0.00942  -0.00942   2.05468
   R22        2.06659  -0.00525   0.00000  -0.01487  -0.01487   2.05172
    A1        1.89678  -0.00051   0.00000  -0.01021  -0.01028   1.88650
    A2        1.88054   0.00015   0.00000   0.00560   0.00561   1.88616
    A3        1.94613  -0.00133   0.00000  -0.00941  -0.00944   1.93669
    A4        1.88420  -0.00100   0.00000  -0.00305  -0.00310   1.88110
    A5        1.93877   0.00048   0.00000   0.00037   0.00031   1.93908
    A6        1.91543   0.00218   0.00000   0.01685   0.01683   1.93226
    A7        1.88472   0.00371   0.00000   0.03193   0.03156   1.91628
    A8        1.88475   0.00328   0.00000   0.03592   0.03569   1.92044
    A9        1.98163  -0.00173   0.00000  -0.00670  -0.00645   1.97517
   A10        1.87489  -0.00024   0.00000  -0.00136  -0.00285   1.87204
   A11        1.92137  -0.00306   0.00000  -0.03737  -0.03739   1.88399
   A12        1.91311  -0.00171   0.00000  -0.02029  -0.02038   1.89273
   A13        1.89347   0.00074   0.00000   0.01925   0.01861   1.91208
   A14        1.93028   0.00908   0.00000   0.04610   0.04582   1.97610
   A15        1.88474  -0.00943   0.00000  -0.05747  -0.05733   1.82740
   A16        1.92501  -0.00398   0.00000  -0.00791  -0.00878   1.91623
   A17        1.89290   0.00187   0.00000  -0.00603  -0.00597   1.88693
   A18        1.93619   0.00148   0.00000   0.00458   0.00536   1.94155
   A19        1.92728  -0.00361   0.00000  -0.03146  -0.03153   1.89575
   A20        1.91912  -0.00316   0.00000  -0.03038  -0.03045   1.88867
   A21        1.96920   0.00283   0.00000   0.00683   0.00695   1.97615
   A22        1.83627   0.00248   0.00000   0.03106   0.03037   1.86664
   A23        1.88894   0.00114   0.00000   0.01767   0.01762   1.90656
   A24        1.91816   0.00035   0.00000   0.00862   0.00850   1.92666
   A25        1.94953   0.00178   0.00000   0.01188   0.01186   1.96139
   A26        1.92283   0.00050   0.00000   0.00320   0.00317   1.92600
   A27        1.93662  -0.00024   0.00000  -0.00298  -0.00298   1.93365
   A28        1.87621  -0.00077   0.00000  -0.00158  -0.00163   1.87457
   A29        1.89220  -0.00088   0.00000  -0.00562  -0.00561   1.88659
   A30        1.88417  -0.00049   0.00000  -0.00553  -0.00553   1.87864
   A31        2.02453  -0.00018   0.00000  -0.00069  -0.00069   2.02384
   A32        2.20214  -0.00995   0.00000  -0.03757  -0.03859   2.16355
   A33        1.92341   0.00104   0.00000   0.00483   0.00376   1.92718
   A34        2.15708   0.00897   0.00000   0.03542   0.03429   2.19137
   A35        1.92805   0.00062   0.00000  -0.00337  -0.00344   1.92462
   A36        1.91311   0.00111   0.00000   0.00549   0.00537   1.91848
   A37        1.90167  -0.00178   0.00000  -0.00268  -0.00275   1.89892
   A38        1.93361  -0.00403   0.00000  -0.03890  -0.03901   1.89460
   A39        1.90401   0.00086   0.00000   0.00682   0.00681   1.91082
   A40        1.88252   0.00331   0.00000   0.03402   0.03391   1.91643
    D1       -3.01816  -0.00274   0.00000  -0.04329  -0.04359  -3.06175
    D2       -0.99576   0.00060   0.00000  -0.00972  -0.00943  -1.00519
    D3        1.12938  -0.00036   0.00000  -0.01424  -0.01416   1.11522
    D4        1.14644  -0.00150   0.00000  -0.02397  -0.02430   1.12214
    D5       -3.11435   0.00184   0.00000   0.00960   0.00986  -3.10449
    D6       -0.98920   0.00088   0.00000   0.00507   0.00512  -0.98408
    D7       -0.93581  -0.00196   0.00000  -0.03125  -0.03160  -0.96741
    D8        1.08658   0.00137   0.00000   0.00231   0.00256   1.08915
    D9       -3.07145   0.00041   0.00000  -0.00221  -0.00217  -3.07363
   D10        1.04268  -0.00134   0.00000  -0.02240  -0.02267   1.02002
   D11       -3.12712  -0.00017   0.00000   0.00862   0.00922  -3.11789
   D12       -1.00555   0.00117   0.00000   0.00566   0.00552  -1.00003
   D13       -1.07254  -0.00270   0.00000  -0.03170  -0.03189  -1.10443
   D14        1.04084  -0.00153   0.00000  -0.00067   0.00001   1.04085
   D15       -3.12077  -0.00019   0.00000  -0.00364  -0.00370  -3.12447
   D16       -3.13123   0.00046   0.00000   0.00453   0.00399  -3.12724
   D17       -1.01784   0.00164   0.00000   0.03556   0.03588  -0.98196
   D18        1.10372   0.00298   0.00000   0.03259   0.03218   1.13590
   D19        2.95791  -0.00348   0.00000  -0.01802  -0.01778   2.94014
   D20        0.93921  -0.00254   0.00000  -0.01962  -0.01960   0.91962
   D21       -1.20891  -0.00266   0.00000  -0.01317  -0.01307  -1.22199
   D22       -1.23069   0.00072   0.00000   0.03057   0.03062  -1.20007
   D23        3.03379   0.00166   0.00000   0.02897   0.02880   3.06259
   D24        0.88566   0.00154   0.00000   0.03542   0.03533   0.92099
   D25        0.86700   0.00142   0.00000   0.02079   0.02086   0.88786
   D26       -1.15170   0.00236   0.00000   0.01919   0.01904  -1.13266
   D27        2.98335   0.00224   0.00000   0.02564   0.02556   3.00892
   D28        2.84187  -0.00574   0.00000  -0.14405  -0.14386   2.69802
   D29        0.79328  -0.00250   0.00000  -0.13233  -0.13270   0.66057
   D30       -1.32341   0.00028   0.00000  -0.12147  -0.12129  -1.44470
   D31        1.18820  -0.00029   0.00000  -0.01326  -0.01329   1.17491
   D32       -3.01103   0.00023   0.00000  -0.00545  -0.00544  -3.01647
   D33       -0.92538  -0.00022   0.00000  -0.01218  -0.01219  -0.93757
   D34       -2.95701  -0.00220   0.00000  -0.03617  -0.03629  -2.99330
   D35       -0.87305  -0.00169   0.00000  -0.02835  -0.02844  -0.90149
   D36        1.21259  -0.00213   0.00000  -0.03508  -0.03519   1.17740
   D37       -0.96047   0.00155   0.00000   0.01488   0.01498  -0.94549
   D38        1.12349   0.00207   0.00000   0.02270   0.02283   1.14632
   D39       -3.07405   0.00162   0.00000   0.01596   0.01608  -3.05797
   D40        0.15939  -0.00424   0.00000  -0.12769  -0.12929   0.03010
   D41       -2.94742  -0.00626   0.00000  -0.21335  -0.21174   3.12402
   D42       -1.21951   0.00239   0.00000   0.07192   0.07238  -1.14712
   D43        0.91600  -0.00152   0.00000   0.02458   0.02509   0.94108
   D44        2.97232   0.00207   0.00000   0.06728   0.06783   3.04015
   D45        1.95580   0.00087   0.00000  -0.00937  -0.00992   1.94588
   D46       -2.19189  -0.00304   0.00000  -0.05671  -0.05722  -2.24910
   D47       -0.13557   0.00056   0.00000  -0.01401  -0.01447  -0.15004
         Item               Value     Threshold  Converged?
 Maximum Force            0.013454     0.000450     NO 
 RMS     Force            0.003329     0.000300     NO 
 Maximum Displacement     0.773469     0.001800     NO 
 RMS     Displacement     0.132457     0.001200     NO 
 Predicted change in Energy=-5.238639D-03
 Lowest energy point so far.  Saving SCF results.
 GradGradGradGradGradGradGradGradGradGradGradGradGradGradGradGradGradGrad

 Leave Link  103 at Sun Sep 19 20:04:59 2021, MaxMem=   524288000 cpu:               0.0 elap:               0.1
 (Enter /opt/gaussian/g16_legacy/l202.exe)
                          Input orientation:                          
 ---------------------------------------------------------------------
 Center     Atomic      Atomic             Coordinates (Angstroms)
 Number     Number       Type             X           Y           Z
 ---------------------------------------------------------------------
      1          6           0       -1.975647    0.988012   -0.043905
      2          1           0       -1.534686   -0.006006   -0.063914
      3          1           0       -1.646642    1.522309   -0.935550
      4          1           0       -3.058261    0.878716   -0.102015
      5          6           0       -1.575623    1.738103    1.225851
      6          1           0       -2.090912    2.697249    1.265616
      7          1           0       -1.880051    1.169739    2.107928
      8          6           0       -0.084781    2.004276    1.317291
      9          1           0        0.237353    2.586285    0.448306
     10          6           0        0.319877    2.723429    2.598984
     11          1           0        1.405078    2.693752    2.686570
     12          1           0       -0.083669    2.163774    3.446720
     13          6           0       -0.149611    4.176523    2.648465
     14          1           0       -1.233141    4.260048    2.713798
     15          1           0        0.268934    4.680296    3.518308
     16          1           0        0.178947    4.719620    1.762424
     17          8           0        0.527168    0.696859    1.234608
     18          6           0        1.801008    0.665329    0.764190
     19          8           0        2.435888    1.657544    0.450598
     20          6           0        2.322994   -0.749274    0.753493
     21          1           0        2.410055   -1.126577    1.769992
     22          1           0        1.640113   -1.391986    0.203224
     23          1           0        3.299511   -0.758320    0.279018
 ---------------------------------------------------------------------
                    Distance matrix (angstroms):
                    1          2          3          4          5
     1  C    0.000000
     2  H    1.087621   0.000000
     3  H    1.090297   1.762960   0.000000
     4  H    1.089667   1.762233   1.761153   0.000000
     5  C    1.528051   2.169582   2.173308   2.167947   0.000000
     6  H    2.156299   3.063434   2.534362   2.472497   1.089525
     7  H    2.161608   2.493702   3.072709   2.521255   1.092599
     8  C    2.541854   2.837461   2.783342   3.481795   1.517174
     9  H    2.773828   3.181582   2.568373   3.752295   2.147294
    10  C    3.907169   4.240312   4.219338   4.702147   2.539544
    11  H    4.668442   4.847275   4.879040   5.567043   3.454207
    12  H    4.140829   4.374694   4.696664   4.805528   2.709129
    13  C    4.555202   5.173875   4.704372   5.186610   3.162788
    14  H    4.343094   5.099592   4.580824   4.763747   2.948133
    15  H    5.600042   6.168208   5.786118   6.215222   4.161039
    16  H    4.672259   5.348233   4.564498   5.358003   3.500839
    17  O    2.825500   2.536025   3.180629   3.830788   2.346486
    18  C    3.875599   3.501900   3.938251   4.940480   3.572899
    19  O    4.489371   4.335618   4.313554   5.576525   4.086530
    20  C    4.704500   4.012766   4.875547   5.686840   4.648589
    21  H    5.195777   4.492201   5.549175   6.117850   4.938432
    22  H    4.335803   3.474428   4.537915   5.227234   4.602627
    23  H    5.566081   4.904390   5.580401   6.576195   5.558377
                    6          7          8          9         10
     6  H    0.000000
     7  H    1.757054   0.000000
     8  C    2.123074   2.131795   0.000000
     9  H    2.470046   3.040451   1.094367   0.000000
    10  C    2.755079   2.737658   1.524358   2.156625   0.000000
    11  H    3.773734   3.667358   2.137752   2.526847   1.089134
    12  H    3.011783   2.451011   2.135394   3.045004   1.093032
    13  C    2.805205   3.511033   2.548506   2.742133   1.527857
    14  H    2.296812   3.214900   2.890930   3.177466   2.187750
    15  H    3.817849   4.351013   3.482912   3.716287   2.162656
    16  H    3.080433   4.118313   2.764198   2.506279   2.168979
    17  O    3.294976   2.604036   1.445910   2.066928   2.451831
    18  C    4.418956   3.950981   2.378003   2.496972   3.129855
    19  O    4.715629   4.648873   2.687964   2.386655   3.198308
    20  C    5.623465   4.814840   3.700984   3.945756   4.413386
    21  H    5.927457   4.877732   4.028820   4.500315   4.458544
    22  H    5.636583   4.752040   3.968753   4.225451   4.941591
    23  H    6.478503   5.821528   4.490366   4.537825   5.136442
                   11         12         13         14         15
    11  H    0.000000
    12  H    1.753588   0.000000
    13  C    2.148748   2.166268   0.000000
    14  H    3.068261   2.500566   1.088707   0.000000
    15  H    2.434947   2.542113   1.088850   1.755014   0.000000
    16  H    2.541964   3.072160   1.089942   1.763608   1.758628
    17  O    2.620401   2.723673   3.816422   4.240638   4.598885
    18  C    2.822553   3.604623   4.436653   5.092057   5.104153
    19  O    2.671304   3.947300   4.226189   5.035561   4.821158
    20  C    4.053861   4.640187   5.828221   6.448427   6.429899
    21  H    4.055245   4.456061   5.953694   6.571102   6.431235
    22  H    4.787014   5.112251   6.339606   6.819389   7.052838
    23  H    4.615408   5.478948   6.470193   7.187289   7.018258
                   16         17         18         19         20
    16  H    0.000000
    17  O    4.072156   0.000000
    18  C    4.479378   1.358291   0.000000
    19  O    4.023801   2.276136   1.218977   0.000000
    20  C    5.960174   2.355369   1.507874   2.428428   0.000000
    21  H    6.257469   2.675223   2.143246   3.081039   1.087753
    22  H    6.474398   2.581796   2.138484   3.161342   1.087290
    23  H    6.476592   3.273620   2.123130   2.571320   1.085724
                   21         22         23
    21  H    0.000000
    22  H    1.765790   0.000000
    23  H    1.774754   1.777887   0.000000
 Stoichiometry    C7H14O2
 Framework group  C1[X(C7H14O2)]
 Deg. of freedom    63
 Full point group                 C1      NOp   1
 RotChk:  IX=2 Diff= 1.29D-01
 Largest Abelian subgroup         C1      NOp   1
 Largest concise Abelian subgroup C1      NOp   1
                         Standard orientation:                         
 ---------------------------------------------------------------------
 Center     Atomic      Atomic             Coordinates (Angstroms)
 Number     Number       Type             X           Y           Z
 ---------------------------------------------------------------------
[...]
    14  H    3.066640   2.501701   1.088619   0.000000
    15  H    2.449258   2.535355   1.088911   1.757563   0.000000
    16  H    2.530109   3.072121   1.090304   1.764326   1.760232
    17  O    2.598393   2.637905   3.801257   4.199295   4.575029
    18  C    2.795405   3.516012   4.458766   5.090660   5.117502
    19  O    2.667578   3.912517   4.310140   5.100032   4.907195
    20  C    4.041176   4.528208   5.831770   6.417824   6.423746
    21  H    4.065235   4.294449   5.915205   6.474453   6.393165
    22  H    4.794215   5.055580   6.359505   6.809475   7.066185
    23  H    4.564145   5.337560   6.477519   7.170432   7.003604
                   16         17         18         19         20
    16  H    0.000000
    17  O    4.097383   0.000000
    18  C    4.554746   1.358927   0.000000
    19  O    4.156448   2.280958   1.219670   0.000000
    20  C    6.025091   2.349489   1.505138   2.426548   0.000000
    21  H    6.287720   2.606013   2.133482   3.123085   1.088068
    22  H    6.538342   2.612422   2.134114   3.118715   1.088165
    23  H    6.562094   3.275049   2.126791   2.573703   1.084824
                   21         22         23
    21  H    0.000000
    22  H    1.758080   0.000000
    23  H    1.781932   1.781668   0.000000
 Stoichiometry    C7H14O2
 Framework group  C1[X(C7H14O2)]
 Deg. of freedom    63
 Full point group                 C1      NOp   1
 RotChk:  IX=2 Diff= 1.36D-15
 Largest Abelian subgroup         C1      NOp   1
 Largest concise Abelian subgroup C1      NOp   1
                         Standard orientation:                         
 ---------------------------------------------------------------------
 Center     Atomic      Atomic             Coordinates (Angstroms)
 Number     Number       Type             X           Y           Z
 ---------------------------------------------------------------------
      1          6           0        0.844224    2.548263   -0.377771
      2          1           0       -0.146796    2.733434    0.030013
      3          1           0        0.754404    2.457197   -1.460629
      4          1           0        1.469976    3.413730   -0.164409
      5          6           0        1.443453    1.281224    0.220998
      6          1           0        2.454259    1.134697   -0.163439
      7          1           0        1.524730    1.376353    1.306694
      8          6           0        0.631668    0.037733   -0.094366
      9          1           0        0.519390   -0.079448   -1.175215
     10          6           0        1.180884   -1.250607    0.502157
     11          1           0        0.460378   -2.042246    0.294167
     12          1           0        1.233862   -1.132170    1.586908
     13          6           0        2.543057   -1.646588   -0.060059
     14          1           0        3.320254   -0.937739    0.220279
     15          1           0        2.839079   -2.625569    0.313699
     16          1           0        2.510880   -1.702122   -1.148472
     17          8           0       -0.690836    0.280891    0.465596
     18          6           0       -1.723384   -0.354208   -0.148550
     19          8           0       -1.600830   -1.095176   -1.109561
     20          6           0       -3.022017   -0.005205    0.527609
     21          1           0       -2.977627   -0.292208    1.576204
     22          1           0       -3.181035    1.070397    0.484061
     23          1           0       -3.835731   -0.523693    0.031744
 ---------------------------------------------------------------------
 Rotational constants (GHZ):           1.9345135           1.1396631           0.8200595
 Leave Link  202 at Sun Sep 19 20:31:45 2021, MaxMem=   524288000 cpu:               0.0 elap:               0.0
 (Enter /opt/gaussian/g16_legacy/l601.exe)
 Copying SCF densities to generalized density rwf, IOpCl= 0 IROHF=0.

 **********************************************************************

            Population analysis using the SCF density.

 **********************************************************************

 Orbital symmetries:
       Occupied  (A) (A) (A) (A) (A) (A) (A) (A) (A) (A) (A) (A)
                 (A) (A) (A) (A) (A) (A) (A) (A) (A) (A) (A) (A)
                 (A) (A) (A) (A) (A) (A) (A) (A) (A) (A) (A) (A)
       Virtual   (A) (A) (A) (A) (A) (A) (A) (A) (A) (A) (A) (A)
                 (A) (A) (A) (A) (A) (A) (A) (A) (A) (A) (A) (A)
                 (A) (A) (A) (A) (A) (A) (A) (A) (A) (A) (A) (A)
                 (A) (A) (A) (A) (A) (A) (A) (A) (A) (A) (A) (A)
                 (A) (A) (A) (A) (A) (A) (A) (A) (A) (A) (A) (A)
                 (A) (A) (A) (A) (A) (A) (A) (A) (A) (A) (A) (A)
                 (A) (A) (A) (A) (A) (A) (A) (A) (A) (A) (A) (A)
                 (A) (A) (A) (A) (A) (A) (A) (A) (A) (A) (A) (A)
                 (A) (A) (A) (A) (A) (A) (A) (A) (A) (A) (A) (A)
                 (A) (A) (A) (A) (A) (A) (A) (A) (A) (A) (A) (A)
                 (A) (A) (A) (A) (A) (A) (A) (A) (A) (A) (A) (A)
                 (A) (A) (A) (A) (A) (A) (A) (A) (A) (A) (A) (A)
                 (A) (A) (A) (A) (A) (A) (A) (A) (A) (A) (A) (A)
                 (A) (A) (A) (A) (A) (A) (A) (A) (A) (A) (A) (A)
                 (A)
 The electronic state is 1-A.
 Alpha  occ. eigenvalues --  -20.60046 -20.54886 -11.38354 -11.28423 -11.23903
 Alpha  occ. eigenvalues --  -11.22390 -11.22058 -11.21753 -11.21373  -1.44514
 Alpha  occ. eigenvalues --   -1.34722  -1.09353  -1.02412  -1.01476  -0.92622
 Alpha  occ. eigenvalues --   -0.84620  -0.80977  -0.76325  -0.68768  -0.66183
 Alpha  occ. eigenvalues --   -0.64877  -0.61765  -0.60375  -0.60012  -0.57431
 Alpha  occ. eigenvalues --   -0.56747  -0.55394  -0.52914  -0.52422  -0.50523
 Alpha  occ. eigenvalues --   -0.49741  -0.48527  -0.47969  -0.46347  -0.44101
 Alpha  occ. eigenvalues --   -0.43179
 Alpha virt. eigenvalues --    0.18562   0.23207   0.24031   0.26037   0.27198
 Alpha virt. eigenvalues --    0.28062   0.30565   0.30949   0.31135   0.32004
 Alpha virt. eigenvalues --    0.32863   0.33382   0.34465   0.34571   0.37030
 Alpha virt. eigenvalues --    0.38910   0.40612   0.42211   0.42917   0.44454
 Alpha virt. eigenvalues --    0.46255   0.50175   0.54255   0.68516   0.69863
 Alpha virt. eigenvalues --    0.71224   0.74389   0.75420   0.76072   0.77533
 Alpha virt. eigenvalues --    0.77839   0.80413   0.82689   0.86387   0.88985
 Alpha virt. eigenvalues --    0.90170   0.91977   0.93345   0.94276   0.98596
 Alpha virt. eigenvalues --    1.01332   1.03988   1.04614   1.08843   1.09288
 Alpha virt. eigenvalues --    1.10064   1.11550   1.12599   1.13180   1.14244
 Alpha virt. eigenvalues --    1.15120   1.15754   1.16613   1.17060   1.18405
 Alpha virt. eigenvalues --    1.19177   1.20887   1.22003   1.22775   1.25276
 Alpha virt. eigenvalues --    1.25958   1.32148   1.34527   1.39557   1.41439
 Alpha virt. eigenvalues --    1.43563   1.51593   1.53634   1.58071   1.65231
 Alpha virt. eigenvalues --    1.68414   1.69974   1.71260   1.78148   1.79153
 Alpha virt. eigenvalues --    1.81411   1.82233   1.89529   1.90349   1.95150
 Alpha virt. eigenvalues --    1.98462   2.00661   2.01892   2.04610   2.07334
 Alpha virt. eigenvalues --    2.11175   2.13720   2.14716   2.16910   2.18352
 Alpha virt. eigenvalues --    2.19650   2.24495   2.25792   2.30430   2.32290
 Alpha virt. eigenvalues --    2.34927   2.35212   2.35789   2.36822   2.37815
 Alpha virt. eigenvalues --    2.38345   2.39799   2.40701   2.42195   2.43578
 Alpha virt. eigenvalues --    2.45923   2.46162   2.48999   2.53612   2.54153
 Alpha virt. eigenvalues --    2.57563   2.58140   2.59096   2.61739   2.63905
 Alpha virt. eigenvalues --    2.66649   2.69170   2.71712   2.78973   2.80760
 Alpha virt. eigenvalues --    2.84584   2.85673   2.88476   2.93097   2.93816
 Alpha virt. eigenvalues --    2.94832   2.97001   3.02578   3.05153   3.07017
 Alpha virt. eigenvalues --    3.08843   3.10557   3.12568   3.15169   3.17495
 Alpha virt. eigenvalues --    3.20116   3.21459   3.23113   3.24703   3.26230
 Alpha virt. eigenvalues --    3.26384   3.29086   3.31473   3.34310   3.46044
 Alpha virt. eigenvalues --    3.49173   3.57607   3.58414   3.62469   3.65487
 Alpha virt. eigenvalues --    3.69282   3.73535   3.78269   3.79367   3.82113
 Alpha virt. eigenvalues --    3.83207   3.86158   3.88633   3.94076   3.95283
 Alpha virt. eigenvalues --    4.47789   4.58314   4.67005   4.76491   4.83213
 Alpha virt. eigenvalues --    4.95122   5.00662   5.05759   5.16779
          Condensed to atoms (all electrons):
               1          2          3          4          5          6
     1  C    4.922737   0.405125   0.401708   0.405104   0.336736  -0.037537
     2  H    0.405125   0.561783  -0.029290  -0.028334  -0.037929   0.004224
     3  H    0.401708  -0.029290   0.586748  -0.028948  -0.041677  -0.002912
     4  H    0.405104  -0.028334  -0.028948   0.576946  -0.037378  -0.003190
     5  C    0.336736  -0.037929  -0.041677  -0.037378   4.986169   0.408947
     6  H   -0.037537   0.004224  -0.002912  -0.003190   0.408947   0.585208
     7  H   -0.039678  -0.002762   0.004341  -0.002814   0.402877  -0.028850
     8  C   -0.053186  -0.006403  -0.003717   0.004395   0.361946  -0.042162
     9  H   -0.005359   0.000399   0.002694  -0.000081  -0.043586  -0.000624
    10  C    0.004282  -0.000019  -0.000034  -0.000077  -0.061511  -0.002437
    11  H   -0.000104  -0.000003   0.000001   0.000002   0.004288  -0.000053
    12  H   -0.000139   0.000011   0.000002  -0.000000  -0.006019   0.000428
    13  C   -0.000074  -0.000006  -0.000002   0.000000  -0.001122  -0.001633
    14  H    0.000001  -0.000001   0.000007   0.000002   0.000371  -0.001848
    15  H    0.000002   0.000000  -0.000000  -0.000000  -0.000014   0.000091
    16  H   -0.000041   0.000000  -0.000000   0.000000  -0.000070   0.000338
    17  O   -0.001685   0.004271   0.000083   0.000124  -0.054467   0.002884
    18  C    0.000154  -0.000070   0.000048  -0.000003   0.003117  -0.000029
    19  O   -0.000062   0.000000  -0.000009  -0.000000   0.000478   0.000008
    20  C   -0.000024   0.000005  -0.000001  -0.000000  -0.000121   0.000004
    21  H    0.000001  -0.000000   0.000000  -0.000000  -0.000007  -0.000000
    22  H    0.000009   0.000182   0.000001  -0.000000  -0.000009   0.000000
    23  H    0.000000  -0.000001  -0.000000   0.000000   0.000002  -0.000000
               7          8          9         10         11         12
     1  C   -0.039678  -0.053186  -0.005359   0.004282  -0.000104  -0.000139
     2  H   -0.002762  -0.006403   0.000399  -0.000019  -0.000003   0.000011
     3  H    0.004341  -0.003717   0.002694  -0.000034   0.000001   0.000002
     4  H   -0.002814   0.004395  -0.000081  -0.000077   0.000002  -0.000000
     5  C    0.402877   0.361946  -0.043586  -0.061511   0.004288  -0.006019
     6  H   -0.028850  -0.042162  -0.000624  -0.002437  -0.000053   0.000428
     7  H    0.583575  -0.039643   0.004522  -0.004467  -0.000076   0.003347
     8  C   -0.039643   4.817364   0.416763   0.371318  -0.038880  -0.041976
     9  H    0.004522   0.416763   0.547338  -0.045806  -0.004088   0.004702
    10  C   -0.004467   0.371318  -0.045806   4.985690   0.414332   0.401832
    11  H   -0.000076  -0.038880  -0.004088   0.414332   0.547115  -0.029019
    12  H    0.003347  -0.041976   0.004702   0.401832  -0.029019   0.590301
    13  C    0.000334  -0.052144   0.000051   0.324083  -0.035965  -0.037461
    14  H    0.000337  -0.004123   0.000109  -0.038003   0.003927  -0.003673
    15  H   -0.000035   0.004202  -0.000135  -0.034076  -0.004149  -0.002467
    16  H    0.000044  -0.004093   0.002732  -0.041355  -0.002397   0.004339
    17  O   -0.000697   0.132513  -0.031966  -0.038935  -0.003612   0.000378
    18  C   -0.000202  -0.019291  -0.007396  -0.003041   0.002858   0.000107
    19  O   -0.000010  -0.003327   0.008521  -0.004270   0.004150   0.000100
    20  C   -0.000009   0.004150   0.000238  -0.000389   0.000084  -0.000024
    21  H    0.000001  -0.000236  -0.000000   0.000088  -0.000041  -0.000001
    22  H    0.000004  -0.000193  -0.000026   0.000005   0.000000   0.000001
    23  H    0.000000  -0.000116   0.000007   0.000010   0.000002   0.000000
              13         14         15         16         17         18
     1  C   -0.000074   0.000001   0.000002  -0.000041  -0.001685   0.000154
     2  H   -0.000006  -0.000001   0.000000   0.000000   0.004271  -0.000070
     3  H   -0.000002   0.000007  -0.000000  -0.000000   0.000083   0.000048
     4  H    0.000000   0.000002  -0.000000   0.000000   0.000124  -0.000003
     5  C   -0.001122   0.000371  -0.000014  -0.000070  -0.054467   0.003117
     6  H   -0.001633  -0.001848   0.000091   0.000338   0.002884  -0.000029
     7  H    0.000334   0.000337  -0.000035   0.000044  -0.000697  -0.000202
     8  C   -0.052144  -0.004123   0.004202  -0.004093   0.132513  -0.019291
     9  H    0.000051   0.000109  -0.000135   0.002732  -0.031966  -0.007396
    10  C    0.324083  -0.038003  -0.034076  -0.041355  -0.038935  -0.003041
    11  H   -0.035965   0.003927  -0.004149  -0.002397  -0.003612   0.002858
    12  H   -0.037461  -0.003673  -0.002467   0.004339   0.000378   0.000107
    13  C    4.941497   0.403223   0.404633   0.402590   0.002538   0.000039
    14  H    0.403223   0.586859  -0.029135  -0.031401  -0.000034  -0.000000
    15  H    0.404633  -0.029135   0.567082  -0.027924  -0.000045  -0.000003
    16  H    0.402590  -0.031401  -0.027924   0.578180  -0.000012  -0.000010
    17  O    0.002538  -0.000034  -0.000045  -0.000012   8.556724   0.254645
    18  C    0.000039  -0.000000  -0.000003  -0.000010   0.254645   4.159515
    19  O   -0.000048  -0.000003   0.000000   0.000018  -0.073987   0.562111
    20  C    0.000002  -0.000000  -0.000000  -0.000000  -0.093051   0.374605
    21  H   -0.000000   0.000000   0.000000  -0.000000   0.002345  -0.031500
    22  H    0.000000  -0.000000   0.000000   0.000000   0.002093  -0.030153
    23  H   -0.000000   0.000000   0.000000  -0.000000   0.003266  -0.038501
              19         20         21         22         23
     1  C   -0.000062  -0.000024   0.000001   0.000009   0.000000
     2  H    0.000000   0.000005  -0.000000   0.000182  -0.000001
     3  H   -0.000009  -0.000001   0.000000   0.000001  -0.000000
     4  H   -0.000000  -0.000000  -0.000000  -0.000000   0.000000
     5  C    0.000478  -0.000121  -0.000007  -0.000009   0.000002
     6  H    0.000008   0.000004  -0.000000   0.000000  -0.000000
     7  H   -0.000010  -0.000009   0.000001   0.000004   0.000000
     8  C   -0.003327   0.004150  -0.000236  -0.000193  -0.000116
     9  H    0.008521   0.000238  -0.000000  -0.000026   0.000007
    10  C   -0.004270  -0.000389   0.000088   0.000005   0.000010
    11  H    0.004150   0.000084  -0.000041   0.000000   0.000002
    12  H    0.000100  -0.000024  -0.000001   0.000001   0.000000
    13  C   -0.000048   0.000002  -0.000000   0.000000  -0.000000
    14  H   -0.000003  -0.000000   0.000000  -0.000000   0.000000
    15  H    0.000000  -0.000000   0.000000   0.000000   0.000000
    16  H    0.000018  -0.000000  -0.000000   0.000000  -0.000000
    17  O   -0.073987  -0.093051   0.002345   0.002093   0.003266
    18  C    0.562111   0.374605  -0.031500  -0.030153  -0.038501
    19  O    8.150235  -0.060379   0.001021   0.001062   0.003085
    20  C   -0.060379   5.004757   0.389988   0.388882   0.395324
    21  H    0.001021   0.389988   0.527895  -0.023457  -0.021286
    22  H    0.001062   0.388882  -0.023457   0.528300  -0.021251
    23  H    0.003085   0.395324  -0.021286  -0.021251   0.521483
 Mulliken charges:
               1
     1  C   -0.337970
     2  H    0.128817
     3  H    0.110955
     4  H    0.114251
     5  C   -0.221022
     6  H    0.119144
     7  H    0.119862
     8  C    0.196841
     9  H    0.150992
    10  C   -0.227220
    11  H    0.141630
    12  H    0.115232
    13  C   -0.350536
    14  H    0.113386
    15  H    0.121973
    16  H    0.119062
    17  O   -0.663373
    18  C    0.772999
    19  O   -0.588696
    20  C   -0.404040
    21  H    0.155189
    22  H    0.154549
    23  H    0.157976
 Sum of Mulliken charges =  -0.00000
 Mulliken charges with hydrogens summed into heavy atoms:
               1
     1  C    0.016053
     5  C    0.017984
     8  C    0.347832
    10  C    0.029641
    13  C    0.003884
    17  O   -0.663373
    18  C    0.772999
    19  O   -0.588696
    20  C    0.063675
 Electronic spatial extent (au):  <R**2>=           1536.9836
 Charge=             -0.0000 electrons
 Dipole moment (field-independent basis, Debye):
    X=              0.4351    Y=              1.1769    Z=              1.5673  Tot=              2.0077
 Quadrupole moment (field-independent basis, Debye-Ang):
   XX=            -51.6649   YY=            -58.5584   ZZ=            -59.3847
   XY=             -2.5102   XZ=             -3.9810   YZ=             -3.3492
 Traceless Quadrupole moment (field-independent basis, Debye-Ang):
   XX=              4.8711   YY=             -2.0224   ZZ=             -2.8487
   XY=             -2.5102   XZ=             -3.9810   YZ=             -3.3492
 Octapole moment (field-independent basis, Debye-Ang**2):
  XXX=            -27.9878  YYY=             -2.1334  ZZZ=              1.7772  XYY=              0.8800
  XXY=              4.4213  XXZ=              7.8745  XZZ=              0.9689  YZZ=              1.8454
  YYZ=              4.0760  XYZ=              5.3109
 Hexadecapole moment (field-independent basis, Debye-Ang**3):
 XXXX=          -1135.5658 YYYY=           -697.3909 ZZZZ=           -177.4366 XXXY=              5.4954
 XXXZ=             -9.2673 YYYX=             -2.4034 YYYZ=              2.6006 ZZZX=             -5.5396
 ZZZY=              0.1617 XXYY=           -314.0986 XXZZ=           -233.9029 YYZZ=           -152.1130
 XXYZ=             -7.0307 YYXZ=             -2.5743 ZZXY=             -3.0573
 N-N= 4.844658135740D+02 E-N=-1.958964990515D+03  KE= 4.221815375054D+02
 No NMR shielding tensors so no spin-rotation constants.
 Leave Link  601 at Sun Sep 19 20:31:45 2021, MaxMem=   524288000 cpu:               0.1 elap:               0.1
 (Enter /opt/gaussian/g16_legacy/l9999.exe)
 1\1\GINC-TRUENO93\FOpt\RMP2-FC\6-31G(d,p)\C7H14O2\JRAMOS\19-Sep-2021\0
 \\#p opt mp2/6-31g(d,p)\\Conformer number 017. Energy MM = -6.229 kcal
 /mol\\0,1\C,-1.9759810025,1.0111530459,-0.0546320046\H,-1.5057643103,0
 .0311151836,-0.0880652576\H,-1.6658307954,1.5671073323,-0.9398806119\H
 ,-3.0554261864,0.8754074926,-0.1045595727\C,-1.5780826157,1.7549579327
 ,1.214784949\H,-2.0933178828,2.7161521534,1.2551520885\H,-1.8858272122
 ,1.1896396518,2.0980178606\C,-0.0848373069,2.0136393097,1.3043597524\H
 ,0.2588728219,2.5668272001,0.4266248134\C,0.3625869973,2.7358042443,2.
 5675252575\H,1.4525745572,2.7665763907,2.5597719522\H,0.0575237438,2.1
 398263963,3.430812568\C,-0.1822882223,4.156767746,2.6787779581\H,-1.26
 38172016,4.1689731395,2.8022185117\H,0.2534803548,4.665350315,3.537368
 4465\H,0.0643124207,4.7362801502,1.7887690778\O,0.5428030876,0.6995264
 361,1.2747550411\C,1.8014978252,0.6522599244,0.764721017\O,2.411654212
 1,1.6229923351,0.348809348\C,2.3175070016,-0.7614553136,0.7888988382\H
 ,2.3143340735,-1.1350352067,1.8108190283\H,1.6636027143,-1.4009919969,
 0.1994035419\H,3.3243229261,-0.7831738625,0.3855473967\\Version=EM64L-
 G16RevA.03\State=1-A\HF=-423.0007149\MP2=-424.3604351\RMSD=4.226e-09\R
 MSF=6.722e-06\Dipole=-0.5030869,-0.3188842,0.3031097\PG=C01 [X(C7H14O2
 )]\\@


 EVERY WORD THAT YOU WRITE IS A BLOW THAT SMITES THE DEVIL.
     -- ST. BERNARD OF CLAIRVAUX
 Job cpu time:       0 days  0 hours 29 minutes  8.0 seconds.
 Elapsed time:       0 days  0 hours 29 minutes 10.1 seconds.
 File lengths (MBytes):  RWF=     22 Int=      0 D2E=      0 Chk=      6 Scr=      1
 Normal termination of Gaussian 16 at Sun Sep 19 20:31:45 2021.
