 Entering Gaussian System, Link 0=/opt/gaussian/g16_legacy/g16
 Input=07-EVA_001_gaussian.com
 Output=07-EVA_001_gaussian.log
 Initial command:
 /opt/gaussian/g16_legacy/l1.exe "/scratch-local/jramos/2661758/Gau-20024.inp" -scrdir="/scratch-local/jramos/2661758/"
 Entering Link 1 = /opt/gaussian/g16_legacy/l1.exe PID=     20028.
  
 Copyright (c) 1988,1990,1992,1993,1995,1998,2003,2009,2016,
            Gaussian, Inc.  All Rights Reserved.
  
 This is part of the Gaussian(R) 16 program.  It is based on
 the Gaussian(R) 09 system (copyright 2009, Gaussian, Inc.),
 the Gaussian(R) 03 system (copyright 2003, Gaussian, Inc.),
 the Gaussian(R) 98 system (copyright 1998, Gaussian, Inc.),
 the Gaussian(R) 94 system (copyright 1995, Gaussian, Inc.),
 the Gaussian 92(TM) system (copyright 1992, Gaussian, Inc.),
 the Gaussian 90(TM) system (copyright 1990, Gaussian, Inc.),
 the Gaussian 88(TM) system (copyright 1988, Gaussian, Inc.),
 the Gaussian 86(TM) system (copyright 1986, Carnegie Mellon
 University), and the Gaussian 82(TM) system (copyright 1983,
 Carnegie Mellon University). Gaussian is a federally registered
 trademark of Gaussian, Inc.
  
 This software contains proprietary and confidential information,
 including trade secrets, belonging to Gaussian, Inc.
  
 This software is provided under written license and may be
 used, copied, transmitted, or stored only in accord with that
 written license.
  
 The following legend is applicable only to US Government
 contracts under FAR:
  
                    RESTRICTED RIGHTS LEGEND
  
 Use, reproduction and disclosure by the US Government is
 subject to restrictions as set forth in subparagraphs (a)
 and (c) of the Commercial Computer Software - Restricted
 Rights clause in FAR 52.227-19.
  
 Gaussian, Inc.
 340 Quinnipiac St., Bldg. 40, Wallingford CT 06492
  
  
 ---------------------------------------------------------------
 Warning -- This program may not be used in any manner that
 competes with the business of Gaussian, Inc. or will provide
 assistance to any competitor of Gaussian, Inc.  The licensee
 of this program is prohibited from giving any competitor of
 Gaussian, Inc. access to this program.  By using this program,
 the user acknowledges that Gaussian, Inc. is engaged in the
 business of creating and licensing software in the field of
 computational chemistry and represents and warrants to the
 licensee that it is not a competitor of Gaussian, Inc. and that
 it will not use this program in any manner prohibited above.
 ---------------------------------------------------------------
  

 Cite this work as:
 Gaussian 16, Revision A.03,
 M. J. Frisch, G. W. Trucks, H. B. Schlegel, G. E. Scuseria, 
 M. A. Robb, J. R. Cheeseman, G. Scalmani, V. Barone, 
 G. A. Petersson, H. Nakatsuji, X. Li, M. Caricato, A. V. Marenich, 
 J. Bloino, B. G. Janesko, R. Gomperts, B. Mennucci, H. P. Hratchian, 
 J. V. Ortiz, A. F. Izmaylov, J. L. Sonnenberg, D. Williams-Young, 
 F. Ding, F. Lipparini, F. Egidi, J. Goings, B. Peng, A. Petrone, 
 T. Henderson, D. Ranasinghe, V. G. Zakrzewski, J. Gao, N. Rega, 
 G. Zheng, W. Liang, M. Hada, M. Ehara, K. Toyota, R. Fukuda, 
 J. Hasegawa, M. Ishida, T. Nakajima, Y. Honda, O. Kitao, H. Nakai, 
 T. Vreven, K. Throssell, J. A. Montgomery, Jr., J. E. Peralta, 
 F. Ogliaro, M. J. Bearpark, J. J. Heyd, E. N. Brothers, K. N. Kudin, 
 V. N. Staroverov, T. A. Keith, R. Kobayashi, J. Normand, 
 K. Raghavachari, A. P. Rendell, J. C. Burant, S. S. Iyengar, 
 J. Tomasi, M. Cossi, J. M. Millam, M. Klene, C. Adamo, R. Cammi, 
 J. W. Ochterski, R. L. Martin, K. Morokuma, O. Farkas, 
 J. B. Foresman, and D. J. Fox, Gaussian, Inc., Wallingford CT, 2016.
 
 ******************************************
 Gaussian 16:  EM64L-G16RevA.03 25-Dec-2016
                19-Sep-2021 
 ******************************************
 %chk=07-EVA_001_gaussian.chk
 %nproc=1
 Will use up to    1 processors via shared memory.
 %mem=4000Mb
 ---------------------
 #p opt mp2/6-31g(d,p)
 ---------------------
 1/18=20,19=15,38=1/1,3;
 2/9=110,12=2,17=6,18=5,40=1/2;
 3/5=1,6=6,7=101,11=9,25=1,30=1,71=1/1,2,3;
 4//1;
 5/5=2,38=5/2;
 8/6=4,10=2/1;
 9/15=2,16=-3/6;
 10/5=1/2;
 6/7=2,8=2,9=2,10=2/1;
 7/12=2/1,2,3,16;
 1/18=20,19=15/3(2);
 2/9=110/2;
 99//99;
 2/9=110/2;
 3/5=1,6=6,7=101,11=9,25=1,30=1,71=1/1,2,3;
 4/5=5,16=3,69=1/1;
 5/5=2,38=5/2;
 8/6=4,10=2/1;
 9/15=2,16=-3/6;
 10/5=1/2;
 7/12=2/1,2,3,16;
 1/18=20,19=15/3(-8);
 2/9=110/2;
 6/7=2,8=2,9=2,10=2/1;
 99//99;
 Leave Link    1 at Sun Sep 19 20:02:33 2021, MaxMem=   524288000 cpu:               0.0 elap:               0.1
 (Enter /opt/gaussian/g16_legacy/l101.exe)
 -------------------------------------------------
 Conformer number 001. Energy MM = -6.803 kcal/mol
 -------------------------------------------------
 Symbolic Z-matrix:
 Charge =  0 Multiplicity = 1
 C                    -2.0269    1.0007   -0.0171 
 H                    -1.6271   -0.0172   -0.0441 
 H                    -1.6678    1.5385   -0.9002 
 H                    -3.1183    0.9363   -0.0828 
 C                    -1.6248    1.7212    1.2633 
 H                    -2.1147    2.7009    1.2825 
 H                    -2.0094    1.1376    2.108 
 C                    -0.1038    1.8987    1.3838 
 H                     0.2635    2.3659    0.46 
 C                     0.2695    2.7877    2.5858 
 H                    -0.208     3.7682    2.4865 
 H                     1.3521    2.9602    2.5794 
 C                    -0.0876    2.182     3.9393 
 H                     0.3419    1.1828    4.0611 
 H                     0.3028    2.8112    4.7453 
 H                    -1.1712    2.11      4.07 
 O                     0.5001    0.6005    1.5564 
 C                     1.8271    0.5208    1.2571 
 O                     2.4916    1.393     0.716 
 C                     2.3952   -0.7585    1.7947 
 H                     2.5658   -0.6516    2.8676 
 H                     1.7131   -1.5915    1.6012 
 H                     3.3436   -0.9725    1.2947 
 
 ITRead=  0  0  0  0  0  0  0  0  0  0  0  0  0  0  0  0  0  0  0  0
 ITRead=  0  0  0
 MicOpt= -1 -1 -1 -1 -1 -1 -1 -1 -1 -1 -1 -1 -1 -1 -1 -1 -1 -1 -1 -1
 MicOpt= -1 -1 -1
 NAtoms=     23 NQM=       23 NQMF=       0 NMMI=      0 NMMIF=      0
                NMic=       0 NMicF=      0.
                    Isotopes and Nuclear Properties:
 (Nuclear quadrupole moments (NQMom) in fm**2, nuclear magnetic moments (NMagM)
  in nuclear magnetons)

  Atom         1           2           3           4           5           6           7           8           9          10
 IAtWgt=          12           1           1           1          12           1           1          12           1          12
 AtmWgt=  12.0000000   1.0078250   1.0078250   1.0078250  12.0000000   1.0078250   1.0078250  12.0000000   1.0078250  12.0000000
 NucSpn=           0           1           1           1           0           1           1           0           1           0
 AtZEff=  -0.0000000  -0.0000000  -0.0000000  -0.0000000  -0.0000000  -0.0000000  -0.0000000  -0.0000000  -0.0000000  -0.0000000
 NQMom=    0.0000000   0.0000000   0.0000000   0.0000000   0.0000000   0.0000000   0.0000000   0.0000000   0.0000000   0.0000000
 NMagM=    0.0000000   2.7928460   2.7928460   2.7928460   0.0000000   2.7928460   2.7928460   0.0000000   2.7928460   0.0000000
 AtZNuc=   6.0000000   1.0000000   1.0000000   1.0000000   6.0000000   1.0000000   1.0000000   6.0000000   1.0000000   6.0000000

  Atom        11          12          13          14          15          16          17          18          19          20
 IAtWgt=           1           1          12           1           1           1          16          12          16          12
 AtmWgt=   1.0078250   1.0078250  12.0000000   1.0078250   1.0078250   1.0078250  15.9949146  12.0000000  15.9949146  12.0000000
 NucSpn=           1           1           0           1           1           1           0           0           0           0
 AtZEff=  -0.0000000  -0.0000000  -0.0000000  -0.0000000  -0.0000000  -0.0000000  -0.0000000  -0.0000000  -0.0000000  -0.0000000
 NQMom=    0.0000000   0.0000000   0.0000000   0.0000000   0.0000000   0.0000000   0.0000000   0.0000000   0.0000000   0.0000000
 NMagM=    2.7928460   2.7928460   0.0000000   2.7928460   2.7928460   2.7928460   0.0000000   0.0000000   0.0000000   0.0000000
 AtZNuc=   1.0000000   1.0000000   6.0000000   1.0000000   1.0000000   1.0000000   8.0000000   6.0000000   8.0000000   6.0000000

  Atom        21          22          23
 IAtWgt=           1           1           1
 AtmWgt=   1.0078250   1.0078250   1.0078250
 NucSpn=           1           1           1
 AtZEff=  -0.0000000  -0.0000000  -0.0000000
 NQMom=    0.0000000   0.0000000   0.0000000
 NMagM=    2.7928460   2.7928460   2.7928460
 AtZNuc=   1.0000000   1.0000000   1.0000000
 Leave Link  101 at Sun Sep 19 20:02:33 2021, MaxMem=   524288000 cpu:               0.1 elap:               0.3
 (Enter /opt/gaussian/g16_legacy/l103.exe)

 GradGradGradGradGradGradGradGradGradGradGradGradGradGradGradGradGradGrad
 Berny optimization.
 Initialization pass.
                           ----------------------------
                           !    Initial Parameters    !
                           ! (Angstroms and Degrees)  !
 --------------------------                            --------------------------
 ! Name  Definition              Value          Derivative Info.                !
 --------------------------------------------------------------------------------
 ! R1    R(1,2)                  1.0939         estimate D2E/DX2                !
 ! R2    R(1,3)                  1.0946         estimate D2E/DX2                !
 ! R3    R(1,4)                  1.0953         estimate D2E/DX2                !
 ! R4    R(1,5)                  1.5232         estimate D2E/DX2                !
 ! R5    R(5,6)                  1.0955         estimate D2E/DX2                !
 ! R6    R(5,7)                  1.0964         estimate D2E/DX2                !
 ! R7    R(5,8)                  1.5361         estimate D2E/DX2                !
 ! R8    R(8,9)                  1.0984         estimate D2E/DX2                !
 ! R9    R(8,10)                 1.5409         estimate D2E/DX2                !
 ! R10   R(8,17)                 1.4422         estimate D2E/DX2                !
 ! R11   R(10,11)                1.0951         estimate D2E/DX2                !
 ! R12   R(10,12)                1.0963         estimate D2E/DX2                !
 ! R13   R(10,13)                1.5252         estimate D2E/DX2                !
 ! R14   R(13,14)                1.0944         estimate D2E/DX2                !
 ! R15   R(13,15)                1.0945         estimate D2E/DX2                !
 ! R16   R(13,16)                1.0938         estimate D2E/DX2                !
 ! R17   R(17,18)                1.3627         estimate D2E/DX2                !
 ! R18   R(18,19)                1.2227         estimate D2E/DX2                !
 ! R19   R(18,20)                1.4995         estimate D2E/DX2                !
 ! R20   R(20,21)                1.0916         estimate D2E/DX2                !
 ! R21   R(20,22)                1.0939         estimate D2E/DX2                !
 ! R22   R(20,23)                1.0933         estimate D2E/DX2                !
 ! A1    A(2,1,3)              108.5043         estimate D2E/DX2                !
 ! A2    A(2,1,4)              107.9379         estimate D2E/DX2                !
 ! A3    A(2,1,5)              111.3708         estimate D2E/DX2                !
 ! A4    A(3,1,4)              107.9034         estimate D2E/DX2                !
 ! A5    A(3,1,5)              111.0497         estimate D2E/DX2                !
 ! A6    A(4,1,5)              109.9549         estimate D2E/DX2                !
 ! A7    A(1,5,6)              108.6438         estimate D2E/DX2                !
 ! A8    A(1,5,7)              107.6525         estimate D2E/DX2                !
 ! A9    A(1,5,8)              112.4571         estimate D2E/DX2                !
 ! A10   A(6,5,7)              107.7974         estimate D2E/DX2                !
 ! A11   A(6,5,8)              109.7603         estimate D2E/DX2                !
 ! A12   A(7,5,8)              110.3911         estimate D2E/DX2                !
 ! A13   A(5,8,9)              108.3172         estimate D2E/DX2                !
 ! A14   A(5,8,10)             111.5763         estimate D2E/DX2                !
 ! A15   A(5,8,17)             108.6636         estimate D2E/DX2                !
 ! A16   A(9,8,10)             109.2467         estimate D2E/DX2                !
 ! A17   A(9,8,17)             110.0904         estimate D2E/DX2                !
 ! A18   A(10,8,17)            108.9373         estimate D2E/DX2                !
 ! A19   A(8,10,11)            109.8881         estimate D2E/DX2                !
 ! A20   A(8,10,12)            108.9934         estimate D2E/DX2                !
 ! A21   A(8,10,13)            113.9782         estimate D2E/DX2                !
 ! A22   A(11,10,12)           106.8089         estimate D2E/DX2                !
 ! A23   A(11,10,13)           109.5081         estimate D2E/DX2                !
 ! A24   A(12,10,13)           107.39           estimate D2E/DX2                !
 ! A25   A(10,13,14)           111.6819         estimate D2E/DX2                !
 ! A26   A(10,13,15)           109.9796         estimate D2E/DX2                !
 ! A27   A(10,13,16)           111.353          estimate D2E/DX2                !
 ! A28   A(14,13,15)           107.6333         estimate D2E/DX2                !
 ! A29   A(14,13,16)           108.3842         estimate D2E/DX2                !
 ! A30   A(15,13,16)           107.6502         estimate D2E/DX2                !
 ! A31   A(8,17,18)            115.7313         estimate D2E/DX2                !
 ! A32   A(17,18,19)           125.7823         estimate D2E/DX2                !
 ! A33   A(17,18,20)           109.8834         estimate D2E/DX2                !
 ! A34   A(19,18,20)           124.1492         estimate D2E/DX2                !
 ! A35   A(18,20,21)           109.1499         estimate D2E/DX2                !
 ! A36   A(18,20,22)           110.4891         estimate D2E/DX2                !
 ! A37   A(18,20,23)           109.3718         estimate D2E/DX2                !
 ! A38   A(21,20,22)           110.2355         estimate D2E/DX2                !
 ! A39   A(21,20,23)           109.4566         estimate D2E/DX2                !
 ! A40   A(22,20,23)           108.1174         estimate D2E/DX2                !
 ! D1    D(2,1,5,6)           -175.3634         estimate D2E/DX2                !
 ! D2    D(2,1,5,7)            -58.8835         estimate D2E/DX2                !
 ! D3    D(2,1,5,8)             62.9318         estimate D2E/DX2                !
 ! D4    D(3,1,5,6)             63.5872         estimate D2E/DX2                !
 ! D5    D(3,1,5,7)           -179.9328         estimate D2E/DX2                !
 ! D6    D(3,1,5,8)            -58.1176         estimate D2E/DX2                !
 ! D7    D(4,1,5,6)            -55.7644         estimate D2E/DX2                !
 ! D8    D(4,1,5,7)             60.7156         estimate D2E/DX2                !
 ! D9    D(4,1,5,8)           -177.4692         estimate D2E/DX2                !
 ! D10   D(1,5,8,9)             52.2162         estimate D2E/DX2                !
 ! D11   D(1,5,8,10)           172.5016         estimate D2E/DX2                !
 ! D12   D(1,5,8,17)           -67.3706         estimate D2E/DX2                !
 ! D13   D(6,5,8,9)            -68.8512         estimate D2E/DX2                !
 ! D14   D(6,5,8,10)            51.4342         estimate D2E/DX2                !
 ! D15   D(6,5,8,17)           171.5621         estimate D2E/DX2                !
 ! D16   D(7,5,8,9)            172.4618         estimate D2E/DX2                !
 ! D17   D(7,5,8,10)           -67.2528         estimate D2E/DX2                !
 ! D18   D(7,5,8,17)            52.8751         estimate D2E/DX2                !
 ! D19   D(5,8,10,11)          -58.2228         estimate D2E/DX2                !
 ! D20   D(5,8,10,12)         -174.9501         estimate D2E/DX2                !
 ! D21   D(5,8,10,13)           65.1142         estimate D2E/DX2                !
 ! D22   D(9,8,10,11)           61.5154         estimate D2E/DX2                !
 ! D23   D(9,8,10,12)          -55.2119         estimate D2E/DX2                !
 ! D24   D(9,8,10,13)         -175.1476         estimate D2E/DX2                !
 ! D25   D(17,8,10,11)        -178.1896         estimate D2E/DX2                !
 ! D26   D(17,8,10,12)          65.0831         estimate D2E/DX2                !
 ! D27   D(17,8,10,13)         -54.8526         estimate D2E/DX2                !
 ! D28   D(5,8,17,18)          159.8748         estimate D2E/DX2                !
 ! D29   D(9,8,17,18)           41.401          estimate D2E/DX2                !
 ! D30   D(10,8,17,18)         -78.3724         estimate D2E/DX2                !
 ! D31   D(8,10,13,14)          54.3388         estimate D2E/DX2                !
 ! D32   D(8,10,13,15)         173.7722         estimate D2E/DX2                !
 ! D33   D(8,10,13,16)         -66.9834         estimate D2E/DX2                !
 ! D34   D(11,10,13,14)        177.8819         estimate D2E/DX2                !
 ! D35   D(11,10,13,15)        -62.6848         estimate D2E/DX2                !
 ! D36   D(11,10,13,16)         56.5597         estimate D2E/DX2                !
 ! D37   D(12,10,13,14)        -66.4956         estimate D2E/DX2                !
 ! D38   D(12,10,13,15)         52.9378         estimate D2E/DX2                !
 ! D39   D(12,10,13,16)        172.1822         estimate D2E/DX2                !
 ! D40   D(8,17,18,19)          -9.2201         estimate D2E/DX2                !
 ! D41   D(8,17,18,20)         165.9842         estimate D2E/DX2                !
 ! D42   D(17,18,20,21)        -78.2449         estimate D2E/DX2                !
 ! D43   D(17,18,20,22)         43.1293         estimate D2E/DX2                !
 ! D44   D(17,18,20,23)        162.0285         estimate D2E/DX2                !
 ! D45   D(19,18,20,21)         97.0543         estimate D2E/DX2                !
 ! D46   D(19,18,20,22)       -141.5715         estimate D2E/DX2                !
 ! D47   D(19,18,20,23)        -22.6723         estimate D2E/DX2                !
 --------------------------------------------------------------------------------
 Trust Radius=3.00D-01 FncErr=1.00D-07 GrdErr=1.00D-07 EigMax=2.50D+02 EigMin=1.00D-04
 Number of steps in this run=    119 maximum allowed number of steps=    138.
 GradGradGradGradGradGradGradGradGradGradGradGradGradGradGradGradGradGrad

 Leave Link  103 at Sun Sep 19 20:02:34 2021, MaxMem=   524288000 cpu:               0.0 elap:               0.2
 (Enter /opt/gaussian/g16_legacy/l202.exe)
                          Input orientation:                          
 ---------------------------------------------------------------------
 Center     Atomic      Atomic             Coordinates (Angstroms)
 Number     Number       Type             X           Y           Z
 ---------------------------------------------------------------------
      1          6           0       -2.026900    1.000700   -0.017100
      2          1           0       -1.627100   -0.017200   -0.044100
      3          1           0       -1.667800    1.538500   -0.900200
      4          1           0       -3.118300    0.936300   -0.082800
      5          6           0       -1.624800    1.721200    1.263300
      6          1           0       -2.114700    2.700900    1.282500
      7          1           0       -2.009400    1.137600    2.108000
      8          6           0       -0.103800    1.898700    1.383800
      9          1           0        0.263500    2.365900    0.460000
     10          6           0        0.269500    2.787700    2.585800
     11          1           0       -0.208000    3.768200    2.486500
     12          1           0        1.352100    2.960200    2.579400
     13          6           0       -0.087600    2.182000    3.939300
     14          1           0        0.341900    1.182800    4.061100
     15          1           0        0.302800    2.811200    4.745300
     16          1           0       -1.171200    2.110000    4.070000
     17          8           0        0.500100    0.600500    1.556400
     18          6           0        1.827100    0.520800    1.257100
     19          8           0        2.491600    1.393000    0.716000
     20          6           0        2.395200   -0.758500    1.794700
     21          1           0        2.565800   -0.651600    2.867600
     22          1           0        1.713100   -1.591500    1.601200
     23          1           0        3.343600   -0.972500    1.294700
 ---------------------------------------------------------------------
                    Distance matrix (angstroms):
                    1          2          3          4          5
     1  C    0.000000
     2  H    1.093933   0.000000
     3  H    1.094553   1.776166   0.000000
     4  H    1.095271   1.770406   1.770519   0.000000
     5  C    1.523230   2.175163   2.171626   2.158378   0.000000
     6  H    2.141810   3.063607   2.512981   2.446440   1.095529
     7  H    2.129577   2.472094   3.053961   2.463693   1.096369
     8  C    2.543077   2.833728   2.791504   3.487741   1.536056
     9  H    2.708750   3.083448   2.502929   3.711463   2.150955
    10  C    3.904089   4.287299   4.179214   4.693218   2.544563
    11  H    4.151562   4.769385   4.309561   4.805289   2.773761
    12  H    4.690319   4.962187   4.821685   5.582827   3.482696
    13  C    4.561738   4.803542   5.131460   5.187890   3.120304
    14  H    4.719755   4.708463   5.364691   5.404226   3.462004
    15  H    5.602309   5.887505   6.113485   6.207232   4.126508
    16  H    4.320550   4.653885   5.027535   4.734397   2.869579
    17  O    3.003630   2.732789   3.408008   3.986547   2.420140
    18  C    4.087445   3.730156   4.231310   5.140521   3.654670
    19  O    4.594364   4.419288   4.464738   5.684860   4.165573
    20  C    5.092384   4.484374   5.389496   6.065974   4.753072
    21  H    5.669610   5.144013   6.075872   6.598127   5.075932
    22  H    4.829699   4.042570   5.242555   5.706843   4.714842
    23  H    5.869975   5.235727   6.019704   6.877294   5.651726
                    6          7          8          9         10
     6  H    0.000000
     7  H    1.771001   0.000000
     8  C    2.167373   2.176017   0.000000
     9  H    2.538615   3.064425   1.098450   0.000000
    10  C    2.718554   2.853858   1.540934   2.167251   0.000000
    11  H    2.494845   3.210664   2.172978   2.509075   1.095101
    12  H    3.710511   3.852761   2.162380   2.455626   1.096275
    13  C    3.381860   2.852674   2.571206   3.501802   1.525239
    14  H    4.007509   3.057001   2.806973   3.791279   2.181159
    15  H    4.224625   3.886201   3.506802   4.308553   2.159885
    16  H    3.001585   2.344693   2.898217   3.893064   2.176636
    17  O    3.365097   2.624944   1.442154   2.091581   2.428309
    18  C    4.504583   3.977839   2.375508   2.546489   3.054570
    19  O    4.821776   4.718251   2.727231   2.444688   3.221656
    20  C    5.706925   4.805606   3.670770   4.010916   4.209510
    21  H    5.971506   4.970984   3.979002   4.494711   4.145020
    22  H    5.760063   4.643473   3.940797   4.366313   4.714956
    23  H    6.579290   5.811075   4.487348   4.618296   5.025548
                   11         12         13         14         15
    11  H    0.000000
    12  H    1.759377   0.000000
    13  C    2.154334   2.127830   0.000000
    14  H    3.076694   2.524894   1.094398   0.000000
    15  H    2.505782   2.411297   1.094505   1.766733   0.000000
    16  H    2.486937   3.051520   1.093826   1.774613   1.766462
    17  O    3.376509   2.709357   2.919717   2.576358   3.885255
    18  C    4.024756   2.815098   3.690509   3.241370   4.442630
    19  O    4.008003   2.688277   4.202910   3.981845   4.799729
    20  C    5.267471   3.941135   4.405695   3.622327   5.082021
    21  H    5.232001   3.821155   4.027203   3.120128   4.542897
    22  H    5.762011   4.669601   4.790463   3.953231   5.590892
    23  H    6.042225   4.591585   5.358910   4.616112   5.955627
                   16         17         18         19         20
    16  H    0.000000
    17  O    3.374910   0.000000
    18  C    4.407694   1.362667   0.000000
    19  O    5.017919   2.302260   1.222736   0.000000
    20  C    5.111212   2.344157   1.499453   2.408701   0.000000
    21  H    4.799726   2.748475   2.124596   2.969053   1.091626
    22  H    5.302383   2.505642   2.143178   3.208875   1.093888
    23  H    6.130866   3.260109   2.128645   2.579998   1.093279
                   21         22         23
    21  H    0.000000
    22  H    1.792841   0.000000
    23  H    1.783806   1.770772   0.000000
 Stoichiometry    C7H14O2
 Framework group  C1[X(C7H14O2)]
 Deg. of freedom    63
 Full point group                 C1      NOp   1
 Largest Abelian subgroup         C1      NOp   1
 Largest concise Abelian subgroup C1      NOp   1
                         Standard orientation:                         
 ---------------------------------------------------------------------
 Center     Atomic      Atomic             Coordinates (Angstroms)
 Number     Number       Type             X           Y           Z
 ---------------------------------------------------------------------
      1          6           0        2.155137   -1.953853   -0.176619
      2          1           0        1.389102   -2.408595   -0.811512
      3          1           0        2.070078   -2.378410    0.828648
      4          1           0        3.135232   -2.232833   -0.578118
      5          6           0        2.019654   -0.437029   -0.143183
      6          1           0        2.853779   -0.023553    0.434274
      7          1           0        2.111627   -0.072242   -1.172986
      8          6           0        0.687122    0.019684    0.469385
      9          1           0        0.568360   -0.472925    1.443973
     10          6           0        0.647262    1.547712    0.664373
     11          1           0        1.474834    1.862767    1.308665
     12          1           0       -0.279546    1.816994    1.184310
     13          6           0        0.685851    2.340033   -0.638353
     14          1           0       -0.105817    2.026524   -1.325870
     15          1           0        0.543392    3.405505   -0.432403
     16          1           0        1.648292    2.226050   -1.145473
     17          8           0       -0.384148   -0.367369   -0.415138
     18          6           0       -1.623373   -0.429202    0.148210
     19          8           0       -1.870818   -0.343939    1.342606
     20          6           0       -2.668269   -0.502150   -0.924744
     21          1           0       -2.824043    0.494790   -1.341266
     22          1           0       -2.361195   -1.197216   -1.711625
     23          1           0       -3.604670   -0.867571   -0.494770
 ---------------------------------------------------------------------
 Rotational constants (GHZ):           1.8668942           1.1761268           0.9085310
 Leave Link  202 at Sun Sep 19 20:02:34 2021, MaxMem=   524288000 cpu:               0.0 elap:               0.1
 (Enter /opt/gaussian/g16_legacy/l301.exe)
 Standard basis: 6-31G(d,p) (6D, 7F)
 Ernie: Thresh=  0.10000D-02 Tol=  0.10000D-05 Strict=F.
 There are   205 symmetry adapted cartesian basis functions of A   symmetry.
 There are   205 symmetry adapted basis functions of A   symmetry.
   205 basis functions,   350 primitive gaussians,   205 cartesian basis functions
    36 alpha electrons       36 beta electrons
       nuclear repulsion energy       487.6132206521 Hartrees.
 IExCor=    0 DFT=F Ex=HF Corr=None ExCW=0 ScaHFX=  1.000000
 ScaDFX=  1.000000  1.000000  1.000000  1.000000 ScalE2=  1.000000  1.000000
 IRadAn=      5 IRanWt=     -1 IRanGd=            0 ICorTp=0 IEmpDi=  4
 NAtoms=   23 NActive=   23 NUniq=   23 SFac= 1.00D+00 NAtFMM=   60 NAOKFM=F Big=F
 Integral buffers will be    131072 words long.
 Raffenetti 1 integral format.
 Two-electron integral symmetry is turned on.
 Leave Link  301 at Sun Sep 19 20:02:34 2021, MaxMem=   524288000 cpu:               0.0 elap:               0.1
 (Enter /opt/gaussian/g16_legacy/l302.exe)
 NPDir=0 NMtPBC=     1 NCelOv=     1 NCel=       1 NClECP=     1 NCelD=      1
         NCelK=      1 NCelE2=     1 NClLst=     1 CellRange=     0.0.
 One-electron integrals computed using PRISM.
 One-electron integral symmetry used in STVInt
 NBasis=   205 RedAO= T EigKep=  3.24D-03  NBF=   205
 NBsUse=   205 1.00D-06 EigRej= -1.00D+00 NBFU=   205
 Leave Link  302 at Sun Sep 19 20:02:34 2021, MaxMem=   524288000 cpu:               0.2 elap:               0.4
 (Enter /opt/gaussian/g16_legacy/l303.exe)
 DipDrv:  MaxL=1.
 Leave Link  303 at Sun Sep 19 20:02:35 2021, MaxMem=   524288000 cpu:               0.0 elap:               0.3
 (Enter /opt/gaussian/g16_legacy/l401.exe)
 ExpMin= 1.61D-01 ExpMax= 5.48D+03 ExpMxC= 8.25D+02 IAcc=3 IRadAn=         5 AccDes= 0.00D+00
 Harris functional with IExCor=  205 and IRadAn=       5 diagonalized for initial guess.
 HarFok:  IExCor=  205 AccDes= 0.00D+00 IRadAn=         5 IDoV= 1 UseB2=F ITyADJ=14
 ICtDFT=  3500011 ScaDFX=  1.000000  1.000000  1.000000  1.000000
 FoFCou: FMM=F IPFlag=           0 FMFlag=      100000 FMFlg1=           0
         NFxFlg=           0 DoJE=T BraDBF=F KetDBF=T FulRan=T
         wScrn=  0.000000 ICntrl=       500 IOpCl=  0 I1Cent=   200000004 NGrid=           0
         NMat0=    1 NMatS0=      1 NMatT0=    0 NMatD0=    1 NMtDS0=    0 NMtDT0=    0
 Petite list used in FoFCou.
 Harris En= -423.718911427631    
 JPrj=0 DoOrth=F DoCkMO=F.
 Leave Link  401 at Sun Sep 19 20:02:40 2021, MaxMem=   524288000 cpu:               4.6 elap:               4.9
 (Enter /opt/gaussian/g16_legacy/l502.exe)
 Keep R1 ints in memory in canonical form, NReq=227304434.
 FoFCou: FMM=F IPFlag=           0 FMFlag=           0 FMFlg1=           0
         NFxFlg=           0 DoJE=F BraDBF=F KetDBF=F FulRan=T
         wScrn=  0.000000 ICntrl=       600 IOpCl=  0 I1Cent=           0 NGrid=           0
         NMat0=    1 NMatS0=  21115 NMatT0=    0 NMatD0=    1 NMtDS0=    0 NMtDT0=    0
 Symmetry not used in FoFCou.
 Two-electron integral symmetry not used.
 Closed shell SCF:
 Using DIIS extrapolation, IDIIS=  1040.
 NGot=   524288000 LenX=   301268152 LenY=   301225686
 Requested convergence on RMS density matrix=1.00D-08 within 128 cycles.
 Requested convergence on MAX density matrix=1.00D-06.
 Requested convergence on             energy=1.00D-06.
 No special actions if energy rises.

 Cycle   1  Pass 1  IDiag  1:
 E= -422.506810314048    
 DIIS: error= 5.38D-02 at cycle   1 NSaved=   1.
 NSaved= 1 IEnMin= 1 EnMin= -422.506810314048     IErMin= 1 ErrMin= 5.38D-02
 ErrMax= 5.38D-02  0.00D+00 EMaxC= 1.00D-01 BMatC= 7.21D-01 BMatP= 7.21D-01
 IDIUse=3 WtCom= 4.62D-01 WtEn= 5.38D-01
 Coeff-Com:  0.100D+01
 Coeff-En:   0.100D+01
 Coeff:      0.100D+01
 Gap=     0.556 Goal=   None    Shift=    0.000
 GapD=    0.556 DampG=2.000 DampE=0.500 DampFc=1.0000 IDamp=-1.
 RMSDP=4.02D-03 MaxDP=1.18D-01              OVMax= 1.24D-01

 Cycle   2  Pass 1  IDiag  1:
 E= -422.915164092764     Delta-E=       -0.408353778717 Rises=F Damp=F
 DIIS: error= 1.30D-02 at cycle   2 NSaved=   2.
 NSaved= 2 IEnMin= 2 EnMin= -422.915164092764     IErMin= 2 ErrMin= 1.30D-02
 ErrMax= 1.30D-02  0.00D+00 EMaxC= 1.00D-01 BMatC= 9.52D-02 BMatP= 7.21D-01
 IDIUse=3 WtCom= 8.70D-01 WtEn= 1.30D-01
 Coeff-Com:  0.205D+00 0.795D+00
 Coeff-En:   0.000D+00 0.100D+01
 Coeff:      0.178D+00 0.822D+00
 Gap=     0.642 Goal=   None    Shift=    0.000
 RMSDP=1.45D-03 MaxDP=4.81D-02 DE=-4.08D-01 OVMax= 4.54D-02

 Cycle   3  Pass 1  IDiag  1:
 E= -422.988878812912     Delta-E=       -0.073714720148 Rises=F Damp=F
 DIIS: error= 4.52D-03 at cycle   3 NSaved=   3.
 NSaved= 3 IEnMin= 3 EnMin= -422.988878812912     IErMin= 3 ErrMin= 4.52D-03
 ErrMax= 4.52D-03  0.00D+00 EMaxC= 1.00D-01 BMatC= 7.77D-03 BMatP= 9.52D-02
 IDIUse=3 WtCom= 9.55D-01 WtEn= 4.52D-02
 Coeff-Com: -0.160D-01 0.181D+00 0.835D+00
 Coeff-En:   0.000D+00 0.000D+00 0.100D+01
 Coeff:     -0.153D-01 0.173D+00 0.842D+00
 Gap=     0.607 Goal=   None    Shift=    0.000
 RMSDP=3.65D-04 MaxDP=2.22D-02 DE=-7.37D-02 OVMax= 2.22D-02

 Cycle   4  Pass 1  IDiag  1:
 E= -422.994781232565     Delta-E=       -0.005902419653 Rises=F Damp=F
 DIIS: error= 1.74D-03 at cycle   4 NSaved=   4.
 NSaved= 4 IEnMin= 4 EnMin= -422.994781232565     IErMin= 4 ErrMin= 1.74D-03
 ErrMax= 1.74D-03  0.00D+00 EMaxC= 1.00D-01 BMatC= 8.66D-04 BMatP= 7.77D-03
 IDIUse=3 WtCom= 9.83D-01 WtEn= 1.74D-02
 Coeff-Com: -0.123D-01 0.325D-01 0.314D+00 0.665D+00
 Coeff-En:   0.000D+00 0.000D+00 0.000D+00 0.100D+01
 Coeff:     -0.121D-01 0.320D-01 0.309D+00 0.671D+00
 Gap=     0.609 Goal=   None    Shift=    0.000
 RMSDP=1.20D-04 MaxDP=5.72D-03 DE=-5.90D-03 OVMax= 5.91D-03

 Cycle   5  Pass 1  IDiag  1:
 E= -422.995479638114     Delta-E=       -0.000698405549 Rises=F Damp=F
 DIIS: error= 4.00D-04 at cycle   5 NSaved=   5.
 NSaved= 5 IEnMin= 5 EnMin= -422.995479638114     IErMin= 5 ErrMin= 4.00D-04
 ErrMax= 4.00D-04  0.00D+00 EMaxC= 1.00D-01 BMatC= 2.70D-05 BMatP= 8.66D-04
 IDIUse=3 WtCom= 9.96D-01 WtEn= 4.00D-03
 Coeff-Com:  0.208D-02-0.175D-01-0.864D-01-0.303D-01 0.113D+01
 Coeff-En:   0.000D+00 0.000D+00 0.000D+00 0.000D+00 0.100D+01
 Coeff:      0.207D-02-0.174D-01-0.861D-01-0.301D-01 0.113D+01
 Gap=     0.609 Goal=   None    Shift=    0.000
 RMSDP=5.07D-05 MaxDP=1.92D-03 DE=-6.98D-04 OVMax= 2.76D-03

 Cycle   6  Pass 1  IDiag  1:
 E= -422.995539535060     Delta-E=       -0.000059896946 Rises=F Damp=F
 DIIS: error= 1.15D-04 at cycle   6 NSaved=   6.
 NSaved= 6 IEnMin= 6 EnMin= -422.995539535060     IErMin= 6 ErrMin= 1.15D-04
 ErrMax= 1.15D-04  0.00D+00 EMaxC= 1.00D-01 BMatC= 3.79D-06 BMatP= 2.70D-05
 IDIUse=3 WtCom= 9.99D-01 WtEn= 1.15D-03
 Coeff-Com:  0.134D-02-0.628D-02-0.402D-01-0.710D-01 0.195D+00 0.921D+00
 Coeff-En:   0.000D+00 0.000D+00 0.000D+00 0.000D+00 0.000D+00 0.100D+01
 Coeff:      0.134D-02-0.628D-02-0.402D-01-0.709D-01 0.195D+00 0.921D+00
 Gap=     0.609 Goal=   None    Shift=    0.000
 RMSDP=1.71D-05 MaxDP=5.80D-04 DE=-5.99D-05 OVMax= 9.09D-04

 Cycle   7  Pass 1  IDiag  1:
 E= -422.995546761922     Delta-E=       -0.000007226862 Rises=F Damp=F
 DIIS: error= 5.25D-05 at cycle   7 NSaved=   7.
 NSaved= 7 IEnMin= 7 EnMin= -422.995546761922     IErMin= 7 ErrMin= 5.25D-05
 ErrMax= 5.25D-05  0.00D+00 EMaxC= 1.00D-01 BMatC= 5.38D-07 BMatP= 3.79D-06
 IDIUse=1 WtCom= 1.00D+00 WtEn= 0.00D+00
 Coeff-Com: -0.196D-03 0.184D-02 0.106D-01-0.439D-02-0.110D+00 0.866D-02
 Coeff-Com:  0.109D+01
 Coeff:     -0.196D-03 0.184D-02 0.106D-01-0.439D-02-0.110D+00 0.866D-02
 Coeff:      0.109D+01
 Gap=     0.609 Goal=   None    Shift=    0.000
 RMSDP=7.39D-06 MaxDP=3.25D-04 DE=-7.23D-06 OVMax= 4.96D-04

 Cycle   8  Pass 1  IDiag  1:
 E= -422.995548166308     Delta-E=       -0.000001404386 Rises=F Damp=F
 DIIS: error= 1.81D-05 at cycle   8 NSaved=   8.
 NSaved= 8 IEnMin= 8 EnMin= -422.995548166308     IErMin= 8 ErrMin= 1.81D-05
 ErrMax= 1.81D-05  0.00D+00 EMaxC= 1.00D-01 BMatC= 1.03D-07 BMatP= 5.38D-07
 IDIUse=1 WtCom= 1.00D+00 WtEn= 0.00D+00
 Coeff-Com: -0.253D-03 0.132D-02 0.858D-02 0.870D-02-0.431D-01-0.171D+00
 Coeff-Com:  0.851D-01 0.111D+01
 Coeff:     -0.253D-03 0.132D-02 0.858D-02 0.870D-02-0.431D-01-0.171D+00
 Coeff:      0.851D-01 0.111D+01
 Gap=     0.609 Goal=   None    Shift=    0.000
 RMSDP=3.90D-06 MaxDP=1.73D-04 DE=-1.40D-06 OVMax= 2.45D-04

 Cycle   9  Pass 1  IDiag  1:
 E= -422.995548457620     Delta-E=       -0.000000291312 Rises=F Damp=F
 DIIS: error= 5.85D-06 at cycle   9 NSaved=   9.
 NSaved= 9 IEnMin= 9 EnMin= -422.995548457620     IErMin= 9 ErrMin= 5.85D-06
 ErrMax= 5.85D-06  0.00D+00 EMaxC= 1.00D-01 BMatC= 1.14D-08 BMatP= 1.03D-07
 IDIUse=1 WtCom= 1.00D+00 WtEn= 0.00D+00
 Coeff-Com:  0.436D-05-0.148D-03-0.662D-03 0.584D-03 0.155D-01-0.145D-01
 Coeff-Com: -0.153D+00 0.914D-01 0.106D+01
 Coeff:      0.436D-05-0.148D-03-0.662D-03 0.584D-03 0.155D-01-0.145D-01
 Coeff:     -0.153D+00 0.914D-01 0.106D+01
 Gap=     0.609 Goal=   None    Shift=    0.000
 RMSDP=1.19D-06 MaxDP=4.74D-05 DE=-2.91D-07 OVMax= 7.49D-05

 Cycle  10  Pass 1  IDiag  1:
 E= -422.995548484950     Delta-E=       -0.000000027331 Rises=F Damp=F
 DIIS: error= 1.84D-06 at cycle  10 NSaved=  10.
 NSaved=10 IEnMin=10 EnMin= -422.995548484950     IErMin=10 ErrMin= 1.84D-06
 ErrMax= 1.84D-06  0.00D+00 EMaxC= 1.00D-01 BMatC= 8.96D-10 BMatP= 1.14D-08
 IDIUse=1 WtCom= 1.00D+00 WtEn= 0.00D+00
 Coeff-Com:  0.266D-04-0.147D-03-0.896D-03-0.136D-02 0.474D-02 0.192D-01
 Coeff-Com: -0.754D-02-0.114D+00-0.429D-01 0.114D+01
 Coeff:      0.266D-04-0.147D-03-0.896D-03-0.136D-02 0.474D-02 0.192D-01
 Coeff:     -0.754D-02-0.114D+00-0.429D-01 0.114D+01
 Gap=     0.609 Goal=   None    Shift=    0.000
 RMSDP=3.15D-07 MaxDP=1.62D-05 DE=-2.73D-08 OVMax= 1.97D-05

 Cycle  11  Pass 1  IDiag  1:
 E= -422.995548487152     Delta-E=       -0.000000002201 Rises=F Damp=F
 DIIS: error= 5.64D-07 at cycle  11 NSaved=  11.
 NSaved=11 IEnMin=11 EnMin= -422.995548487152     IErMin=11 ErrMin= 5.64D-07
 ErrMax= 5.64D-07  0.00D+00 EMaxC= 1.00D-01 BMatC= 8.61D-11 BMatP= 8.96D-10
 IDIUse=1 WtCom= 1.00D+00 WtEn= 0.00D+00
 Coeff-Com:  0.159D-05 0.506D-06 0.126D-04-0.182D-03-0.865D-03 0.209D-02
 Coeff-Com:  0.103D-01-0.700D-02-0.986D-01 0.687D-01 0.103D+01
 Coeff:      0.159D-05 0.506D-06 0.126D-04-0.182D-03-0.865D-03 0.209D-02
 Coeff:      0.103D-01-0.700D-02-0.986D-01 0.687D-01 0.103D+01
 Gap=     0.609 Goal=   None    Shift=    0.000
 RMSDP=6.98D-08 MaxDP=3.46D-06 DE=-2.20D-09 OVMax= 3.72D-06

 Cycle  12  Pass 1  IDiag  1:
 E= -422.995548487282     Delta-E=       -0.000000000130 Rises=F Damp=F
 DIIS: error= 1.60D-07 at cycle  12 NSaved=  12.
 NSaved=12 IEnMin=12 EnMin= -422.995548487282     IErMin=12 ErrMin= 1.60D-07
 ErrMax= 1.60D-07  0.00D+00 EMaxC= 1.00D-01 BMatC= 7.84D-12 BMatP= 8.61D-11
 IDIUse=1 WtCom= 1.00D+00 WtEn= 0.00D+00
 Coeff-Com: -0.258D-05 0.142D-04 0.961D-04 0.117D-03-0.528D-03-0.189D-02
 Coeff-Com:  0.757D-03 0.138D-01-0.241D-02-0.119D+00 0.307D-01 0.108D+01
 Coeff:     -0.258D-05 0.142D-04 0.961D-04 0.117D-03-0.528D-03-0.189D-02
 Coeff:      0.757D-03 0.138D-01-0.241D-02-0.119D+00 0.307D-01 0.108D+01
 Gap=     0.609 Goal=   None    Shift=    0.000
 RMSDP=2.54D-08 MaxDP=1.00D-06 DE=-1.30D-10 OVMax= 1.13D-06

 Cycle  13  Pass 1  IDiag  1:
 E= -422.995548487321     Delta-E=       -0.000000000039 Rises=F Damp=F
 DIIS: error= 4.74D-08 at cycle  13 NSaved=  13.
 NSaved=13 IEnMin=13 EnMin= -422.995548487321     IErMin=13 ErrMin= 4.74D-08
 ErrMax= 4.74D-08  0.00D+00 EMaxC= 1.00D-01 BMatC= 5.47D-13 BMatP= 7.84D-12
 IDIUse=1 WtCom= 1.00D+00 WtEn= 0.00D+00
 Coeff-Com: -0.761D-07-0.290D-06-0.744D-06 0.983D-05 0.774D-04-0.148D-03
 Coeff-Com: -0.972D-03 0.810D-03 0.760D-02-0.627D-02-0.820D-01 0.109D-01
 Coeff-Com:  0.107D+01
 Coeff:     -0.761D-07-0.290D-06-0.744D-06 0.983D-05 0.774D-04-0.148D-03
 Coeff:     -0.972D-03 0.810D-03 0.760D-02-0.627D-02-0.820D-01 0.109D-01
 Coeff:      0.107D+01
 Gap=     0.609 Goal=   None    Shift=    0.000
 RMSDP=7.32D-09 MaxDP=2.16D-07 DE=-3.94D-11 OVMax= 2.96D-07

 SCF Done:  E(RHF) =  -422.995548487     A.U. after   13 cycles
            NFock= 13  Conv=0.73D-08     -V/T= 2.0023
 KE= 4.220286600270D+02 PE=-1.965057614922D+03 EE= 6.324201857554D+02
 Leave Link  502 at Sun Sep 19 20:02:50 2021, MaxMem=   524288000 cpu:              10.2 elap:              10.4
 (Enter /opt/gaussian/g16_legacy/l801.exe)
 ExpMin= 1.61D-01 ExpMax= 5.48D+03 ExpMxC= 8.25D+02 IAcc=3 IRadAn=         5 AccDes= 0.00D+00
 HarFok:  IExCor=  205 AccDes= 0.00D+00 IRadAn=         5 IDoV=-2 UseB2=F ITyADJ=14
 ICtDFT= 12500011 ScaDFX=  1.000000  1.000000  1.000000  1.000000
 Largest valence mixing into a core orbital is  2.11D-04
 Largest core mixing into a valence orbital is  3.28D-05
 Range of M.O.s used for correlation:    10   205
 NBasis=   205 NAE=    36 NBE=    36 NFC=     9 NFV=     0
 NROrb=    196 NOA=    27 NOB=    27 NVA=   169 NVB=   169
 Leave Link  801 at Sun Sep 19 20:02:51 2021, MaxMem=   524288000 cpu:               0.8 elap:               1.0
 (Enter /opt/gaussian/g16_legacy/l906.exe)
 Frozen-core derivative calculation, NFC=   9 NFV=   0.
 FulOut=F Deriv=T AODrv=T NAtomX=    23
   MMem=         129  MDisk=          27 MDiskD=          27
  W3Min=     1512900 MinDsk=     1927595 NBas6D=         205
 NBas2D=       21400    NTT=       21115    LW2=     2040000
    MDV=   523792051 MDiskM=       35351 NBas2p=       19509
 Fully direct method using O(ONN) memory.
 IMap=   1   2   3   4   5   6   7   8   9  10  11  12  13  14  15  16  17  18  19  20
 IMap=  21  22  23  24  25  26  27  28  29  30  31  32  33  34  35  36
 JobTyp=1 Pass  1:  I=  10 to  36 NPSUse=  1 ParTrn=F ParDer=F DoDerP=T.
 Spin components of T(2) and E(2):
     alpha-alpha T2 =       0.5285036861D-01 E2=     -0.1651464536D+00
     alpha-beta  T2 =       0.3175140222D+00 E2=     -0.1030894842D+01
     beta-beta   T2 =       0.5285036861D-01 E2=     -0.1651464536D+00
 The integrals were generated   1 times.
 ANorm=    0.1192985649D+01
 E2 =    -0.1361187749D+01 EUMP2 =    -0.42435673623611D+03
 Leave Link  906 at Sun Sep 19 20:04:16 2021, MaxMem=   524288000 cpu:              84.6 elap:              84.7
 (Enter /opt/gaussian/g16_legacy/l1002.exe)
 Minotr:  Closed shell wavefunction.
          Computing MP2/KS-MP2 derivatives.
          Using Z-Vector for PSCF gradient.
          Skipping F1 and S1 gradient terms here.
          IDoAtm=11111111111111111111111
          Frozen-core window.
          Direct CPHF calculation.
          Differentiating once with respect to electric field.
                with respect to dipole field.
          Differentiating once with respect to nuclear coordinates.
          Requested convergence is 1.0D-10 RMS, and 1.0D-09 maximum.
          NewPWx=F KeepS1=T KeepF1=T KeepIn=T MapXYZ=F SortEE=F KeepMc=T.
 Keep R1 ints in memory in canonical form, NReq=227306992.
 FoFCou: FMM=F IPFlag=           0 FMFlag=           0 FMFlg1=           0
         NFxFlg=           0 DoJE=F BraDBF=F KetDBF=F FulRan=T
         wScrn=  0.000000 ICntrl=       600 IOpCl=  0 I1Cent=           0 NGrid=           0
         NMat0=    1 NMatS0=  21115 NMatT0=    0 NMatD0=    1 NMtDS0=    0 NMtDT0=    0
 Symmetry not used in FoFCou.
 Two-electron integral symmetry not used.
          MDV=     524288000 using IRadAn=       5.
          Solving linear equations separately, MaxMat=       0.
          There are     1 degrees of freedom in the 1st order CPHF.  IDoFFX=0 NUNeed=     1.
 LinEq1:  Iter=  0 NonCon=     1 RMS=3.72D-03 Max=7.62D-02 NDo=     1
 AX will form     1 AO Fock derivatives at one time.
 LinEq1:  Iter=  1 NonCon=     1 RMS=1.18D-03 Max=1.71D-02 NDo=     1
 LinEq1:  Iter=  2 NonCon=     1 RMS=3.77D-04 Max=5.55D-03 NDo=     1
 LinEq1:  Iter=  3 NonCon=     1 RMS=1.55D-04 Max=3.44D-03 NDo=     1
 LinEq1:  Iter=  4 NonCon=     1 RMS=4.78D-05 Max=6.50D-04 NDo=     1
 LinEq1:  Iter=  5 NonCon=     1 RMS=2.16D-05 Max=3.12D-04 NDo=     1
 LinEq1:  Iter=  6 NonCon=     1 RMS=5.67D-06 Max=1.79D-04 NDo=     1
 LinEq1:  Iter=  7 NonCon=     1 RMS=1.72D-06 Max=5.20D-05 NDo=     1
 LinEq1:  Iter=  8 NonCon=     1 RMS=6.42D-07 Max=2.26D-05 NDo=     1
 LinEq1:  Iter=  9 NonCon=     1 RMS=1.86D-07 Max=3.50D-06 NDo=     1
 LinEq1:  Iter= 10 NonCon=     1 RMS=5.19D-08 Max=6.59D-07 NDo=     1
 LinEq1:  Iter= 11 NonCon=     1 RMS=1.45D-08 Max=1.32D-07 NDo=     1
 LinEq1:  Iter= 12 NonCon=     1 RMS=4.23D-09 Max=6.67D-08 NDo=     1
 LinEq1:  Iter= 13 NonCon=     1 RMS=1.20D-09 Max=1.73D-08 NDo=     1
 LinEq1:  Iter= 14 NonCon=     1 RMS=2.84D-10 Max=3.60D-09 NDo=     1
 LinEq1:  Iter= 15 NonCon=     0 RMS=7.85D-11 Max=7.41D-10 NDo=     1
 Linear equations converged to 1.000D-10 1.000D-09 after    15 iterations.
 End of Minotr F.D. properties file   721 does not exist.
 End of Minotr F.D. properties file   722 does not exist.
 End of Minotr F.D. properties file   788 does not exist.
 Leave Link 1002 at Sun Sep 19 20:04:28 2021, MaxMem=   524288000 cpu:              11.7 elap:              11.7
 (Enter /opt/gaussian/g16_legacy/l601.exe)
 Copying SCF densities to generalized density rwf, IOpCl= 0 IROHF=0.

 **********************************************************************

            Population analysis using the SCF density.

 **********************************************************************

 Orbital symmetries:
       Occupied  (A) (A) (A) (A) (A) (A) (A) (A) (A) (A) (A) (A)
                 (A) (A) (A) (A) (A) (A) (A) (A) (A) (A) (A) (A)
                 (A) (A) (A) (A) (A) (A) (A) (A) (A) (A) (A) (A)
       Virtual   (A) (A) (A) (A) (A) (A) (A) (A) (A) (A) (A) (A)
                 (A) (A) (A) (A) (A) (A) (A) (A) (A) (A) (A) (A)
                 (A) (A) (A) (A) (A) (A) (A) (A) (A) (A) (A) (A)
                 (A) (A) (A) (A) (A) (A) (A) (A) (A) (A) (A) (A)
                 (A) (A) (A) (A) (A) (A) (A) (A) (A) (A) (A) (A)
                 (A) (A) (A) (A) (A) (A) (A) (A) (A) (A) (A) (A)
                 (A) (A) (A) (A) (A) (A) (A) (A) (A) (A) (A) (A)
                 (A) (A) (A) (A) (A) (A) (A) (A) (A) (A) (A) (A)
                 (A) (A) (A) (A) (A) (A) (A) (A) (A) (A) (A) (A)
                 (A) (A) (A) (A) (A) (A) (A) (A) (A) (A) (A) (A)
                 (A) (A) (A) (A) (A) (A) (A) (A) (A) (A) (A) (A)
                 (A) (A) (A) (A) (A) (A) (A) (A) (A) (A) (A) (A)
                 (A) (A) (A) (A) (A) (A) (A) (A) (A) (A) (A) (A)
                 (A) (A) (A) (A) (A) (A) (A) (A) (A) (A) (A) (A)
                 (A)
 The electronic state is 1-A.
 Alpha  occ. eigenvalues --  -20.60737 -20.55199 -11.38696 -11.28941 -11.24101
 Alpha  occ. eigenvalues --  -11.22703 -11.22279 -11.21545 -11.21519  -1.44833
 Alpha  occ. eigenvalues --   -1.35138  -1.08954  -1.02201  -1.01551  -0.92515
 Alpha  occ. eigenvalues --   -0.84281  -0.81720  -0.74818  -0.68905  -0.67089
 Alpha  occ. eigenvalues --   -0.65522  -0.61565  -0.60474  -0.60038  -0.58009
 Alpha  occ. eigenvalues --   -0.55790  -0.54756  -0.53829  -0.52252  -0.50429
 Alpha  occ. eigenvalues --   -0.49193  -0.48681  -0.48041  -0.45724  -0.44401
 Alpha  occ. eigenvalues --   -0.43001
 Alpha virt. eigenvalues --    0.17887   0.22208   0.24309   0.26084   0.27137
 Alpha virt. eigenvalues --    0.28185   0.29550   0.30273   0.31332   0.32178
 Alpha virt. eigenvalues --    0.32997   0.33995   0.34402   0.35048   0.36372
 Alpha virt. eigenvalues --    0.38823   0.40593   0.41949   0.42899   0.43835
 Alpha virt. eigenvalues --    0.44865   0.49488   0.54442   0.68056   0.70199
 Alpha virt. eigenvalues --    0.71378   0.74720   0.75295   0.76365   0.76691
 Alpha virt. eigenvalues --    0.77559   0.79319   0.83225   0.84426   0.88306
 Alpha virt. eigenvalues --    0.91271   0.92834   0.94012   0.94371   0.97710
 Alpha virt. eigenvalues --    1.00207   1.04694   1.05960   1.06891   1.08753
 Alpha virt. eigenvalues --    1.10024   1.10174   1.11381   1.13202   1.13666
 Alpha virt. eigenvalues --    1.15421   1.15672   1.16326   1.17781   1.18993
 Alpha virt. eigenvalues --    1.20081   1.20553   1.21339   1.21941   1.24861
 Alpha virt. eigenvalues --    1.26953   1.32025   1.34498   1.37406   1.41932
 Alpha virt. eigenvalues --    1.45519   1.50770   1.53184   1.60013   1.62710
 Alpha virt. eigenvalues --    1.63997   1.69042   1.72265   1.77480   1.78872
 Alpha virt. eigenvalues --    1.79637   1.85106   1.86617   1.90746   1.94890
 Alpha virt. eigenvalues --    1.96820   1.99615   2.01477   2.06317   2.06994
 Alpha virt. eigenvalues --    2.09303   2.12386   2.17572   2.17893   2.19315
 Alpha virt. eigenvalues --    2.21030   2.22303   2.26420   2.28816   2.32201
 Alpha virt. eigenvalues --    2.33385   2.34650   2.35821   2.35924   2.37083
 Alpha virt. eigenvalues --    2.38368   2.39158   2.40268   2.42005   2.43259
 Alpha virt. eigenvalues --    2.45069   2.46025   2.48642   2.52779   2.54297
 Alpha virt. eigenvalues --    2.54866   2.58699   2.59320   2.62471   2.65059
 Alpha virt. eigenvalues --    2.67206   2.68080   2.70398   2.73637   2.80507
 Alpha virt. eigenvalues --    2.83431   2.85875   2.88748   2.90179   2.92828
 Alpha virt. eigenvalues --    2.96457   2.96892   2.99546   3.03848   3.05422
 Alpha virt. eigenvalues --    3.06537   3.08697   3.10826   3.13524   3.17447
 Alpha virt. eigenvalues --    3.19670   3.19934   3.21725   3.23314   3.24782
 Alpha virt. eigenvalues --    3.25933   3.28623   3.29262   3.33035   3.45274
 Alpha virt. eigenvalues --    3.47414   3.56028   3.57472   3.60357   3.66430
 Alpha virt. eigenvalues --    3.67840   3.73000   3.77248   3.78400   3.80351
 Alpha virt. eigenvalues --    3.81846   3.84518   3.86671   3.92905   3.94096
 Alpha virt. eigenvalues --    4.47364   4.56338   4.65527   4.76206   4.84126
 Alpha virt. eigenvalues --    4.98594   5.00088   5.05990   5.15683
          Condensed to atoms (all electrons):
               1          2          3          4          5          6
     1  C    4.931834   0.403849   0.401520   0.404459   0.334539  -0.040375
     2  H    0.403849   0.565804  -0.028847  -0.028635  -0.037334   0.004329
     3  H    0.401520  -0.028847   0.586965  -0.028844  -0.041631  -0.002821
     4  H    0.404459  -0.028635  -0.028844   0.581589  -0.038853  -0.003738
     5  C    0.334539  -0.037334  -0.041631  -0.038853   4.991058   0.408803
     6  H   -0.040375   0.004329  -0.002821  -0.003738   0.408803   0.582882
     7  H   -0.042846  -0.003260   0.004522  -0.002979   0.403923  -0.027376
     8  C   -0.055059  -0.005607  -0.004305   0.004643   0.357476  -0.041752
     9  H   -0.005789   0.000366   0.002995  -0.000059  -0.044860   0.000169
    10  C    0.004571   0.000030  -0.000096  -0.000098  -0.063390  -0.002324
    11  H   -0.000131  -0.000005   0.000011  -0.000003  -0.003186   0.000678
    12  H   -0.000092   0.000001  -0.000004   0.000002   0.004430   0.000051
    13  C   -0.000055   0.000002  -0.000001   0.000003  -0.005322   0.000265
    14  H   -0.000034  -0.000001   0.000000   0.000000   0.000097   0.000019
    15  H    0.000001  -0.000000   0.000000  -0.000000  -0.000035  -0.000033
    16  H    0.000007   0.000003  -0.000002   0.000002   0.001507   0.000277
    17  O    0.001437   0.003364   0.000065   0.000008  -0.046509   0.002380
    18  C    0.000031   0.000068   0.000014  -0.000000   0.002868  -0.000030
    19  O   -0.000029   0.000003  -0.000008  -0.000000   0.000314   0.000005
    20  C   -0.000005  -0.000006   0.000000  -0.000000  -0.000104   0.000003
    21  H    0.000000  -0.000000  -0.000000   0.000000  -0.000002  -0.000000
    22  H    0.000004   0.000035   0.000000  -0.000000  -0.000021   0.000000
    23  H   -0.000000  -0.000000   0.000000   0.000000   0.000002  -0.000000
               7          8          9         10         11         12
     1  C   -0.042846  -0.055059  -0.005789   0.004571  -0.000131  -0.000092
     2  H   -0.003260  -0.005607   0.000366   0.000030  -0.000005   0.000001
     3  H    0.004522  -0.004305   0.002995  -0.000096   0.000011  -0.000004
     4  H   -0.002979   0.004643  -0.000059  -0.000098  -0.000003   0.000002
     5  C    0.403923   0.357476  -0.044860  -0.063390  -0.003186   0.004430
     6  H   -0.027376  -0.041752   0.000169  -0.002324   0.000678   0.000051
     7  H    0.577254  -0.033325   0.004029  -0.004519   0.000468  -0.000139
     8  C   -0.033325   4.821316   0.422398   0.363563  -0.037057  -0.037261
     9  H    0.004029   0.422398   0.541302  -0.045636   0.000338  -0.004982
    10  C   -0.004519   0.363563  -0.045636   5.019468   0.403065   0.414594
    11  H    0.000468  -0.037057   0.000338   0.403065   0.583927  -0.026207
    12  H   -0.000139  -0.037261  -0.004982   0.414594  -0.026207   0.553910
    13  C    0.000244  -0.052636   0.004097   0.321103  -0.039040  -0.045305
    14  H    0.000465  -0.006883   0.000103  -0.037427   0.004231  -0.002323
    15  H    0.000048   0.004374  -0.000054  -0.037899  -0.002651  -0.004397
    16  H   -0.001960  -0.003874  -0.000117  -0.038155  -0.003625   0.004299
    17  O   -0.000372   0.130846  -0.029306  -0.044252   0.002749  -0.002706
    18  C   -0.000161  -0.020432  -0.006298  -0.005177   0.000174   0.002616
    19  O   -0.000005  -0.000125   0.006859  -0.004094  -0.000009   0.004162
    20  C   -0.000005   0.004822   0.000205  -0.000548   0.000005   0.000085
    21  H   -0.000000  -0.000288  -0.000011   0.000146  -0.000001  -0.000053
    22  H    0.000005  -0.000148  -0.000020   0.000021  -0.000000  -0.000003
    23  H    0.000000  -0.000135   0.000014   0.000006  -0.000000   0.000001
              13         14         15         16         17         18
     1  C   -0.000055  -0.000034   0.000001   0.000007   0.001437   0.000031
     2  H    0.000002  -0.000001  -0.000000   0.000003   0.003364   0.000068
     3  H   -0.000001   0.000000   0.000000  -0.000002   0.000065   0.000014
     4  H    0.000003   0.000000  -0.000000   0.000002   0.000008  -0.000000
     5  C   -0.005322   0.000097  -0.000035   0.001507  -0.046509   0.002868
     6  H    0.000265   0.000019  -0.000033   0.000277   0.002380  -0.000030
     7  H    0.000244   0.000465   0.000048  -0.001960  -0.000372  -0.000161
     8  C   -0.052636  -0.006883   0.004374  -0.003874   0.130846  -0.020432
     9  H    0.004097   0.000103  -0.000054  -0.000117  -0.029306  -0.006298
    10  C    0.321103  -0.037427  -0.037899  -0.038155  -0.044252  -0.005177
    11  H   -0.039040   0.004231  -0.002651  -0.003625   0.002749   0.000174
    12  H   -0.045305  -0.002323  -0.004397   0.004299  -0.002706   0.002616
    13  C    4.945808   0.402935   0.405794   0.401325  -0.003916   0.000314
    14  H    0.402935   0.573645  -0.029690  -0.029076   0.004882  -0.000017
    15  H    0.405794  -0.029690   0.579222  -0.029324   0.000051  -0.000041
    16  H    0.401325  -0.029076  -0.029324   0.587764   0.000238  -0.000020
    17  O   -0.003916   0.004882   0.000051   0.000238   8.537487   0.250516
    18  C    0.000314  -0.000017  -0.000041  -0.000020   0.250516   4.166576
    19  O    0.000081  -0.000049  -0.000000  -0.000003  -0.068887   0.556887
    20  C   -0.000027  -0.000032   0.000001   0.000002  -0.091839   0.373753
    21  H    0.000008   0.000308   0.000001   0.000000   0.000846  -0.029403
    22  H   -0.000001   0.000001   0.000000  -0.000000   0.002706  -0.032510
    23  H    0.000001   0.000004  -0.000000  -0.000000   0.003219  -0.037146
              19         20         21         22         23
     1  C   -0.000029  -0.000005   0.000000   0.000004  -0.000000
     2  H    0.000003  -0.000006  -0.000000   0.000035  -0.000000
     3  H   -0.000008   0.000000  -0.000000   0.000000   0.000000
     4  H   -0.000000  -0.000000   0.000000  -0.000000   0.000000
     5  C    0.000314  -0.000104  -0.000002  -0.000021   0.000002
     6  H    0.000005   0.000003  -0.000000   0.000000  -0.000000
     7  H   -0.000005  -0.000005  -0.000000   0.000005   0.000000
     8  C   -0.000125   0.004822  -0.000288  -0.000148  -0.000135
     9  H    0.006859   0.000205  -0.000011  -0.000020   0.000014
    10  C   -0.004094  -0.000548   0.000146   0.000021   0.000006
    11  H   -0.000009   0.000005  -0.000001  -0.000000  -0.000000
    12  H    0.004162   0.000085  -0.000053  -0.000003   0.000001
    13  C    0.000081  -0.000027   0.000008  -0.000001   0.000001
    14  H   -0.000049  -0.000032   0.000308   0.000001   0.000004
    15  H   -0.000000   0.000001   0.000001   0.000000  -0.000000
    16  H   -0.000003   0.000002   0.000000  -0.000000  -0.000000
    17  O   -0.068887  -0.091839   0.000846   0.002706   0.003219
    18  C    0.556887   0.373753  -0.029403  -0.032510  -0.037146
    19  O    8.146385  -0.064804  -0.000092   0.002169   0.002367
    20  C   -0.064804   5.011038   0.391757   0.386502   0.394450
    21  H   -0.000092   0.391757   0.518856  -0.020517  -0.019935
    22  H    0.002169   0.386502  -0.020517   0.537031  -0.025798
    23  H    0.002367   0.394450  -0.019935  -0.025798   0.526555
 Mulliken charges:
               1
     1  C   -0.337838
     2  H    0.125841
     3  H    0.110467
     4  H    0.112505
     5  C   -0.223770
     6  H    0.118587
     7  H    0.125989
     8  C    0.189448
     9  H    0.154256
    10  C   -0.242952
    11  H    0.116269
    12  H    0.139322
    13  C   -0.335677
    14  H    0.118841
    15  H    0.114632
    16  H    0.110730
    17  O   -0.653008
    18  C    0.777418
    19  O   -0.581125
    20  C   -0.405255
    21  H    0.158380
    22  H    0.150544
    23  H    0.156396
 Sum of Mulliken charges =  -0.00000
 Mulliken charges with hydrogens summed into heavy atoms:
               1
     1  C    0.010976
     5  C    0.020807
     8  C    0.343704
    10  C    0.012638
    13  C    0.008526
    17  O   -0.653008
    18  C    0.777418
    19  O   -0.581125
    20  C    0.060065
 Electronic spatial extent (au):  <R**2>=           1469.7972
 Charge=              0.0000 electrons
 Dipole moment (field-independent basis, Debye):
    X=              0.9142    Y=              0.3041    Z=             -1.8517  Tot=              2.0873
 Quadrupole moment (field-independent basis, Debye-Ang):
   XX=            -54.3874   YY=            -56.2045   ZZ=            -60.6480
   XY=              0.2888   XZ=              7.0476   YZ=              1.1438
 Traceless Quadrupole moment (field-independent basis, Debye-Ang):
   XX=              2.6926   YY=              0.8754   ZZ=             -3.5680
   XY=              0.2888   XZ=              7.0476   YZ=              1.1438
 Octapole moment (field-independent basis, Debye-Ang**2):
  XXX=            -12.2912  YYY=             -1.7324  ZZZ=             -2.7241  XYY=             -7.0272
  XXY=             -2.1619  XXZ=            -13.1931  XZZ=              4.7055  YZZ=             -0.8511
  YYZ=              1.5681  XYZ=             -1.6230
 Hexadecapole moment (field-independent basis, Debye-Ang**3):
 XXXX=          -1022.6611 YYYY=           -664.3364 ZZZZ=           -264.1427 XXXY=             10.3348
 XXXZ=             22.5961 YYYX=              8.0514 YYYZ=              5.1581 ZZZX=              8.6875
 ZZZY=              2.5193 XXYY=           -283.9919 XXZZ=           -229.7918 YYZZ=           -152.7050
 XXYZ=              5.5706 YYXZ=              1.9227 ZZXY=             -1.7704
 N-N= 4.876132206521D+02 E-N=-1.965057612334D+03  KE= 4.220286600270D+02
 No NMR shielding tensors so no spin-rotation constants.
 Leave Link  601 at Sun Sep 19 20:04:28 2021, MaxMem=   524288000 cpu:               0.2 elap:               0.2
 (Enter /opt/gaussian/g16_legacy/l701.exe)
 ... and contract with generalized density number  2.
 Compute integral first derivatives.
 Leave Link  701 at Sun Sep 19 20:04:28 2021, MaxMem=   524288000 cpu:               0.1 elap:               0.2
 (Enter /opt/gaussian/g16_legacy/l702.exe)
 L702 exits ... SP integral derivatives will be done elsewhere.
 Leave Link  702 at Sun Sep 19 20:04:28 2021, MaxMem=   524288000 cpu:               0.0 elap:               0.0
 (Enter /opt/gaussian/g16_legacy/l703.exe)
 Integral derivatives from FoFJK, PRISM(SPDF).
 Compute integral first derivatives, UseDBF=F ICtDFT=           0.
 Calling FoFJK, ICntrl=  10002127 FMM=F ISym2X=0 I1Cent= 0 IOpClX= 0 NMat=1 NMatS=1 NMatT=0.
 FoFJK:  IHMeth= 1 ICntrl=10002127 DoSepK=F KAlg= 0 I1Cent=           0 FoldK=F
 IRaf=         0 NMat=       1 IRICut=       1 DoRegI=T DoRafI=F ISym2E= 0 IDoP0=0 IntGTp=1.
 FoFCou: FMM=F IPFlag=           0 FMFlag=      100000 FMFlg1=         800
         NFxFlg=           0 DoJE=F BraDBF=F KetDBF=F FulRan=T
         wScrn=  0.000000 ICntrl=  10002127 IOpCl=  0 I1Cent=           0 NGrid=           0
         NMat0=    1 NMatS0=      1 NMatT0=    0 NMatD0=    1 NMtDS0=    0 NMtDT0=    0
 Symmetry not used in FoFCou.
 Leave Link  703 at Sun Sep 19 20:04:41 2021, MaxMem=   524288000 cpu:              13.2 elap:              13.2
 (Enter /opt/gaussian/g16_legacy/l716.exe)
 Dipole        = 3.52182537D-01 1.24440471D-01-5.85691299D-01
 ***** Axes restored to original set *****
 -------------------------------------------------------------------
 Center     Atomic                   Forces (Hartrees/Bohr)
 Number     Number              X              Y              Z
 -------------------------------------------------------------------
      1        6          -0.003437541   -0.002312719   -0.004261402
      2        1          -0.000251451    0.004011962    0.000254214
      3        1          -0.000806241   -0.001958373    0.002092298
      4        1           0.003822985   -0.000523120   -0.001017829
      5        6           0.003909088   -0.011714630   -0.002543285
      6        1           0.005244535   -0.000735653    0.002371512
      7        1           0.003371239    0.004640645    0.000226724
      8        6          -0.013451736    0.021680454    0.006373215
      9        1           0.002102983   -0.004343859    0.003592624
     10        6           0.009082918   -0.003747902    0.001163678
     11        1           0.000412542   -0.002718321   -0.002982090
     12        1          -0.003055816    0.000463274   -0.004538388
     13        6          -0.003998506   -0.000696601    0.004139238
     14        1          -0.001923100    0.003623594   -0.001868286
     15        1          -0.001769514   -0.001748454   -0.002388943
     16        1           0.003311171   -0.000904190    0.000778035
     17        8          -0.000607767    0.000515259   -0.003599818
     18        6           0.008029671    0.004282063    0.003044800
     19        8          -0.009453102   -0.001852283    0.001245415
     20        6           0.003245335   -0.011446294   -0.008779249
     21        1          -0.001910802   -0.001539030   -0.002144824
     22        1           0.001109825    0.003714375    0.005223652
     23        1          -0.002976716    0.003309804    0.003618708
 -------------------------------------------------------------------
 Cartesian Forces:  Max     0.021680454 RMS     0.005046090
 Leave Link  716 at Sun Sep 19 20:04:41 2021, MaxMem=   524288000 cpu:               0.0 elap:               0.0
 (Enter /opt/gaussian/g16_legacy/l103.exe)

 GradGradGradGradGradGradGradGradGradGradGradGradGradGradGradGradGradGrad
 Berny optimization.
 FormGI is forming the generalized inverse of G from B-inverse, IUseBI=4.
 Internal  Forces:  Max     0.010517844 RMS     0.003048138
 Search for a local minimum.
 Step number   1 out of a maximum of  119
 All quantities printed in internal units (Hartrees-Bohrs-Radians)
 RMS Force = .30481D-02 SwitMx=.10000D-02 MixMth= 1
 Mixed Optimization -- RFO/linear search
 Second derivative matrix not updated -- first step.
 ITU=  0
     Eigenvalues ---    0.00230   0.00289   0.00432   0.00459   0.00773
     Eigenvalues ---    0.01134   0.01161   0.02186   0.03387   0.03604
     Eigenvalues ---    0.04372   0.04795   0.04860   0.04866   0.05457
     Eigenvalues ---    0.05534   0.05673   0.05709   0.07107   0.07425
     Eigenvalues ---    0.07575   0.08274   0.08529   0.12147   0.12351
     Eigenvalues ---    0.16000   0.16000   0.16000   0.16000   0.16000
     Eigenvalues ---    0.16000   0.16000   0.16000   0.16000   0.16466
     Eigenvalues ---    0.19630   0.21949   0.21951   0.24941   0.25000
     Eigenvalues ---    0.25000   0.28436   0.28871   0.29867   0.30058
     Eigenvalues ---    0.32435   0.33854   0.34087   0.34097   0.34181
     Eigenvalues ---    0.34211   0.34230   0.34292   0.34297   0.34309
     Eigenvalues ---    0.34362   0.34367   0.34374   0.34436   0.34625
     Eigenvalues ---    0.39291   0.52412   0.94181
 RFO step:  Lambda=-7.28621537D-03 EMin= 2.30000000D-03
 Linear search not attempted -- first point.
 Iteration  1 RMS(Cart)=  0.13528364 RMS(Int)=  0.00578105
 Iteration  2 RMS(Cart)=  0.00941458 RMS(Int)=  0.00083895
 Iteration  3 RMS(Cart)=  0.00002644 RMS(Int)=  0.00083876
 Iteration  4 RMS(Cart)=  0.00000004 RMS(Int)=  0.00083876
 ITry= 1 IFail=0 DXMaxC= 4.77D-01 DCOld= 1.00D+10 DXMaxT= 3.00D-01 DXLimC= 3.00D+00 Rises=F
 Variable       Old X    -DE/DX   Delta X   Delta X   Delta X     New X
                                 (Linear)    (Quad)   (Total)
    R1        2.06723  -0.00383   0.00000  -0.01092  -0.01092   2.05632
    R2        2.06841  -0.00291   0.00000  -0.00832  -0.00832   2.06008
    R3        2.06976  -0.00372   0.00000  -0.01064  -0.01064   2.05912
    R4        2.87849   0.00301   0.00000   0.00979   0.00979   2.88827
    R5        2.07025  -0.00296   0.00000  -0.00848  -0.00848   2.06177
    R6        2.07184  -0.00348   0.00000  -0.00999  -0.00999   2.06185
    R7        2.90272  -0.01052   0.00000  -0.03553  -0.03553   2.86719
    R8        2.07577  -0.00417   0.00000  -0.01205  -0.01205   2.06372
    R9        2.91194  -0.00725   0.00000  -0.02486  -0.02486   2.88709
   R10        2.72528   0.00148   0.00000   0.00369   0.00369   2.72896
   R11        2.06944  -0.00234   0.00000  -0.00670  -0.00670   2.06274
   R12        2.07166  -0.00292   0.00000  -0.00838  -0.00838   2.06328
   R13        2.88228   0.00150   0.00000   0.00491   0.00491   2.88719
   R14        2.06811  -0.00427   0.00000  -0.01219  -0.01219   2.05592
   R15        2.06831  -0.00340   0.00000  -0.00969  -0.00969   2.05862
   R16        2.06703  -0.00313   0.00000  -0.00891  -0.00891   2.05812
   R17        2.57507  -0.00218   0.00000  -0.00411  -0.00411   2.57096
   R18        2.31064  -0.00701   0.00000  -0.00739  -0.00739   2.30325
   R19        2.83356   0.00414   0.00000   0.01248   0.01248   2.84603
   R20        2.06287  -0.00256   0.00000  -0.00723  -0.00723   2.05564
   R21        2.06715  -0.00444   0.00000  -0.01266  -0.01266   2.05449
   R22        2.06600  -0.00489   0.00000  -0.01389  -0.01389   2.05211
    A1        1.89376  -0.00019   0.00000  -0.00778  -0.00785   1.88591
    A2        1.88387  -0.00014   0.00000   0.00176   0.00181   1.88569
    A3        1.94379  -0.00162   0.00000  -0.01189  -0.01190   1.93189
    A4        1.88327  -0.00091   0.00000  -0.00116  -0.00124   1.88203
    A5        1.93818   0.00038   0.00000   0.00086   0.00079   1.93897
    A6        1.91907   0.00245   0.00000   0.01826   0.01824   1.93732
    A7        1.89619   0.00287   0.00000   0.02916   0.02908   1.92527
    A8        1.87889   0.00249   0.00000   0.03350   0.03342   1.91231
    A9        1.96275   0.00046   0.00000   0.00457   0.00478   1.96753
   A10        1.88142  -0.00014   0.00000  -0.00647  -0.00791   1.87351
   A11        1.91568  -0.00342   0.00000  -0.03821  -0.03841   1.87727
   A12        1.92669  -0.00211   0.00000  -0.02102  -0.02138   1.90531
   A13        1.89049   0.00132   0.00000   0.02026   0.01882   1.90931
   A14        1.94737   0.00754   0.00000   0.04739   0.04708   1.99446
   A15        1.89654  -0.00859   0.00000  -0.05164  -0.05200   1.84454
   A16        1.90671  -0.00307   0.00000   0.00134   0.00040   1.90712
   A17        1.92144  -0.00035   0.00000  -0.03676  -0.03681   1.88463
   A18        1.90131   0.00308   0.00000   0.01805   0.01893   1.92024
   A19        1.91791  -0.00229   0.00000  -0.03431  -0.03445   1.88346
   A20        1.90229  -0.00227   0.00000  -0.01460  -0.01501   1.88728
   A21        1.98930   0.00003   0.00000   0.00112   0.00107   1.99037
   A22        1.86417  -0.00015   0.00000  -0.00346  -0.00427   1.85990
   A23        1.91128   0.00119   0.00000   0.00659   0.00634   1.91762
   A24        1.87431   0.00360   0.00000   0.04604   0.04597   1.92028
   A25        1.94922  -0.00219   0.00000  -0.01499  -0.01496   1.93426
   A26        1.91951   0.00035   0.00000   0.00413   0.00410   1.92360
   A27        1.94348   0.00236   0.00000   0.01390   0.01389   1.95736
   A28        1.87856   0.00096   0.00000   0.00601   0.00602   1.88458
   A29        1.89166  -0.00057   0.00000  -0.00706  -0.00702   1.88464
   A30        1.87885  -0.00092   0.00000  -0.00191  -0.00199   1.87686
   A31        2.01989  -0.00068   0.00000  -0.00264  -0.00264   2.01725
   A32        2.19532  -0.00924   0.00000  -0.03194  -0.03581   2.15950
   A33        1.91783   0.00321   0.00000   0.01633   0.01234   1.93017
   A34        2.16681   0.00628   0.00000   0.02814   0.02402   2.19083
   A35        1.90503  -0.00018   0.00000  -0.00869  -0.00873   1.89630
   A36        1.92840   0.00138   0.00000   0.00977   0.00963   1.93803
   A37        1.90890  -0.00091   0.00000   0.00065   0.00051   1.90941
   A38        1.92397  -0.00296   0.00000  -0.02933  -0.02938   1.89459
   A39        1.91038  -0.00014   0.00000  -0.00394  -0.00397   1.90640
   A40        1.88701   0.00282   0.00000   0.03190   0.03168   1.91869
    D1       -3.06067  -0.00221   0.00000  -0.03718  -0.03733  -3.09800
    D2       -1.02771   0.00046   0.00000  -0.01159  -0.01144  -1.03915
    D3        1.09837  -0.00019   0.00000  -0.01213  -0.01203   1.08634
    D4        1.10981  -0.00111   0.00000  -0.01971  -0.01990   1.08991
    D5       -3.14042   0.00155   0.00000   0.00587   0.00600  -3.13442
    D6       -1.01434   0.00091   0.00000   0.00534   0.00541  -1.00893
    D7       -0.97327  -0.00180   0.00000  -0.03060  -0.03082  -1.00409
    D8        1.05969   0.00087   0.00000  -0.00502  -0.00493   1.05476
    D9       -3.09742   0.00022   0.00000  -0.00555  -0.00551  -3.10293
   D10        0.91134  -0.00197   0.00000  -0.01516  -0.01547   0.89587
   D11        3.01072  -0.00028   0.00000   0.02882   0.02945   3.04017
   D12       -1.17584   0.00261   0.00000   0.04687   0.04666  -1.12918
   D13       -1.20168  -0.00355   0.00000  -0.02859  -0.02866  -1.23034
   D14        0.89770  -0.00185   0.00000   0.01539   0.01626   0.91396
   D15        2.99432   0.00103   0.00000   0.03344   0.03347   3.02780
   D16        3.01003   0.00004   0.00000   0.01596   0.01529   3.02532
   D17       -1.17378   0.00173   0.00000   0.05993   0.06021  -1.11357
   D18        0.92284   0.00462   0.00000   0.07799   0.07742   1.00027
   D19       -1.01618  -0.00385   0.00000  -0.05233  -0.05203  -1.06821
   D20       -3.05346  -0.00105   0.00000  -0.02025  -0.02025  -3.07371
   D21        1.13646  -0.00404   0.00000  -0.06928  -0.06894   1.06752
   D22        1.07365   0.00052   0.00000   0.00354   0.00363   1.07728
   D23       -0.96363   0.00332   0.00000   0.03563   0.03541  -0.92822
   D24       -3.05690   0.00033   0.00000  -0.01341  -0.01328  -3.07018
   D25       -3.10999   0.00011   0.00000  -0.02951  -0.02963  -3.13963
   D26        1.13591   0.00291   0.00000   0.00257   0.00215   1.13806
   D27       -0.95736  -0.00007   0.00000  -0.04646  -0.04654  -1.00390
   D28        2.79034  -0.00382   0.00000  -0.05587  -0.05497   2.73537
   D29        0.72258  -0.00008   0.00000  -0.02809  -0.02901   0.69358
   D30       -1.36786   0.00199   0.00000  -0.01866  -0.01864  -1.38650
   D31        0.94839   0.00043   0.00000   0.01946   0.01960   0.96799
   D32        3.03290   0.00046   0.00000   0.02010   0.02022   3.05312
   D33       -1.16908   0.00104   0.00000   0.02924   0.02942  -1.13966
   D34        3.10462  -0.00164   0.00000  -0.01960  -0.01975   3.08488
   D35       -1.09406  -0.00161   0.00000  -0.01896  -0.01912  -1.11318
   D36        0.98715  -0.00103   0.00000  -0.00982  -0.00993   0.97723
   D37       -1.16057   0.00075   0.00000   0.00473   0.00471  -1.15585
   D38        0.92394   0.00078   0.00000   0.00537   0.00534   0.92928
   D39        3.00515   0.00135   0.00000   0.01451   0.01453   3.01968
   D40       -0.16092   0.00133   0.00000   0.02782   0.03041  -0.13051
   D41        2.89697   0.00506   0.00000   0.19157   0.18898   3.08595
   D42       -1.36563  -0.00067   0.00000  -0.06907  -0.06983  -1.43546
   D43        0.75275  -0.00359   0.00000  -0.10495  -0.10577   0.64698
   D44        2.82793   0.00015   0.00000  -0.05942  -0.06010   2.76783
   D45        1.69392   0.00209   0.00000   0.08797   0.08871   1.78263
   D46       -2.47089  -0.00082   0.00000   0.05209   0.05278  -2.41811
   D47       -0.39571   0.00291   0.00000   0.09762   0.09845  -0.29725
         Item               Value     Threshold  Converged?
 Maximum Force            0.010518     0.000450     NO 
 RMS     Force            0.003048     0.000300     NO 
 Maximum Displacement     0.477417     0.001800     NO 
 RMS     Displacement     0.137261     0.001200     NO 
 Predicted change in Energy=-4.147657D-03
 Lowest energy point so far.  Saving SCF results.
 GradGradGradGradGradGradGradGradGradGradGradGradGradGradGradGradGradGrad

 Leave Link  103 at Sun Sep 19 20:04:41 2021, MaxMem=   524288000 cpu:               0.0 elap:               0.0
 (Enter /opt/gaussian/g16_legacy/l202.exe)
                          Input orientation:                          
 ---------------------------------------------------------------------
 Center     Atomic      Atomic             Coordinates (Angstroms)
 Number     Number       Type             X           Y           Z
 ---------------------------------------------------------------------
      1          6           0       -1.911655    0.907487    0.017621
      2          1           0       -1.458180   -0.081031    0.053318
      3          1           0       -1.539621    1.417984   -0.870865
      4          1           0       -2.987939    0.781128   -0.096234
      5          6           0       -1.583894    1.697980    1.284004
      6          1           0       -2.077521    2.670707    1.261628
      7          1           0       -1.960223    1.162254    2.156835
      8          6           0       -0.096230    1.943391    1.453369
      9          1           0        0.307586    2.372270    0.533791
     10          6           0        0.260924    2.848589    2.631150
     11          1           0       -0.204428    3.821096    2.460364
     12          1           0        1.340183    3.013346    2.618041
     13          6           0       -0.167951    2.299235    3.990770
     14          1           0        0.241556    1.304377    4.152602
     15          1           0        0.194109    2.945854    4.789227
     16          1           0       -1.251147    2.236404    4.085110
     17          8           0        0.496451    0.639062    1.634739
     18          6           0        1.816678    0.544827    1.320000
     19          8           0        2.451177    1.439310    0.788162
     20          6           0        2.336186   -0.835918    1.623081
     21          1           0        2.576638   -0.892335    2.682470
     22          1           0        1.588779   -1.592463    1.397254
     23          1           0        3.235221   -1.018654    1.042062
 ---------------------------------------------------------------------
                    Distance matrix (angstroms):
                    1          2          3          4          5
     1  C    0.000000
     2  H    1.088155   0.000000
     3  H    1.090149   1.762893   0.000000
     4  H    1.089640   1.762341   1.761608   0.000000
     5  C    1.528408   2.166857   2.173435   2.171869   0.000000
     6  H    2.164257   3.068494   2.531043   2.498631   1.091039
     7  H    2.154879   2.494512   3.067454   2.505549   1.091082
     8  C    2.535791   2.813064   2.785946   3.480532   1.517252
     9  H    2.708700   3.060632   2.509163   3.713374   2.143638
    10  C    3.913887   4.264177   4.189595   4.718912   2.557745
    11  H    4.167821   4.753141   4.319117   4.850312   2.791840
    12  H    4.665970   4.897326   4.796970   5.575188   3.472761
    13  C    4.556685   4.778481   5.127727   5.192358   3.113356
    14  H    4.678879   4.648933   5.331109   5.362465   3.422871
    15  H    5.599768   5.858406   6.113661   6.219260   4.123721
    16  H    4.329752   4.654966   5.031374   4.755829   2.871727
    17  O    2.913091   2.615340   3.321199   3.893253   2.360542
    18  C    3.965877   3.566633   4.102077   5.014569   3.590954
    19  O    4.462160   4.258462   4.321955   5.549715   4.073643
    20  C    4.864270   4.175072   5.130471   5.823847   4.680026
    21  H    5.521372   4.883688   5.908244   6.440977   5.096613
    22  H    4.517320   3.657123   4.898372   5.367568   4.572275
    23  H    5.590155   4.887203   5.691714   6.577434   5.537373
                    6          7          8          9         10
     6  H    0.000000
     7  H    1.758006   0.000000
     8  C    2.119261   2.139979   0.000000
     9  H    2.511484   3.039962   1.092075   0.000000
    10  C    2.715798   2.828815   1.527780   2.151272   0.000000
    11  H    2.503765   3.200685   2.133429   2.464333   1.091554
    12  H    3.692961   3.812077   2.136480   2.412743   1.091841
    13  C    3.351517   2.805046   2.563235   3.490296   1.527838
    14  H    3.950026   2.975082   2.794333   3.773665   2.167898
    15  H    4.204755   3.840815   3.495308   4.295417   2.161301
    16  H    2.973813   2.318368   2.888901   3.880718   2.185206
    17  O    3.300322   2.565455   1.444105   2.061981   2.435224
    18  C    4.437067   3.917460   2.373391   2.497004   3.073566
    19  O    4.716950   4.627146   2.680649   2.351616   3.190593
    20  C    5.648707   4.768304   3.697298   3.948955   4.347242
    21  H    6.031190   5.008067   4.086105   4.519188   4.399963
    22  H    5.624480   4.556407   3.917227   4.255130   4.796732
    23  H    6.471848   5.743841   4.476767   4.508630   5.131005
                   11         12         13         14         15
    11  H    0.000000
    12  H    1.750185   0.000000
    13  C    2.158595   2.160742   0.000000
    14  H    3.065362   2.546062   1.087947   0.000000
    15  H    2.519620   2.456032   1.089375   1.761247   0.000000
    16  H    2.499333   3.077486   1.089111   1.761078   1.757232
    17  O    3.361283   2.704809   2.957784   2.616725   3.919630
    18  C    4.014877   2.829407   3.761610   3.328898   4.520310
    19  O    3.939721   2.657132   4.225636   4.027417   4.834517
    20  C    5.370619   4.098634   4.658952   3.920053   5.377246
    21  H    5.477234   4.097232   4.408008   3.526958   4.984633
    22  H    5.801070   4.771330   4.995772   4.218842   5.834973
    23  H    6.104584   4.725664   5.593285   4.902444   6.245553
                   16         17         18         19         20
    16  H    0.000000
    17  O    3.407333   0.000000
    18  C    4.463051   1.360493   0.000000
    19  O    5.021198   2.275531   1.218827   0.000000
    20  C    5.326323   2.358035   1.506056   2.426309   0.000000
    21  H    5.138905   2.787489   2.121155   3.006777   1.087798
    22  H    5.472657   2.495853   2.150794   3.210353   1.087187
    23  H    6.323214   3.255787   2.129315   2.592446   1.085928
                   21         22         23
    21  H    0.000000
    22  H    1.765736   0.000000
    23  H    1.772181   1.779378   0.000000
 Stoichiometry    C7H14O2
 Framework group  C1[X(C7H14O2)]
 Deg. of freedom    63
 Full point group                 C1      NOp   1
 RotChk:  IX=0 Diff= 2.11D-01
 Largest Abelian subgroup         C1      NOp   1
 Largest concise Abelian subgroup C1      NOp   1
                         Standard orientation:                         
 ---------------------------------------------------------------------
 Center     Atomic      Atomic             Coordinates (Angstroms)
 Number     Number       Type             X           Y           Z
 ---------------------------------------------------------------------
      1          6           0        1.710740   -2.241994   -0.100466
[...]
    15  H    2.531274   2.457447   1.089125   1.763421   0.000000
    16  H    2.493744   3.072179   1.088874   1.762882   1.757889
    17  O    3.364715   2.675833   2.968998   2.614029   3.919521
    18  C    4.039774   2.855810   3.834714   3.412012   4.587971
    19  O    3.942143   2.662378   4.262883   4.074767   4.861866
    20  C    5.406768   4.136338   4.757565   4.036691   5.476509
    21  H    5.499432   4.192192   4.434097   3.544676   5.066843
    22  H    5.918651   4.878053   5.286225   4.562583   6.126819
    23  H    6.074707   4.649731   5.576381   4.891203   6.189102
                   16         17         18         19         20
    16  H    0.000000
    17  O    3.438430   0.000000
    18  C    4.537245   1.359450   0.000000
    19  O    5.060216   2.281305   1.219523   0.000000
    20  C    5.428753   2.349821   1.505196   2.426572   0.000000
    21  H    5.113513   2.614627   2.133297   3.116713   1.088220
    22  H    5.786244   2.604552   2.134679   3.125301   1.088058
    23  H    6.341998   3.275445   2.126835   2.573835   1.084827
                   21         22         23
    21  H    0.000000
    22  H    1.758030   0.000000
    23  H    1.781286   1.782239   0.000000
 Stoichiometry    C7H14O2
 Framework group  C1[X(C7H14O2)]
 Deg. of freedom    63
 Full point group                 C1      NOp   1
 RotChk:  IX=3 Diff= 2.35D-15
 Largest Abelian subgroup         C1      NOp   1
 Largest concise Abelian subgroup C1      NOp   1
                         Standard orientation:                         
 ---------------------------------------------------------------------
 Center     Atomic      Atomic             Coordinates (Angstroms)
 Number     Number       Type             X           Y           Z
 ---------------------------------------------------------------------
      1          6           0        1.515595   -2.340522   -0.065372
      2          1           0        0.632349   -2.555854   -0.663061
      3          1           0        1.326907   -2.678542    0.953880
      4          1           0        2.347006   -2.920448   -0.463543
      5          6           0        1.825191   -0.848559   -0.092167
      6          1           0        2.724142   -0.639339    0.493464
      7          1           0        2.028725   -0.529474   -1.115340
      8          6           0        0.697038   -0.007077    0.477418
      9          1           0        0.411794   -0.382230    1.462721
     10          6           0        0.995351    1.483708    0.583521
     11          1           0        1.824187    1.607790    1.285563
     12          1           0        0.127005    1.960762    1.039585
     13          6           0        1.325670    2.152654   -0.746159
     14          1           0        0.535459    1.970429   -1.472476
     15          1           0        1.425529    3.229439   -0.616718
     16          1           0        2.260840    1.782532   -1.163428
     17          8           0       -0.437149   -0.213281   -0.414839
     18          6           0       -1.668110   -0.071984    0.144514
     19          8           0       -1.863084    0.213620    1.313980
     20          6           0       -2.736760   -0.319488   -0.886187
     21          1           0       -2.630981    0.393713   -1.701281
     22          1           0       -2.622368   -1.318381   -1.302118
     23          1           0       -3.712581   -0.215498   -0.423790
 ---------------------------------------------------------------------
 Rotational constants (GHZ):           1.8139832           1.2138144           0.9111130
 Leave Link  202 at Sun Sep 19 20:28:36 2021, MaxMem=   524288000 cpu:               0.0 elap:               0.0
 (Enter /opt/gaussian/g16_legacy/l601.exe)
 Copying SCF densities to generalized density rwf, IOpCl= 0 IROHF=0.

 **********************************************************************

            Population analysis using the SCF density.

 **********************************************************************

 Orbital symmetries:
       Occupied  (A) (A) (A) (A) (A) (A) (A) (A) (A) (A) (A) (A)
                 (A) (A) (A) (A) (A) (A) (A) (A) (A) (A) (A) (A)
                 (A) (A) (A) (A) (A) (A) (A) (A) (A) (A) (A) (A)
       Virtual   (A) (A) (A) (A) (A) (A) (A) (A) (A) (A) (A) (A)
                 (A) (A) (A) (A) (A) (A) (A) (A) (A) (A) (A) (A)
                 (A) (A) (A) (A) (A) (A) (A) (A) (A) (A) (A) (A)
                 (A) (A) (A) (A) (A) (A) (A) (A) (A) (A) (A) (A)
                 (A) (A) (A) (A) (A) (A) (A) (A) (A) (A) (A) (A)
                 (A) (A) (A) (A) (A) (A) (A) (A) (A) (A) (A) (A)
                 (A) (A) (A) (A) (A) (A) (A) (A) (A) (A) (A) (A)
                 (A) (A) (A) (A) (A) (A) (A) (A) (A) (A) (A) (A)
                 (A) (A) (A) (A) (A) (A) (A) (A) (A) (A) (A) (A)
                 (A) (A) (A) (A) (A) (A) (A) (A) (A) (A) (A) (A)
                 (A) (A) (A) (A) (A) (A) (A) (A) (A) (A) (A) (A)
                 (A) (A) (A) (A) (A) (A) (A) (A) (A) (A) (A) (A)
                 (A) (A) (A) (A) (A) (A) (A) (A) (A) (A) (A) (A)
                 (A) (A) (A) (A) (A) (A) (A) (A) (A) (A) (A) (A)
                 (A)
 The electronic state is 1-A.
 Alpha  occ. eigenvalues --  -20.60108 -20.54965 -11.38412 -11.28463 -11.23967
 Alpha  occ. eigenvalues --  -11.22406 -11.22075 -11.21424 -11.21307  -1.44546
 Alpha  occ. eigenvalues --   -1.34780  -1.09275  -1.02323  -1.01467  -0.92695
 Alpha  occ. eigenvalues --   -0.84870  -0.81440  -0.74780  -0.68818  -0.66875
 Alpha  occ. eigenvalues --   -0.65066  -0.61561  -0.60539  -0.59857  -0.58204
 Alpha  occ. eigenvalues --   -0.56184  -0.54213  -0.54063  -0.52568  -0.50813
 Alpha  occ. eigenvalues --   -0.49046  -0.48418  -0.48115  -0.45996  -0.44255
 Alpha  occ. eigenvalues --   -0.43231
 Alpha virt. eigenvalues --    0.18437   0.22471   0.24880   0.25785   0.27335
 Alpha virt. eigenvalues --    0.28469   0.29942   0.30242   0.31552   0.32366
 Alpha virt. eigenvalues --    0.33383   0.33780   0.34268   0.35533   0.36387
 Alpha virt. eigenvalues --    0.38722   0.40442   0.42019   0.42600   0.43836
 Alpha virt. eigenvalues --    0.45554   0.50238   0.54201   0.67938   0.69749
 Alpha virt. eigenvalues --    0.71650   0.74969   0.75718   0.75869   0.76756
 Alpha virt. eigenvalues --    0.77341   0.79789   0.83077   0.85716   0.88449
 Alpha virt. eigenvalues --    0.91966   0.92704   0.94265   0.94710   0.97487
 Alpha virt. eigenvalues --    1.00329   1.03567   1.06535   1.07648   1.08762
 Alpha virt. eigenvalues --    1.09821   1.10555   1.12480   1.13347   1.13880
 Alpha virt. eigenvalues --    1.15500   1.16333   1.16430   1.18032   1.18397
 Alpha virt. eigenvalues --    1.20198   1.20990   1.21239   1.22501   1.24858
 Alpha virt. eigenvalues --    1.26588   1.33391   1.33768   1.38816   1.42747
 Alpha virt. eigenvalues --    1.43972   1.51353   1.53546   1.60390   1.65765
 Alpha virt. eigenvalues --    1.66610   1.68327   1.71213   1.77010   1.78654
 Alpha virt. eigenvalues --    1.79419   1.85452   1.86293   1.91948   1.95428
 Alpha virt. eigenvalues --    1.98327   1.99348   2.00937   2.04916   2.08190
 Alpha virt. eigenvalues --    2.09560   2.13066   2.16412   2.18269   2.19353
 Alpha virt. eigenvalues --    2.21469   2.24446   2.27836   2.29107   2.32176
 Alpha virt. eigenvalues --    2.34513   2.35433   2.35946   2.36935   2.37717
 Alpha virt. eigenvalues --    2.39538   2.40507   2.40842   2.43134   2.44232
 Alpha virt. eigenvalues --    2.45476   2.46858   2.48624   2.53870   2.55036
 Alpha virt. eigenvalues --    2.55639   2.58386   2.59273   2.63404   2.65311
 Alpha virt. eigenvalues --    2.67555   2.68216   2.70654   2.73145   2.80576
 Alpha virt. eigenvalues --    2.83882   2.85538   2.90183   2.91090   2.94047
 Alpha virt. eigenvalues --    2.95632   2.98272   3.00324   3.04463   3.04659
 Alpha virt. eigenvalues --    3.07155   3.09710   3.13302   3.15025   3.19488
 Alpha virt. eigenvalues --    3.20263   3.20970   3.22725   3.24308   3.25680
 Alpha virt. eigenvalues --    3.27006   3.29529   3.31039   3.34441   3.46072
 Alpha virt. eigenvalues --    3.48147   3.57826   3.59081   3.62180   3.68004
 Alpha virt. eigenvalues --    3.69534   3.73643   3.78820   3.79559   3.81831
 Alpha virt. eigenvalues --    3.83110   3.85870   3.87875   3.93917   3.94991
 Alpha virt. eigenvalues --    4.47059   4.55955   4.66996   4.77066   4.84170
 Alpha virt. eigenvalues --    4.99229   5.00214   5.06033   5.16609
          Condensed to atoms (all electrons):
               1          2          3          4          5          6
     1  C    4.923657   0.404584   0.401919   0.405426   0.337323  -0.037379
     2  H    0.404584   0.564504  -0.029476  -0.028261  -0.038601   0.004313
     3  H    0.401919  -0.029476   0.586091  -0.028765  -0.041406  -0.003023
     4  H    0.405426  -0.028261  -0.028765   0.575415  -0.037322  -0.003088
     5  C    0.337323  -0.038601  -0.041406  -0.037322   4.983933   0.407642
     6  H   -0.037379   0.004313  -0.003023  -0.003088   0.407642   0.589402
     7  H   -0.039915  -0.002790   0.004306  -0.002839   0.405228  -0.028598
     8  C   -0.053826  -0.006536  -0.003937   0.004457   0.359310  -0.046086
     9  H   -0.005846   0.000401   0.002933  -0.000059  -0.043297  -0.000378
    10  C    0.004280   0.000039  -0.000105  -0.000080  -0.059197  -0.001557
    11  H   -0.000141  -0.000005   0.000007  -0.000002  -0.002625   0.000995
    12  H   -0.000099   0.000001  -0.000004   0.000002   0.004445   0.000017
    13  C   -0.000055   0.000000  -0.000000   0.000003  -0.005207   0.000137
    14  H   -0.000041   0.000000   0.000000   0.000000  -0.000014   0.000032
    15  H    0.000001  -0.000000   0.000000  -0.000000  -0.000012  -0.000032
    16  H    0.000019   0.000003  -0.000002   0.000002   0.001359   0.000248
    17  O   -0.000709   0.004481   0.000088   0.000073  -0.055244   0.002972
    18  C    0.000116  -0.000042   0.000037  -0.000003   0.003125  -0.000029
    19  O   -0.000058  -0.000004  -0.000010  -0.000000   0.000496   0.000007
    20  C   -0.000018  -0.000001  -0.000000  -0.000000  -0.000120   0.000004
    21  H    0.000001  -0.000001  -0.000000  -0.000000  -0.000007  -0.000000
    22  H    0.000008   0.000165   0.000001  -0.000000  -0.000011   0.000000
    23  H    0.000000  -0.000001   0.000000   0.000000   0.000002  -0.000000
               7          8          9         10         11         12
     1  C   -0.039915  -0.053826  -0.005846   0.004280  -0.000141  -0.000099
     2  H   -0.002790  -0.006536   0.000401   0.000039  -0.000005   0.000001
     3  H    0.004306  -0.003937   0.002933  -0.000105   0.000007  -0.000004
     4  H   -0.002839   0.004457  -0.000059  -0.000080  -0.000002   0.000002
     5  C    0.405228   0.359310  -0.043297  -0.059197  -0.002625   0.004445
     6  H   -0.028598  -0.046086  -0.000378  -0.001557   0.000995   0.000017
     7  H    0.575993  -0.034645   0.004243  -0.005027   0.000420  -0.000153
     8  C   -0.034645   4.835503   0.425011   0.365776  -0.041173  -0.038551
     9  H    0.004243   0.425011   0.540372  -0.045982  -0.000260  -0.005332
    10  C   -0.005027   0.365776  -0.045982   4.997885   0.402044   0.415364
    11  H    0.000420  -0.041173  -0.000260   0.402044   0.591153  -0.026221
    12  H   -0.000153  -0.038551  -0.005332   0.415364  -0.026221   0.544145
    13  C    0.000412  -0.052295   0.004249   0.324245  -0.038890  -0.040286
    14  H    0.000540  -0.007093   0.000116  -0.039245   0.004375  -0.002113
    15  H    0.000047   0.004439  -0.000060  -0.037207  -0.002525  -0.003902
    16  H   -0.002123  -0.004167  -0.000121  -0.036701  -0.003629   0.003889
    17  O   -0.001040   0.129046  -0.032187  -0.042517   0.002946  -0.002843
    18  C   -0.000175  -0.020899  -0.007177  -0.003661   0.000153   0.001982
    19  O   -0.000009  -0.002751   0.008152  -0.004527   0.000029   0.004889
    20  C   -0.000009   0.004135   0.000252  -0.000417   0.000005   0.000097
    21  H    0.000000  -0.000224  -0.000002   0.000059  -0.000000  -0.000036
    22  H    0.000004  -0.000193  -0.000027   0.000006   0.000000  -0.000001
    23  H    0.000000  -0.000117   0.000008   0.000010  -0.000000   0.000001
              13         14         15         16         17         18
     1  C   -0.000055  -0.000041   0.000001   0.000019  -0.000709   0.000116
     2  H    0.000000   0.000000  -0.000000   0.000003   0.004481  -0.000042
     3  H   -0.000000   0.000000   0.000000  -0.000002   0.000088   0.000037
     4  H    0.000003   0.000000  -0.000000   0.000002   0.000073  -0.000003
     5  C   -0.005207  -0.000014  -0.000012   0.001359  -0.055244   0.003125
     6  H    0.000137   0.000032  -0.000032   0.000248   0.002972  -0.000029
     7  H    0.000412   0.000540   0.000047  -0.002123  -0.001040  -0.000175
     8  C   -0.052295  -0.007093   0.004439  -0.004167   0.129046  -0.020899
     9  H    0.004249   0.000116  -0.000060  -0.000121  -0.032187  -0.007177
    10  C    0.324245  -0.039245  -0.037207  -0.036701  -0.042517  -0.003661
    11  H   -0.038890   0.004375  -0.002525  -0.003629   0.002946   0.000153
    12  H   -0.040286  -0.002113  -0.003902   0.003889  -0.002843   0.001982
    13  C    4.939891   0.403816   0.406462   0.402497  -0.003583   0.000237
    14  H    0.403816   0.569345  -0.028646  -0.029982   0.005092   0.000302
    15  H    0.406462  -0.028646   0.574578  -0.029554   0.000016  -0.000025
    16  H    0.402497  -0.029982  -0.029554   0.586597   0.000187  -0.000017
    17  O   -0.003583   0.005092   0.000016   0.000187   8.558700   0.253134
    18  C    0.000237   0.000302  -0.000025  -0.000017   0.253134   4.162554
    19  O    0.000059  -0.000020  -0.000000  -0.000003  -0.074026   0.563010
    20  C   -0.000017  -0.000033   0.000001   0.000000  -0.092702   0.374496
    21  H    0.000001   0.000140  -0.000000   0.000000   0.002099  -0.031400
    22  H    0.000001  -0.000000  -0.000000  -0.000000   0.002170  -0.030356
    23  H    0.000000  -0.000001   0.000000   0.000000   0.003273  -0.038517
              19         20         21         22         23
     1  C   -0.000058  -0.000018   0.000001   0.000008   0.000000
     2  H   -0.000004  -0.000001  -0.000001   0.000165  -0.000001
     3  H   -0.000010  -0.000000  -0.000000   0.000001   0.000000
     4  H   -0.000000  -0.000000  -0.000000  -0.000000   0.000000
     5  C    0.000496  -0.000120  -0.000007  -0.000011   0.000002
     6  H    0.000007   0.000004  -0.000000   0.000000  -0.000000
     7  H   -0.000009  -0.000009   0.000000   0.000004   0.000000
     8  C   -0.002751   0.004135  -0.000224  -0.000193  -0.000117
     9  H    0.008152   0.000252  -0.000002  -0.000027   0.000008
    10  C   -0.004527  -0.000417   0.000059   0.000006   0.000010
    11  H    0.000029   0.000005  -0.000000   0.000000  -0.000000
    12  H    0.004889   0.000097  -0.000036  -0.000001   0.000001
    13  C    0.000059  -0.000017   0.000001   0.000001   0.000000
    14  H   -0.000020  -0.000033   0.000140  -0.000000  -0.000001
    15  H   -0.000000   0.000001  -0.000000  -0.000000   0.000000
    16  H   -0.000003   0.000000   0.000000  -0.000000   0.000000
    17  O   -0.074026  -0.092702   0.002099   0.002170   0.003273
    18  C    0.563010   0.374496  -0.031400  -0.030356  -0.038517
    19  O    8.146781  -0.060267   0.000963   0.001107   0.003089
    20  C   -0.060267   5.003671   0.390199   0.389051   0.395374
    21  H    0.000963   0.390199   0.528300  -0.023495  -0.021253
    22  H    0.001107   0.389051  -0.023495   0.528123  -0.021286
    23  H    0.003089   0.395374  -0.021253  -0.021286   0.521073
 Mulliken charges:
               1
     1  C   -0.339248
     2  H    0.127228
     3  H    0.111346
     4  H    0.115041
     5  C   -0.219800
     6  H    0.114402
     7  H    0.126129
     8  C    0.184814
     9  H    0.154991
    10  C   -0.233484
    11  H    0.113342
    12  H    0.144709
    13  C   -0.341678
    14  H    0.123431
    15  H    0.116419
    16  H    0.111499
    17  O   -0.659424
    18  C    0.773156
    19  O   -0.586907
    20  C   -0.403700
    21  H    0.154654
    22  H    0.154735
    23  H    0.158346
 Sum of Mulliken charges =  -0.00000
 Mulliken charges with hydrogens summed into heavy atoms:
               1
     1  C    0.014368
     5  C    0.020730
     8  C    0.339805
    10  C    0.024567
    13  C    0.009671
    17  O   -0.659424
    18  C    0.773156
    19  O   -0.586907
    20  C    0.064035
 Electronic spatial extent (au):  <R**2>=           1461.6516
 Charge=             -0.0000 electrons
 Dipole moment (field-independent basis, Debye):
    X=              0.8741    Y=             -0.3912    Z=             -1.7881  Tot=              2.0284
 Quadrupole moment (field-independent basis, Debye-Ang):
   XX=            -54.2872   YY=            -56.0503   ZZ=            -60.2399
   XY=              1.2993   XZ=              6.8916   YZ=             -0.6253
 Traceless Quadrupole moment (field-independent basis, Debye-Ang):
   XX=              2.5719   YY=              0.8089   ZZ=             -3.3808
   XY=              1.2993   XZ=              6.8916   YZ=             -0.6253
 Octapole moment (field-independent basis, Debye-Ang**2):
  XXX=            -15.1080  YYY=              1.6519  ZZZ=             -2.4519  XYY=             -5.0236
  XXY=             -4.3761  XXZ=            -12.6551  XZZ=              3.6767  YZZ=             -1.8400
  YYZ=              1.0103  XYZ=              1.9070
 Hexadecapole moment (field-independent basis, Debye-Ang**3):
 XXXX=           -984.2819 YYYY=           -692.1175 ZZZZ=           -257.3621 XXXY=              4.0835
 XXXZ=             22.5019 YYYX=              2.6436 YYYZ=              6.8733 ZZZX=              9.7542
 ZZZY=             -0.8762 XXYY=           -282.8560 XXZZ=           -222.3256 YYZZ=           -157.1504
 XXYZ=              1.3933 YYXZ=              0.7152 ZZXY=              0.2649
 N-N= 4.887641518812D+02 E-N=-1.967566510346D+03  KE= 4.221798965547D+02
 No NMR shielding tensors so no spin-rotation constants.
 Leave Link  601 at Sun Sep 19 20:28:36 2021, MaxMem=   524288000 cpu:               0.2 elap:               0.2
 (Enter /opt/gaussian/g16_legacy/l9999.exe)
 1\1\GINC-TRUENO95\FOpt\RMP2-FC\6-31G(d,p)\C7H14O2\JRAMOS\19-Sep-2021\0
 \\#p opt mp2/6-31g(d,p)\\Conformer number 001. Energy MM = -6.803 kcal
 /mol\\0,1\C,-1.8863558136,0.861331952,0.0612978639\H,-1.3971379161,-0.
 1087529703,0.1189638512\H,-1.5317901172,1.3679129878,-0.8366967546\H,-
 2.9577266369,0.6976092184,-0.0457446542\C,-1.579372759,1.6866324978,1.
 3051466017\H,-2.0883767921,2.6525204476,1.2519860034\H,-1.9554099283,1
 .1754912847,2.192533425\C,-0.0949876214,1.9559476163,1.4763733255\H,0.
 3177145139,2.3734044833,0.5553235434\C,0.263479465,2.8737348448,2.6390
 661438\H,-0.1812508669,3.8523213461,2.4395367319\H,1.3449468667,3.0145
 542427,2.6249814401\C,-0.1827099243,2.3598172153,4.0034165116\H,0.1982
 206193,1.3547976193,4.1766267645\H,0.1928617609,3.0060009381,4.7956197
 712\H,-1.2678122037,2.329888578,4.0888820538\O,0.5210837925,0.65057308
 11,1.6800341791\C,1.8174500326,0.5361968431,1.2870224307\O,2.468822066
 2,1.4418007393,0.7942423668\C,2.3168028144,-0.8593627685,1.5490846637\
 H,2.2452935539,-1.0797945234,2.6123436999\H,1.6955901311,-1.5780202182
 ,1.0185218679\H,3.347364963,-0.9397054553,1.2199381696\\Version=EM64L-
 G16RevA.03\State=1-A\HF=-423.0004156\MP2=-424.3607198\RMSD=8.456e-09\R
 MSF=3.159e-06\Dipole=-0.5240532,-0.3122368,0.2917049\PG=C01 [X(C7H14O2
 )]\\@


 This summer one third of the nation will be ill-housed
 ill-nourished and ill-clad. Only they call it a vacation.
 -- Jonas Salk
 Job cpu time:       0 days  0 hours 25 minutes 59.6 seconds.
 Elapsed time:       0 days  0 hours 26 minutes  1.1 seconds.
 File lengths (MBytes):  RWF=     29 Int=      0 D2E=      0 Chk=      6 Scr=      1
 Normal termination of Gaussian 16 at Sun Sep 19 20:28:36 2021.
