 Entering Gaussian System, Link 0=/opt/gaussian/g16_legacy/g16
 Input=07-EVA_009_gaussian.com
 Output=07-EVA_009_gaussian.log
 Initial command:
 /opt/gaussian/g16_legacy/l1.exe "/scratch-local/jramos/2661762/Gau-31490.inp" -scrdir="/scratch-local/jramos/2661762/"
 Entering Link 1 = /opt/gaussian/g16_legacy/l1.exe PID=     31495.
  
 Copyright (c) 1988,1990,1992,1993,1995,1998,2003,2009,2016,
            Gaussian, Inc.  All Rights Reserved.
  
 This is part of the Gaussian(R) 16 program.  It is based on
 the Gaussian(R) 09 system (copyright 2009, Gaussian, Inc.),
 the Gaussian(R) 03 system (copyright 2003, Gaussian, Inc.),
 the Gaussian(R) 98 system (copyright 1998, Gaussian, Inc.),
 the Gaussian(R) 94 system (copyright 1995, Gaussian, Inc.),
 the Gaussian 92(TM) system (copyright 1992, Gaussian, Inc.),
 the Gaussian 90(TM) system (copyright 1990, Gaussian, Inc.),
 the Gaussian 88(TM) system (copyright 1988, Gaussian, Inc.),
 the Gaussian 86(TM) system (copyright 1986, Carnegie Mellon
 University), and the Gaussian 82(TM) system (copyright 1983,
 Carnegie Mellon University). Gaussian is a federally registered
 trademark of Gaussian, Inc.
  
 This software contains proprietary and confidential information,
 including trade secrets, belonging to Gaussian, Inc.
  
 This software is provided under written license and may be
 used, copied, transmitted, or stored only in accord with that
 written license.
  
 The following legend is applicable only to US Government
 contracts under FAR:
  
                    RESTRICTED RIGHTS LEGEND
  
 Use, reproduction and disclosure by the US Government is
 subject to restrictions as set forth in subparagraphs (a)
 and (c) of the Commercial Computer Software - Restricted
 Rights clause in FAR 52.227-19.
  
 Gaussian, Inc.
 340 Quinnipiac St., Bldg. 40, Wallingford CT 06492
  
  
 ---------------------------------------------------------------
 Warning -- This program may not be used in any manner that
 competes with the business of Gaussian, Inc. or will provide
 assistance to any competitor of Gaussian, Inc.  The licensee
 of this program is prohibited from giving any competitor of
 Gaussian, Inc. access to this program.  By using this program,
 the user acknowledges that Gaussian, Inc. is engaged in the
 business of creating and licensing software in the field of
 computational chemistry and represents and warrants to the
 licensee that it is not a competitor of Gaussian, Inc. and that
 it will not use this program in any manner prohibited above.
 ---------------------------------------------------------------
  

 Cite this work as:
 Gaussian 16, Revision A.03,
 M. J. Frisch, G. W. Trucks, H. B. Schlegel, G. E. Scuseria, 
 M. A. Robb, J. R. Cheeseman, G. Scalmani, V. Barone, 
 G. A. Petersson, H. Nakatsuji, X. Li, M. Caricato, A. V. Marenich, 
 J. Bloino, B. G. Janesko, R. Gomperts, B. Mennucci, H. P. Hratchian, 
 J. V. Ortiz, A. F. Izmaylov, J. L. Sonnenberg, D. Williams-Young, 
 F. Ding, F. Lipparini, F. Egidi, J. Goings, B. Peng, A. Petrone, 
 T. Henderson, D. Ranasinghe, V. G. Zakrzewski, J. Gao, N. Rega, 
 G. Zheng, W. Liang, M. Hada, M. Ehara, K. Toyota, R. Fukuda, 
 J. Hasegawa, M. Ishida, T. Nakajima, Y. Honda, O. Kitao, H. Nakai, 
 T. Vreven, K. Throssell, J. A. Montgomery, Jr., J. E. Peralta, 
 F. Ogliaro, M. J. Bearpark, J. J. Heyd, E. N. Brothers, K. N. Kudin, 
 V. N. Staroverov, T. A. Keith, R. Kobayashi, J. Normand, 
 K. Raghavachari, A. P. Rendell, J. C. Burant, S. S. Iyengar, 
 J. Tomasi, M. Cossi, J. M. Millam, M. Klene, C. Adamo, R. Cammi, 
 J. W. Ochterski, R. L. Martin, K. Morokuma, O. Farkas, 
 J. B. Foresman, and D. J. Fox, Gaussian, Inc., Wallingford CT, 2016.
 
 ******************************************
 Gaussian 16:  EM64L-G16RevA.03 25-Dec-2016
                19-Sep-2021 
 ******************************************
 %chk=07-EVA_009_gaussian.chk
 %nproc=1
 Will use up to    1 processors via shared memory.
 %mem=4000Mb
 ---------------------
 #p opt mp2/6-31g(d,p)
 ---------------------
 1/18=20,19=15,38=1/1,3;
 2/9=110,12=2,17=6,18=5,40=1/2;
 3/5=1,6=6,7=101,11=9,25=1,30=1,71=1/1,2,3;
 4//1;
 5/5=2,38=5/2;
 8/6=4,10=2/1;
 9/15=2,16=-3/6;
 10/5=1/2;
 6/7=2,8=2,9=2,10=2/1;
 7/12=2/1,2,3,16;
 1/18=20,19=15/3(2);
 2/9=110/2;
 99//99;
 2/9=110/2;
 3/5=1,6=6,7=101,11=9,25=1,30=1,71=1/1,2,3;
 4/5=5,16=3,69=1/1;
 5/5=2,38=5/2;
 8/6=4,10=2/1;
 9/15=2,16=-3/6;
 10/5=1/2;
 7/12=2/1,2,3,16;
 1/18=20,19=15/3(-8);
 2/9=110/2;
 6/7=2,8=2,9=2,10=2/1;
 99//99;
 Leave Link    1 at Sun Sep 19 20:02:33 2021, MaxMem=   524288000 cpu:               0.0 elap:               0.1
 (Enter /opt/gaussian/g16_legacy/l101.exe)
 -------------------------------------------------
 Conformer number 009. Energy MM = -6.900 kcal/mol
 -------------------------------------------------
 Symbolic Z-matrix:
 Charge =  0 Multiplicity = 1
 C                    -2.2042    1.0847    2.5089 
 H                    -2.0591    1.6911    3.4068 
 H                    -1.7974    0.0861    2.693 
 H                    -3.2829    0.9833    2.3535 
 C                    -1.5632    1.7253    1.2847 
 H                    -1.7733    1.0773    0.4245 
 H                    -2.0543    2.6842    1.0827 
 C                    -0.0406    1.926     1.3828 
 H                     0.2822    2.3913    0.4425 
 C                     0.4091    2.7945    2.5697 
 H                     1.5056    2.8426    2.5904 
 H                     0.1331    2.3205    3.5176 
 C                    -0.1273    4.2153    2.521 
 H                    -1.2166    4.239     2.6165 
 H                     0.29      4.8013    3.3465 
 H                     0.1507    4.7069    1.5835 
 O                     0.571     0.6231    1.503 
 C                     1.8614    0.5293    1.079 
 O                     2.5245    1.4383    0.5958 
 C                     2.3851   -0.8538    1.3162 
 H                     2.4744   -1.0349    2.3897 
 H                     1.7216   -1.589     0.8536 
 H                     3.3744   -0.9481    0.8578 
 
 ITRead=  0  0  0  0  0  0  0  0  0  0  0  0  0  0  0  0  0  0  0  0
 ITRead=  0  0  0
 MicOpt= -1 -1 -1 -1 -1 -1 -1 -1 -1 -1 -1 -1 -1 -1 -1 -1 -1 -1 -1 -1
 MicOpt= -1 -1 -1
 NAtoms=     23 NQM=       23 NQMF=       0 NMMI=      0 NMMIF=      0
                NMic=       0 NMicF=      0.
                    Isotopes and Nuclear Properties:
 (Nuclear quadrupole moments (NQMom) in fm**2, nuclear magnetic moments (NMagM)
  in nuclear magnetons)

  Atom         1           2           3           4           5           6           7           8           9          10
 IAtWgt=          12           1           1           1          12           1           1          12           1          12
 AtmWgt=  12.0000000   1.0078250   1.0078250   1.0078250  12.0000000   1.0078250   1.0078250  12.0000000   1.0078250  12.0000000
 NucSpn=           0           1           1           1           0           1           1           0           1           0
 AtZEff=  -0.0000000  -0.0000000  -0.0000000  -0.0000000  -0.0000000  -0.0000000  -0.0000000  -0.0000000  -0.0000000  -0.0000000
 NQMom=    0.0000000   0.0000000   0.0000000   0.0000000   0.0000000   0.0000000   0.0000000   0.0000000   0.0000000   0.0000000
 NMagM=    0.0000000   2.7928460   2.7928460   2.7928460   0.0000000   2.7928460   2.7928460   0.0000000   2.7928460   0.0000000
 AtZNuc=   6.0000000   1.0000000   1.0000000   1.0000000   6.0000000   1.0000000   1.0000000   6.0000000   1.0000000   6.0000000

  Atom        11          12          13          14          15          16          17          18          19          20
 IAtWgt=           1           1          12           1           1           1          16          12          16          12
 AtmWgt=   1.0078250   1.0078250  12.0000000   1.0078250   1.0078250   1.0078250  15.9949146  12.0000000  15.9949146  12.0000000
 NucSpn=           1           1           0           1           1           1           0           0           0           0
 AtZEff=  -0.0000000  -0.0000000  -0.0000000  -0.0000000  -0.0000000  -0.0000000  -0.0000000  -0.0000000  -0.0000000  -0.0000000
 NQMom=    0.0000000   0.0000000   0.0000000   0.0000000   0.0000000   0.0000000   0.0000000   0.0000000   0.0000000   0.0000000
 NMagM=    2.7928460   2.7928460   0.0000000   2.7928460   2.7928460   2.7928460   0.0000000   0.0000000   0.0000000   0.0000000
 AtZNuc=   1.0000000   1.0000000   6.0000000   1.0000000   1.0000000   1.0000000   8.0000000   6.0000000   8.0000000   6.0000000

  Atom        21          22          23
 IAtWgt=           1           1           1
 AtmWgt=   1.0078250   1.0078250   1.0078250
 NucSpn=           1           1           1
 AtZEff=  -0.0000000  -0.0000000  -0.0000000
 NQMom=    0.0000000   0.0000000   0.0000000
 NMagM=    2.7928460   2.7928460   2.7928460
 AtZNuc=   1.0000000   1.0000000   1.0000000
 Leave Link  101 at Sun Sep 19 20:02:34 2021, MaxMem=   524288000 cpu:               0.1 elap:               0.3
 (Enter /opt/gaussian/g16_legacy/l103.exe)

 GradGradGradGradGradGradGradGradGradGradGradGradGradGradGradGradGradGrad
 Berny optimization.
 Initialization pass.
                           ----------------------------
                           !    Initial Parameters    !
                           ! (Angstroms and Degrees)  !
 --------------------------                            --------------------------
 ! Name  Definition              Value          Derivative Info.                !
 --------------------------------------------------------------------------------
 ! R1    R(1,2)                  1.0932         estimate D2E/DX2                !
 ! R2    R(1,3)                  1.0939         estimate D2E/DX2                !
 ! R3    R(1,4)                  1.0945         estimate D2E/DX2                !
 ! R4    R(1,5)                  1.5231         estimate D2E/DX2                !
 ! R5    R(5,6)                  1.0973         estimate D2E/DX2                !
 ! R6    R(5,7)                  1.0961         estimate D2E/DX2                !
 ! R7    R(5,8)                  1.5389         estimate D2E/DX2                !
 ! R8    R(8,9)                  1.0977         estimate D2E/DX2                !
 ! R9    R(8,10)                 1.5379         estimate D2E/DX2                !
 ! R10   R(8,17)                 1.4443         estimate D2E/DX2                !
 ! R11   R(10,11)                1.0977         estimate D2E/DX2                !
 ! R12   R(10,12)                1.0952         estimate D2E/DX2                !
 ! R13   R(10,13)                1.5195         estimate D2E/DX2                !
 ! R14   R(13,14)                1.0937         estimate D2E/DX2                !
 ! R15   R(13,15)                1.095          estimate D2E/DX2                !
 ! R16   R(13,16)                1.0945         estimate D2E/DX2                !
 ! R17   R(17,18)                1.3615         estimate D2E/DX2                !
 ! R18   R(18,19)                1.2245         estimate D2E/DX2                !
 ! R19   R(18,20)                1.4978         estimate D2E/DX2                !
 ! R20   R(20,21)                1.0923         estimate D2E/DX2                !
 ! R21   R(20,22)                1.093          estimate D2E/DX2                !
 ! R22   R(20,23)                1.0944         estimate D2E/DX2                !
 ! A1    A(2,1,3)              108.5905         estimate D2E/DX2                !
 ! A2    A(2,1,4)              107.3868         estimate D2E/DX2                !
 ! A3    A(2,1,5)              111.7779         estimate D2E/DX2                !
 ! A4    A(3,1,4)              107.8079         estimate D2E/DX2                !
 ! A5    A(3,1,5)              111.2667         estimate D2E/DX2                !
 ! A6    A(4,1,5)              109.8527         estimate D2E/DX2                !
 ! A7    A(1,5,6)              107.5256         estimate D2E/DX2                !
 ! A8    A(1,5,7)              109.1169         estimate D2E/DX2                !
 ! A9    A(1,5,8)              114.8347         estimate D2E/DX2                !
 ! A10   A(6,5,7)              106.6408         estimate D2E/DX2                !
 ! A11   A(6,5,8)              108.4479         estimate D2E/DX2                !
 ! A12   A(7,5,8)              109.9346         estimate D2E/DX2                !
 ! A13   A(5,8,9)              106.9562         estimate D2E/DX2                !
 ! A14   A(5,8,10)             114.3401         estimate D2E/DX2                !
 ! A15   A(5,8,17)             107.8559         estimate D2E/DX2                !
 ! A16   A(9,8,10)             109.6172         estimate D2E/DX2                !
 ! A17   A(9,8,17)             109.2177         estimate D2E/DX2                !
 ! A18   A(10,8,17)            108.7463         estimate D2E/DX2                !
 ! A19   A(8,10,11)            109.3519         estimate D2E/DX2                !
 ! A20   A(8,10,12)            110.4792         estimate D2E/DX2                !
 ! A21   A(8,10,13)            113.5837         estimate D2E/DX2                !
 ! A22   A(11,10,12)           104.7366         estimate D2E/DX2                !
 ! A23   A(11,10,13)           108.1949         estimate D2E/DX2                !
 ! A24   A(12,10,13)           110.0893         estimate D2E/DX2                !
 ! A25   A(10,13,14)           111.6571         estimate D2E/DX2                !
 ! A26   A(10,13,15)           109.9816         estimate D2E/DX2                !
 ! A27   A(10,13,16)           110.9644         estimate D2E/DX2                !
 ! A28   A(14,13,15)           107.5858         estimate D2E/DX2                !
 ! A29   A(14,13,16)           108.5441         estimate D2E/DX2                !
 ! A30   A(15,13,16)           107.9742         estimate D2E/DX2                !
 ! A31   A(8,17,18)            115.9488         estimate D2E/DX2                !
 ! A32   A(17,18,19)           125.8014         estimate D2E/DX2                !
 ! A33   A(17,18,20)           110.2232         estimate D2E/DX2                !
 ! A34   A(19,18,20)           123.9606         estimate D2E/DX2                !
 ! A35   A(18,20,21)           109.7131         estimate D2E/DX2                !
 ! A36   A(18,20,22)           109.9887         estimate D2E/DX2                !
 ! A37   A(18,20,23)           109.2258         estimate D2E/DX2                !
 ! A38   A(21,20,22)           110.7345         estimate D2E/DX2                !
 ! A39   A(21,20,23)           108.8717         estimate D2E/DX2                !
 ! A40   A(22,20,23)           108.2699         estimate D2E/DX2                !
 ! D1    D(2,1,5,6)           -178.4714         estimate D2E/DX2                !
 ! D2    D(2,1,5,7)            -63.1753         estimate D2E/DX2                !
 ! D3    D(2,1,5,8)             60.7443         estimate D2E/DX2                !
 ! D4    D(3,1,5,6)             59.9349         estimate D2E/DX2                !
 ! D5    D(3,1,5,7)            175.231          estimate D2E/DX2                !
 ! D6    D(3,1,5,8)            -60.8494         estimate D2E/DX2                !
 ! D7    D(4,1,5,6)            -59.3689         estimate D2E/DX2                !
 ! D8    D(4,1,5,7)             55.9271         estimate D2E/DX2                !
 ! D9    D(4,1,5,8)            179.8467         estimate D2E/DX2                !
 ! D10   D(1,5,8,9)           -179.9798         estimate D2E/DX2                !
 ! D11   D(1,5,8,10)           -58.4356         estimate D2E/DX2                !
 ! D12   D(1,5,8,17)            62.6491         estimate D2E/DX2                !
 ! D13   D(6,5,8,9)             59.7435         estimate D2E/DX2                !
 ! D14   D(6,5,8,10)          -178.7123         estimate D2E/DX2                !
 ! D15   D(6,5,8,17)           -57.6275         estimate D2E/DX2                !
 ! D16   D(7,5,8,9)            -56.4949         estimate D2E/DX2                !
 ! D17   D(7,5,8,10)            65.0493         estimate D2E/DX2                !
 ! D18   D(7,5,8,17)          -173.866          estimate D2E/DX2                !
 ! D19   D(5,8,10,11)          177.216          estimate D2E/DX2                !
 ! D20   D(5,8,10,12)           62.4468         estimate D2E/DX2                !
 ! D21   D(5,8,10,13)          -61.8246         estimate D2E/DX2                !
 ! D22   D(9,8,10,11)          -62.7147         estimate D2E/DX2                !
 ! D23   D(9,8,10,12)         -177.4839         estimate D2E/DX2                !
 ! D24   D(9,8,10,13)           58.2447         estimate D2E/DX2                !
 ! D25   D(17,8,10,11)          56.6245         estimate D2E/DX2                !
 ! D26   D(17,8,10,12)         -58.1447         estimate D2E/DX2                !
 ! D27   D(17,8,10,13)         177.5839         estimate D2E/DX2                !
 ! D28   D(5,8,17,18)          154.8489         estimate D2E/DX2                !
 ! D29   D(9,8,17,18)           38.9507         estimate D2E/DX2                !
 ! D30   D(10,8,17,18)         -80.6378         estimate D2E/DX2                !
 ! D31   D(8,10,13,14)          65.0541         estimate D2E/DX2                !
 ! D32   D(8,10,13,15)        -175.5865         estimate D2E/DX2                !
 ! D33   D(8,10,13,16)         -56.1836         estimate D2E/DX2                !
 ! D34   D(11,10,13,14)       -173.3392         estimate D2E/DX2                !
 ! D35   D(11,10,13,15)        -53.9799         estimate D2E/DX2                !
 ! D36   D(11,10,13,16)         65.4231         estimate D2E/DX2                !
 ! D37   D(12,10,13,14)        -59.4279         estimate D2E/DX2                !
 ! D38   D(12,10,13,15)         59.9315         estimate D2E/DX2                !
 ! D39   D(12,10,13,16)        179.3344         estimate D2E/DX2                !
 ! D40   D(8,17,18,19)          -1.1146         estimate D2E/DX2                !
 ! D41   D(8,17,18,20)         177.5275         estimate D2E/DX2                !
 ! D42   D(17,18,20,21)        -67.8014         estimate D2E/DX2                !
 ! D43   D(17,18,20,22)         54.2391         estimate D2E/DX2                !
 ! D44   D(17,18,20,23)        172.9342         estimate D2E/DX2                !
 ! D45   D(19,18,20,21)        110.8708         estimate D2E/DX2                !
 ! D46   D(19,18,20,22)       -127.0886         estimate D2E/DX2                !
 ! D47   D(19,18,20,23)         -8.3935         estimate D2E/DX2                !
 --------------------------------------------------------------------------------
 Trust Radius=3.00D-01 FncErr=1.00D-07 GrdErr=1.00D-07 EigMax=2.50D+02 EigMin=1.00D-04
 Number of steps in this run=    119 maximum allowed number of steps=    138.
 GradGradGradGradGradGradGradGradGradGradGradGradGradGradGradGradGradGrad

 Leave Link  103 at Sun Sep 19 20:02:34 2021, MaxMem=   524288000 cpu:               0.0 elap:               0.1
 (Enter /opt/gaussian/g16_legacy/l202.exe)
                          Input orientation:                          
 ---------------------------------------------------------------------
 Center     Atomic      Atomic             Coordinates (Angstroms)
 Number     Number       Type             X           Y           Z
 ---------------------------------------------------------------------
      1          6           0       -2.204200    1.084700    2.508900
      2          1           0       -2.059100    1.691100    3.406800
      3          1           0       -1.797400    0.086100    2.693000
      4          1           0       -3.282900    0.983300    2.353500
      5          6           0       -1.563200    1.725300    1.284700
      6          1           0       -1.773300    1.077300    0.424500
      7          1           0       -2.054300    2.684200    1.082700
      8          6           0       -0.040600    1.926000    1.382800
      9          1           0        0.282200    2.391300    0.442500
     10          6           0        0.409100    2.794500    2.569700
     11          1           0        1.505600    2.842600    2.590400
     12          1           0        0.133100    2.320500    3.517600
     13          6           0       -0.127300    4.215300    2.521000
     14          1           0       -1.216600    4.239000    2.616500
     15          1           0        0.290000    4.801300    3.346500
     16          1           0        0.150700    4.706900    1.583500
     17          8           0        0.571000    0.623100    1.503000
     18          6           0        1.861400    0.529300    1.079000
     19          8           0        2.524500    1.438300    0.595800
     20          6           0        2.385100   -0.853800    1.316200
     21          1           0        2.474400   -1.034900    2.389700
     22          1           0        1.721600   -1.589000    0.853600
     23          1           0        3.374400   -0.948100    0.857800
 ---------------------------------------------------------------------
                    Distance matrix (angstroms):
                    1          2          3          4          5
     1  C    0.000000
     2  H    1.093160   0.000000
     3  H    1.093883   1.775957   0.000000
     4  H    1.094543   1.762983   1.768315   0.000000
     5  C    1.523127   2.179540   2.173738   2.156447   0.000000
     6  H    2.128486   3.058193   2.475712   2.451279   1.097265
     7  H    2.148236   2.527392   3.067440   2.453049   1.096117
     8  C    2.580126   2.868117   2.861504   3.513325   1.538901
     9  H    3.487033   3.841750   3.834506   4.283027   2.135031
    10  C    3.123532   2.830237   3.495608   4.118016   2.585417
    11  H    4.106029   3.833999   4.303328   5.142261   3.517207
    12  H    2.829779   2.283454   3.065834   3.848674   2.866625
    13  C    3.756902   3.299709   4.457478   4.520143   3.128953
    14  H    3.307044   2.797530   4.194015   3.865016   2.865748
    15  H    4.553649   3.898109   5.197828   5.322479   4.140911
    16  H    4.418399   4.159650   5.135940   5.123251   3.452053
    17  O    2.987749   3.417968   2.704402   3.963034   2.411910
    18  C    4.345364   4.705184   4.023461   5.319238   3.633265
    19  O    5.113276   5.382845   4.990542   6.084606   4.155267
    20  C    5.122694   5.531549   4.502477   6.047905   4.716124
    21  H    5.137724   5.386854   4.426839   6.100897   5.014174
    22  H    5.029970   5.618859   4.309607   5.823354   4.686186
    23  H    6.162725   6.556348   5.584357   7.091338   5.631093
                    6          7          8          9         10
     6  H    0.000000
     7  H    1.759067   0.000000
     8  C    2.154270   2.172537   0.000000
     9  H    2.439672   2.440262   1.097665   0.000000
    10  C    3.509064   2.879527   1.537938   2.168791   0.000000
    11  H    4.307968   3.869255   2.165453   2.512738   1.097750
    12  H    3.840205   3.293286   2.177883   3.079526   1.095156
    13  C    4.117241   2.850667   2.558107   2.795501   1.519463
    14  H    3.887303   2.339164   2.873145   3.222836   2.175240
    15  H    5.163668   3.886212   3.497537   3.773775   2.155191
    16  H    4.268378   3.033833   2.794688   2.584797   2.167172
    17  O    2.620153   3.364073   1.444317   2.081969   2.424673
    18  C    3.733593   4.469487   2.379216   2.523103   3.076117
    19  O    4.316335   4.770194   2.727079   2.441233   3.195384
    20  C    4.670821   5.681570   3.689952   3.964368   4.334274
    21  H    5.134818   6.004088   4.013228   4.509565   4.354557
    22  H    4.416742   5.707026   3.967446   4.252489   4.886996
    23  H    5.548766   6.535669   4.494252   4.570095   5.072540
                   11         12         13         14         15
    11  H    0.000000
    12  H    1.736676   0.000000
    13  C    2.134358   2.156684   0.000000
    14  H    3.059573   2.512830   1.093735   0.000000
    15  H    2.426082   2.491638   1.094982   1.766048   0.000000
    16  H    2.514998   3.071800   1.094468   1.776381   1.771012
    17  O    2.642366   2.670494   3.798401   4.184511   4.575457
    18  C    2.786087   3.484564   4.429547   5.059631   5.085355
    19  O    2.643605   3.877368   4.295366   5.091461   4.885602
    20  C    4.007553   4.471448   5.784416   6.371784   6.363310
    21  H    4.001732   4.244120   5.860946   6.441191   6.304625
    22  H    4.764683   4.990433   6.315738   6.760652   7.007137
    23  H    4.567682   5.316419   6.456689   7.146769   6.983033
                   16         17         18         19         20
    16  H    0.000000
    17  O    4.106161   0.000000
    18  C    4.542395   1.361509   0.000000
    19  O    4.158632   2.302982   1.224526   0.000000
    20  C    5.998781   2.346718   1.497829   2.406685   0.000000
    21  H    6.246424   2.675469   2.130827   3.055700   1.092325
    22  H    6.529842   2.576623   2.134841   3.142555   1.093046
    23  H    6.549649   3.277805   2.126219   2.546739   1.094412
                   21         22         23
    21  H    0.000000
    22  H    1.798148   0.000000
    23  H    1.778834   1.772715   0.000000
 Stoichiometry    C7H14O2
 Framework group  C1[X(C7H14O2)]
 Deg. of freedom    63
 Full point group                 C1      NOp   1
 Largest Abelian subgroup         C1      NOp   1
 Largest concise Abelian subgroup C1      NOp   1
                         Standard orientation:                         
 ---------------------------------------------------------------------
 Center     Atomic      Atomic             Coordinates (Angstroms)
 Number     Number       Type             X           Y           Z
 ---------------------------------------------------------------------
      1          6           0       -1.931650    1.910647   -0.365966
      2          1           0       -2.420713    1.323197   -1.147452
      3          1           0       -1.083280    2.441237   -0.807919
      4          1           0       -2.651597    2.659290   -0.020662
      5          6           0       -1.490280    1.039669    0.803010
      6          1           0       -1.036400    1.699063    1.553464
      7          1           0       -2.374643    0.592720    1.271638
      8          6           0       -0.475248   -0.059541    0.442925
      9          1           0       -0.249624   -0.602930    1.369580
     10          6           0       -0.964705   -1.047776   -0.629025
     11          1           0       -0.163443   -1.762335   -0.858020
     12          1           0       -1.151609   -0.526581   -1.573900
     13          6           0       -2.197034   -1.833785   -0.213903
     14          1           0       -3.066473   -1.182856   -0.084971
     15          1           0       -2.447206   -2.571374   -0.983553
     16          1           0       -2.021781   -2.370303    0.723804
     17          8           0        0.725610    0.585663   -0.034258
     18          6           0        1.878194   -0.126512    0.100145
     19          8           0        1.978266   -1.239492    0.600871
     20          6           0        3.027757    0.633294   -0.486959
     21          1           0        2.912659    0.695823   -1.571402
     22          1           0        3.080323    1.631700   -0.045178
     23          1           0        3.960579    0.108004   -0.259692
 ---------------------------------------------------------------------
 Rotational constants (GHZ):           2.2464421           1.0461801           0.8070480
 Leave Link  202 at Sun Sep 19 20:02:34 2021, MaxMem=   524288000 cpu:               0.0 elap:               0.2
 (Enter /opt/gaussian/g16_legacy/l301.exe)
 Standard basis: 6-31G(d,p) (6D, 7F)
 Ernie: Thresh=  0.10000D-02 Tol=  0.10000D-05 Strict=F.
 There are   205 symmetry adapted cartesian basis functions of A   symmetry.
 There are   205 symmetry adapted basis functions of A   symmetry.
   205 basis functions,   350 primitive gaussians,   205 cartesian basis functions
    36 alpha electrons       36 beta electrons
       nuclear repulsion energy       483.8302080393 Hartrees.
 IExCor=    0 DFT=F Ex=HF Corr=None ExCW=0 ScaHFX=  1.000000
 ScaDFX=  1.000000  1.000000  1.000000  1.000000 ScalE2=  1.000000  1.000000
 IRadAn=      5 IRanWt=     -1 IRanGd=            0 ICorTp=0 IEmpDi=  4
 NAtoms=   23 NActive=   23 NUniq=   23 SFac= 1.00D+00 NAtFMM=   60 NAOKFM=F Big=F
 Integral buffers will be    131072 words long.
 Raffenetti 1 integral format.
 Two-electron integral symmetry is turned on.
 Leave Link  301 at Sun Sep 19 20:02:34 2021, MaxMem=   524288000 cpu:               0.1 elap:               0.2
 (Enter /opt/gaussian/g16_legacy/l302.exe)
 NPDir=0 NMtPBC=     1 NCelOv=     1 NCel=       1 NClECP=     1 NCelD=      1
         NCelK=      1 NCelE2=     1 NClLst=     1 CellRange=     0.0.
 One-electron integrals computed using PRISM.
 One-electron integral symmetry used in STVInt
 NBasis=   205 RedAO= T EigKep=  3.25D-03  NBF=   205
 NBsUse=   205 1.00D-06 EigRej= -1.00D+00 NBFU=   205
 Leave Link  302 at Sun Sep 19 20:02:35 2021, MaxMem=   524288000 cpu:               0.2 elap:               0.6
 (Enter /opt/gaussian/g16_legacy/l303.exe)
 DipDrv:  MaxL=1.
 Leave Link  303 at Sun Sep 19 20:02:35 2021, MaxMem=   524288000 cpu:               0.0 elap:               0.2
 (Enter /opt/gaussian/g16_legacy/l401.exe)
 ExpMin= 1.61D-01 ExpMax= 5.48D+03 ExpMxC= 8.25D+02 IAcc=3 IRadAn=         5 AccDes= 0.00D+00
 Harris functional with IExCor=  205 and IRadAn=       5 diagonalized for initial guess.
 HarFok:  IExCor=  205 AccDes= 0.00D+00 IRadAn=         5 IDoV= 1 UseB2=F ITyADJ=14
 ICtDFT=  3500011 ScaDFX=  1.000000  1.000000  1.000000  1.000000
 FoFCou: FMM=F IPFlag=           0 FMFlag=      100000 FMFlg1=           0
         NFxFlg=           0 DoJE=T BraDBF=F KetDBF=T FulRan=T
         wScrn=  0.000000 ICntrl=       500 IOpCl=  0 I1Cent=   200000004 NGrid=           0
         NMat0=    1 NMatS0=      1 NMatT0=    0 NMatD0=    1 NMtDS0=    0 NMtDT0=    0
 Petite list used in FoFCou.
 Harris En= -423.718769213879    
 JPrj=0 DoOrth=F DoCkMO=F.
 Leave Link  401 at Sun Sep 19 20:02:40 2021, MaxMem=   524288000 cpu:               4.6 elap:               4.9
 (Enter /opt/gaussian/g16_legacy/l502.exe)
 Keep R1 ints in memory in canonical form, NReq=227304434.
 FoFCou: FMM=F IPFlag=           0 FMFlag=           0 FMFlg1=           0
         NFxFlg=           0 DoJE=F BraDBF=F KetDBF=F FulRan=T
         wScrn=  0.000000 ICntrl=       600 IOpCl=  0 I1Cent=           0 NGrid=           0
         NMat0=    1 NMatS0=  21115 NMatT0=    0 NMatD0=    1 NMtDS0=    0 NMtDT0=    0
 Symmetry not used in FoFCou.
 Two-electron integral symmetry not used.
 Closed shell SCF:
 Using DIIS extrapolation, IDIIS=  1040.
 NGot=   524288000 LenX=   301268152 LenY=   301225686
 Requested convergence on RMS density matrix=1.00D-08 within 128 cycles.
 Requested convergence on MAX density matrix=1.00D-06.
 Requested convergence on             energy=1.00D-06.
 No special actions if energy rises.

 Cycle   1  Pass 1  IDiag  1:
 E= -422.506482230279    
 DIIS: error= 5.52D-02 at cycle   1 NSaved=   1.
 NSaved= 1 IEnMin= 1 EnMin= -422.506482230279     IErMin= 1 ErrMin= 5.52D-02
 ErrMax= 5.52D-02  0.00D+00 EMaxC= 1.00D-01 BMatC= 7.23D-01 BMatP= 7.23D-01
 IDIUse=3 WtCom= 4.48D-01 WtEn= 5.52D-01
 Coeff-Com:  0.100D+01
 Coeff-En:   0.100D+01
 Coeff:      0.100D+01
 Gap=     0.558 Goal=   None    Shift=    0.000
 GapD=    0.558 DampG=2.000 DampE=0.500 DampFc=1.0000 IDamp=-1.
 RMSDP=4.06D-03 MaxDP=1.15D-01              OVMax= 1.27D-01

 Cycle   2  Pass 1  IDiag  1:
 E= -422.910928354549     Delta-E=       -0.404446124270 Rises=F Damp=F
 DIIS: error= 1.32D-02 at cycle   2 NSaved=   2.
 NSaved= 2 IEnMin= 2 EnMin= -422.910928354549     IErMin= 2 ErrMin= 1.32D-02
 ErrMax= 1.32D-02  0.00D+00 EMaxC= 1.00D-01 BMatC= 1.00D-01 BMatP= 7.23D-01
 IDIUse=3 WtCom= 8.68D-01 WtEn= 1.32D-01
 Coeff-Com:  0.210D+00 0.790D+00
 Coeff-En:   0.000D+00 0.100D+01
 Coeff:      0.182D+00 0.818D+00
 Gap=     0.639 Goal=   None    Shift=    0.000
 RMSDP=1.51D-03 MaxDP=4.84D-02 DE=-4.04D-01 OVMax= 4.70D-02

 Cycle   3  Pass 1  IDiag  1:
 E= -422.988427211335     Delta-E=       -0.077498856786 Rises=F Damp=F
 DIIS: error= 4.23D-03 at cycle   3 NSaved=   3.
 NSaved= 3 IEnMin= 3 EnMin= -422.988427211335     IErMin= 3 ErrMin= 4.23D-03
 ErrMax= 4.23D-03  0.00D+00 EMaxC= 1.00D-01 BMatC= 8.78D-03 BMatP= 1.00D-01
 IDIUse=3 WtCom= 9.58D-01 WtEn= 4.23D-02
 Coeff-Com: -0.150D-01 0.190D+00 0.825D+00
 Coeff-En:   0.000D+00 0.000D+00 0.100D+01
 Coeff:     -0.144D-01 0.182D+00 0.832D+00
 Gap=     0.614 Goal=   None    Shift=    0.000
 RMSDP=3.96D-04 MaxDP=2.12D-02 DE=-7.75D-02 OVMax= 2.05D-02

 Cycle   4  Pass 1  IDiag  1:
 E= -422.995165558918     Delta-E=       -0.006738347583 Rises=F Damp=F
 DIIS: error= 1.98D-03 at cycle   4 NSaved=   4.
 NSaved= 4 IEnMin= 4 EnMin= -422.995165558918     IErMin= 4 ErrMin= 1.98D-03
 ErrMax= 1.98D-03  0.00D+00 EMaxC= 1.00D-01 BMatC= 9.17D-04 BMatP= 8.78D-03
 IDIUse=3 WtCom= 9.80D-01 WtEn= 1.98D-02
 Coeff-Com: -0.124D-01 0.343D-01 0.309D+00 0.670D+00
 Coeff-En:   0.000D+00 0.000D+00 0.000D+00 0.100D+01
 Coeff:     -0.122D-01 0.336D-01 0.302D+00 0.676D+00
 Gap=     0.615 Goal=   None    Shift=    0.000
 RMSDP=1.24D-04 MaxDP=5.76D-03 DE=-6.74D-03 OVMax= 5.91D-03

 Cycle   5  Pass 1  IDiag  1:
 E= -422.995903197187     Delta-E=       -0.000737638269 Rises=F Damp=F
 DIIS: error= 3.92D-04 at cycle   5 NSaved=   5.
 NSaved= 5 IEnMin= 5 EnMin= -422.995903197187     IErMin= 5 ErrMin= 3.92D-04
 ErrMax= 3.92D-04  0.00D+00 EMaxC= 1.00D-01 BMatC= 2.82D-05 BMatP= 9.17D-04
 IDIUse=3 WtCom= 9.96D-01 WtEn= 3.92D-03
 Coeff-Com:  0.165D-02-0.165D-01-0.739D-01-0.152D-01 0.110D+01
 Coeff-En:   0.000D+00 0.000D+00 0.000D+00 0.000D+00 0.100D+01
 Coeff:      0.164D-02-0.164D-01-0.737D-01-0.152D-01 0.110D+01
 Gap=     0.614 Goal=   None    Shift=    0.000
 RMSDP=4.94D-05 MaxDP=1.62D-03 DE=-7.38D-04 OVMax= 2.85D-03

 Cycle   6  Pass 1  IDiag  1:
 E= -422.995963717939     Delta-E=       -0.000060520752 Rises=F Damp=F
 DIIS: error= 9.85D-05 at cycle   6 NSaved=   6.
 NSaved= 6 IEnMin= 6 EnMin= -422.995963717939     IErMin= 6 ErrMin= 9.85D-05
 ErrMax= 9.85D-05  0.00D+00 EMaxC= 1.00D-01 BMatC= 3.92D-06 BMatP= 2.82D-05
 IDIUse=1 WtCom= 1.00D+00 WtEn= 0.00D+00
 Coeff-Com:  0.135D-02-0.626D-02-0.389D-01-0.732D-01 0.171D+00 0.946D+00
 Coeff:      0.135D-02-0.626D-02-0.389D-01-0.732D-01 0.171D+00 0.946D+00
 Gap=     0.614 Goal=   None    Shift=    0.000
 RMSDP=1.83D-05 MaxDP=6.29D-04 DE=-6.05D-05 OVMax= 9.90D-04

 Cycle   7  Pass 1  IDiag  1:
 E= -422.995971605625     Delta-E=       -0.000007887685 Rises=F Damp=F
 DIIS: error= 5.89D-05 at cycle   7 NSaved=   7.
 NSaved= 7 IEnMin= 7 EnMin= -422.995971605625     IErMin= 7 ErrMin= 5.89D-05
 ErrMax= 5.89D-05  0.00D+00 EMaxC= 1.00D-01 BMatC= 4.92D-07 BMatP= 3.92D-06
 IDIUse=1 WtCom= 1.00D+00 WtEn= 0.00D+00
 Coeff-Com: -0.252D-03 0.205D-02 0.118D-01 0.527D-03-0.107D+00-0.888D-01
 Coeff-Com:  0.118D+01
 Coeff:     -0.252D-03 0.205D-02 0.118D-01 0.527D-03-0.107D+00-0.888D-01
 Coeff:      0.118D+01
 Gap=     0.614 Goal=   None    Shift=    0.000
 RMSDP=7.66D-06 MaxDP=2.65D-04 DE=-7.89D-06 OVMax= 5.39D-04

 Cycle   8  Pass 1  IDiag  1:
 E= -422.995973004223     Delta-E=       -0.000001398598 Rises=F Damp=F
 DIIS: error= 1.73D-05 at cycle   8 NSaved=   8.
 NSaved= 8 IEnMin= 8 EnMin= -422.995973004223     IErMin= 8 ErrMin= 1.73D-05
 ErrMax= 1.73D-05  0.00D+00 EMaxC= 1.00D-01 BMatC= 9.05D-08 BMatP= 4.92D-07
 IDIUse=1 WtCom= 1.00D+00 WtEn= 0.00D+00
 Coeff-Com: -0.236D-03 0.123D-02 0.776D-02 0.867D-02-0.357D-01-0.169D+00
 Coeff-Com:  0.116D+00 0.107D+01
 Coeff:     -0.236D-03 0.123D-02 0.776D-02 0.867D-02-0.357D-01-0.169D+00
 Coeff:      0.116D+00 0.107D+01
 Gap=     0.614 Goal=   None    Shift=    0.000
 RMSDP=3.54D-06 MaxDP=1.13D-04 DE=-1.40D-06 OVMax= 2.28D-04

 Cycle   9  Pass 1  IDiag  1:
 E= -422.995973252370     Delta-E=       -0.000000248148 Rises=F Damp=F
 DIIS: error= 6.21D-06 at cycle   9 NSaved=   9.
 NSaved= 9 IEnMin= 9 EnMin= -422.995973252370     IErMin= 9 ErrMin= 6.21D-06
 ErrMax= 6.21D-06  0.00D+00 EMaxC= 1.00D-01 BMatC= 1.19D-08 BMatP= 9.05D-08
 IDIUse=1 WtCom= 1.00D+00 WtEn= 0.00D+00
 Coeff-Com:  0.360D-05-0.146D-03-0.624D-03 0.572D-03 0.152D-01-0.916D-02
 Coeff-Com: -0.173D+00 0.143D+00 0.102D+01
 Coeff:      0.360D-05-0.146D-03-0.624D-03 0.572D-03 0.152D-01-0.916D-02
 Coeff:     -0.173D+00 0.143D+00 0.102D+01
 Gap=     0.614 Goal=   None    Shift=    0.000
 RMSDP=1.15D-06 MaxDP=3.50D-05 DE=-2.48D-07 OVMax= 6.68D-05

 Cycle  10  Pass 1  IDiag  1:
 E= -422.995973278943     Delta-E=       -0.000000026573 Rises=F Damp=F
 DIIS: error= 1.89D-06 at cycle  10 NSaved=  10.
 NSaved=10 IEnMin=10 EnMin= -422.995973278943     IErMin=10 ErrMin= 1.89D-06
 ErrMax= 1.89D-06  0.00D+00 EMaxC= 1.00D-01 BMatC= 8.85D-10 BMatP= 1.19D-08
 IDIUse=1 WtCom= 1.00D+00 WtEn= 0.00D+00
 Coeff-Com:  0.256D-04-0.143D-03-0.845D-03-0.134D-02 0.414D-02 0.187D-01
 Coeff-Com: -0.124D-01-0.107D+00-0.381D-01 0.114D+01
 Coeff:      0.256D-04-0.143D-03-0.845D-03-0.134D-02 0.414D-02 0.187D-01
 Coeff:     -0.124D-01-0.107D+00-0.381D-01 0.114D+01
 Gap=     0.614 Goal=   None    Shift=    0.000
 RMSDP=3.11D-07 MaxDP=1.12D-05 DE=-2.66D-08 OVMax= 1.58D-05

 Cycle  11  Pass 1  IDiag  1:
 E= -422.995973281133     Delta-E=       -0.000000002189 Rises=F Damp=F
 DIIS: error= 6.74D-07 at cycle  11 NSaved=  11.
 NSaved=11 IEnMin=11 EnMin= -422.995973281133     IErMin=11 ErrMin= 6.74D-07
 ErrMax= 6.74D-07  0.00D+00 EMaxC= 1.00D-01 BMatC= 1.03D-10 BMatP= 8.85D-10
 IDIUse=1 WtCom= 1.00D+00 WtEn= 0.00D+00
 Coeff-Com:  0.270D-05-0.463D-05-0.206D-04-0.235D-03-0.768D-03 0.248D-02
 Coeff-Com:  0.130D-01-0.180D-01-0.107D+00 0.132D+00 0.979D+00
 Coeff:      0.270D-05-0.463D-05-0.206D-04-0.235D-03-0.768D-03 0.248D-02
 Coeff:      0.130D-01-0.180D-01-0.107D+00 0.132D+00 0.979D+00
 Gap=     0.614 Goal=   None    Shift=    0.000
 RMSDP=7.28D-08 MaxDP=2.63D-06 DE=-2.19D-09 OVMax= 3.18D-06

 Cycle  12  Pass 1  IDiag  1:
 E= -422.995973281305     Delta-E=       -0.000000000172 Rises=F Damp=F
 DIIS: error= 1.35D-07 at cycle  12 NSaved=  12.
 NSaved=12 IEnMin=12 EnMin= -422.995973281305     IErMin=12 ErrMin= 1.35D-07
 ErrMax= 1.35D-07  0.00D+00 EMaxC= 1.00D-01 BMatC= 8.67D-12 BMatP= 1.03D-10
 IDIUse=1 WtCom= 1.00D+00 WtEn= 0.00D+00
 Coeff-Com: -0.257D-05 0.141D-04 0.930D-04 0.123D-03-0.462D-03-0.201D-02
 Coeff-Com:  0.127D-02 0.140D-01-0.184D-02-0.120D+00-0.804D-02 0.112D+01
 Coeff:     -0.257D-05 0.141D-04 0.930D-04 0.123D-03-0.462D-03-0.201D-02
 Coeff:      0.127D-02 0.140D-01-0.184D-02-0.120D+00-0.804D-02 0.112D+01
 Gap=     0.614 Goal=   None    Shift=    0.000
 RMSDP=2.77D-08 MaxDP=8.04D-07 DE=-1.72D-10 OVMax= 1.34D-06

 Cycle  13  Pass 1  IDiag  1:
 E= -422.995973281319     Delta-E=       -0.000000000015 Rises=F Damp=F
 DIIS: error= 5.48D-08 at cycle  13 NSaved=  13.
 NSaved=13 IEnMin=13 EnMin= -422.995973281319     IErMin=13 ErrMin= 5.48D-08
 ErrMax= 5.48D-08  0.00D+00 EMaxC= 1.00D-01 BMatC= 6.10D-13 BMatP= 8.67D-12
 IDIUse=1 WtCom= 1.00D+00 WtEn= 0.00D+00
 Coeff-Com: -0.140D-06 0.190D-07 0.126D-05 0.131D-04 0.694D-04-0.162D-03
 Coeff-Com: -0.116D-02 0.167D-02 0.755D-02-0.947D-02-0.795D-01 0.112D-01
 Coeff-Com:  0.107D+01
 Coeff:     -0.140D-06 0.190D-07 0.126D-05 0.131D-04 0.694D-04-0.162D-03
 Coeff:     -0.116D-02 0.167D-02 0.755D-02-0.947D-02-0.795D-01 0.112D-01
 Coeff:      0.107D+01
 Gap=     0.614 Goal=   None    Shift=    0.000
 RMSDP=7.80D-09 MaxDP=1.77D-07 DE=-1.46D-11 OVMax= 3.26D-07

 SCF Done:  E(RHF) =  -422.995973281     A.U. after   13 cycles
            NFock= 13  Conv=0.78D-08     -V/T= 2.0023
 KE= 4.220255853442D+02 PE=-1.957524717342D+03 EE= 6.286729506772D+02
 Leave Link  502 at Sun Sep 19 20:02:53 2021, MaxMem=   524288000 cpu:              12.8 elap:              13.1
 (Enter /opt/gaussian/g16_legacy/l801.exe)
 ExpMin= 1.61D-01 ExpMax= 5.48D+03 ExpMxC= 8.25D+02 IAcc=3 IRadAn=         5 AccDes= 0.00D+00
 HarFok:  IExCor=  205 AccDes= 0.00D+00 IRadAn=         5 IDoV=-2 UseB2=F ITyADJ=14
 ICtDFT= 12500011 ScaDFX=  1.000000  1.000000  1.000000  1.000000
 Largest valence mixing into a core orbital is  2.11D-04
 Largest core mixing into a valence orbital is  3.28D-05
 Range of M.O.s used for correlation:    10   205
 NBasis=   205 NAE=    36 NBE=    36 NFC=     9 NFV=     0
 NROrb=    196 NOA=    27 NOB=    27 NVA=   169 NVB=   169
 Leave Link  801 at Sun Sep 19 20:02:54 2021, MaxMem=   524288000 cpu:               0.7 elap:               1.0
 (Enter /opt/gaussian/g16_legacy/l906.exe)
 Frozen-core derivative calculation, NFC=   9 NFV=   0.
 FulOut=F Deriv=T AODrv=T NAtomX=    23
   MMem=         130  MDisk=          27 MDiskD=          27
  W3Min=     1512900 MinDsk=     1927595 NBas6D=         205
 NBas2D=       21400    NTT=       21115    LW2=     2040000
    MDV=   523793010 MDiskM=       35351 NBas2p=       19371
 Fully direct method using O(ONN) memory.
 IMap=   1   2   3   4   5   6   7   8   9  10  11  12  13  14  15  16  17  18  19  20
 IMap=  21  22  23  24  25  26  27  28  29  30  31  32  33  34  35  36
 JobTyp=1 Pass  1:  I=  10 to  36 NPSUse=  1 ParTrn=F ParDer=F DoDerP=T.
 Spin components of T(2) and E(2):
     alpha-alpha T2 =       0.5284634684D-01 E2=     -0.1651290769D+00
     alpha-beta  T2 =       0.3173970559D+00 E2=     -0.1030712801D+01
     beta-beta   T2 =       0.5284634684D-01 E2=     -0.1651290769D+00
 The integrals were generated   1 times.
 ANorm=    0.1192933254D+01
 E2 =    -0.1360970955D+01 EUMP2 =    -0.42435694423600D+03
 Leave Link  906 at Sun Sep 19 20:04:32 2021, MaxMem=   524288000 cpu:              97.7 elap:              98.0
 (Enter /opt/gaussian/g16_legacy/l1002.exe)
 Minotr:  Closed shell wavefunction.
          Computing MP2/KS-MP2 derivatives.
          Using Z-Vector for PSCF gradient.
          Skipping F1 and S1 gradient terms here.
          IDoAtm=11111111111111111111111
          Frozen-core window.
          Direct CPHF calculation.
          Differentiating once with respect to electric field.
                with respect to dipole field.
          Differentiating once with respect to nuclear coordinates.
          Requested convergence is 1.0D-10 RMS, and 1.0D-09 maximum.
          NewPWx=F KeepS1=T KeepF1=T KeepIn=T MapXYZ=F SortEE=F KeepMc=T.
 Keep R1 ints in memory in canonical form, NReq=227306992.
 FoFCou: FMM=F IPFlag=           0 FMFlag=           0 FMFlg1=           0
         NFxFlg=           0 DoJE=F BraDBF=F KetDBF=F FulRan=T
         wScrn=  0.000000 ICntrl=       600 IOpCl=  0 I1Cent=           0 NGrid=           0
         NMat0=    1 NMatS0=  21115 NMatT0=    0 NMatD0=    1 NMtDS0=    0 NMtDT0=    0
 Symmetry not used in FoFCou.
 Two-electron integral symmetry not used.
          MDV=     524288000 using IRadAn=       5.
          Solving linear equations separately, MaxMat=       0.
          There are     1 degrees of freedom in the 1st order CPHF.  IDoFFX=0 NUNeed=     1.
 LinEq1:  Iter=  0 NonCon=     1 RMS=3.71D-03 Max=1.08D-01 NDo=     1
 AX will form     1 AO Fock derivatives at one time.
 LinEq1:  Iter=  1 NonCon=     1 RMS=1.19D-03 Max=1.85D-02 NDo=     1
 LinEq1:  Iter=  2 NonCon=     1 RMS=3.72D-04 Max=7.79D-03 NDo=     1
 LinEq1:  Iter=  3 NonCon=     1 RMS=1.51D-04 Max=3.32D-03 NDo=     1
 LinEq1:  Iter=  4 NonCon=     1 RMS=4.75D-05 Max=5.55D-04 NDo=     1
 LinEq1:  Iter=  5 NonCon=     1 RMS=2.08D-05 Max=3.15D-04 NDo=     1
 LinEq1:  Iter=  6 NonCon=     1 RMS=5.23D-06 Max=1.26D-04 NDo=     1
 LinEq1:  Iter=  7 NonCon=     1 RMS=1.62D-06 Max=3.64D-05 NDo=     1
 LinEq1:  Iter=  8 NonCon=     1 RMS=5.79D-07 Max=2.22D-05 NDo=     1
 LinEq1:  Iter=  9 NonCon=     1 RMS=1.61D-07 Max=4.71D-06 NDo=     1
 LinEq1:  Iter= 10 NonCon=     1 RMS=4.66D-08 Max=8.60D-07 NDo=     1
 LinEq1:  Iter= 11 NonCon=     1 RMS=1.38D-08 Max=1.81D-07 NDo=     1
 LinEq1:  Iter= 12 NonCon=     1 RMS=3.80D-09 Max=8.59D-08 NDo=     1
 LinEq1:  Iter= 13 NonCon=     1 RMS=1.08D-09 Max=2.56D-08 NDo=     1
 LinEq1:  Iter= 14 NonCon=     1 RMS=2.63D-10 Max=3.94D-09 NDo=     1
 LinEq1:  Iter= 15 NonCon=     0 RMS=6.88D-11 Max=5.55D-10 NDo=     1
 Linear equations converged to 1.000D-10 1.000D-09 after    15 iterations.
 End of Minotr F.D. properties file   721 does not exist.
 End of Minotr F.D. properties file   722 does not exist.
 End of Minotr F.D. properties file   788 does not exist.
 Leave Link 1002 at Sun Sep 19 20:04:47 2021, MaxMem=   524288000 cpu:              14.6 elap:              14.6
 (Enter /opt/gaussian/g16_legacy/l601.exe)
 Copying SCF densities to generalized density rwf, IOpCl= 0 IROHF=0.

 **********************************************************************

            Population analysis using the SCF density.

 **********************************************************************

 Orbital symmetries:
       Occupied  (A) (A) (A) (A) (A) (A) (A) (A) (A) (A) (A) (A)
                 (A) (A) (A) (A) (A) (A) (A) (A) (A) (A) (A) (A)
                 (A) (A) (A) (A) (A) (A) (A) (A) (A) (A) (A) (A)
       Virtual   (A) (A) (A) (A) (A) (A) (A) (A) (A) (A) (A) (A)
                 (A) (A) (A) (A) (A) (A) (A) (A) (A) (A) (A) (A)
                 (A) (A) (A) (A) (A) (A) (A) (A) (A) (A) (A) (A)
                 (A) (A) (A) (A) (A) (A) (A) (A) (A) (A) (A) (A)
                 (A) (A) (A) (A) (A) (A) (A) (A) (A) (A) (A) (A)
                 (A) (A) (A) (A) (A) (A) (A) (A) (A) (A) (A) (A)
                 (A) (A) (A) (A) (A) (A) (A) (A) (A) (A) (A) (A)
                 (A) (A) (A) (A) (A) (A) (A) (A) (A) (A) (A) (A)
                 (A) (A) (A) (A) (A) (A) (A) (A) (A) (A) (A) (A)
                 (A) (A) (A) (A) (A) (A) (A) (A) (A) (A) (A) (A)
                 (A) (A) (A) (A) (A) (A) (A) (A) (A) (A) (A) (A)
                 (A) (A) (A) (A) (A) (A) (A) (A) (A) (A) (A) (A)
                 (A) (A) (A) (A) (A) (A) (A) (A) (A) (A) (A) (A)
                 (A) (A) (A) (A) (A) (A) (A) (A) (A) (A) (A) (A)
                 (A)
 The electronic state is 1-A.
 Alpha  occ. eigenvalues --  -20.60540 -20.55003 -11.38540 -11.28947 -11.23965
 Alpha  occ. eigenvalues --  -11.22766 -11.22145 -11.21845 -11.21523  -1.44605
 Alpha  occ. eigenvalues --   -1.34869  -1.09061  -1.01957  -1.01544  -0.92631
 Alpha  occ. eigenvalues --   -0.85278  -0.80703  -0.75006  -0.68807  -0.66391
 Alpha  occ. eigenvalues --   -0.65466  -0.62981  -0.60115  -0.58555  -0.57167
 Alpha  occ. eigenvalues --   -0.56637  -0.55790  -0.53722  -0.51747  -0.50221
 Alpha  occ. eigenvalues --   -0.49854  -0.48766  -0.47537  -0.45776  -0.44088
 Alpha  occ. eigenvalues --   -0.43114
 Alpha virt. eigenvalues --    0.18318   0.21988   0.24954   0.26416   0.26749
 Alpha virt. eigenvalues --    0.28357   0.30017   0.30406   0.30657   0.32675
 Alpha virt. eigenvalues --    0.32883   0.33664   0.34703   0.36281   0.36803
 Alpha virt. eigenvalues --    0.38959   0.39637   0.39927   0.42734   0.43207
 Alpha virt. eigenvalues --    0.48210   0.49725   0.54724   0.68701   0.71062
 Alpha virt. eigenvalues --    0.71766   0.73958   0.75239   0.75611   0.77700
 Alpha virt. eigenvalues --    0.78622   0.80268   0.82241   0.83809   0.88437
 Alpha virt. eigenvalues --    0.89618   0.91718   0.93745   0.94340   0.98468
 Alpha virt. eigenvalues --    1.00744   1.02285   1.07401   1.08499   1.09596
 Alpha virt. eigenvalues --    1.09966   1.11032   1.11770   1.12856   1.12995
 Alpha virt. eigenvalues --    1.13985   1.15155   1.15989   1.16255   1.17994
 Alpha virt. eigenvalues --    1.18899   1.21021   1.22142   1.22928   1.26951
 Alpha virt. eigenvalues --    1.28160   1.31733   1.36606   1.38835   1.41595
 Alpha virt. eigenvalues --    1.44251   1.46651   1.54061   1.56915   1.66139
 Alpha virt. eigenvalues --    1.69038   1.69878   1.70952   1.74646   1.77292
 Alpha virt. eigenvalues --    1.80049   1.81948   1.83982   1.91284   1.96130
 Alpha virt. eigenvalues --    1.98801   2.01097   2.02719   2.05717   2.07499
 Alpha virt. eigenvalues --    2.09651   2.11792   2.15133   2.17143   2.17792
 Alpha virt. eigenvalues --    2.19544   2.23265   2.25941   2.29908   2.32086
 Alpha virt. eigenvalues --    2.33511   2.34127   2.35033   2.36262   2.36832
 Alpha virt. eigenvalues --    2.38064   2.39831   2.40165   2.42206   2.43168
 Alpha virt. eigenvalues --    2.44560   2.48240   2.49487   2.52501   2.56152
 Alpha virt. eigenvalues --    2.57115   2.58391   2.59277   2.60022   2.63242
 Alpha virt. eigenvalues --    2.65977   2.70291   2.70919   2.75548   2.79665
 Alpha virt. eigenvalues --    2.82315   2.85995   2.86637   2.92012   2.94391
 Alpha virt. eigenvalues --    2.95676   2.97148   3.00710   3.03064   3.04002
 Alpha virt. eigenvalues --    3.05659   3.10249   3.11118   3.12353   3.15423
 Alpha virt. eigenvalues --    3.20149   3.21102   3.22763   3.23586   3.24173
 Alpha virt. eigenvalues --    3.25620   3.27244   3.31257   3.33467   3.44958
 Alpha virt. eigenvalues --    3.49373   3.55735   3.58023   3.60613   3.66810
 Alpha virt. eigenvalues --    3.71167   3.72775   3.76913   3.77670   3.81513
 Alpha virt. eigenvalues --    3.81930   3.83084   3.87402   3.92295   3.94836
 Alpha virt. eigenvalues --    4.46818   4.58979   4.66698   4.73629   4.83915
 Alpha virt. eigenvalues --    4.98861   5.01319   5.06160   5.14412
          Condensed to atoms (all electrons):
               1          2          3          4          5          6
     1  C    4.941641   0.401962   0.404774   0.404677   0.323389  -0.044619
     2  H    0.401962   0.588703  -0.028881  -0.029895  -0.037840   0.004472
     3  H    0.404774  -0.028881   0.561139  -0.028739  -0.037409  -0.003137
     4  H    0.404677  -0.029895  -0.028739   0.581983  -0.037934  -0.003605
     5  C    0.323389  -0.037840  -0.037409  -0.037934   4.990227   0.410496
     6  H   -0.044619   0.004472  -0.003137  -0.003605   0.410496   0.579453
     7  H   -0.041410  -0.002986   0.004275  -0.003649   0.407545  -0.027719
     8  C   -0.051553  -0.004885  -0.005035   0.004418   0.362017  -0.039579
     9  H    0.004382  -0.000109   0.000024  -0.000065  -0.048203  -0.004470
    10  C   -0.004890   0.000680   0.000211  -0.000057  -0.058790   0.004609
    11  H   -0.000062   0.000062  -0.000026   0.000001   0.003857  -0.000073
    12  H    0.000968  -0.002666   0.000283   0.000027  -0.005733  -0.000121
    13  C   -0.000135  -0.000046   0.000025  -0.000007  -0.000946  -0.000066
    14  H    0.000229   0.000615  -0.000020  -0.000009  -0.000001   0.000038
    15  H   -0.000022   0.000005   0.000001   0.000000  -0.000039   0.000002
    16  H    0.000061  -0.000026  -0.000001   0.000001  -0.000251  -0.000034
    17  O   -0.000442   0.000055   0.003280  -0.000018  -0.047370   0.000807
    18  C   -0.000233  -0.000007  -0.000000   0.000004   0.003180   0.000012
    19  O   -0.000007   0.000000   0.000003   0.000000   0.000240   0.000002
    20  C   -0.000006  -0.000000   0.000004  -0.000000  -0.000092  -0.000023
    21  H    0.000000  -0.000000   0.000003  -0.000000  -0.000004   0.000000
    22  H    0.000003   0.000000   0.000009  -0.000000  -0.000008   0.000006
    23  H    0.000000  -0.000000  -0.000000   0.000000   0.000002   0.000000
               7          8          9         10         11         12
     1  C   -0.041410  -0.051553   0.004382  -0.004890  -0.000062   0.000968
     2  H   -0.002986  -0.004885  -0.000109   0.000680   0.000062  -0.002666
     3  H    0.004275  -0.005035   0.000024   0.000211  -0.000026   0.000283
     4  H   -0.003649   0.004418  -0.000065  -0.000057   0.000001   0.000027
     5  C    0.407545   0.362017  -0.048203  -0.058790   0.003857  -0.005733
     6  H   -0.027719  -0.039579  -0.004470   0.004609  -0.000073  -0.000121
     7  H    0.583928  -0.037179  -0.001394  -0.001696  -0.000066   0.000372
     8  C   -0.037179   4.802040   0.423571   0.356555  -0.034389  -0.036048
     9  H   -0.001394   0.423571   0.547955  -0.046882  -0.003763   0.004085
    10  C   -0.001696   0.356555  -0.046882   5.015184   0.413788   0.402463
    11  H   -0.000066  -0.034389  -0.003763   0.413788   0.548279  -0.033391
    12  H    0.000372  -0.036048   0.004085   0.402463  -0.033391   0.592331
    13  C   -0.000908  -0.050893   0.000384   0.321551  -0.037470  -0.038411
    14  H   -0.002044  -0.004183   0.000117  -0.039565   0.004191  -0.004095
    15  H    0.000067   0.004036  -0.000138  -0.035075  -0.004141  -0.002772
    16  H    0.000307  -0.003416   0.002539  -0.041287  -0.003080   0.004440
    17  O    0.002483   0.132788  -0.029572  -0.041231  -0.003382   0.000541
    18  C   -0.000045  -0.019234  -0.006543  -0.003826   0.002915   0.000157
    19  O    0.000006  -0.000930   0.007562  -0.004622   0.003969   0.000140
    20  C    0.000003   0.004413   0.000228  -0.000453   0.000102  -0.000016
    21  H   -0.000000  -0.000248  -0.000004   0.000106  -0.000038  -0.000007
    22  H    0.000000  -0.000179  -0.000028   0.000012  -0.000001   0.000000
    23  H   -0.000000  -0.000123   0.000010   0.000009   0.000002   0.000000
              13         14         15         16         17         18
     1  C   -0.000135   0.000229  -0.000022   0.000061  -0.000442  -0.000233
     2  H   -0.000046   0.000615   0.000005  -0.000026   0.000055  -0.000007
     3  H    0.000025  -0.000020   0.000001  -0.000001   0.003280  -0.000000
     4  H   -0.000007  -0.000009   0.000000   0.000001  -0.000018   0.000004
     5  C   -0.000946  -0.000001  -0.000039  -0.000251  -0.047370   0.003180
     6  H   -0.000066   0.000038   0.000002  -0.000034   0.000807   0.000012
     7  H   -0.000908  -0.002044   0.000067   0.000307   0.002483  -0.000045
     8  C   -0.050893  -0.004183   0.004036  -0.003416   0.132788  -0.019234
     9  H    0.000384   0.000117  -0.000138   0.002539  -0.029572  -0.006543
    10  C    0.321551  -0.039565  -0.035075  -0.041287  -0.041231  -0.003826
    11  H   -0.037470   0.004191  -0.004141  -0.003080  -0.003382   0.002915
    12  H   -0.038411  -0.004095  -0.002772   0.004440   0.000541   0.000157
    13  C    4.941095   0.402544   0.404205   0.402827   0.002494   0.000054
    14  H    0.402544   0.591538  -0.029174  -0.031062  -0.000026  -0.000000
    15  H    0.404205  -0.029174   0.570551  -0.027483  -0.000048  -0.000005
    16  H    0.402827  -0.031062  -0.027483   0.577167  -0.000009  -0.000009
    17  O    0.002494  -0.000026  -0.000048  -0.000009   8.537656   0.254434
    18  C    0.000054  -0.000000  -0.000005  -0.000009   0.254434   4.161365
    19  O   -0.000061  -0.000003   0.000001   0.000027  -0.069295   0.556985
    20  C    0.000002  -0.000000  -0.000000  -0.000000  -0.093401   0.374607
    21  H   -0.000000   0.000000   0.000000  -0.000000   0.001800  -0.030624
    22  H    0.000000  -0.000000   0.000000   0.000000   0.002543  -0.031429
    23  H   -0.000000   0.000000   0.000000   0.000000   0.003206  -0.038592
              19         20         21         22         23
     1  C   -0.000007  -0.000006   0.000000   0.000003   0.000000
     2  H    0.000000  -0.000000  -0.000000   0.000000  -0.000000
     3  H    0.000003   0.000004   0.000003   0.000009  -0.000000
     4  H    0.000000  -0.000000  -0.000000  -0.000000   0.000000
     5  C    0.000240  -0.000092  -0.000004  -0.000008   0.000002
     6  H    0.000002  -0.000023   0.000000   0.000006   0.000000
     7  H    0.000006   0.000003  -0.000000   0.000000  -0.000000
     8  C   -0.000930   0.004413  -0.000248  -0.000179  -0.000123
     9  H    0.007562   0.000228  -0.000004  -0.000028   0.000010
    10  C   -0.004622  -0.000453   0.000106   0.000012   0.000009
    11  H    0.003969   0.000102  -0.000038  -0.000001   0.000002
    12  H    0.000140  -0.000016  -0.000007   0.000000   0.000000
    13  C   -0.000061   0.000002  -0.000000   0.000000  -0.000000
    14  H   -0.000003  -0.000000   0.000000  -0.000000   0.000000
    15  H    0.000001  -0.000000   0.000000   0.000000   0.000000
    16  H    0.000027  -0.000000  -0.000000   0.000000   0.000000
    17  O   -0.069295  -0.093401   0.001800   0.002543   0.003206
    18  C    0.556985   0.374607  -0.030624  -0.031429  -0.038592
    19  O    8.152936  -0.064457   0.000716   0.001634   0.002732
    20  C   -0.064457   5.011409   0.389399   0.386966   0.395875
    21  H    0.000716   0.389399   0.524194  -0.019664  -0.021646
    22  H    0.001634   0.386966  -0.019664   0.532328  -0.024313
    23  H    0.002732   0.395875  -0.021646  -0.024313   0.525580
 Mulliken charges:
               1
     1  C   -0.338706
     2  H    0.110786
     3  H    0.129215
     4  H    0.112866
     5  C   -0.226334
     6  H    0.123549
     7  H    0.120110
     8  C    0.198035
     9  H    0.150312
    10  C   -0.236795
    11  H    0.142716
    12  H    0.117453
    13  C   -0.346238
    14  H    0.110909
    15  H    0.120031
    16  H    0.119288
    17  O   -0.657292
    18  C    0.776834
    19  O   -0.587578
    20  C   -0.404558
    21  H    0.156016
    22  H    0.152123
    23  H    0.157257
 Sum of Mulliken charges =  -0.00000
 Mulliken charges with hydrogens summed into heavy atoms:
               1
     1  C    0.014161
     5  C    0.017325
     8  C    0.348347
    10  C    0.023374
    13  C    0.003989
    17  O   -0.657292
    18  C    0.776834
    19  O   -0.587578
    20  C    0.060838
 Electronic spatial extent (au):  <R**2>=           1547.7934
 Charge=             -0.0000 electrons
 Dipole moment (field-independent basis, Debye):
    X=             -0.7699    Y=              1.7009    Z=             -0.8048  Tot=              2.0331
 Quadrupole moment (field-independent basis, Debye-Ang):
   XX=            -54.0203   YY=            -60.3549   ZZ=            -56.2383
   XY=              5.6302   XZ=             -3.4140   YZ=              2.4880
 Traceless Quadrupole moment (field-independent basis, Debye-Ang):
   XX=              2.8508   YY=             -3.4837   ZZ=              0.6329
   XY=              5.6302   XZ=             -3.4140   YZ=              2.4880
 Octapole moment (field-independent basis, Debye-Ang**2):
  XXX=             24.4684  YYY=              2.6333  ZZZ=              0.7504  XYY=             -2.7277
  XXY=             13.9621  XXZ=             -5.7846  XZZ=              3.9700  YZZ=             -0.2766
  YYZ=             -1.0277  XYZ=              2.7332
 Hexadecapole moment (field-independent basis, Debye-Ang**3):
 XXXX=          -1251.5402 YYYY=           -595.1426 ZZZZ=           -182.5315 XXXY=             18.0191
 XXXZ=            -14.9907 YYYX=              7.0229 YYYZ=              6.2548 ZZZX=             -0.7609
 ZZZY=             -2.4984 XXYY=           -328.9739 XXZZ=           -246.3586 YYZZ=           -128.8770
 XXYZ=             10.4472 YYXZ=             -3.9190 ZZXY=              3.9831
 N-N= 4.838302080393D+02 E-N=-1.957524715627D+03  KE= 4.220255853442D+02
 No NMR shielding tensors so no spin-rotation constants.
 Leave Link  601 at Sun Sep 19 20:04:47 2021, MaxMem=   524288000 cpu:               0.1 elap:               0.2
 (Enter /opt/gaussian/g16_legacy/l701.exe)
 ... and contract with generalized density number  2.
 Compute integral first derivatives.
 Leave Link  701 at Sun Sep 19 20:04:48 2021, MaxMem=   524288000 cpu:               0.2 elap:               0.4
 (Enter /opt/gaussian/g16_legacy/l702.exe)
 L702 exits ... SP integral derivatives will be done elsewhere.
 Leave Link  702 at Sun Sep 19 20:04:48 2021, MaxMem=   524288000 cpu:               0.0 elap:               0.0
 (Enter /opt/gaussian/g16_legacy/l703.exe)
 Integral derivatives from FoFJK, PRISM(SPDF).
 Compute integral first derivatives, UseDBF=F ICtDFT=           0.
 Calling FoFJK, ICntrl=  10002127 FMM=F ISym2X=0 I1Cent= 0 IOpClX= 0 NMat=1 NMatS=1 NMatT=0.
 FoFJK:  IHMeth= 1 ICntrl=10002127 DoSepK=F KAlg= 0 I1Cent=           0 FoldK=F
 IRaf=         0 NMat=       1 IRICut=       1 DoRegI=T DoRafI=F ISym2E= 0 IDoP0=0 IntGTp=1.
 FoFCou: FMM=F IPFlag=           0 FMFlag=      100000 FMFlg1=         800
         NFxFlg=           0 DoJE=F BraDBF=F KetDBF=F FulRan=T
         wScrn=  0.000000 ICntrl=  10002127 IOpCl=  0 I1Cent=           0 NGrid=           0
         NMat0=    1 NMatS0=      1 NMatT0=    0 NMatD0=    1 NMtDS0=    0 NMtDT0=    0
 Symmetry not used in FoFCou.
 Leave Link  703 at Sun Sep 19 20:05:01 2021, MaxMem=   524288000 cpu:              13.6 elap:              13.8
 (Enter /opt/gaussian/g16_legacy/l716.exe)
 Dipole        =-3.22918609D-01 5.37842175D-01-2.58068270D-01
 ***** Axes restored to original set *****
 -------------------------------------------------------------------
 Center     Atomic                   Forces (Hartrees/Bohr)
 Number     Number              X              Y              Z
 -------------------------------------------------------------------
      1        6          -0.002641423   -0.001507928    0.004345647
      2        1          -0.000334404   -0.002129115   -0.001841233
      3        1          -0.000082134    0.004079953   -0.000315038
      4        1           0.003179580   -0.000104630    0.000765546
      5        6           0.002040606   -0.007832601    0.000620751
      6        1           0.003393243    0.003981979    0.000361975
      7        1           0.005539694   -0.001386303   -0.000480411
      8        6          -0.008459835    0.014960833    0.002290634
      9        1           0.004225460   -0.002011449    0.004176146
     10        6           0.006893994   -0.003300057    0.000787180
     11        1          -0.004193588   -0.002269244   -0.005118333
     12        1          -0.002895988   -0.001278065   -0.004146193
     13        6          -0.003185532    0.004500769    0.001296134
     14        1           0.002918085    0.000918328   -0.000814752
     15        1          -0.001698597   -0.001370383   -0.003474372
     16        1          -0.001352300   -0.001111420    0.002596108
     17        8           0.000316682   -0.001139739   -0.003048715
     18        6           0.007715366    0.004777050   -0.001972494
     19        8          -0.010551405   -0.001964490    0.003134587
     20        6           0.007184013   -0.007767861   -0.005215388
     21        1          -0.003459926   -0.001892394   -0.003204267
     22        1           0.000327965    0.001322867    0.006292740
     23        1          -0.004879557    0.002523899    0.002963748
 -------------------------------------------------------------------
 Cartesian Forces:  Max     0.014960833 RMS     0.004172231
 Leave Link  716 at Sun Sep 19 20:05:02 2021, MaxMem=   524288000 cpu:               0.0 elap:               0.2
 (Enter /opt/gaussian/g16_legacy/l103.exe)

 GradGradGradGradGradGradGradGradGradGradGradGradGradGradGradGradGradGrad
 Berny optimization.
 FormGI is forming the generalized inverse of G from B-inverse, IUseBI=4.
 Internal  Forces:  Max     0.010559157 RMS     0.002984149
 Search for a local minimum.
 Step number   1 out of a maximum of  119
 All quantities printed in internal units (Hartrees-Bohrs-Radians)
 RMS Force = .29841D-02 SwitMx=.10000D-02 MixMth= 1
 Mixed Optimization -- RFO/linear search
 Second derivative matrix not updated -- first step.
 ITU=  0
     Eigenvalues ---    0.00251   0.00264   0.00460   0.00508   0.00795
     Eigenvalues ---    0.01106   0.01160   0.02201   0.03327   0.03384
     Eigenvalues ---    0.04054   0.04758   0.04786   0.04794   0.05468
     Eigenvalues ---    0.05543   0.05712   0.05739   0.07425   0.07473
     Eigenvalues ---    0.07609   0.08575   0.08685   0.12380   0.12461
     Eigenvalues ---    0.16000   0.16000   0.16000   0.16000   0.16000
     Eigenvalues ---    0.16000   0.16000   0.16000   0.16000   0.17035
     Eigenvalues ---    0.19642   0.21858   0.21962   0.24995   0.25000
     Eigenvalues ---    0.25000   0.28617   0.28702   0.30067   0.30418
     Eigenvalues ---    0.32606   0.33932   0.33942   0.33986   0.34115
     Eigenvalues ---    0.34224   0.34243   0.34293   0.34301   0.34308
     Eigenvalues ---    0.34368   0.34385   0.34450   0.34463   0.34545
     Eigenvalues ---    0.38999   0.52644   0.93406
 RFO step:  Lambda=-5.12124520D-03 EMin= 2.51368010D-03
 Linear search not attempted -- first point.
 Iteration  1 RMS(Cart)=  0.05018302 RMS(Int)=  0.00083630
 Iteration  2 RMS(Cart)=  0.00105062 RMS(Int)=  0.00025185
 Iteration  3 RMS(Cart)=  0.00000082 RMS(Int)=  0.00025185
 ITry= 1 IFail=0 DXMaxC= 1.77D-01 DCOld= 1.00D+10 DXMaxT= 3.00D-01 DXLimC= 3.00D+00 Rises=F
 Variable       Old X    -DE/DX   Delta X   Delta X   Delta X     New X
                                 (Linear)    (Quad)   (Total)
    R1        2.06577  -0.00274   0.00000  -0.00783  -0.00783   2.05794
    R2        2.06714  -0.00381   0.00000  -0.01092  -0.01092   2.05622
    R3        2.06839  -0.00323   0.00000  -0.00929  -0.00929   2.05910
    R4        2.87829   0.00218   0.00000   0.00713   0.00713   2.88543
    R5        2.07353  -0.00329   0.00000  -0.00952  -0.00952   2.06401
    R6        2.07136  -0.00361   0.00000  -0.01041  -0.01041   2.06095
    R7        2.90810  -0.01056   0.00000  -0.03625  -0.03625   2.87185
    R8        2.07429  -0.00319   0.00000  -0.00925  -0.00925   2.06503
    R9        2.90628  -0.01008   0.00000  -0.03452  -0.03452   2.87176
   R10        2.72936   0.00223   0.00000   0.00565   0.00565   2.73501
   R11        2.07445  -0.00438   0.00000  -0.01273  -0.01273   2.06172
   R12        2.06954  -0.00231   0.00000  -0.00664  -0.00664   2.06291
   R13        2.87137   0.00393   0.00000   0.01271   0.01271   2.88408
   R14        2.06686  -0.00296   0.00000  -0.00848  -0.00848   2.05838
   R15        2.06922  -0.00400   0.00000  -0.01151  -0.01151   2.05771
   R16        2.06825  -0.00307   0.00000  -0.00881  -0.00881   2.05944
   R17        2.57288  -0.00389   0.00000  -0.00731  -0.00731   2.56556
   R18        2.31402  -0.00841   0.00000  -0.00895  -0.00895   2.30507
   R19        2.83049   0.00521   0.00000   0.01574   0.01574   2.84622
   R20        2.06420  -0.00312   0.00000  -0.00889  -0.00889   2.05530
   R21        2.06556  -0.00375   0.00000  -0.01073  -0.01073   2.05483
   R22        2.06814  -0.00587   0.00000  -0.01686  -0.01686   2.05128
    A1        1.89526  -0.00045   0.00000  -0.00849  -0.00851   1.88675
    A2        1.87425  -0.00040   0.00000   0.00164   0.00158   1.87584
    A3        1.95089   0.00082   0.00000   0.00390   0.00386   1.95475
    A4        1.88160   0.00040   0.00000   0.00439   0.00442   1.88602
    A5        1.94197  -0.00127   0.00000  -0.00988  -0.00988   1.93209
    A6        1.91729   0.00092   0.00000   0.00873   0.00872   1.92601
    A7        1.87668   0.00300   0.00000   0.03566   0.03552   1.91220
    A8        1.90445   0.00262   0.00000   0.02274   0.02247   1.92692
    A9        2.00424  -0.00070   0.00000  -0.00283  -0.00267   2.00157
   A10        1.86123  -0.00009   0.00000  -0.00045  -0.00160   1.85964
   A11        1.89277  -0.00205   0.00000  -0.02025  -0.02038   1.87239
   A12        1.91872  -0.00266   0.00000  -0.03355  -0.03359   1.88513
   A13        1.86674   0.00385   0.00000   0.04367   0.04354   1.91028
   A14        1.99561   0.00183   0.00000   0.01014   0.00989   2.00550
   A15        1.88244  -0.00636   0.00000  -0.04260  -0.04238   1.84006
   A16        1.91318  -0.00308   0.00000  -0.00978  -0.01034   1.90284
   A17        1.90621  -0.00037   0.00000  -0.01490  -0.01442   1.89179
   A18        1.89798   0.00397   0.00000   0.01193   0.01192   1.90990
   A19        1.90855  -0.00334   0.00000  -0.03232  -0.03224   1.87631
   A20        1.92823  -0.00212   0.00000  -0.02681  -0.02685   1.90138
   A21        1.98241   0.00054   0.00000  -0.00461  -0.00457   1.97784
   A22        1.82800   0.00207   0.00000   0.03424   0.03352   1.86151
   A23        1.88836   0.00233   0.00000   0.02560   0.02536   1.91371
   A24        1.92142   0.00069   0.00000   0.00774   0.00736   1.92878
   A25        1.94878   0.00117   0.00000   0.00730   0.00727   1.95605
   A26        1.91954   0.00102   0.00000   0.00764   0.00761   1.92715
   A27        1.93669   0.00011   0.00000  -0.00096  -0.00095   1.93574
   A28        1.87773  -0.00075   0.00000  -0.00137  -0.00143   1.87630
   A29        1.89445  -0.00102   0.00000  -0.00880  -0.00879   1.88566
   A30        1.88450  -0.00065   0.00000  -0.00437  -0.00436   1.88014
   A31        2.02369  -0.00149   0.00000  -0.00583  -0.00583   2.01786
   A32        2.19565  -0.00904   0.00000  -0.03509  -0.03545   2.16020
   A33        1.92376   0.00117   0.00000   0.00490   0.00453   1.92829
   A34        2.16352   0.00789   0.00000   0.03126   0.03088   2.19440
   A35        1.91486   0.00075   0.00000  -0.00164  -0.00168   1.91317
   A36        1.91967   0.00158   0.00000   0.00754   0.00744   1.92711
   A37        1.90635  -0.00175   0.00000  -0.00255  -0.00261   1.90374
   A38        1.93268  -0.00423   0.00000  -0.04109  -0.04116   1.89152
   A39        1.90017   0.00121   0.00000   0.01121   0.01120   1.91137
   A40        1.88967   0.00248   0.00000   0.02732   0.02721   1.91688
    D1       -3.11491  -0.00149   0.00000   0.00785   0.00768  -3.10724
    D2       -1.10262   0.00135   0.00000   0.03798   0.03821  -1.06441
    D3        1.06019  -0.00060   0.00000   0.00959   0.00952   1.06971
    D4        1.04606  -0.00058   0.00000   0.02302   0.02284   1.06890
    D5        3.05836   0.00225   0.00000   0.05315   0.05337   3.11173
    D6       -1.06202   0.00031   0.00000   0.02475   0.02468  -1.03734
    D7       -1.03618  -0.00087   0.00000   0.01813   0.01798  -1.01820
    D8        0.97611   0.00197   0.00000   0.04826   0.04851   1.02462
    D9        3.13892   0.00002   0.00000   0.01986   0.01982  -3.12445
   D10       -3.14124  -0.00023   0.00000  -0.00692  -0.00741   3.13454
   D11       -1.01989  -0.00022   0.00000   0.01846   0.01859  -1.00130
   D12        1.09343   0.00144   0.00000   0.00948   0.00961   1.10304
   D13        1.04272  -0.00212   0.00000  -0.03601  -0.03623   1.00649
   D14       -3.11912  -0.00211   0.00000  -0.01063  -0.01023  -3.12935
   D15       -1.00579  -0.00045   0.00000  -0.01962  -0.01921  -1.02500
   D16       -0.98602   0.00062   0.00000  -0.00548  -0.00602  -0.99204
   D17        1.13532   0.00063   0.00000   0.01990   0.01998   1.15531
   D18       -3.03453   0.00229   0.00000   0.01092   0.01100  -3.02353
   D19        3.09300  -0.00296   0.00000  -0.00279  -0.00268   3.09032
   D20        1.08990  -0.00235   0.00000  -0.01053  -0.01045   1.07946
   D21       -1.07904  -0.00201   0.00000   0.00366   0.00371  -1.07533
   D22       -1.09458   0.00098   0.00000   0.05315   0.05303  -1.04154
   D23       -3.09768   0.00158   0.00000   0.04540   0.04527  -3.05241
   D24        1.01656   0.00192   0.00000   0.05959   0.05943   1.07599
   D25        0.98828   0.00110   0.00000   0.03644   0.03652   1.02480
   D26       -1.01482   0.00170   0.00000   0.02870   0.02875  -0.98606
   D27        3.09942   0.00204   0.00000   0.04288   0.04291  -3.14085
   D28        2.70262  -0.00058   0.00000  -0.03116  -0.03090   2.67172
   D29        0.67982  -0.00148   0.00000  -0.05180  -0.05216   0.62766
   D30       -1.40740   0.00011   0.00000  -0.03826  -0.03816  -1.44555
   D31        1.13541  -0.00012   0.00000  -0.00173  -0.00173   1.13368
   D32       -3.06456   0.00037   0.00000   0.00627   0.00631  -3.05826
   D33       -0.98059   0.00029   0.00000   0.00516   0.00518  -0.97541
   D34       -3.02534  -0.00235   0.00000  -0.02757  -0.02779  -3.05313
   D35       -0.94213  -0.00186   0.00000  -0.01956  -0.01975  -0.96188
   D36        1.14185  -0.00194   0.00000  -0.02068  -0.02088   1.12097
   D37       -1.03721   0.00174   0.00000   0.03104   0.03122  -1.00600
   D38        1.04600   0.00223   0.00000   0.03905   0.03925   1.08525
   D39        3.12998   0.00215   0.00000   0.03793   0.03812  -3.11509
   D40       -0.01945  -0.00062   0.00000  -0.02869  -0.02785  -0.04730
   D41        3.09844   0.00041   0.00000   0.02108   0.02023   3.11867
   D42       -1.18336   0.00118   0.00000  -0.00418  -0.00448  -1.18784
   D43        0.94665  -0.00259   0.00000  -0.05159  -0.05188   0.89478
   D44        3.01827   0.00032   0.00000  -0.01532  -0.01555   3.00272
   D45        1.93506   0.00191   0.00000   0.04342   0.04366   1.97872
   D46       -2.21811  -0.00185   0.00000  -0.00400  -0.00374  -2.22185
   D47       -0.14649   0.00105   0.00000   0.03228   0.03259  -0.11390
         Item               Value     Threshold  Converged?
 Maximum Force            0.010559     0.000450     NO 
 RMS     Force            0.002984     0.000300     NO 
 Maximum Displacement     0.177277     0.001800     NO 
 RMS     Displacement     0.050187     0.001200     NO 
 Predicted change in Energy=-2.732359D-03
 Lowest energy point so far.  Saving SCF results.
 GradGradGradGradGradGradGradGradGradGradGradGradGradGradGradGradGradGrad

 Leave Link  103 at Sun Sep 19 20:05:02 2021, MaxMem=   524288000 cpu:               0.0 elap:               0.2
 (Enter /opt/gaussian/g16_legacy/l202.exe)
                          Input orientation:                          
 ---------------------------------------------------------------------
 Center     Atomic      Atomic             Coordinates (Angstroms)
 Number     Number       Type             X           Y           Z
 ---------------------------------------------------------------------
      1          6           0       -2.158947    1.079934    2.509816
      2          1           0       -2.050144    1.699761    3.398598
      3          1           0       -1.709089    0.110922    2.716255
      4          1           0       -3.225357    0.929009    2.344640
      5          6           0       -1.517154    1.722454    1.282339
      6          1           0       -1.679489    1.086210    0.409529
      7          1           0       -1.991936    2.679232    1.061932
      8          6           0       -0.020040    1.956472    1.398207
      9          1           0        0.349840    2.410175    0.475446
     10          6           0        0.403988    2.816089    2.577471
     11          1           0        1.494053    2.861516    2.575293
     12          1           0        0.113504    2.315808    3.503226
     13          6           0       -0.168632    4.230029    2.531310
     14          1           0       -1.254167    4.235171    2.621049
     15          1           0        0.230422    4.828356    3.348896
     16          1           0        0.095178    4.726210    1.597561
     17          8           0        0.566669    0.639678    1.526716
     18          6           0        1.845735    0.521572    1.087145
     19          8           0        2.470616    1.430861    0.566952
     20          6           0        2.350121   -0.880977    1.303834
     21          1           0        2.453829   -1.071128    2.369667
     22          1           0        1.649162   -1.603803    0.893283
     23          1           0        3.316036   -0.989253    0.820535
 ---------------------------------------------------------------------
                    Distance matrix (angstroms):
                    1          2          3          4          5
     1  C    0.000000
     2  H    1.089016   0.000000
     3  H    1.088106   1.762476   0.000000
     4  H    1.089628   1.756704   1.762507   0.000000
     5  C    1.526902   2.182463   2.165638   2.162404   0.000000
     6  H    2.154327   3.073819   2.504606   2.481749   1.092226
     7  H    2.163796   2.534316   3.068062   2.495986   1.090606
     8  C    2.564940   2.861606   2.827754   3.496494   1.519718
     9  H    3.493167   3.848302   3.814050   4.297647   2.147022
    10  C    3.096361   2.818369   3.435446   4.097246   2.562068
    11  H    4.064817   3.819534   4.224424   5.104960   3.469375
    12  H    2.770971   2.252073   2.966933   3.796514   2.818413
    13  C    3.726247   3.270250   4.401620   4.502793   3.109080
    14  H    3.284284   2.768838   4.150355   3.859106   2.859206
    15  H    4.523694   3.871893   5.139662   5.306208   4.119625
    16  H    4.382764   4.123777   5.080132   5.099295   3.423672
    17  O    2.930750   3.387540   2.621767   3.890009   2.361026
    18  C    4.286402   4.680686   3.931845   5.240541   3.576205
    19  O    5.032964   5.341142   4.881770   5.987999   4.061911
    20  C    5.062733   5.514579   4.410894   5.953594   4.661989
    21  H    5.091603   5.387235   4.341343   6.021157   4.975449
    22  H    4.931260   5.556528   4.188241   5.681770   4.608786
    23  H    6.091851   6.532464   5.482337   6.985159   5.561146
                    6          7          8          9         10
     6  H    0.000000
     7  H    1.749564   0.000000
     8  C    2.118635   2.126931   0.000000
     9  H    2.423923   2.429047   1.092769   0.000000
    10  C    3.468909   2.838316   1.519672   2.141543   0.000000
    11  H    4.232448   3.804682   2.120640   2.433576   1.091013
    12  H    3.781230   3.244206   2.139640   3.038455   1.091643
    13  C    4.082677   2.808644   2.544615   2.794147   1.526188
    14  H    3.871393   2.322950   2.865464   3.241460   2.182927
    15  H    5.127504   3.845492   3.480752   3.757469   2.162045
    16  H    4.220245   2.972046   2.779292   2.586119   2.168905
    17  O    2.548082   3.304885   1.447304   2.070469   2.422255
    18  C    3.633894   4.402709   2.374198   2.485699   3.092655
    19  O    4.167366   4.660237   2.677801   2.337760   3.198748
    20  C    4.572458   5.620237   3.698336   3.939421   4.367824
    21  H    5.057724   5.961560   4.028664   4.487128   4.399488
    22  H    4.306984   5.624093   3.964435   4.239675   4.891052
    23  H    5.425103   6.456827   4.487806   4.524767   5.103673
                   11         12         13         14         15
    11  H    0.000000
    12  H    1.750649   0.000000
    13  C    2.153900   2.165286   0.000000
    14  H    3.072741   2.516489   1.089250   0.000000
    15  H    2.462455   2.519997   1.088892   1.756597   0.000000
    16  H    2.527824   3.072773   1.089807   1.763344   1.759517
    17  O    2.626047   2.630848   3.800066   4.176192   4.580222
    18  C    2.795282   3.472370   4.460487   5.074749   5.125733
    19  O    2.652147   3.867920   4.319684   5.094848   4.929569
    20  C    4.044221   4.478752   5.828654   6.395383   6.424320
    21  H    4.053288   4.270060   5.916562   6.478368   6.380152
    22  H    4.774127   4.953120   6.326224   6.745970   7.029618
    23  H    4.607301   5.326956   6.504658   7.170998   7.053949
                   16         17         18         19         20
    16  H    0.000000
    17  O    4.114252   0.000000
    18  C    4.583007   1.357638   0.000000
    19  O    4.190964   2.274233   1.219788   0.000000
    20  C    6.050752   2.354309   1.506156   2.429426   0.000000
    21  H    6.306228   2.683058   2.133386   3.083831   1.087618
    22  H    6.555909   2.570260   2.143232   3.160770   1.087369
    23  H    6.606377   3.272786   2.124961   2.576042   1.085491
                   21         22         23
    21  H    0.000000
    22  H    1.763786   0.000000
    23  H    1.774799   1.778041   0.000000
 Stoichiometry    C7H14O2
 Framework group  C1[X(C7H14O2)]
 Deg. of freedom    63
 Full point group                 C1      NOp   1
 RotChk:  IX=0 Diff= 5.04D-02
 Largest Abelian subgroup         C1      NOp   1
 Largest concise Abelian subgroup C1      NOp   1
                         Standard orientation:                         
 ---------------------------------------------------------------------
 Center     Atomic      Atomic             Coordinates (Angstroms)
 Number     Number       Type             X           Y           Z
 ---------------------------------------------------------------------
      1          6           0       -1.828707    1.951036   -0.340586
      2          1           0       -2.373542    1.403192   -1.108035
[...]
    16  H    2.534039   3.071303   1.090372   1.763734   1.760320
    17  O    2.637267   2.614171   3.799824   4.168471   4.581738
    18  C    2.812524   3.455518   4.479587   5.087119   5.139204
    19  O    2.642130   3.843910   4.352325   5.132515   4.941057
    20  C    4.077618   4.462011   5.844635   6.394004   6.442203
    21  H    4.116571   4.226319   5.919157   6.435354   6.403301
    22  H    4.821638   4.990058   6.354715   6.765777   7.067308
    23  H    4.600233   5.272398   6.509407   7.167869   7.042228
                   16         17         18         19         20
    16  H    0.000000
    17  O    4.114546   0.000000
    18  C    4.616126   1.358557   0.000000
    19  O    4.251813   2.281035   1.219781   0.000000
    20  C    6.082231   2.349396   1.505227   2.426309   0.000000
    21  H    6.334789   2.620718   2.132541   3.110971   1.088242
    22  H    6.573773   2.597815   2.135071   3.130224   1.087918
    23  H    6.644535   3.274696   2.126824   2.573254   1.084816
                   21         22         23
    21  H    0.000000
    22  H    1.758037   0.000000
    23  H    1.780985   1.782628   0.000000
 Stoichiometry    C7H14O2
 Framework group  C1[X(C7H14O2)]
 Deg. of freedom    63
 Full point group                 C1      NOp   1
 RotChk:  IX=0 Diff= 8.53D-16
 Largest Abelian subgroup         C1      NOp   1
 Largest concise Abelian subgroup C1      NOp   1
                         Standard orientation:                         
 ---------------------------------------------------------------------
 Center     Atomic      Atomic             Coordinates (Angstroms)
 Number     Number       Type             X           Y           Z
 ---------------------------------------------------------------------
      1          6           0       -1.843835    1.928821   -0.348060
      2          1           0       -2.462381    1.376092   -1.053902
      3          1           0       -0.975736    2.310116   -0.882288
      4          1           0       -2.426366    2.778555    0.005471
      5          6           0       -1.407950    1.054949    0.822628
      6          1           0       -0.885175    1.663988    1.562501
      7          1           0       -2.279955    0.633888    1.327267
      8          6           0       -0.480579   -0.088095    0.437760
      9          1           0       -0.213912   -0.664472    1.326174
     10          6           0       -1.011665   -1.035978   -0.628444
     11          1           0       -0.243457   -1.788885   -0.806572
     12          1           0       -1.144455   -0.483380   -1.559846
     13          6           0       -2.313629   -1.719083   -0.221875
     14          1           0       -3.133760   -1.007317   -0.138181
     15          1           0       -2.598934   -2.468266   -0.958795
     16          1           0       -2.204154   -2.222682    0.739017
     17          8           0        0.734528    0.543963   -0.060554
     18          6           0        1.879576   -0.172899    0.083151
     19          8           0        1.939163   -1.279600    0.592589
     20          6           0        3.046542    0.597046   -0.474599
     21          1           0        2.887876    0.782112   -1.535186
     22          1           0        3.123330    1.561455    0.022979
     23          1           0        3.956788    0.025317   -0.328290
 ---------------------------------------------------------------------
 Rotational constants (GHZ):           2.3000568           1.0468525           0.8134202
 Leave Link  202 at Sun Sep 19 20:31:50 2021, MaxMem=   524288000 cpu:               0.0 elap:               0.0
 (Enter /opt/gaussian/g16_legacy/l601.exe)
 Copying SCF densities to generalized density rwf, IOpCl= 0 IROHF=0.

 **********************************************************************

            Population analysis using the SCF density.

 **********************************************************************

 Orbital symmetries:
       Occupied  (A) (A) (A) (A) (A) (A) (A) (A) (A) (A) (A) (A)
                 (A) (A) (A) (A) (A) (A) (A) (A) (A) (A) (A) (A)
                 (A) (A) (A) (A) (A) (A) (A) (A) (A) (A) (A) (A)
       Virtual   (A) (A) (A) (A) (A) (A) (A) (A) (A) (A) (A) (A)
                 (A) (A) (A) (A) (A) (A) (A) (A) (A) (A) (A) (A)
                 (A) (A) (A) (A) (A) (A) (A) (A) (A) (A) (A) (A)
                 (A) (A) (A) (A) (A) (A) (A) (A) (A) (A) (A) (A)
                 (A) (A) (A) (A) (A) (A) (A) (A) (A) (A) (A) (A)
                 (A) (A) (A) (A) (A) (A) (A) (A) (A) (A) (A) (A)
                 (A) (A) (A) (A) (A) (A) (A) (A) (A) (A) (A) (A)
                 (A) (A) (A) (A) (A) (A) (A) (A) (A) (A) (A) (A)
                 (A) (A) (A) (A) (A) (A) (A) (A) (A) (A) (A) (A)
                 (A) (A) (A) (A) (A) (A) (A) (A) (A) (A) (A) (A)
                 (A) (A) (A) (A) (A) (A) (A) (A) (A) (A) (A) (A)
                 (A) (A) (A) (A) (A) (A) (A) (A) (A) (A) (A) (A)
                 (A) (A) (A) (A) (A) (A) (A) (A) (A) (A) (A) (A)
                 (A) (A) (A) (A) (A) (A) (A) (A) (A) (A) (A) (A)
                 (A)
 The electronic state is 1-A.
 Alpha  occ. eigenvalues --  -20.60017 -20.54863 -11.38345 -11.28432 -11.23885
 Alpha  occ. eigenvalues --  -11.22407 -11.21937 -11.21773 -11.21366  -1.44477
 Alpha  occ. eigenvalues --   -1.34686  -1.09444  -1.01973  -1.01501  -0.92776
 Alpha  occ. eigenvalues --   -0.85775  -0.80460  -0.74945  -0.68976  -0.66300
 Alpha  occ. eigenvalues --   -0.65232  -0.63142  -0.60079  -0.58536  -0.57055
 Alpha  occ. eigenvalues --   -0.56579  -0.56288  -0.53619  -0.52011  -0.50314
 Alpha  occ. eigenvalues --   -0.50252  -0.48656  -0.47587  -0.46041  -0.44108
 Alpha  occ. eigenvalues --   -0.43075
 Alpha virt. eigenvalues --    0.18590   0.22100   0.25008   0.26521   0.27389
 Alpha virt. eigenvalues --    0.28310   0.30178   0.30902   0.31325   0.32684
 Alpha virt. eigenvalues --    0.33190   0.33658   0.34911   0.35971   0.36829
 Alpha virt. eigenvalues --    0.38586   0.39606   0.40014   0.42631   0.43620
 Alpha virt. eigenvalues --    0.48308   0.50289   0.54243   0.68814   0.70957
 Alpha virt. eigenvalues --    0.71402   0.74472   0.74869   0.75712   0.77947
 Alpha virt. eigenvalues --    0.79180   0.80279   0.82073   0.84432   0.87819
 Alpha virt. eigenvalues --    0.90519   0.93406   0.93717   0.94366   0.98840
 Alpha virt. eigenvalues --    1.01387   1.02449   1.07415   1.08504   1.09377
 Alpha virt. eigenvalues --    1.09850   1.11036   1.11957   1.13082   1.13769
 Alpha virt. eigenvalues --    1.14304   1.15261   1.16164   1.16321   1.18162
 Alpha virt. eigenvalues --    1.19108   1.21492   1.22269   1.23316   1.26964
 Alpha virt. eigenvalues --    1.27710   1.32342   1.37116   1.39779   1.42203
 Alpha virt. eigenvalues --    1.44220   1.47082   1.54225   1.57088   1.67060
 Alpha virt. eigenvalues --    1.68703   1.70135   1.71890   1.74699   1.76877
 Alpha virt. eigenvalues --    1.80136   1.82573   1.85247   1.92282   1.96404
 Alpha virt. eigenvalues --    1.98518   2.00743   2.03789   2.05715   2.08758
 Alpha virt. eigenvalues --    2.10370   2.12054   2.15452   2.16807   2.17827
 Alpha virt. eigenvalues --    2.20213   2.24104   2.27232   2.30530   2.32277
 Alpha virt. eigenvalues --    2.34185   2.35427   2.35902   2.36927   2.38049
 Alpha virt. eigenvalues --    2.39303   2.40903   2.41167   2.42594   2.44132
 Alpha virt. eigenvalues --    2.46162   2.48433   2.50081   2.53070   2.55890
 Alpha virt. eigenvalues --    2.57109   2.58654   2.59998   2.60300   2.64034
 Alpha virt. eigenvalues --    2.67011   2.70133   2.71646   2.76150   2.79877
 Alpha virt. eigenvalues --    2.82579   2.85555   2.87992   2.92953   2.94977
 Alpha virt. eigenvalues --    2.95585   2.98263   2.99876   3.02709   3.05037
 Alpha virt. eigenvalues --    3.06251   3.12311   3.12990   3.14796   3.16632
 Alpha virt. eigenvalues --    3.20545   3.21573   3.23464   3.24663   3.25691
 Alpha virt. eigenvalues --    3.26280   3.28272   3.32397   3.35101   3.45934
 Alpha virt. eigenvalues --    3.49448   3.57264   3.59723   3.62417   3.67702
 Alpha virt. eigenvalues --    3.71433   3.74710   3.78546   3.79228   3.82293
 Alpha virt. eigenvalues --    3.83312   3.84119   3.89396   3.93098   3.95412
 Alpha virt. eigenvalues --    4.47419   4.58136   4.67746   4.74469   4.84516
 Alpha virt. eigenvalues --    4.99258   5.01583   5.06535   5.16184
          Condensed to atoms (all electrons):
               1          2          3          4          5          6
     1  C    4.939052   0.402285   0.405720   0.405695   0.325817  -0.041183
     2  H    0.402285   0.587911  -0.029573  -0.029635  -0.036970   0.004212
     3  H    0.405720  -0.029573   0.557268  -0.027988  -0.039178  -0.002103
     4  H    0.405695  -0.029635  -0.027988   0.576250  -0.036934  -0.004094
     5  C    0.325817  -0.036970  -0.039178  -0.036934   4.982964   0.411952
     6  H   -0.041183   0.004212  -0.002103  -0.004094   0.411952   0.575086
     7  H   -0.039369  -0.003759   0.004248  -0.002584   0.407014  -0.027703
     8  C   -0.050966  -0.004545  -0.005861   0.004402   0.363942  -0.041789
     9  H    0.004150  -0.000121   0.000064  -0.000058  -0.044536  -0.004534
    10  C   -0.005068   0.000949  -0.000027  -0.000047  -0.058987   0.004935
    11  H   -0.000088   0.000063  -0.000041   0.000001   0.004314  -0.000094
    12  H    0.001266  -0.002673   0.000430   0.000033  -0.005798  -0.000149
    13  C   -0.000580  -0.000248   0.000061  -0.000002  -0.001297  -0.000068
    14  H    0.000008   0.000752  -0.000028  -0.000006   0.000231   0.000039
    15  H   -0.000023   0.000008   0.000002   0.000000  -0.000009   0.000002
    16  H    0.000110  -0.000036  -0.000002   0.000001  -0.000518  -0.000043
    17  O   -0.002738   0.000112   0.004182  -0.000018  -0.053524   0.000702
    18  C   -0.000226  -0.000006  -0.000007   0.000005   0.003268   0.000026
    19  O   -0.000012   0.000000   0.000005   0.000000   0.000343   0.000001
    20  C   -0.000010  -0.000000   0.000008  -0.000000  -0.000114  -0.000033
    21  H    0.000001  -0.000000   0.000010  -0.000000  -0.000007   0.000000
    22  H    0.000002   0.000000   0.000009  -0.000000  -0.000002   0.000009
    23  H    0.000000  -0.000000  -0.000000   0.000000   0.000002   0.000000
               7          8          9         10         11         12
     1  C   -0.039369  -0.050966   0.004150  -0.005068  -0.000088   0.001266
     2  H   -0.003759  -0.004545  -0.000121   0.000949   0.000063  -0.002673
     3  H    0.004248  -0.005861   0.000064  -0.000027  -0.000041   0.000430
     4  H   -0.002584   0.004402  -0.000058  -0.000047   0.000001   0.000033
     5  C    0.407014   0.363942  -0.044536  -0.058987   0.004314  -0.005798
     6  H   -0.027703  -0.041789  -0.004534   0.004935  -0.000094  -0.000149
     7  H    0.587846  -0.040740  -0.001359  -0.001829  -0.000084   0.000408
     8  C   -0.040740   4.819278   0.424725   0.357497  -0.037675  -0.039237
     9  H   -0.001359   0.424725   0.541022  -0.047548  -0.004854   0.004483
    10  C   -0.001829   0.357497  -0.047548   5.006789   0.414277   0.404248
    11  H   -0.000084  -0.037675  -0.004854   0.414277   0.542757  -0.029508
    12  H    0.000408  -0.039237   0.004483   0.404248  -0.029508   0.586335
    13  C   -0.000904  -0.052245   0.000181   0.322866  -0.035433  -0.037458
    14  H   -0.002146  -0.004292   0.000100  -0.038164   0.003887  -0.003936
    15  H    0.000072   0.004083  -0.000153  -0.033954  -0.003949  -0.002506
    16  H    0.000376  -0.003379   0.002529  -0.041596  -0.002455   0.004343
    17  O    0.002944   0.132198  -0.030449  -0.041209  -0.003107   0.000224
    18  C   -0.000050  -0.019163  -0.007170  -0.003319   0.002623   0.000116
    19  O    0.000007  -0.002826   0.008668  -0.004910   0.004601   0.000109
    20  C    0.000004   0.004183   0.000248  -0.000442   0.000109  -0.000029
    21  H   -0.000000  -0.000234  -0.000001   0.000085  -0.000038   0.000000
    22  H   -0.000000  -0.000191  -0.000029   0.000009  -0.000001   0.000001
    23  H   -0.000000  -0.000117   0.000008   0.000010   0.000001   0.000000
              13         14         15         16         17         18
     1  C   -0.000580   0.000008  -0.000023   0.000110  -0.002738  -0.000226
     2  H   -0.000248   0.000752   0.000008  -0.000036   0.000112  -0.000006
     3  H    0.000061  -0.000028   0.000002  -0.000002   0.004182  -0.000007
     4  H   -0.000002  -0.000006   0.000000   0.000001  -0.000018   0.000005
     5  C   -0.001297   0.000231  -0.000009  -0.000518  -0.053524   0.003268
     6  H   -0.000068   0.000039   0.000002  -0.000043   0.000702   0.000026
     7  H   -0.000904  -0.002146   0.000072   0.000376   0.002944  -0.000050
     8  C   -0.052245  -0.004292   0.004083  -0.003379   0.132198  -0.019163
     9  H    0.000181   0.000100  -0.000153   0.002529  -0.030449  -0.007170
    10  C    0.322866  -0.038164  -0.033954  -0.041596  -0.041209  -0.003319
    11  H   -0.035433   0.003887  -0.003949  -0.002455  -0.003107   0.002623
    12  H   -0.037458  -0.003936  -0.002506   0.004343   0.000224   0.000116
    13  C    4.941931   0.403269   0.404753   0.402730   0.002584   0.000064
    14  H    0.403269   0.587495  -0.029049  -0.031528  -0.000032  -0.000001
    15  H    0.404753  -0.029049   0.566914  -0.028091  -0.000046  -0.000004
    16  H    0.402730  -0.031528  -0.028091   0.579622  -0.000009  -0.000007
    17  O    0.002584  -0.000032  -0.000046  -0.000009   8.554337   0.256564
    18  C    0.000064  -0.000001  -0.000004  -0.000007   0.256564   4.158694
    19  O   -0.000016  -0.000003   0.000001   0.000009  -0.074111   0.561807
    20  C    0.000002  -0.000000  -0.000000  -0.000000  -0.093807   0.374703
    21  H   -0.000000   0.000000   0.000000  -0.000000   0.002244  -0.031341
    22  H    0.000000  -0.000000   0.000000   0.000000   0.002468  -0.030366
    23  H   -0.000000   0.000000   0.000000   0.000000   0.003267  -0.038480
              19         20         21         22         23
     1  C   -0.000012  -0.000010   0.000001   0.000002   0.000000
     2  H    0.000000  -0.000000  -0.000000   0.000000  -0.000000
     3  H    0.000005   0.000008   0.000010   0.000009  -0.000000
     4  H    0.000000  -0.000000  -0.000000  -0.000000   0.000000
     5  C    0.000343  -0.000114  -0.000007  -0.000002   0.000002
     6  H    0.000001  -0.000033   0.000000   0.000009   0.000000
     7  H    0.000007   0.000004  -0.000000  -0.000000  -0.000000
     8  C   -0.002826   0.004183  -0.000234  -0.000191  -0.000117
     9  H    0.008668   0.000248  -0.000001  -0.000029   0.000008
    10  C   -0.004910  -0.000442   0.000085   0.000009   0.000010
    11  H    0.004601   0.000109  -0.000038  -0.000001   0.000001
    12  H    0.000109  -0.000029   0.000000   0.000001   0.000000
    13  C   -0.000016   0.000002  -0.000000   0.000000  -0.000000
    14  H   -0.000003  -0.000000   0.000000  -0.000000   0.000000
    15  H    0.000001  -0.000000   0.000000   0.000000   0.000000
    16  H    0.000009  -0.000000  -0.000000   0.000000   0.000000
    17  O   -0.074111  -0.093807   0.002244   0.002468   0.003267
    18  C    0.561807   0.374703  -0.031341  -0.030366  -0.038480
    19  O    8.150824  -0.060633   0.000933   0.001168   0.003099
    20  C   -0.060633   5.005630   0.389942   0.388681   0.395256
    21  H    0.000933   0.389942   0.528085  -0.023451  -0.021159
    22  H    0.001168   0.388681  -0.023451   0.528365  -0.021347
    23  H    0.003099   0.395256  -0.021159  -0.021347   0.521579
 Mulliken charges:
               1
     1  C   -0.343844
     2  H    0.111272
     3  H    0.132802
     4  H    0.114978
     5  C   -0.221975
     6  H    0.124827
     7  H    0.117607
     8  C    0.192951
     9  H    0.154632
    10  C   -0.234566
    11  H    0.144694
    12  H    0.119297
    13  C   -0.350189
    14  H    0.113403
    15  H    0.121950
    16  H    0.117945
    17  O   -0.662777
    18  C    0.772268
    19  O   -0.589065
    20  C   -0.403696
    21  H    0.154931
    22  H    0.154673
    23  H    0.157882
 Sum of Mulliken charges =  -0.00000
 Mulliken charges with hydrogens summed into heavy atoms:
               1
     1  C    0.015208
     5  C    0.020459
     8  C    0.347583
    10  C    0.029425
    13  C    0.003109
    17  O   -0.662777
    18  C    0.772268
    19  O   -0.589065
    20  C    0.063790
 Electronic spatial extent (au):  <R**2>=           1535.3973
 Charge=             -0.0000 electrons
 Dipole moment (field-independent basis, Debye):
    X=             -0.7024    Y=              1.7191    Z=             -0.7779  Tot=              2.0134
 Quadrupole moment (field-independent basis, Debye-Ang):
   XX=            -53.6373   YY=            -60.2960   ZZ=            -56.2789
   XY=              5.6665   XZ=             -3.2462   YZ=              2.2939
 Traceless Quadrupole moment (field-independent basis, Debye-Ang):
   XX=              3.1001   YY=             -3.5586   ZZ=              0.4585
   XY=              5.6665   XZ=             -3.2462   YZ=              2.2939
 Octapole moment (field-independent basis, Debye-Ang**2):
  XXX=             25.5134  YYY=              2.7835  ZZZ=              1.0301  XYY=             -3.1726
  XXY=             12.9250  XXZ=             -6.1789  XZZ=              3.8338  YZZ=              0.0226
  YYZ=             -1.2274  XYZ=              2.8886
 Hexadecapole moment (field-independent basis, Debye-Ang**3):
 XXXX=          -1249.8828 YYYY=           -577.9610 ZZZZ=           -181.7304 XXXY=             17.3580
 XXXZ=            -13.5740 YYYX=              7.6970 YYYZ=              6.3299 ZZZX=             -0.5143
 ZZZY=             -3.5386 XXYY=           -324.4753 XXZZ=           -246.5855 YYZZ=           -125.7449
 XXYZ=              9.4547 YYXZ=             -4.3266 ZZXY=              4.3174
 N-N= 4.858217012499D+02 E-N=-1.961687875103D+03  KE= 4.221843092278D+02
 No NMR shielding tensors so no spin-rotation constants.
 Leave Link  601 at Sun Sep 19 20:31:50 2021, MaxMem=   524288000 cpu:               0.1 elap:               0.1
 (Enter /opt/gaussian/g16_legacy/l9999.exe)
 1\1\GINC-TRUENO92\FOpt\RMP2-FC\6-31G(d,p)\C7H14O2\JRAMOS\19-Sep-2021\0
 \\#p opt mp2/6-31g(d,p)\\Conformer number 009. Energy MM = -6.900 kcal
 /mol\\0,1\C,-2.1518259276,1.1067398618,2.5177934068\H,-2.107088764,1.7
 828444897,3.3705545419\H,-1.6424042248,0.1838267084,2.7881676338\H,-3.
 2004721874,0.8758772556,2.3349908197\C,-1.5156446766,1.723084966,1.277
 0070667\H,-1.6743435155,1.0687060134,0.4177993848\H,-1.9962893654,2.67
 35673884,1.0363641345\C,-0.017798214,1.961850843,1.3959011684\H,0.3620
 386658,2.4022819886,0.471592048\C,0.420112797,2.8223331057,2.572815974
 6\H,1.5072134069,2.8966884126,2.5350647742\H,0.1634502673,2.310166272,
 3.5014265214\C,-0.1899494752,4.2202616159,2.547099833\H,-1.2692849151,
 4.1922313445,2.6902078473\H,0.2333499641,4.8370366519,3.3383835702\H,0
 .0119299547,4.7144613523,1.5963518285\O,0.5799917854,0.6397930006,1.53
 41352414\C,1.8550358732,0.5135682056,1.0824640129\O,2.5008184692,1.419
 6584655,0.5826342554\C,2.3414293127,-0.8956504926,1.2903893521\H,2.328
 033347,-1.1330779938,2.3523301661\H,1.6764128338,-1.5932178057,0.78569
 19467\H,3.3494845884,-0.9887316495,0.9005344715\\Version=EM64L-G16RevA
 .03\State=1-A\HF=-422.9992398\MP2=-424.3596823\RMSD=9.969e-09\RMSF=4.8
 69e-06\Dipole=-0.523452,-0.2824652,0.3192823\PG=C01 [X(C7H14O2)]\\@


 BETTER TO HUNT IN FIELDS, FOR HEALTH UNBOUGHT
 THAN FEE THE DOCTOR FOR A NAUSEOUS DRAUGHT.
 THE WISE, FOR CURE, ON EXERCISE DEPEND;
 GOD NEVER MADE HIS WORK FOR MAN TO MEND.
     -- JOHN DRYDEN (1631-1700)
 Job cpu time:       0 days  0 hours 29 minutes 11.0 seconds.
 Elapsed time:       0 days  0 hours 29 minutes 14.8 seconds.
 File lengths (MBytes):  RWF=     22 Int=      0 D2E=      0 Chk=      6 Scr=      1
 Normal termination of Gaussian 16 at Sun Sep 19 20:31:50 2021.
