 Entering Gaussian System, Link 0=/opt/gaussian/g16_legacy/g16
 Input=07-EVA_018_gaussian.com
 Output=07-EVA_018_gaussian.log
 Initial command:
 /opt/gaussian/g16_legacy/l1.exe "/scratch-local/jramos/2661767/Gau-9462.inp" -scrdir="/scratch-local/jramos/2661767/"
 Entering Link 1 = /opt/gaussian/g16_legacy/l1.exe PID=      9472.
  
 Copyright (c) 1988,1990,1992,1993,1995,1998,2003,2009,2016,
            Gaussian, Inc.  All Rights Reserved.
  
 This is part of the Gaussian(R) 16 program.  It is based on
 the Gaussian(R) 09 system (copyright 2009, Gaussian, Inc.),
 the Gaussian(R) 03 system (copyright 2003, Gaussian, Inc.),
 the Gaussian(R) 98 system (copyright 1998, Gaussian, Inc.),
 the Gaussian(R) 94 system (copyright 1995, Gaussian, Inc.),
 the Gaussian 92(TM) system (copyright 1992, Gaussian, Inc.),
 the Gaussian 90(TM) system (copyright 1990, Gaussian, Inc.),
 the Gaussian 88(TM) system (copyright 1988, Gaussian, Inc.),
 the Gaussian 86(TM) system (copyright 1986, Carnegie Mellon
 University), and the Gaussian 82(TM) system (copyright 1983,
 Carnegie Mellon University). Gaussian is a federally registered
 trademark of Gaussian, Inc.
  
 This software contains proprietary and confidential information,
 including trade secrets, belonging to Gaussian, Inc.
  
 This software is provided under written license and may be
 used, copied, transmitted, or stored only in accord with that
 written license.
  
 The following legend is applicable only to US Government
 contracts under FAR:
  
                    RESTRICTED RIGHTS LEGEND
  
 Use, reproduction and disclosure by the US Government is
 subject to restrictions as set forth in subparagraphs (a)
 and (c) of the Commercial Computer Software - Restricted
 Rights clause in FAR 52.227-19.
  
 Gaussian, Inc.
 340 Quinnipiac St., Bldg. 40, Wallingford CT 06492
  
  
 ---------------------------------------------------------------
 Warning -- This program may not be used in any manner that
 competes with the business of Gaussian, Inc. or will provide
 assistance to any competitor of Gaussian, Inc.  The licensee
 of this program is prohibited from giving any competitor of
 Gaussian, Inc. access to this program.  By using this program,
 the user acknowledges that Gaussian, Inc. is engaged in the
 business of creating and licensing software in the field of
 computational chemistry and represents and warrants to the
 licensee that it is not a competitor of Gaussian, Inc. and that
 it will not use this program in any manner prohibited above.
 ---------------------------------------------------------------
  

 Cite this work as:
 Gaussian 16, Revision A.03,
 M. J. Frisch, G. W. Trucks, H. B. Schlegel, G. E. Scuseria, 
 M. A. Robb, J. R. Cheeseman, G. Scalmani, V. Barone, 
 G. A. Petersson, H. Nakatsuji, X. Li, M. Caricato, A. V. Marenich, 
 J. Bloino, B. G. Janesko, R. Gomperts, B. Mennucci, H. P. Hratchian, 
 J. V. Ortiz, A. F. Izmaylov, J. L. Sonnenberg, D. Williams-Young, 
 F. Ding, F. Lipparini, F. Egidi, J. Goings, B. Peng, A. Petrone, 
 T. Henderson, D. Ranasinghe, V. G. Zakrzewski, J. Gao, N. Rega, 
 G. Zheng, W. Liang, M. Hada, M. Ehara, K. Toyota, R. Fukuda, 
 J. Hasegawa, M. Ishida, T. Nakajima, Y. Honda, O. Kitao, H. Nakai, 
 T. Vreven, K. Throssell, J. A. Montgomery, Jr., J. E. Peralta, 
 F. Ogliaro, M. J. Bearpark, J. J. Heyd, E. N. Brothers, K. N. Kudin, 
 V. N. Staroverov, T. A. Keith, R. Kobayashi, J. Normand, 
 K. Raghavachari, A. P. Rendell, J. C. Burant, S. S. Iyengar, 
 J. Tomasi, M. Cossi, J. M. Millam, M. Klene, C. Adamo, R. Cammi, 
 J. W. Ochterski, R. L. Martin, K. Morokuma, O. Farkas, 
 J. B. Foresman, and D. J. Fox, Gaussian, Inc., Wallingford CT, 2016.
 
 ******************************************
 Gaussian 16:  EM64L-G16RevA.03 25-Dec-2016
                19-Sep-2021 
 ******************************************
 %chk=07-EVA_018_gaussian.chk
 %nproc=1
 Will use up to    1 processors via shared memory.
 %mem=4000Mb
 ---------------------
 #p opt mp2/6-31g(d,p)
 ---------------------
 1/18=20,19=15,38=1/1,3;
 2/9=110,12=2,17=6,18=5,40=1/2;
 3/5=1,6=6,7=101,11=9,25=1,30=1,71=1/1,2,3;
 4//1;
 5/5=2,38=5/2;
 8/6=4,10=2/1;
 9/15=2,16=-3/6;
 10/5=1/2;
 6/7=2,8=2,9=2,10=2/1;
 7/12=2/1,2,3,16;
 1/18=20,19=15/3(2);
 2/9=110/2;
 99//99;
 2/9=110/2;
 3/5=1,6=6,7=101,11=9,25=1,30=1,71=1/1,2,3;
 4/5=5,16=3,69=1/1;
 5/5=2,38=5/2;
 8/6=4,10=2/1;
 9/15=2,16=-3/6;
 10/5=1/2;
 7/12=2/1,2,3,16;
 1/18=20,19=15/3(-8);
 2/9=110/2;
 6/7=2,8=2,9=2,10=2/1;
 99//99;
 Leave Link    1 at Sun Sep 19 20:02:34 2021, MaxMem=   524288000 cpu:               0.0 elap:               0.4
 (Enter /opt/gaussian/g16_legacy/l101.exe)
 -------------------------------------------------
 Conformer number 018. Energy MM = -6.946 kcal/mol
 -------------------------------------------------
 Symbolic Z-matrix:
 Charge =  0 Multiplicity = 1
 C                    -2.3039    1.0972    2.5973 
 H                    -1.9877    1.5221    3.5546 
 H                    -1.9596    0.0605    2.5454 
 H                    -3.3993    1.0877    2.5897 
 C                    -1.7837    1.9192    1.4245 
 H                    -2.2516    1.5251    0.5148 
 H                    -2.1271    2.9552    1.5316 
 C                    -0.2551    1.8997    1.2591 
 H                     0.0124    2.4849    0.3675 
 C                     0.4633    2.5254    2.4643 
 H                     0.2595    1.9472    3.3734 
 H                     0.0919    3.5438    2.6274 
 C                     1.9758    2.5697    2.284 
 H                     2.249     3.1049    1.3696 
 H                     2.44      3.0841    3.1314 
 H                     2.3988    1.5612    2.2342 
 O                     0.2299    0.5504    1.1044 
 C                     0.105     0.0031   -0.1342 
 O                    -0.4433    0.5266   -1.0938 
 C                     0.7813   -1.3337   -0.1913 
 H                     1.6606   -1.261    -0.8351 
 H                     1.1015   -1.653     0.8048 
 H                     0.0821   -2.078    -0.5805 
 
 ITRead=  0  0  0  0  0  0  0  0  0  0  0  0  0  0  0  0  0  0  0  0
 ITRead=  0  0  0
 MicOpt= -1 -1 -1 -1 -1 -1 -1 -1 -1 -1 -1 -1 -1 -1 -1 -1 -1 -1 -1 -1
 MicOpt= -1 -1 -1
 NAtoms=     23 NQM=       23 NQMF=       0 NMMI=      0 NMMIF=      0
                NMic=       0 NMicF=      0.
                    Isotopes and Nuclear Properties:
 (Nuclear quadrupole moments (NQMom) in fm**2, nuclear magnetic moments (NMagM)
  in nuclear magnetons)

  Atom         1           2           3           4           5           6           7           8           9          10
 IAtWgt=          12           1           1           1          12           1           1          12           1          12
 AtmWgt=  12.0000000   1.0078250   1.0078250   1.0078250  12.0000000   1.0078250   1.0078250  12.0000000   1.0078250  12.0000000
 NucSpn=           0           1           1           1           0           1           1           0           1           0
 AtZEff=  -0.0000000  -0.0000000  -0.0000000  -0.0000000  -0.0000000  -0.0000000  -0.0000000  -0.0000000  -0.0000000  -0.0000000
 NQMom=    0.0000000   0.0000000   0.0000000   0.0000000   0.0000000   0.0000000   0.0000000   0.0000000   0.0000000   0.0000000
 NMagM=    0.0000000   2.7928460   2.7928460   2.7928460   0.0000000   2.7928460   2.7928460   0.0000000   2.7928460   0.0000000
 AtZNuc=   6.0000000   1.0000000   1.0000000   1.0000000   6.0000000   1.0000000   1.0000000   6.0000000   1.0000000   6.0000000

  Atom        11          12          13          14          15          16          17          18          19          20
 IAtWgt=           1           1          12           1           1           1          16          12          16          12
 AtmWgt=   1.0078250   1.0078250  12.0000000   1.0078250   1.0078250   1.0078250  15.9949146  12.0000000  15.9949146  12.0000000
 NucSpn=           1           1           0           1           1           1           0           0           0           0
 AtZEff=  -0.0000000  -0.0000000  -0.0000000  -0.0000000  -0.0000000  -0.0000000  -0.0000000  -0.0000000  -0.0000000  -0.0000000
 NQMom=    0.0000000   0.0000000   0.0000000   0.0000000   0.0000000   0.0000000   0.0000000   0.0000000   0.0000000   0.0000000
 NMagM=    2.7928460   2.7928460   0.0000000   2.7928460   2.7928460   2.7928460   0.0000000   0.0000000   0.0000000   0.0000000
 AtZNuc=   1.0000000   1.0000000   6.0000000   1.0000000   1.0000000   1.0000000   8.0000000   6.0000000   8.0000000   6.0000000

  Atom        21          22          23
 IAtWgt=           1           1           1
 AtmWgt=   1.0078250   1.0078250   1.0078250
 NucSpn=           1           1           1
 AtZEff=  -0.0000000  -0.0000000  -0.0000000
 NQMom=    0.0000000   0.0000000   0.0000000
 NMagM=    2.7928460   2.7928460   2.7928460
 AtZNuc=   1.0000000   1.0000000   1.0000000
 Leave Link  101 at Sun Sep 19 20:02:34 2021, MaxMem=   524288000 cpu:               0.3 elap:               0.5
 (Enter /opt/gaussian/g16_legacy/l103.exe)

 GradGradGradGradGradGradGradGradGradGradGradGradGradGradGradGradGradGrad
 Berny optimization.
 Initialization pass.
                           ----------------------------
                           !    Initial Parameters    !
                           ! (Angstroms and Degrees)  !
 --------------------------                            --------------------------
 ! Name  Definition              Value          Derivative Info.                !
 --------------------------------------------------------------------------------
 ! R1    R(1,2)                  1.0941         estimate D2E/DX2                !
 ! R2    R(1,3)                  1.0936         estimate D2E/DX2                !
 ! R3    R(1,4)                  1.0955         estimate D2E/DX2                !
 ! R4    R(1,5)                  1.5237         estimate D2E/DX2                !
 ! R5    R(5,6)                  1.0963         estimate D2E/DX2                !
 ! R6    R(5,7)                  1.0967         estimate D2E/DX2                !
 ! R7    R(5,8)                  1.5376         estimate D2E/DX2                !
 ! R8    R(8,9)                  1.0995         estimate D2E/DX2                !
 ! R9    R(8,10)                 1.5363         estimate D2E/DX2                !
 ! R10   R(8,17)                 1.4421         estimate D2E/DX2                !
 ! R11   R(10,11)                1.0965         estimate D2E/DX2                !
 ! R12   R(10,12)                1.0962         estimate D2E/DX2                !
 ! R13   R(10,13)                1.5239         estimate D2E/DX2                !
 ! R14   R(13,14)                1.0942         estimate D2E/DX2                !
 ! R15   R(13,15)                1.0946         estimate D2E/DX2                !
 ! R16   R(13,16)                1.0948         estimate D2E/DX2                !
 ! R17   R(17,18)                1.3599         estimate D2E/DX2                !
 ! R18   R(18,19)                1.2229         estimate D2E/DX2                !
 ! R19   R(18,20)                1.4992         estimate D2E/DX2                !
 ! R20   R(20,21)                1.0922         estimate D2E/DX2                !
 ! R21   R(20,22)                1.0939         estimate D2E/DX2                !
 ! R22   R(20,23)                1.0929         estimate D2E/DX2                !
 ! A1    A(2,1,3)              108.5842         estimate D2E/DX2                !
 ! A2    A(2,1,4)              107.3638         estimate D2E/DX2                !
 ! A3    A(2,1,5)              111.426          estimate D2E/DX2                !
 ! A4    A(3,1,4)              107.8339         estimate D2E/DX2                !
 ! A5    A(3,1,5)              111.5543         estimate D2E/DX2                !
 ! A6    A(4,1,5)              109.9205         estimate D2E/DX2                !
 ! A7    A(1,5,6)              107.4008         estimate D2E/DX2                !
 ! A8    A(1,5,7)              109.1202         estimate D2E/DX2                !
 ! A9    A(1,5,8)              114.5409         estimate D2E/DX2                !
 ! A10   A(6,5,7)              106.6782         estimate D2E/DX2                !
 ! A11   A(6,5,8)              109.298          estimate D2E/DX2                !
 ! A12   A(7,5,8)              109.4979         estimate D2E/DX2                !
 ! A13   A(5,8,9)              108.8039         estimate D2E/DX2                !
 ! A14   A(5,8,10)             112.0444         estimate D2E/DX2                !
 ! A15   A(5,8,17)             110.9609         estimate D2E/DX2                !
 ! A16   A(9,8,10)             107.7948         estimate D2E/DX2                !
 ! A17   A(9,8,17)             109.2178         estimate D2E/DX2                !
 ! A18   A(10,8,17)            107.9361         estimate D2E/DX2                !
 ! A19   A(8,10,11)            110.4103         estimate D2E/DX2                !
 ! A20   A(8,10,12)            109.6738         estimate D2E/DX2                !
 ! A21   A(8,10,13)            112.5298         estimate D2E/DX2                !
 ! A22   A(11,10,12)           107.6713         estimate D2E/DX2                !
 ! A23   A(11,10,13)           107.3319         estimate D2E/DX2                !
 ! A24   A(12,10,13)           109.0793         estimate D2E/DX2                !
 ! A25   A(10,13,14)           111.1571         estimate D2E/DX2                !
 ! A26   A(10,13,15)           110.0587         estimate D2E/DX2                !
 ! A27   A(10,13,16)           111.23           estimate D2E/DX2                !
 ! A28   A(14,13,15)           108.1323         estimate D2E/DX2                !
 ! A29   A(14,13,16)           108.4278         estimate D2E/DX2                !
 ! A30   A(15,13,16)           107.7143         estimate D2E/DX2                !
 ! A31   A(8,17,18)            116.3191         estimate D2E/DX2                !
 ! A32   A(17,18,19)           125.704          estimate D2E/DX2                !
 ! A33   A(17,18,20)           110.6169         estimate D2E/DX2                !
 ! A34   A(19,18,20)           123.6464         estimate D2E/DX2                !
 ! A35   A(18,20,21)           109.0421         estimate D2E/DX2                !
 ! A36   A(18,20,22)           110.954          estimate D2E/DX2                !
 ! A37   A(18,20,23)           109.404          estimate D2E/DX2                !
 ! A38   A(21,20,22)           108.6938         estimate D2E/DX2                !
 ! A39   A(21,20,23)           110.5169         estimate D2E/DX2                !
 ! A40   A(22,20,23)           108.2257         estimate D2E/DX2                !
 ! D1    D(2,1,5,6)           -172.0837         estimate D2E/DX2                !
 ! D2    D(2,1,5,7)            -56.8084         estimate D2E/DX2                !
 ! D3    D(2,1,5,8)             66.3276         estimate D2E/DX2                !
 ! D4    D(3,1,5,6)             66.3754         estimate D2E/DX2                !
 ! D5    D(3,1,5,7)           -178.3493         estimate D2E/DX2                !
 ! D6    D(3,1,5,8)            -55.2132         estimate D2E/DX2                !
 ! D7    D(4,1,5,6)            -53.1884         estimate D2E/DX2                !
 ! D8    D(4,1,5,7)             62.0869         estimate D2E/DX2                !
 ! D9    D(4,1,5,8)           -174.7771         estimate D2E/DX2                !
 ! D10   D(1,5,8,9)            177.724          estimate D2E/DX2                !
 ! D11   D(1,5,8,10)           -63.186          estimate D2E/DX2                !
 ! D12   D(1,5,8,17)            57.5384         estimate D2E/DX2                !
 ! D13   D(6,5,8,9)             57.1799         estimate D2E/DX2                !
 ! D14   D(6,5,8,10)           176.2699         estimate D2E/DX2                !
 ! D15   D(6,5,8,17)           -63.0056         estimate D2E/DX2                !
 ! D16   D(7,5,8,9)            -59.3435         estimate D2E/DX2                !
 ! D17   D(7,5,8,10)            59.7465         estimate D2E/DX2                !
 ! D18   D(7,5,8,17)          -179.529          estimate D2E/DX2                !
 ! D19   D(5,8,10,11)           62.7202         estimate D2E/DX2                !
 ! D20   D(5,8,10,12)          -55.7701         estimate D2E/DX2                !
 ! D21   D(5,8,10,13)         -177.3802         estimate D2E/DX2                !
 ! D22   D(9,8,10,11)         -177.5972         estimate D2E/DX2                !
 ! D23   D(9,8,10,12)           63.9125         estimate D2E/DX2                !
 ! D24   D(9,8,10,13)          -57.6977         estimate D2E/DX2                !
 ! D25   D(17,8,10,11)         -59.7412         estimate D2E/DX2                !
 ! D26   D(17,8,10,12)        -178.2315         estimate D2E/DX2                !
 ! D27   D(17,8,10,13)          60.1583         estimate D2E/DX2                !
 ! D28   D(5,8,17,18)           79.8966         estimate D2E/DX2                !
 ! D29   D(9,8,17,18)          -40.0426         estimate D2E/DX2                !
 ! D30   D(10,8,17,18)        -156.9795         estimate D2E/DX2                !
 ! D31   D(8,10,13,14)          56.3025         estimate D2E/DX2                !
 ! D32   D(8,10,13,15)         176.0755         estimate D2E/DX2                !
 ! D33   D(8,10,13,16)         -64.6268         estimate D2E/DX2                !
 ! D34   D(11,10,13,14)        177.9686         estimate D2E/DX2                !
 ! D35   D(11,10,13,15)        -62.2583         estimate D2E/DX2                !
 ! D36   D(11,10,13,16)         57.0394         estimate D2E/DX2                !
 ! D37   D(12,10,13,14)        -65.6453         estimate D2E/DX2                !
 ! D38   D(12,10,13,15)         54.1278         estimate D2E/DX2                !
 ! D39   D(12,10,13,16)        173.4255         estimate D2E/DX2                !
 ! D40   D(8,17,18,19)          -4.2344         estimate D2E/DX2                !
 ! D41   D(8,17,18,20)         173.7413         estimate D2E/DX2                !
 ! D42   D(17,18,20,21)       -111.2917         estimate D2E/DX2                !
 ! D43   D(17,18,20,22)          8.3944         estimate D2E/DX2                !
 ! D44   D(17,18,20,23)        127.7326         estimate D2E/DX2                !
 ! D45   D(19,18,20,21)         66.7336         estimate D2E/DX2                !
 ! D46   D(19,18,20,22)       -173.5802         estimate D2E/DX2                !
 ! D47   D(19,18,20,23)        -54.2421         estimate D2E/DX2                !
 --------------------------------------------------------------------------------
 Trust Radius=3.00D-01 FncErr=1.00D-07 GrdErr=1.00D-07 EigMax=2.50D+02 EigMin=1.00D-04
 Number of steps in this run=    119 maximum allowed number of steps=    138.
 GradGradGradGradGradGradGradGradGradGradGradGradGradGradGradGradGradGrad

 Leave Link  103 at Sun Sep 19 20:02:34 2021, MaxMem=   524288000 cpu:               0.1 elap:               0.1
 (Enter /opt/gaussian/g16_legacy/l202.exe)
                          Input orientation:                          
 ---------------------------------------------------------------------
 Center     Atomic      Atomic             Coordinates (Angstroms)
 Number     Number       Type             X           Y           Z
 ---------------------------------------------------------------------
      1          6           0       -2.303900    1.097200    2.597300
      2          1           0       -1.987700    1.522100    3.554600
      3          1           0       -1.959600    0.060500    2.545400
      4          1           0       -3.399300    1.087700    2.589700
      5          6           0       -1.783700    1.919200    1.424500
      6          1           0       -2.251600    1.525100    0.514800
      7          1           0       -2.127100    2.955200    1.531600
      8          6           0       -0.255100    1.899700    1.259100
      9          1           0        0.012400    2.484900    0.367500
     10          6           0        0.463300    2.525400    2.464300
     11          1           0        0.259500    1.947200    3.373400
     12          1           0        0.091900    3.543800    2.627400
     13          6           0        1.975800    2.569700    2.284000
     14          1           0        2.249000    3.104900    1.369600
     15          1           0        2.440000    3.084100    3.131400
     16          1           0        2.398800    1.561200    2.234200
     17          8           0        0.229900    0.550400    1.104400
     18          6           0        0.105000    0.003100   -0.134200
     19          8           0       -0.443300    0.526600   -1.093800
     20          6           0        0.781300   -1.333700   -0.191300
     21          1           0        1.660600   -1.261000   -0.835100
     22          1           0        1.101500   -1.653000    0.804800
     23          1           0        0.082100   -2.078000   -0.580500
 ---------------------------------------------------------------------
                    Distance matrix (angstroms):
                    1          2          3          4          5
     1  C    0.000000
     2  H    1.094050   0.000000
     3  H    1.093610   1.776386   0.000000
     4  H    1.095468   1.764185   1.769135   0.000000
     5  C    1.523730   2.176380   2.177642   2.158529   0.000000
     6  H    2.126650   3.051235   2.520645   2.411171   1.096266
     7  H    2.149218   2.483090   3.071666   2.495120   1.096672
     8  C    2.575338   2.900656   2.818252   3.509392   1.537646
     9  H    3.501852   3.883940   3.809166   4.304653   2.159454
    10  C    3.116864   2.864047   3.457275   4.123395   2.549053
    11  H    2.809956   2.294221   3.028139   3.839237   2.823767
    12  H    3.424415   3.044948   4.043359   4.268762   2.757566
    13  C    4.536766   4.291995   4.674590   5.584038   3.910976
    14  H    5.125135   5.022859   5.325710   6.120542   4.203756
    15  H    5.170843   4.714178   5.370478   6.194875   4.702142
    16  H    4.739465   4.581088   4.620021   5.828254   4.275171
    17  O    2.991301   3.444623   2.666532   3.958017   2.455741
    18  C    3.802755   4.504886   3.383212   4.569038   3.109369
    19  O    4.172725   4.998381   3.969911   4.756148   3.174562
    20  C    4.817056   5.463947   4.116534   5.574456   4.446503
    21  H    5.749760   6.350213   5.126401   6.545856   5.204101
    22  H    4.730053   5.214002   3.916134   5.563677   4.633467
    23  H    5.086581   5.860362   4.302670   5.673797   4.845497
                    6          7          8          9         10
     6  H    0.000000
     7  H    1.759139   0.000000
     8  C    2.163405   2.166269   0.000000
     9  H    2.463455   2.480680   1.099530   0.000000
    10  C    3.488815   2.786544   1.536264   2.145116   0.000000
    11  H    3.828235   3.178703   2.176542   3.063595   1.096500
    12  H    3.745694   2.543853   2.166961   2.496946   1.096211
    13  C    4.700231   4.189094   2.544845   2.745014   1.523853
    14  H    4.845808   4.381656   2.781229   2.528040   2.173226
    15  H    5.593584   4.840907   3.488821   3.727120   2.159748
    16  H    4.958211   4.787552   2.847558   3.167443   2.174578
    17  O    2.730478   3.394262   1.442140   2.081494   2.409238
    18  C    2.879453   4.058578   2.380766   2.533695   3.639035
    19  O    2.618119   3.952974   2.730744   2.485558   4.180574
    20  C    4.227268   5.460937   3.692243   3.935120   4.695316
    21  H    4.988977   6.142010   4.248012   4.265510   5.162983
    22  H    4.629006   5.673412   3.829939   4.301115   4.540954
    23  H    4.430369   5.888517   4.395444   4.660860   5.532397
                   11         12         13         14         15
    11  H    0.000000
    12  H    1.770237   0.000000
    13  C    2.126025   2.148458   0.000000
    14  H    3.051818   2.535306   1.094168   0.000000
    15  H    2.470969   2.445182   1.094612   1.772245   0.000000
    16  H    2.454257   3.067099   1.094752   1.775664   1.768019
    17  O    2.664636   3.361401   2.918423   3.266889   3.925927
    18  C    4.013309   4.490341   3.991869   4.059472   5.060527
    19  O    4.740032   4.820505   4.629885   4.468160   5.718963
    20  C    4.872747   5.675416   4.773937   4.928663   5.771358
    21  H    5.474221   6.126649   4.949990   4.926256   5.934685
    22  H    4.502012   5.598919   4.558906   4.926801   5.444701
    23  H    5.645089   6.472662   5.778631   5.946495   6.781237
                   16         17         18         19         20
    16  H    0.000000
    17  O    2.646184   0.000000
    18  C    3.646713   1.359878   0.000000
    19  O    4.497056   2.299097   1.222913   0.000000
    20  C    4.108504   2.352172   1.499225   2.403095   0.000000
    21  H    4.234425   3.014918   2.123464   2.772875   1.092214
    22  H    3.749300   2.388392   2.148814   3.277460   1.093936
    23  H    5.151059   3.125575   2.128541   2.706190   1.092859
                   21         22         23
    21  H    0.000000
    22  H    1.776381   0.000000
    23  H    1.795542   1.771682   0.000000
 Stoichiometry    C7H14O2
 Framework group  C1[X(C7H14O2)]
 Deg. of freedom    63
 Full point group                 C1      NOp   1
 Largest Abelian subgroup         C1      NOp   1
 Largest concise Abelian subgroup C1      NOp   1
                         Standard orientation:                         
 ---------------------------------------------------------------------
 Center     Atomic      Atomic             Coordinates (Angstroms)
 Number     Number       Type             X           Y           Z
 ---------------------------------------------------------------------
      1          6           0        1.268862   -2.143479   -0.821212
      2          1           0        2.204006   -1.762881   -1.242635
      3          1           0        0.463154   -1.958433   -1.537156
      4          1           0        1.377366   -3.227990   -0.711154
      5          6           0        0.970646   -1.511499    0.532826
      6          1           0        0.107247   -2.037261    0.956991
      7          1           0        1.814402   -1.695508    1.208775
      8          6           0        0.672911   -0.003802    0.482241
      9          1           0        0.432259    0.344176    1.497112
     10          6           0        1.879019    0.805646   -0.017962
     11          1           0        2.129852    0.521777   -1.046949
     12          1           0        2.752639    0.591575    0.608648
     13          6           0        1.617643    2.306904   -0.012082
     14          1           0        1.325123    2.652931    0.983860
     15          1           0        2.522722    2.846724   -0.308059
     16          1           0        0.824644    2.573993   -0.717983
     17          8           0       -0.440810    0.273110   -0.391093
     18          6           0       -1.680283    0.062052    0.127009
     19          8           0       -1.922309   -0.406119    1.230529
     20          6           0       -2.737911    0.530425   -0.826787
     21          1           0       -3.234035    1.407749   -0.405959
     22          1           0       -2.301153    0.803791   -1.791778
     23          1           0       -3.458601   -0.274054   -0.993393
 ---------------------------------------------------------------------
 Rotational constants (GHZ):           1.8239021           1.2006893           0.8918384
 Leave Link  202 at Sun Sep 19 20:02:35 2021, MaxMem=   524288000 cpu:               0.1 elap:               0.2
 (Enter /opt/gaussian/g16_legacy/l301.exe)
 Standard basis: 6-31G(d,p) (6D, 7F)
 Ernie: Thresh=  0.10000D-02 Tol=  0.10000D-05 Strict=F.
 There are   205 symmetry adapted cartesian basis functions of A   symmetry.
 There are   205 symmetry adapted basis functions of A   symmetry.
   205 basis functions,   350 primitive gaussians,   205 cartesian basis functions
    36 alpha electrons       36 beta electrons
       nuclear repulsion energy       486.8424086786 Hartrees.
 IExCor=    0 DFT=F Ex=HF Corr=None ExCW=0 ScaHFX=  1.000000
 ScaDFX=  1.000000  1.000000  1.000000  1.000000 ScalE2=  1.000000  1.000000
 IRadAn=      5 IRanWt=     -1 IRanGd=            0 ICorTp=0 IEmpDi=  4
 NAtoms=   23 NActive=   23 NUniq=   23 SFac= 1.00D+00 NAtFMM=   60 NAOKFM=F Big=F
 Integral buffers will be    131072 words long.
 Raffenetti 1 integral format.
 Two-electron integral symmetry is turned on.
 Leave Link  301 at Sun Sep 19 20:02:35 2021, MaxMem=   524288000 cpu:               0.1 elap:               0.3
 (Enter /opt/gaussian/g16_legacy/l302.exe)
 NPDir=0 NMtPBC=     1 NCelOv=     1 NCel=       1 NClECP=     1 NCelD=      1
         NCelK=      1 NCelE2=     1 NClLst=     1 CellRange=     0.0.
 One-electron integrals computed using PRISM.
 One-electron integral symmetry used in STVInt
 NBasis=   205 RedAO= T EigKep=  3.20D-03  NBF=   205
 NBsUse=   205 1.00D-06 EigRej= -1.00D+00 NBFU=   205
 Leave Link  302 at Sun Sep 19 20:02:36 2021, MaxMem=   524288000 cpu:               0.3 elap:               0.5
 (Enter /opt/gaussian/g16_legacy/l303.exe)
 DipDrv:  MaxL=1.
 Leave Link  303 at Sun Sep 19 20:02:36 2021, MaxMem=   524288000 cpu:               0.1 elap:               0.2
 (Enter /opt/gaussian/g16_legacy/l401.exe)
 ExpMin= 1.61D-01 ExpMax= 5.48D+03 ExpMxC= 8.25D+02 IAcc=3 IRadAn=         5 AccDes= 0.00D+00
 Harris functional with IExCor=  205 and IRadAn=       5 diagonalized for initial guess.
 HarFok:  IExCor=  205 AccDes= 0.00D+00 IRadAn=         5 IDoV= 1 UseB2=F ITyADJ=14
 ICtDFT=  3500011 ScaDFX=  1.000000  1.000000  1.000000  1.000000
 FoFCou: FMM=F IPFlag=           0 FMFlag=      100000 FMFlg1=           0
         NFxFlg=           0 DoJE=T BraDBF=F KetDBF=T FulRan=T
         wScrn=  0.000000 ICntrl=       500 IOpCl=  0 I1Cent=   200000004 NGrid=           0
         NMat0=    1 NMatS0=      1 NMatT0=    0 NMatD0=    1 NMtDS0=    0 NMtDT0=    0
 Petite list used in FoFCou.
 Harris En= -423.720344893505    
 JPrj=0 DoOrth=F DoCkMO=F.
 Leave Link  401 at Sun Sep 19 20:02:44 2021, MaxMem=   524288000 cpu:               8.1 elap:               8.5
 (Enter /opt/gaussian/g16_legacy/l502.exe)
 Keep R1 ints in memory in canonical form, NReq=227304434.
 FoFCou: FMM=F IPFlag=           0 FMFlag=           0 FMFlg1=           0
         NFxFlg=           0 DoJE=F BraDBF=F KetDBF=F FulRan=T
         wScrn=  0.000000 ICntrl=       600 IOpCl=  0 I1Cent=           0 NGrid=           0
         NMat0=    1 NMatS0=  21115 NMatT0=    0 NMatD0=    1 NMtDS0=    0 NMtDT0=    0
 Symmetry not used in FoFCou.
 Two-electron integral symmetry not used.
 Closed shell SCF:
 Using DIIS extrapolation, IDIIS=  1040.
 NGot=   524288000 LenX=   301268152 LenY=   301225686
 Requested convergence on RMS density matrix=1.00D-08 within 128 cycles.
 Requested convergence on MAX density matrix=1.00D-06.
 Requested convergence on             energy=1.00D-06.
 No special actions if energy rises.

 Cycle   1  Pass 1  IDiag  1:
 E= -422.506457644853    
 DIIS: error= 5.95D-02 at cycle   1 NSaved=   1.
 NSaved= 1 IEnMin= 1 EnMin= -422.506457644853     IErMin= 1 ErrMin= 5.95D-02
 ErrMax= 5.95D-02  0.00D+00 EMaxC= 1.00D-01 BMatC= 7.22D-01 BMatP= 7.22D-01
 IDIUse=3 WtCom= 4.05D-01 WtEn= 5.95D-01
 Coeff-Com:  0.100D+01
 Coeff-En:   0.100D+01
 Coeff:      0.100D+01
 Gap=     0.554 Goal=   None    Shift=    0.000
 GapD=    0.554 DampG=2.000 DampE=0.500 DampFc=1.0000 IDamp=-1.
 RMSDP=4.03D-03 MaxDP=1.18D-01              OVMax= 1.24D-01

 Cycle   2  Pass 1  IDiag  1:
 E= -422.915373505259     Delta-E=       -0.408915860406 Rises=F Damp=F
 DIIS: error= 1.44D-02 at cycle   2 NSaved=   2.
 NSaved= 2 IEnMin= 2 EnMin= -422.915373505259     IErMin= 2 ErrMin= 1.44D-02
 ErrMax= 1.44D-02  0.00D+00 EMaxC= 1.00D-01 BMatC= 9.58D-02 BMatP= 7.22D-01
 IDIUse=3 WtCom= 8.56D-01 WtEn= 1.44D-01
 Coeff-Com:  0.205D+00 0.795D+00
 Coeff-En:   0.000D+00 0.100D+01
 Coeff:      0.176D+00 0.824D+00
 Gap=     0.643 Goal=   None    Shift=    0.000
 RMSDP=1.45D-03 MaxDP=4.88D-02 DE=-4.09D-01 OVMax= 4.60D-02

 Cycle   3  Pass 1  IDiag  1:
 E= -422.989237368760     Delta-E=       -0.073863863501 Rises=F Damp=F
 DIIS: error= 4.25D-03 at cycle   3 NSaved=   3.
 NSaved= 3 IEnMin= 3 EnMin= -422.989237368760     IErMin= 3 ErrMin= 4.25D-03
 ErrMax= 4.25D-03  0.00D+00 EMaxC= 1.00D-01 BMatC= 8.15D-03 BMatP= 9.58D-02
 IDIUse=3 WtCom= 9.57D-01 WtEn= 4.25D-02
 Coeff-Com: -0.157D-01 0.186D+00 0.830D+00
 Coeff-En:   0.000D+00 0.000D+00 0.100D+01
 Coeff:     -0.150D-01 0.178D+00 0.837D+00
 Gap=     0.608 Goal=   None    Shift=    0.000
 RMSDP=3.72D-04 MaxDP=2.15D-02 DE=-7.39D-02 OVMax= 2.25D-02

 Cycle   4  Pass 1  IDiag  1:
 E= -422.995406261612     Delta-E=       -0.006168892852 Rises=F Damp=F
 DIIS: error= 1.70D-03 at cycle   4 NSaved=   4.
 NSaved= 4 IEnMin= 4 EnMin= -422.995406261612     IErMin= 4 ErrMin= 1.70D-03
 ErrMax= 1.70D-03  0.00D+00 EMaxC= 1.00D-01 BMatC= 8.79D-04 BMatP= 8.15D-03
 IDIUse=3 WtCom= 9.83D-01 WtEn= 1.70D-02
 Coeff-Com: -0.123D-01 0.337D-01 0.312D+00 0.667D+00
 Coeff-En:   0.000D+00 0.000D+00 0.000D+00 0.100D+01
 Coeff:     -0.121D-01 0.331D-01 0.306D+00 0.673D+00
 Gap=     0.610 Goal=   None    Shift=    0.000
 RMSDP=1.19D-04 MaxDP=5.72D-03 DE=-6.17D-03 OVMax= 5.49D-03

 Cycle   5  Pass 1  IDiag  1:
 E= -422.996115670742     Delta-E=       -0.000709409130 Rises=F Damp=F
 DIIS: error= 3.46D-04 at cycle   5 NSaved=   5.
 NSaved= 5 IEnMin= 5 EnMin= -422.996115670742     IErMin= 5 ErrMin= 3.46D-04
 ErrMax= 3.46D-04  0.00D+00 EMaxC= 1.00D-01 BMatC= 2.68D-05 BMatP= 8.79D-04
 IDIUse=3 WtCom= 9.97D-01 WtEn= 3.46D-03
 Coeff-Com:  0.207D-02-0.177D-01-0.855D-01-0.323D-01 0.113D+01
 Coeff-En:   0.000D+00 0.000D+00 0.000D+00 0.000D+00 0.100D+01
 Coeff:      0.206D-02-0.176D-01-0.852D-01-0.321D-01 0.113D+01
 Gap=     0.610 Goal=   None    Shift=    0.000
 RMSDP=5.04D-05 MaxDP=1.64D-03 DE=-7.09D-04 OVMax= 2.57D-03

 Cycle   6  Pass 1  IDiag  1:
 E= -422.996175272003     Delta-E=       -0.000059601260 Rises=F Damp=F
 DIIS: error= 9.39D-05 at cycle   6 NSaved=   6.
 NSaved= 6 IEnMin= 6 EnMin= -422.996175272003     IErMin= 6 ErrMin= 9.39D-05
 ErrMax= 9.39D-05  0.00D+00 EMaxC= 1.00D-01 BMatC= 3.77D-06 BMatP= 2.68D-05
 IDIUse=1 WtCom= 1.00D+00 WtEn= 0.00D+00
 Coeff-Com:  0.134D-02-0.644D-02-0.401D-01-0.708D-01 0.198D+00 0.918D+00
 Coeff:      0.134D-02-0.644D-02-0.401D-01-0.708D-01 0.198D+00 0.918D+00
 Gap=     0.610 Goal=   None    Shift=    0.000
 RMSDP=1.68D-05 MaxDP=5.70D-04 DE=-5.96D-05 OVMax= 8.96D-04

 Cycle   7  Pass 1  IDiag  1:
 E= -422.996182396177     Delta-E=       -0.000007124174 Rises=F Damp=F
 DIIS: error= 4.58D-05 at cycle   7 NSaved=   7.
 NSaved= 7 IEnMin= 7 EnMin= -422.996182396177     IErMin= 7 ErrMin= 4.58D-05
 ErrMax= 4.58D-05  0.00D+00 EMaxC= 1.00D-01 BMatC= 5.25D-07 BMatP= 3.77D-06
 IDIUse=1 WtCom= 1.00D+00 WtEn= 0.00D+00
 Coeff-Com: -0.189D-03 0.183D-02 0.103D-01-0.399D-02-0.109D+00 0.117D-01
 Coeff-Com:  0.109D+01
 Coeff:     -0.189D-03 0.183D-02 0.103D-01-0.399D-02-0.109D+00 0.117D-01
 Coeff:      0.109D+01
 Gap=     0.610 Goal=   None    Shift=    0.000
 RMSDP=7.14D-06 MaxDP=2.94D-04 DE=-7.12D-06 OVMax= 4.73D-04

 Cycle   8  Pass 1  IDiag  1:
 E= -422.996183768429     Delta-E=       -0.000001372253 Rises=F Damp=F
 DIIS: error= 1.76D-05 at cycle   8 NSaved=   8.
 NSaved= 8 IEnMin= 8 EnMin= -422.996183768429     IErMin= 8 ErrMin= 1.76D-05
 ErrMax= 1.76D-05  0.00D+00 EMaxC= 1.00D-01 BMatC= 1.01D-07 BMatP= 5.25D-07
 IDIUse=1 WtCom= 1.00D+00 WtEn= 0.00D+00
 Coeff-Com: -0.252D-03 0.135D-02 0.848D-02 0.882D-02-0.436D-01-0.170D+00
 Coeff-Com:  0.846D-01 0.111D+01
 Coeff:     -0.252D-03 0.135D-02 0.848D-02 0.882D-02-0.436D-01-0.170D+00
 Coeff:      0.846D-01 0.111D+01
 Gap=     0.610 Goal=   None    Shift=    0.000
 RMSDP=3.81D-06 MaxDP=1.36D-04 DE=-1.37D-06 OVMax= 2.44D-04

 Cycle   9  Pass 1  IDiag  1:
 E= -422.996184057037     Delta-E=       -0.000000288608 Rises=F Damp=F
 DIIS: error= 5.89D-06 at cycle   9 NSaved=   9.
 NSaved= 9 IEnMin= 9 EnMin= -422.996184057037     IErMin= 9 ErrMin= 5.89D-06
 ErrMax= 5.89D-06  0.00D+00 EMaxC= 1.00D-01 BMatC= 1.14D-08 BMatP= 1.01D-07
 IDIUse=1 WtCom= 1.00D+00 WtEn= 0.00D+00
 Coeff-Com:  0.434D-05-0.150D-03-0.661D-03 0.552D-03 0.156D-01-0.145D-01
 Coeff-Com: -0.154D+00 0.892D-01 0.106D+01
 Coeff:      0.434D-05-0.150D-03-0.661D-03 0.552D-03 0.156D-01-0.145D-01
 Coeff:     -0.154D+00 0.892D-01 0.106D+01
 Gap=     0.610 Goal=   None    Shift=    0.000
 RMSDP=1.19D-06 MaxDP=4.00D-05 DE=-2.89D-07 OVMax= 7.63D-05

 Cycle  10  Pass 1  IDiag  1:
 E= -422.996184084897     Delta-E=       -0.000000027860 Rises=F Damp=F
 DIIS: error= 1.89D-06 at cycle  10 NSaved=  10.
 NSaved=10 IEnMin=10 EnMin= -422.996184084897     IErMin=10 ErrMin= 1.89D-06
 ErrMax= 1.89D-06  0.00D+00 EMaxC= 1.00D-01 BMatC= 9.05D-10 BMatP= 1.14D-08
 IDIUse=1 WtCom= 1.00D+00 WtEn= 0.00D+00
 Coeff-Com:  0.264D-04-0.148D-03-0.877D-03-0.137D-02 0.462D-02 0.192D-01
 Coeff-Com: -0.612D-02-0.114D+00-0.559D-01 0.115D+01
 Coeff:      0.264D-04-0.148D-03-0.877D-03-0.137D-02 0.462D-02 0.192D-01
 Coeff:     -0.612D-02-0.114D+00-0.559D-01 0.115D+01
 Gap=     0.610 Goal=   None    Shift=    0.000
 RMSDP=3.24D-07 MaxDP=1.25D-05 DE=-2.79D-08 OVMax= 2.08D-05

 Cycle  11  Pass 1  IDiag  1:
 E= -422.996184087168     Delta-E=       -0.000000002271 Rises=F Damp=F
 DIIS: error= 6.15D-07 at cycle  11 NSaved=  11.
 NSaved=11 IEnMin=11 EnMin= -422.996184087168     IErMin=11 ErrMin= 6.15D-07
 ErrMax= 6.15D-07  0.00D+00 EMaxC= 1.00D-01 BMatC= 8.77D-11 BMatP= 9.05D-10
 IDIUse=1 WtCom= 1.00D+00 WtEn= 0.00D+00
 Coeff-Com:  0.152D-05 0.911D-06 0.157D-04-0.174D-03-0.888D-03 0.205D-02
 Coeff-Com:  0.104D-01-0.642D-02-0.992D-01 0.687D-01 0.103D+01
 Coeff:      0.152D-05 0.911D-06 0.157D-04-0.174D-03-0.888D-03 0.205D-02
 Coeff:      0.104D-01-0.642D-02-0.992D-01 0.687D-01 0.103D+01
 Gap=     0.610 Goal=   None    Shift=    0.000
 RMSDP=7.16D-08 MaxDP=2.53D-06 DE=-2.27D-09 OVMax= 3.91D-06

 Cycle  12  Pass 1  IDiag  1:
 E= -422.996184087345     Delta-E=       -0.000000000176 Rises=F Damp=F
 DIIS: error= 1.58D-07 at cycle  12 NSaved=  12.
 NSaved=12 IEnMin=12 EnMin= -422.996184087345     IErMin=12 ErrMin= 1.58D-07
 ErrMax= 1.58D-07  0.00D+00 EMaxC= 1.00D-01 BMatC= 8.53D-12 BMatP= 8.77D-11
 IDIUse=1 WtCom= 1.00D+00 WtEn= 0.00D+00
 Coeff-Com: -0.271D-05 0.151D-04 0.993D-04 0.126D-03-0.549D-03-0.198D-02
 Coeff-Com:  0.677D-03 0.145D-01-0.122D-02-0.126D+00 0.333D-01 0.108D+01
 Coeff:     -0.271D-05 0.151D-04 0.993D-04 0.126D-03-0.549D-03-0.198D-02
 Coeff:      0.677D-03 0.145D-01-0.122D-02-0.126D+00 0.333D-01 0.108D+01
 Gap=     0.610 Goal=   None    Shift=    0.000
 RMSDP=2.69D-08 MaxDP=7.78D-07 DE=-1.76D-10 OVMax= 1.28D-06

 Cycle  13  Pass 1  IDiag  1:
 E= -422.996184087367     Delta-E=       -0.000000000022 Rises=F Damp=F
 DIIS: error= 6.39D-08 at cycle  13 NSaved=  13.
 NSaved=13 IEnMin=13 EnMin= -422.996184087367     IErMin=13 ErrMin= 6.39D-08
 ErrMax= 6.39D-08  0.00D+00 EMaxC= 1.00D-01 BMatC= 6.58D-13 BMatP= 8.53D-12
 IDIUse=1 WtCom= 1.00D+00 WtEn= 0.00D+00
 Coeff-Com:  0.103D-07-0.810D-06-0.426D-05 0.593D-05 0.986D-04-0.823D-04
 Coeff-Com: -0.103D-02 0.277D-03 0.800D-02-0.226D-02-0.868D-01-0.264D-01
 Coeff-Com:  0.111D+01
 Coeff:      0.103D-07-0.810D-06-0.426D-05 0.593D-05 0.986D-04-0.823D-04
 Coeff:     -0.103D-02 0.277D-03 0.800D-02-0.226D-02-0.868D-01-0.264D-01
 Coeff:      0.111D+01
 Gap=     0.610 Goal=   None    Shift=    0.000
 RMSDP=8.58D-09 MaxDP=1.93D-07 DE=-2.17D-11 OVMax= 5.17D-07

 SCF Done:  E(RHF) =  -422.996184087     A.U. after   13 cycles
            NFock= 13  Conv=0.86D-08     -V/T= 2.0023
 KE= 4.220274081785D+02 PE=-1.963548397684D+03 EE= 6.316823967390D+02
 Leave Link  502 at Sun Sep 19 20:03:02 2021, MaxMem=   524288000 cpu:              16.8 elap:              17.2
 (Enter /opt/gaussian/g16_legacy/l801.exe)
 ExpMin= 1.61D-01 ExpMax= 5.48D+03 ExpMxC= 8.25D+02 IAcc=3 IRadAn=         5 AccDes= 0.00D+00
 HarFok:  IExCor=  205 AccDes= 0.00D+00 IRadAn=         5 IDoV=-2 UseB2=F ITyADJ=14
 ICtDFT= 12500011 ScaDFX=  1.000000  1.000000  1.000000  1.000000
 Largest valence mixing into a core orbital is  2.11D-04
 Largest core mixing into a valence orbital is  3.28D-05
 Range of M.O.s used for correlation:    10   205
 NBasis=   205 NAE=    36 NBE=    36 NFC=     9 NFV=     0
 NROrb=    196 NOA=    27 NOB=    27 NVA=   169 NVB=   169
 Leave Link  801 at Sun Sep 19 20:03:03 2021, MaxMem=   524288000 cpu:               1.3 elap:               1.6
 (Enter /opt/gaussian/g16_legacy/l906.exe)
 Frozen-core derivative calculation, NFC=   9 NFV=   0.
 FulOut=F Deriv=T AODrv=T NAtomX=    23
   MMem=         130  MDisk=          27 MDiskD=          27
  W3Min=     1512900 MinDsk=     1927595 NBas6D=         205
 NBas2D=       21400    NTT=       21115    LW2=     2040000
    MDV=   523793135 MDiskM=       35351 NBas2p=       19473
 Fully direct method using O(ONN) memory.
 IMap=   1   2   3   4   5   6   7   8   9  10  11  12  13  14  15  16  17  18  19  20
 IMap=  21  22  23  24  25  26  27  28  29  30  31  32  33  34  35  36
 JobTyp=1 Pass  1:  I=  10 to  36 NPSUse=  1 ParTrn=F ParDer=F DoDerP=T.
 Spin components of T(2) and E(2):
     alpha-alpha T2 =       0.5283129188D-01 E2=     -0.1651218185D+00
     alpha-beta  T2 =       0.3173466157D+00 E2=     -0.1030693792D+01
     beta-beta   T2 =       0.5283129188D-01 E2=     -0.1651218185D+00
 The integrals were generated   1 times.
 ANorm=    0.1192899493D+01
 E2 =    -0.1360937429D+01 EUMP2 =    -0.42435712151655D+03
 Leave Link  906 at Sun Sep 19 20:05:15 2021, MaxMem=   524288000 cpu:             132.0 elap:             132.2
 (Enter /opt/gaussian/g16_legacy/l1002.exe)
 Minotr:  Closed shell wavefunction.
          Computing MP2/KS-MP2 derivatives.
          Using Z-Vector for PSCF gradient.
          Skipping F1 and S1 gradient terms here.
          IDoAtm=11111111111111111111111
          Frozen-core window.
          Direct CPHF calculation.
          Differentiating once with respect to electric field.
                with respect to dipole field.
          Differentiating once with respect to nuclear coordinates.
          Requested convergence is 1.0D-10 RMS, and 1.0D-09 maximum.
          NewPWx=F KeepS1=T KeepF1=T KeepIn=T MapXYZ=F SortEE=F KeepMc=T.
 Keep R1 ints in memory in canonical form, NReq=227306992.
 FoFCou: FMM=F IPFlag=           0 FMFlag=           0 FMFlg1=           0
         NFxFlg=           0 DoJE=F BraDBF=F KetDBF=F FulRan=T
         wScrn=  0.000000 ICntrl=       600 IOpCl=  0 I1Cent=           0 NGrid=           0
         NMat0=    1 NMatS0=  21115 NMatT0=    0 NMatD0=    1 NMtDS0=    0 NMtDT0=    0
 Symmetry not used in FoFCou.
 Two-electron integral symmetry not used.
          MDV=     524288000 using IRadAn=       5.
          Solving linear equations separately, MaxMat=       0.
          There are     1 degrees of freedom in the 1st order CPHF.  IDoFFX=0 NUNeed=     1.
 LinEq1:  Iter=  0 NonCon=     1 RMS=3.74D-03 Max=7.85D-02 NDo=     1
 AX will form     1 AO Fock derivatives at one time.
 LinEq1:  Iter=  1 NonCon=     1 RMS=1.19D-03 Max=1.46D-02 NDo=     1
 LinEq1:  Iter=  2 NonCon=     1 RMS=3.76D-04 Max=5.79D-03 NDo=     1
 LinEq1:  Iter=  3 NonCon=     1 RMS=1.54D-04 Max=2.71D-03 NDo=     1
 LinEq1:  Iter=  4 NonCon=     1 RMS=4.70D-05 Max=6.95D-04 NDo=     1
 LinEq1:  Iter=  5 NonCon=     1 RMS=2.12D-05 Max=4.46D-04 NDo=     1
 LinEq1:  Iter=  6 NonCon=     1 RMS=5.14D-06 Max=7.37D-05 NDo=     1
 LinEq1:  Iter=  7 NonCon=     1 RMS=1.42D-06 Max=1.76D-05 NDo=     1
 LinEq1:  Iter=  8 NonCon=     1 RMS=4.75D-07 Max=1.42D-05 NDo=     1
 LinEq1:  Iter=  9 NonCon=     1 RMS=1.36D-07 Max=4.19D-06 NDo=     1
 LinEq1:  Iter= 10 NonCon=     1 RMS=4.42D-08 Max=1.19D-06 NDo=     1
 LinEq1:  Iter= 11 NonCon=     1 RMS=1.30D-08 Max=2.28D-07 NDo=     1
 LinEq1:  Iter= 12 NonCon=     1 RMS=3.53D-09 Max=7.81D-08 NDo=     1
 LinEq1:  Iter= 13 NonCon=     1 RMS=9.97D-10 Max=2.35D-08 NDo=     1
 LinEq1:  Iter= 14 NonCon=     1 RMS=2.67D-10 Max=4.56D-09 NDo=     1
 LinEq1:  Iter= 15 NonCon=     0 RMS=7.99D-11 Max=9.90D-10 NDo=     1
 Linear equations converged to 1.000D-10 1.000D-09 after    15 iterations.
 End of Minotr F.D. properties file   721 does not exist.
 End of Minotr F.D. properties file   722 does not exist.
 End of Minotr F.D. properties file   788 does not exist.
 Leave Link 1002 at Sun Sep 19 20:05:34 2021, MaxMem=   524288000 cpu:              18.9 elap:              18.9
 (Enter /opt/gaussian/g16_legacy/l601.exe)
 Copying SCF densities to generalized density rwf, IOpCl= 0 IROHF=0.

 **********************************************************************

            Population analysis using the SCF density.

 **********************************************************************

 Orbital symmetries:
       Occupied  (A) (A) (A) (A) (A) (A) (A) (A) (A) (A) (A) (A)
                 (A) (A) (A) (A) (A) (A) (A) (A) (A) (A) (A) (A)
                 (A) (A) (A) (A) (A) (A) (A) (A) (A) (A) (A) (A)
       Virtual   (A) (A) (A) (A) (A) (A) (A) (A) (A) (A) (A) (A)
                 (A) (A) (A) (A) (A) (A) (A) (A) (A) (A) (A) (A)
                 (A) (A) (A) (A) (A) (A) (A) (A) (A) (A) (A) (A)
                 (A) (A) (A) (A) (A) (A) (A) (A) (A) (A) (A) (A)
                 (A) (A) (A) (A) (A) (A) (A) (A) (A) (A) (A) (A)
                 (A) (A) (A) (A) (A) (A) (A) (A) (A) (A) (A) (A)
                 (A) (A) (A) (A) (A) (A) (A) (A) (A) (A) (A) (A)
                 (A) (A) (A) (A) (A) (A) (A) (A) (A) (A) (A) (A)
                 (A) (A) (A) (A) (A) (A) (A) (A) (A) (A) (A) (A)
                 (A) (A) (A) (A) (A) (A) (A) (A) (A) (A) (A) (A)
                 (A) (A) (A) (A) (A) (A) (A) (A) (A) (A) (A) (A)
                 (A) (A) (A) (A) (A) (A) (A) (A) (A) (A) (A) (A)
                 (A) (A) (A) (A) (A) (A) (A) (A) (A) (A) (A) (A)
                 (A) (A) (A) (A) (A) (A) (A) (A) (A) (A) (A) (A)
                 (A)
 The electronic state is 1-A.
 Alpha  occ. eigenvalues --  -20.60901 -20.54958 -11.38693 -11.28988 -11.24044
 Alpha  occ. eigenvalues --  -11.22717 -11.22078 -11.21579 -11.21351  -1.44903
 Alpha  occ. eigenvalues --   -1.35066  -1.08964  -1.02130  -1.01482  -0.92560
 Alpha  occ. eigenvalues --   -0.84165  -0.81853  -0.74818  -0.68756  -0.67212
 Alpha  occ. eigenvalues --   -0.65180  -0.61568  -0.60524  -0.59905  -0.58094
 Alpha  occ. eigenvalues --   -0.55848  -0.54464  -0.54067  -0.52056  -0.50471
 Alpha  occ. eigenvalues --   -0.49050  -0.48495  -0.47878  -0.45724  -0.44191
 Alpha  occ. eigenvalues --   -0.43074
 Alpha virt. eigenvalues --    0.17963   0.22551   0.25165   0.25765   0.27019
 Alpha virt. eigenvalues --    0.28670   0.29912   0.30445   0.31638   0.31986
 Alpha virt. eigenvalues --    0.32932   0.33645   0.33934   0.34744   0.36098
 Alpha virt. eigenvalues --    0.38734   0.40448   0.42046   0.42681   0.43182
 Alpha virt. eigenvalues --    0.45370   0.49694   0.55710   0.68258   0.70318
 Alpha virt. eigenvalues --    0.71412   0.74516   0.75341   0.76311   0.76431
 Alpha virt. eigenvalues --    0.77284   0.80384   0.83592   0.84499   0.88804
 Alpha virt. eigenvalues --    0.91730   0.92718   0.93953   0.94669   0.96658
 Alpha virt. eigenvalues --    1.00232   1.03126   1.06064   1.07417   1.08605
 Alpha virt. eigenvalues --    1.09308   1.10526   1.11654   1.13702   1.13940
 Alpha virt. eigenvalues --    1.15709   1.15897   1.16661   1.17192   1.17947
 Alpha virt. eigenvalues --    1.20186   1.20710   1.21029   1.21878   1.24616
 Alpha virt. eigenvalues --    1.27320   1.33641   1.33823   1.38457   1.40893
 Alpha virt. eigenvalues --    1.46303   1.49478   1.53116   1.59683   1.61234
 Alpha virt. eigenvalues --    1.63795   1.69969   1.71138   1.77032   1.78545
 Alpha virt. eigenvalues --    1.81141   1.83212   1.84542   1.93122   1.95029
 Alpha virt. eigenvalues --    1.99066   1.99498   2.01459   2.03922   2.08060
 Alpha virt. eigenvalues --    2.09039   2.13465   2.15880   2.17834   2.19591
 Alpha virt. eigenvalues --    2.21575   2.22223   2.27216   2.29879   2.31666
 Alpha virt. eigenvalues --    2.32267   2.34848   2.35865   2.36836   2.37543
 Alpha virt. eigenvalues --    2.38318   2.39066   2.40458   2.42027   2.43283
 Alpha virt. eigenvalues --    2.44364   2.45705   2.48424   2.52954   2.54295
 Alpha virt. eigenvalues --    2.55915   2.58248   2.58522   2.60308   2.64789
 Alpha virt. eigenvalues --    2.67361   2.67724   2.70172   2.73284   2.80320
 Alpha virt. eigenvalues --    2.81467   2.83988   2.89548   2.90776   2.94323
 Alpha virt. eigenvalues --    2.97457   2.98913   3.01660   3.03850   3.04090
 Alpha virt. eigenvalues --    3.06536   3.08897   3.09599   3.13976   3.17892
 Alpha virt. eigenvalues --    3.19193   3.19325   3.20565   3.23460   3.24509
 Alpha virt. eigenvalues --    3.25785   3.28516   3.29360   3.33653   3.42924
 Alpha virt. eigenvalues --    3.49089   3.55998   3.57383   3.60821   3.66361
 Alpha virt. eigenvalues --    3.68100   3.73252   3.77483   3.78177   3.80962
 Alpha virt. eigenvalues --    3.81376   3.84509   3.86613   3.93042   3.94116
 Alpha virt. eigenvalues --    4.46643   4.57687   4.65300   4.77136   4.84008
 Alpha virt. eigenvalues --    4.97964   5.00942   5.05684   5.15501
          Condensed to atoms (all electrons):
               1          2          3          4          5          6
     1  C    4.944821   0.401110   0.402894   0.406173   0.321895  -0.044173
     2  H    0.401110   0.592070  -0.029493  -0.029900  -0.038327   0.004261
     3  H    0.402894  -0.029493   0.572353  -0.029011  -0.038076  -0.002355
     4  H    0.406173  -0.029900  -0.029011   0.578420  -0.037749  -0.004318
     5  C    0.321895  -0.038327  -0.038076  -0.037749   5.012848   0.414849
     6  H   -0.044173   0.004261  -0.002355  -0.004318   0.414849   0.541607
     7  H   -0.040301  -0.003804   0.004381  -0.002775   0.401592  -0.025797
     8  C   -0.052394  -0.003830  -0.006544   0.004363   0.364293  -0.035821
     9  H    0.004213  -0.000125   0.000097  -0.000059  -0.046377  -0.004624
    10  C   -0.005442   0.001211   0.000136  -0.000011  -0.063627   0.004241
    11  H    0.000116  -0.002184   0.000479   0.000046  -0.004956  -0.000118
    12  H    0.000266   0.000236   0.000019  -0.000030  -0.001904   0.000019
    13  C   -0.000063   0.000012  -0.000037   0.000001   0.004587  -0.000090
    14  H   -0.000001  -0.000003   0.000000   0.000000  -0.000081  -0.000003
    15  H    0.000002   0.000003   0.000000  -0.000000  -0.000088   0.000001
    16  H    0.000005   0.000004  -0.000001  -0.000000   0.000006   0.000001
    17  O   -0.002172   0.000149   0.004399   0.000012  -0.040910  -0.001973
    18  C    0.000228  -0.000016   0.000443  -0.000028  -0.003578   0.001574
    19  O    0.000070  -0.000003  -0.000021  -0.000000  -0.004866   0.004735
    20  C   -0.000012  -0.000000   0.000041  -0.000000  -0.000448   0.000100
    21  H    0.000000  -0.000000   0.000001  -0.000000  -0.000002   0.000001
    22  H   -0.000002   0.000000   0.000030   0.000000   0.000022  -0.000015
    23  H    0.000001  -0.000000  -0.000009   0.000000   0.000026  -0.000003
               7          8          9         10         11         12
     1  C   -0.040301  -0.052394   0.004213  -0.005442   0.000116   0.000266
     2  H   -0.003804  -0.003830  -0.000125   0.001211  -0.002184   0.000236
     3  H    0.004381  -0.006544   0.000097   0.000136   0.000479   0.000019
     4  H   -0.002775   0.004363  -0.000059  -0.000011   0.000046  -0.000030
     5  C    0.401592   0.364293  -0.046377  -0.063627  -0.004956  -0.001904
     6  H   -0.025797  -0.035821  -0.004624   0.004241  -0.000118   0.000019
     7  H    0.589833  -0.037796  -0.000116  -0.002901   0.000453   0.000866
     8  C   -0.037796   4.814389   0.422451   0.359837  -0.033818  -0.040813
     9  H   -0.000116   0.422451   0.553732  -0.045714   0.004193  -0.000527
    10  C   -0.002901   0.359837  -0.045714   4.993383   0.404409   0.408133
    11  H    0.000453  -0.033818   0.004193   0.404409   0.580173  -0.027792
    12  H    0.000866  -0.040813  -0.000527   0.408133  -0.027792   0.581529
    13  C   -0.000125  -0.054723  -0.005698   0.333772  -0.043904  -0.039078
    14  H    0.000008  -0.004028   0.003010  -0.042010   0.004595  -0.002519
    15  H   -0.000003   0.004512  -0.000085  -0.038548  -0.002745  -0.003863
    16  H   -0.000005  -0.005671   0.000360  -0.036796  -0.003515   0.004226
    17  O    0.002576   0.134072  -0.032496  -0.049055  -0.000233   0.002442
    18  C    0.000166  -0.024393  -0.005449   0.003066  -0.000113  -0.000027
    19  O    0.000061   0.000633   0.006583   0.000337  -0.000005   0.000006
    20  C    0.000006   0.004932   0.000066  -0.000075  -0.000011   0.000003
    21  H    0.000000  -0.000180   0.000021   0.000009   0.000000  -0.000000
    22  H   -0.000000  -0.000092   0.000008  -0.000058   0.000008   0.000000
    23  H   -0.000000  -0.000118  -0.000008  -0.000000  -0.000000  -0.000000
              13         14         15         16         17         18
     1  C   -0.000063  -0.000001   0.000002   0.000005  -0.002172   0.000228
     2  H    0.000012  -0.000003   0.000003   0.000004   0.000149  -0.000016
     3  H   -0.000037   0.000000   0.000000  -0.000001   0.004399   0.000443
     4  H    0.000001   0.000000  -0.000000  -0.000000   0.000012  -0.000028
     5  C    0.004587  -0.000081  -0.000088   0.000006  -0.040910  -0.003578
     6  H   -0.000090  -0.000003   0.000001   0.000001  -0.001973   0.001574
     7  H   -0.000125   0.000008  -0.000003  -0.000005   0.002576   0.000166
     8  C   -0.054723  -0.004028   0.004512  -0.005671   0.134072  -0.024393
     9  H   -0.005698   0.003010  -0.000085   0.000360  -0.032496  -0.005449
    10  C    0.333772  -0.042010  -0.038548  -0.036796  -0.049055   0.003066
    11  H   -0.043904   0.004595  -0.002745  -0.003515  -0.000233  -0.000113
    12  H   -0.039078  -0.002519  -0.003863   0.004226   0.002442  -0.000027
    13  C    4.932136   0.400663   0.404410   0.404179   0.000713  -0.000016
    14  H    0.400663   0.589471  -0.028600  -0.028948   0.000097   0.000017
    15  H    0.404410  -0.028600   0.581186  -0.028979   0.000067  -0.000001
    16  H    0.404179  -0.028948  -0.028979   0.565065   0.003488   0.000025
    17  O    0.000713   0.000097   0.000067   0.003488   8.511933   0.269323
    18  C   -0.000016   0.000017  -0.000001   0.000025   0.269323   4.159897
    19  O   -0.000029  -0.000006   0.000000   0.000005  -0.069115   0.547203
    20  C   -0.000008  -0.000002   0.000000   0.000020  -0.085765   0.366414
    21  H   -0.000002   0.000000   0.000000   0.000004   0.001441  -0.029219
    22  H    0.000001   0.000001  -0.000000   0.000075   0.003855  -0.039492
    23  H    0.000001  -0.000000   0.000000  -0.000000   0.002198  -0.031996
              19         20         21         22         23
     1  C    0.000070  -0.000012   0.000000  -0.000002   0.000001
     2  H   -0.000003  -0.000000  -0.000000   0.000000  -0.000000
     3  H   -0.000021   0.000041   0.000001   0.000030  -0.000009
     4  H   -0.000000  -0.000000  -0.000000   0.000000   0.000000
     5  C   -0.004866  -0.000448  -0.000002   0.000022   0.000026
     6  H    0.004735   0.000100   0.000001  -0.000015  -0.000003
     7  H    0.000061   0.000006   0.000000  -0.000000  -0.000000
     8  C    0.000633   0.004932  -0.000180  -0.000092  -0.000118
     9  H    0.006583   0.000066   0.000021   0.000008  -0.000008
    10  C    0.000337  -0.000075   0.000009  -0.000058  -0.000000
    11  H   -0.000005  -0.000011   0.000000   0.000008  -0.000000
    12  H    0.000006   0.000003  -0.000000   0.000000  -0.000000
    13  C   -0.000029  -0.000008  -0.000002   0.000001   0.000001
    14  H   -0.000006  -0.000002   0.000000   0.000001  -0.000000
    15  H    0.000000   0.000000   0.000000  -0.000000   0.000000
    16  H    0.000005   0.000020   0.000004   0.000075  -0.000000
    17  O   -0.069115  -0.085765   0.001441   0.003855   0.002198
    18  C    0.547203   0.366414  -0.029219  -0.039492  -0.031996
    19  O    8.161859  -0.066151  -0.000176   0.002706   0.000448
    20  C   -0.066151   5.019212   0.392852   0.391215   0.393453
    21  H   -0.000176   0.392852   0.513536  -0.023185  -0.017095
    22  H    0.002706   0.391215  -0.023185   0.538522  -0.025323
    23  H    0.000448   0.393453  -0.017095  -0.025323   0.519486
 Mulliken charges:
               1
     1  C   -0.337233
     2  H    0.108627
     3  H    0.120275
     4  H    0.114868
     5  C   -0.239132
     6  H    0.147901
     7  H    0.113681
     8  C    0.190742
     9  H    0.146545
    10  C   -0.224298
    11  H    0.124922
    12  H    0.118810
    13  C   -0.336701
    14  H    0.108340
    15  H    0.112731
    16  H    0.126452
    17  O   -0.655046
    18  C    0.785973
    19  O   -0.584273
    20  C   -0.415843
    21  H    0.161994
    22  H    0.151723
    23  H    0.158940
 Sum of Mulliken charges =  -0.00000
 Mulliken charges with hydrogens summed into heavy atoms:
               1
     1  C    0.006538
     5  C    0.022451
     8  C    0.337288
    10  C    0.019434
    13  C    0.010822
    17  O   -0.655046
    18  C    0.785973
    19  O   -0.584273
    20  C    0.056813
 Electronic spatial extent (au):  <R**2>=           1478.6194
 Charge=             -0.0000 electrons
 Dipole moment (field-independent basis, Debye):
    X=              0.9018    Y=              0.8053    Z=             -1.6267  Tot=              2.0268
 Quadrupole moment (field-independent basis, Debye-Ang):
   XX=            -54.3722   YY=            -56.4450   ZZ=            -60.0309
   XY=             -2.4809   XZ=              6.7205   YZ=              1.2443
 Traceless Quadrupole moment (field-independent basis, Debye-Ang):
   XX=              2.5772   YY=              0.5044   ZZ=             -3.0815
   XY=             -2.4809   XZ=              6.7205   YZ=              1.2443
 Octapole moment (field-independent basis, Debye-Ang**2):
  XXX=            -14.0518  YYY=             -2.8755  ZZZ=             -1.5619  XYY=             -6.1524
  XXY=              7.2334  XXZ=            -12.7283  XZZ=              3.2302  YZZ=              3.1175
  YYZ=              1.4581  XYZ=             -3.8203
 Hexadecapole moment (field-independent basis, Debye-Ang**3):
 XXXX=          -1012.3937 YYYY=           -702.7663 ZZZZ=           -246.2204 XXXY=             -8.5007
 XXXZ=             28.4319 YYYX=             -5.1362 YYYZ=             -6.4136 ZZZX=              7.1841
 ZZZY=             -1.9261 XXYY=           -283.6112 XXZZ=           -225.6034 YYZZ=           -159.2927
 XXYZ=              2.8659 YYXZ=              0.0728 ZZXY=             -1.8421
 N-N= 4.868424086786D+02 E-N=-1.963548395205D+03  KE= 4.220274081785D+02
 No NMR shielding tensors so no spin-rotation constants.
 Leave Link  601 at Sun Sep 19 20:05:35 2021, MaxMem=   524288000 cpu:               0.3 elap:               0.3
 (Enter /opt/gaussian/g16_legacy/l701.exe)
 ... and contract with generalized density number  2.
 Compute integral first derivatives.
 Leave Link  701 at Sun Sep 19 20:05:35 2021, MaxMem=   524288000 cpu:               0.3 elap:               0.3
 (Enter /opt/gaussian/g16_legacy/l702.exe)
 L702 exits ... SP integral derivatives will be done elsewhere.
 Leave Link  702 at Sun Sep 19 20:05:35 2021, MaxMem=   524288000 cpu:               0.1 elap:               0.2
 (Enter /opt/gaussian/g16_legacy/l703.exe)
 Integral derivatives from FoFJK, PRISM(SPDF).
 Compute integral first derivatives, UseDBF=F ICtDFT=           0.
 Calling FoFJK, ICntrl=  10002127 FMM=F ISym2X=0 I1Cent= 0 IOpClX= 0 NMat=1 NMatS=1 NMatT=0.
 FoFJK:  IHMeth= 1 ICntrl=10002127 DoSepK=F KAlg= 0 I1Cent=           0 FoldK=F
 IRaf=         0 NMat=       1 IRICut=       1 DoRegI=T DoRafI=F ISym2E= 0 IDoP0=0 IntGTp=1.
 FoFCou: FMM=F IPFlag=           0 FMFlag=      100000 FMFlg1=         800
         NFxFlg=           0 DoJE=F BraDBF=F KetDBF=F FulRan=T
         wScrn=  0.000000 ICntrl=  10002127 IOpCl=  0 I1Cent=           0 NGrid=           0
         NMat0=    1 NMatS0=      1 NMatT0=    0 NMatD0=    1 NMtDS0=    0 NMtDT0=    0
 Symmetry not used in FoFCou.
 Leave Link  703 at Sun Sep 19 20:05:59 2021, MaxMem=   524288000 cpu:              23.1 elap:              23.4
 (Enter /opt/gaussian/g16_legacy/l716.exe)
 Dipole        = 3.52747394D-01 2.55074309D-01-5.09659790D-01
 ***** Axes restored to original set *****
 -------------------------------------------------------------------
 Center     Atomic                   Forces (Hartrees/Bohr)
 Number     Number              X              Y              Z
 -------------------------------------------------------------------
      1        6          -0.001502834   -0.000144226    0.006211458
      2        1          -0.001005148   -0.002918225   -0.002161861
      3        1          -0.000082067    0.003619978   -0.000021723
      4        1           0.004094191   -0.000134936    0.000097918
      5        6          -0.003799882   -0.006789395   -0.005626098
      6        1           0.005127986    0.003702311    0.000126771
      7        1           0.004298287   -0.001626731   -0.001418545
      8        6          -0.011612866    0.020914853    0.007522016
      9        1          -0.001169552   -0.005786256    0.000733403
     10        6           0.006173372   -0.010439828   -0.000344535
     11        1          -0.003687843    0.002158483   -0.003715204
     12        1          -0.002833114   -0.004210175   -0.002951072
     13        6           0.005481830    0.000249998    0.000572617
     14        1          -0.000132309   -0.001308825    0.002202578
     15        1          -0.000437332   -0.001282800   -0.003307780
     16        1          -0.002623526    0.004005843   -0.000965378
     17        8           0.001314290    0.001777975    0.000304563
     18        6          -0.000422230    0.001487086   -0.007815826
     19        8           0.001722550    0.002056413    0.008490455
     20        6           0.002189558   -0.009774404    0.010518299
     21        1          -0.004512426   -0.001447452   -0.000722820
     22        1          -0.000781923    0.002263638   -0.004617129
     23        1           0.004200988    0.003626674   -0.003112105
 -------------------------------------------------------------------
 Cartesian Forces:  Max     0.020914853 RMS     0.004877031
 Leave Link  716 at Sun Sep 19 20:05:59 2021, MaxMem=   524288000 cpu:               0.1 elap:               0.3
 (Enter /opt/gaussian/g16_legacy/l103.exe)

 GradGradGradGradGradGradGradGradGradGradGradGradGradGradGradGradGradGrad
 Berny optimization.
 FormGI is forming the generalized inverse of G from B-inverse, IUseBI=4.
 Internal  Forces:  Max     0.010177258 RMS     0.002894843
 Search for a local minimum.
 Step number   1 out of a maximum of  119
 All quantities printed in internal units (Hartrees-Bohrs-Radians)
 RMS Force = .28948D-02 SwitMx=.10000D-02 MixMth= 1
 Mixed Optimization -- RFO/linear search
 Second derivative matrix not updated -- first step.
 ITU=  0
     Eigenvalues ---    0.00268   0.00286   0.00450   0.00452   0.00776
     Eigenvalues ---    0.01134   0.01156   0.02223   0.03363   0.03587
     Eigenvalues ---    0.04295   0.04776   0.04795   0.04854   0.05469
     Eigenvalues ---    0.05535   0.05690   0.05701   0.07190   0.07425
     Eigenvalues ---    0.07529   0.08286   0.08639   0.12158   0.12423
     Eigenvalues ---    0.16000   0.16000   0.16000   0.16000   0.16000
     Eigenvalues ---    0.16000   0.16000   0.16000   0.16000   0.16688
     Eigenvalues ---    0.19839   0.21947   0.21956   0.24990   0.25000
     Eigenvalues ---    0.25000   0.28728   0.28852   0.29999   0.30010
     Eigenvalues ---    0.32459   0.33734   0.34053   0.34072   0.34098
     Eigenvalues ---    0.34105   0.34188   0.34269   0.34285   0.34335
     Eigenvalues ---    0.34349   0.34362   0.34399   0.34484   0.34558
     Eigenvalues ---    0.39293   0.52972   0.94104
 RFO step:  Lambda=-5.66433132D-03 EMin= 2.67962478D-03
 Linear search not attempted -- first point.
 Iteration  1 RMS(Cart)=  0.06545434 RMS(Int)=  0.00266812
 Iteration  2 RMS(Cart)=  0.00394754 RMS(Int)=  0.00033330
 Iteration  3 RMS(Cart)=  0.00001790 RMS(Int)=  0.00033319
 Iteration  4 RMS(Cart)=  0.00000000 RMS(Int)=  0.00033319
 ITry= 1 IFail=0 DXMaxC= 2.93D-01 DCOld= 1.00D+10 DXMaxT= 3.00D-01 DXLimC= 3.00D+00 Rises=F
 Variable       Old X    -DE/DX   Delta X   Delta X   Delta X     New X
                                 (Linear)    (Quad)   (Total)
    R1        2.06746  -0.00332   0.00000  -0.00950  -0.00950   2.05796
    R2        2.06662  -0.00346   0.00000  -0.00989  -0.00989   2.05674
    R3        2.07013  -0.00409   0.00000  -0.01178  -0.01178   2.05836
    R4        2.87943   0.00243   0.00000   0.00796   0.00796   2.88739
    R5        2.07164  -0.00362   0.00000  -0.01046  -0.01046   2.06119
    R6        2.07241  -0.00302   0.00000  -0.00873  -0.00873   2.06368
    R7        2.90573  -0.00744   0.00000  -0.02541  -0.02541   2.88032
    R8        2.07781  -0.00396   0.00000  -0.01154  -0.01154   2.06627
    R9        2.90312  -0.01018   0.00000  -0.03459  -0.03459   2.86852
   R10        2.72525   0.00093   0.00000   0.00233   0.00233   2.72758
   R11        2.07208  -0.00353   0.00000  -0.01020  -0.01020   2.06189
   R12        2.07154  -0.00339   0.00000  -0.00978  -0.00978   2.06176
   R13        2.87966   0.00250   0.00000   0.00817   0.00817   2.88783
   R14        2.06768  -0.00251   0.00000  -0.00720  -0.00720   2.06048
   R15        2.06852  -0.00335   0.00000  -0.00961  -0.00961   2.05891
   R16        2.06878  -0.00466   0.00000  -0.01338  -0.01338   2.05540
   R17        2.56980  -0.00200   0.00000  -0.00373  -0.00373   2.56607
   R18        2.31097  -0.00655   0.00000  -0.00692  -0.00692   2.30405
   R19        2.83313   0.00517   0.00000   0.01565   0.01565   2.84878
   R20        2.06399  -0.00330   0.00000  -0.00940  -0.00940   2.05458
   R21        2.06724  -0.00509   0.00000  -0.01458  -0.01458   2.05266
   R22        2.06520  -0.00405   0.00000  -0.01155  -0.01155   2.05365
    A1        1.89515  -0.00089   0.00000  -0.00934  -0.00929   1.88587
    A2        1.87385  -0.00066   0.00000   0.00166   0.00155   1.87540
    A3        1.94475   0.00243   0.00000   0.01536   0.01533   1.96008
    A4        1.88206   0.00054   0.00000   0.00180   0.00180   1.88386
    A5        1.94699  -0.00170   0.00000  -0.01320  -0.01317   1.93382
    A6        1.91848   0.00026   0.00000   0.00374   0.00368   1.92216
    A7        1.87450   0.00408   0.00000   0.04481   0.04466   1.91916
    A8        1.90451   0.00223   0.00000   0.01754   0.01714   1.92164
    A9        1.99912  -0.00150   0.00000  -0.00667  -0.00653   1.99259
   A10        1.86189  -0.00016   0.00000   0.00072  -0.00050   1.86139
   A11        1.90761  -0.00250   0.00000  -0.02325  -0.02334   1.88427
   A12        1.91110  -0.00197   0.00000  -0.03133  -0.03140   1.87970
   A13        1.89899  -0.00217   0.00000   0.00606   0.00470   1.90369
   A14        1.95554   0.00734   0.00000   0.03985   0.03916   1.99470
   A15        1.93663  -0.00050   0.00000  -0.01174  -0.01120   1.92543
   A16        1.88137   0.00095   0.00000   0.02917   0.02813   1.90950
   A17        1.90621   0.00064   0.00000  -0.02081  -0.02051   1.88570
   A18        1.88384  -0.00631   0.00000  -0.04283  -0.04242   1.84142
   A19        1.92702  -0.00199   0.00000  -0.01588  -0.01637   1.91065
   A20        1.91417  -0.00331   0.00000  -0.04197  -0.04211   1.87206
   A21        1.96402   0.00043   0.00000   0.00420   0.00429   1.96831
   A22        1.87922  -0.00012   0.00000  -0.00580  -0.00708   1.87214
   A23        1.87329   0.00289   0.00000   0.04127   0.04115   1.91445
   A24        1.90379   0.00225   0.00000   0.01979   0.01962   1.92342
   A25        1.94006   0.00043   0.00000   0.00032   0.00028   1.94033
   A26        1.92089   0.00195   0.00000   0.01493   0.01492   1.93581
   A27        1.94133  -0.00147   0.00000  -0.00979  -0.00981   1.93152
   A28        1.88727  -0.00104   0.00000  -0.00463  -0.00466   1.88260
   A29        1.89242  -0.00017   0.00000  -0.00686  -0.00691   1.88551
   A30        1.87997   0.00028   0.00000   0.00604   0.00607   1.88603
   A31        2.03015  -0.00346   0.00000  -0.01355  -0.01355   2.01660
   A32        2.19395  -0.00879   0.00000  -0.03391  -0.03424   2.15971
   A33        1.93063   0.00361   0.00000   0.01459   0.01425   1.94488
   A34        2.15804   0.00521   0.00000   0.02084   0.02050   2.17854
   A35        1.90314  -0.00037   0.00000  -0.00849  -0.00865   1.89450
   A36        1.93651   0.00071   0.00000   0.01307   0.01298   1.94950
   A37        1.90946  -0.00021   0.00000  -0.00378  -0.00400   1.90546
   A38        1.89707   0.00088   0.00000   0.01060   0.01057   1.90764
   A39        1.92888  -0.00321   0.00000  -0.03709  -0.03739   1.89149
   A40        1.88889   0.00218   0.00000   0.02554   0.02538   1.91428
    D1       -3.00343  -0.00193   0.00000  -0.01888  -0.01913  -3.02255
    D2       -0.99149   0.00119   0.00000   0.01473   0.01495  -0.97655
    D3        1.15764  -0.00074   0.00000  -0.01753  -0.01764   1.13999
    D4        1.15847  -0.00130   0.00000  -0.00843  -0.00861   1.14986
    D5       -3.11278   0.00182   0.00000   0.02518   0.02546  -3.08733
    D6       -0.96365  -0.00011   0.00000  -0.00708  -0.00713  -0.97078
    D7       -0.92831  -0.00105   0.00000  -0.00470  -0.00487  -0.93318
    D8        1.08362   0.00207   0.00000   0.02891   0.02920   1.11282
    D9       -3.05044   0.00014   0.00000  -0.00335  -0.00338  -3.05382
   D10        3.10187  -0.00112   0.00000  -0.02766  -0.02779   3.07408
   D11       -1.10280   0.00316   0.00000   0.03702   0.03700  -1.06581
   D12        1.00424  -0.00022   0.00000   0.00141   0.00125   1.00548
   D13        0.99798  -0.00353   0.00000  -0.06385  -0.06368   0.93430
   D14        3.07649   0.00075   0.00000   0.00083   0.00111   3.07760
   D15       -1.09966  -0.00263   0.00000  -0.03478  -0.03465  -1.13430
   D16       -1.03574  -0.00080   0.00000  -0.03366  -0.03377  -1.06951
   D17        1.04277   0.00349   0.00000   0.03102   0.03101   1.07379
   D18       -3.13337   0.00011   0.00000  -0.00459  -0.00474  -3.13811
   D19        1.09467  -0.00277   0.00000  -0.04175  -0.04193   1.05274
   D20       -0.97337   0.00063   0.00000   0.00095   0.00026  -0.97311
   D21       -3.09587  -0.00019   0.00000   0.00254   0.00196  -3.09391
   D22       -3.09966  -0.00042   0.00000   0.00858   0.00935  -3.09030
   D23        1.11548   0.00298   0.00000   0.05128   0.05154   1.16703
   D24       -1.00701   0.00216   0.00000   0.05288   0.05324  -0.95377
   D25       -1.04268  -0.00252   0.00000  -0.02320  -0.02287  -1.06556
   D26       -3.11073   0.00088   0.00000   0.01950   0.01932  -3.09141
   D27        1.04996   0.00006   0.00000   0.02109   0.02102   1.07098
   D28        1.39446  -0.00150   0.00000   0.04368   0.04341   1.43787
   D29       -0.69887   0.00108   0.00000   0.05686   0.05718  -0.64170
   D30       -2.73981   0.00311   0.00000   0.05722   0.05716  -2.68265
   D31        0.98266  -0.00093   0.00000  -0.00653  -0.00668   0.97599
   D32        3.07310  -0.00068   0.00000  -0.00235  -0.00248   3.07062
   D33       -1.12795   0.00000   0.00000   0.00867   0.00850  -1.11945
   D34        3.10614  -0.00118   0.00000   0.00430   0.00425   3.11039
   D35       -1.08661  -0.00093   0.00000   0.00849   0.00845  -1.07817
   D36        0.99552  -0.00025   0.00000   0.01950   0.01943   1.01495
   D37       -1.14573   0.00141   0.00000   0.03008   0.03029  -1.11544
   D38        0.94471   0.00166   0.00000   0.03427   0.03448   0.97919
   D39        3.02685   0.00234   0.00000   0.04528   0.04546   3.07231
   D40       -0.07390   0.00174   0.00000   0.05773   0.05840  -0.01551
   D41        3.03236   0.00280   0.00000   0.10526   0.10460   3.13695
   D42       -1.94241  -0.00205   0.00000  -0.03374  -0.03384  -1.97625
   D43        0.14651  -0.00076   0.00000  -0.01802  -0.01829   0.12822
   D44        2.22935   0.00224   0.00000   0.01926   0.01898   2.24833
   D45        1.16472  -0.00135   0.00000   0.01130   0.01163   1.17636
   D46       -3.02955  -0.00007   0.00000   0.02702   0.02718  -3.00236
   D47       -0.94670   0.00294   0.00000   0.06430   0.06445  -0.88225
         Item               Value     Threshold  Converged?
 Maximum Force            0.010177     0.000450     NO 
 RMS     Force            0.002895     0.000300     NO 
 Maximum Displacement     0.292719     0.001800     NO 
 RMS     Displacement     0.065011     0.001200     NO 
 Predicted change in Energy=-3.066666D-03
 Lowest energy point so far.  Saving SCF results.
 GradGradGradGradGradGradGradGradGradGradGradGradGradGradGradGradGradGrad

 Leave Link  103 at Sun Sep 19 20:05:59 2021, MaxMem=   524288000 cpu:               0.1 elap:               0.5
 (Enter /opt/gaussian/g16_legacy/l202.exe)
                          Input orientation:                          
 ---------------------------------------------------------------------
 Center     Atomic      Atomic             Coordinates (Angstroms)
 Number     Number       Type             X           Y           Z
 ---------------------------------------------------------------------
      1          6           0       -2.289719    1.070771    2.602921
      2          1           0       -1.987190    1.490340    3.561261
      3          1           0       -1.912157    0.051529    2.546702
      4          1           0       -3.378014    1.026294    2.594716
      5          6           0       -1.788408    1.900983    1.422226
      6          1           0       -2.211012    1.518738    0.492176
      7          1           0       -2.128160    2.934333    1.518859
      8          6           0       -0.271525    1.923804    1.274804
      9          1           0       -0.008719    2.479925    0.370793
     10          6           0        0.462450    2.517548    2.463477
     11          1           0        0.241875    1.931390    3.356937
     12          1           0        0.059940    3.518610    2.625403
     13          6           0        1.974427    2.584510    2.251901
     14          1           0        2.221164    3.139331    1.346267
     15          1           0        2.462961    3.079430    3.090625
     16          1           0        2.393735    1.585193    2.159284
     17          8           0        0.238986    0.580706    1.137701
     18          6           0        0.176631    0.055450   -0.112947
     19          8           0       -0.288400    0.645830   -1.073035
     20          6           0        0.738122   -1.343052   -0.151709
     21          1           0        1.646735   -1.334482   -0.748730
     22          1           0        0.966362   -1.711906    0.844144
     23          1           0        0.019715   -2.002975   -0.630675
 ---------------------------------------------------------------------
                    Distance matrix (angstroms):
                    1          2          3          4          5
     1  C    0.000000
     2  H    1.089025   0.000000
     3  H    1.088379   1.762140   0.000000
     4  H    1.089235   1.756115   1.761026   0.000000
     5  C    1.527942   2.187147   2.168004   2.160246   0.000000
     6  H    2.159193   3.077366   2.542261   2.454602   1.090733
     7  H    2.161980   2.505274   3.068172   2.521947   1.092054
     8  C    2.562161   2.891242   2.795499   3.492559   1.524201
     9  H    3.488706   3.882359   3.775548   4.290807   2.146620
    10  C    3.112401   2.874199   3.424461   4.121920   2.555527
    11  H    2.778159   2.281447   2.971567   3.808382   2.804653
    12  H    3.393128   3.029926   3.989487   4.246423   2.735094
    13  C    4.538453   4.313471   4.648487   5.585176   3.913374
    14  H    5.119197   5.033449   5.297160   6.113456   4.197135
    15  H    5.182715   4.748742   5.348429   6.211142   4.716612
    16  H    4.732461   4.600765   4.587256   5.815072   4.258321
    17  O    2.963340   3.414225   2.625400   3.924810   2.436065
    18  C    3.806534   4.498981   3.381831   4.572688   3.102277
    19  O    4.206960   5.007573   4.011518   4.810704   3.170451
    20  C    4.752089   5.407548   4.031160   5.486276   4.402770
    21  H    5.702147   6.305636   5.044463   6.480741   5.194371
    22  H    4.630189   5.134254   3.780777   5.425481   4.579946
    23  H    5.023699   5.814055   4.248393   5.578906   4.767032
                    6          7          8          9         10
     6  H    0.000000
     7  H    1.750672   0.000000
     8  C    2.130304   2.127869   0.000000
     9  H    2.405974   2.452870   1.093422   0.000000
    10  C    3.468580   2.788776   1.517957   2.145400   0.000000
    11  H    3.793915   3.162513   2.144508   3.046431   1.091103
    12  H    3.702346   2.520635   2.115985   2.483313   1.091036
    13  C    4.663733   4.182218   2.536839   2.735392   1.528176
    14  H    4.795829   4.357572   2.774186   2.521655   2.174361
    15  H    5.570792   4.854884   3.479956   3.723720   2.170500
    16  H    4.897689   4.762127   2.828528   3.125864   2.166029
    17  O    2.701685   3.359795   1.443376   2.063138   2.357748
    18  C    2.864999   4.032718   2.370114   2.479200   3.575133
    19  O    2.628363   3.916616   2.673172   2.350907   4.071120
    20  C    4.159545   5.413168   3.704953   3.930131   4.671126
    21  H    4.956100   6.133072   4.288454   4.306223   5.153536
    22  H    4.544958   5.623064   3.864741   4.329699   4.556802
    23  H    4.317337   5.797489   4.374387   4.593488   5.495900
                   11         12         13         14         15
    11  H    0.000000
    12  H    1.757131   0.000000
    13  C    2.156248   2.162708   0.000000
    14  H    3.069120   2.539868   1.090357   0.000000
    15  H    2.514387   2.486729   1.089527   1.762055   0.000000
    16  H    2.486912   3.066262   1.087673   1.762419   1.762082
    17  O    2.597954   3.297968   2.875487   3.243315   3.873448
    18  C    3.945060   4.416520   3.901374   3.977404   4.963329
    19  O    4.643114   4.696025   4.464758   4.285846   5.552338
    20  C    4.824814   5.639861   4.767760   4.953292   5.748578
    21  H    5.431027   6.120064   4.946682   4.973327   5.906732
    22  H    4.484709   5.599355   4.632188   5.035986   5.499399
    23  H    5.606214   6.410270   5.759788   5.932789   6.756357
                   16         17         18         19         20
    16  H    0.000000
    17  O    2.587579   0.000000
    18  C    3.524017   1.357904   0.000000
    19  O    4.303967   2.273705   1.219250   0.000000
    20  C    4.081220   2.369084   1.507509   2.420380   0.000000
    21  H    4.187965   3.034522   2.120693   2.787751   1.087238
    22  H    3.825944   2.423081   2.159456   3.287693   1.086219
    23  H    5.127844   3.138573   2.128328   2.703106   1.086745
                   21         22         23
    21  H    0.000000
    22  H    1.772740   0.000000
    23  H    1.762956   1.776500   0.000000
 Stoichiometry    C7H14O2
 Framework group  C1[X(C7H14O2)]
 Deg. of freedom    63
 Full point group                 C1      NOp   1
 RotChk:  IX=0 Diff= 6.38D-02
 Largest Abelian subgroup         C1      NOp   1
 Largest concise Abelian subgroup C1      NOp   1
                         Standard orientation:                         
 ---------------------------------------------------------------------
 Center     Atomic      Atomic             Coordinates (Angstroms)
 Number     Number       Type             X           Y           Z
 ---------------------------------------------------------------------
      1          6           0        1.293368   -2.146879   -0.776783
      2          1           0        2.215183   -1.770310   -1.217724
[...]
    14  H    3.064732   2.514506   1.090292   0.000000
    15  H    2.498608   2.502243   1.089083   1.763013   0.000000
    16  H    2.502063   3.063675   1.087991   1.764072   1.764312
    17  O    2.582952   3.316677   2.908619   3.325851   3.883638
    18  C    3.932365   4.442416   3.914809   4.051811   4.960289
    19  O    4.647583   4.737342   4.454327   4.320648   5.541307
    20  C    4.775766   5.641570   4.779137   5.045904   5.726136
    21  H    4.721319   5.680669   4.438028   4.746902   5.288149
    22  H    4.786628   5.879104   5.229465   5.670258   6.107275
    23  H    5.791437   6.515479   5.654736   5.775436   6.635945
                   16         17         18         19         20
    16  H    0.000000
    17  O    2.587082   0.000000
    18  C    3.480556   1.359423   0.000000
    19  O    4.219794   2.281285   1.219531   0.000000
    20  C    4.049949   2.349843   1.505193   2.426543   0.000000
    21  H    3.540147   2.604521   2.134693   3.125318   1.088063
    22  H    4.519758   2.614774   2.133299   3.116666   1.088221
    23  H    4.940881   3.275440   2.126818   2.573766   1.084825
                   21         22         23
    21  H    0.000000
    22  H    1.758044   0.000000
    23  H    1.782222   1.781290   0.000000
 Stoichiometry    C7H14O2
 Framework group  C1[X(C7H14O2)]
 Deg. of freedom    63
 Full point group                 C1      NOp   1
 RotChk:  IX=0 Diff= 1.01D-15
 Largest Abelian subgroup         C1      NOp   1
 Largest concise Abelian subgroup C1      NOp   1
                         Standard orientation:                         
 ---------------------------------------------------------------------
 Center     Atomic      Atomic             Coordinates (Angstroms)
 Number     Number       Type             X           Y           Z
 ---------------------------------------------------------------------
      1          6           0        1.326073   -2.152529   -0.746165
      2          1           0        2.261218   -1.782245   -1.163342
      3          1           0        0.535907   -1.970451   -1.472565
      4          1           0        1.426116   -3.229299   -0.616709
      5          6           0        0.995517   -1.483642    0.583477
      6          1           0        0.127191   -1.960834    1.039421
      7          1           0        1.824299   -1.607659    1.285598
      8          6           0        0.697006    0.007124    0.477396
      9          1           0        0.411685    0.382218    1.462703
     10          6           0        1.825077    0.848776   -0.092098
     11          1           0        2.028772    0.529724   -1.115246
     12          1           0        2.724002    0.639705    0.493627
     13          6           0        1.515257    2.340678   -0.065353
     14          1           0        1.326273    2.678645    0.953863
     15          1           0        2.346678    2.920739   -0.463310
     16          1           0        0.632119    2.555896   -0.663243
     17          8           0       -0.437191    0.213274   -0.414870
     18          6           0       -1.668106    0.071779    0.144468
     19          8           0       -1.863034   -0.213874    1.313938
     20          6           0       -2.736851    0.319282   -0.886130
     21          1           0       -2.622496    1.318165   -1.302105
     22          1           0       -2.631193   -0.393957   -1.701208
     23          1           0       -3.712618    0.215352   -0.423611
 ---------------------------------------------------------------------
 Rotational constants (GHZ):           1.8139793           1.2138136           0.9110972
 Leave Link  202 at Sun Sep 19 21:19:45 2021, MaxMem=   524288000 cpu:               0.0 elap:               0.0
 (Enter /opt/gaussian/g16_legacy/l601.exe)
 Copying SCF densities to generalized density rwf, IOpCl= 0 IROHF=0.

 **********************************************************************

            Population analysis using the SCF density.

 **********************************************************************

 Orbital symmetries:
       Occupied  (A) (A) (A) (A) (A) (A) (A) (A) (A) (A) (A) (A)
                 (A) (A) (A) (A) (A) (A) (A) (A) (A) (A) (A) (A)
                 (A) (A) (A) (A) (A) (A) (A) (A) (A) (A) (A) (A)
       Virtual   (A) (A) (A) (A) (A) (A) (A) (A) (A) (A) (A) (A)
                 (A) (A) (A) (A) (A) (A) (A) (A) (A) (A) (A) (A)
                 (A) (A) (A) (A) (A) (A) (A) (A) (A) (A) (A) (A)
                 (A) (A) (A) (A) (A) (A) (A) (A) (A) (A) (A) (A)
                 (A) (A) (A) (A) (A) (A) (A) (A) (A) (A) (A) (A)
                 (A) (A) (A) (A) (A) (A) (A) (A) (A) (A) (A) (A)
                 (A) (A) (A) (A) (A) (A) (A) (A) (A) (A) (A) (A)
                 (A) (A) (A) (A) (A) (A) (A) (A) (A) (A) (A) (A)
                 (A) (A) (A) (A) (A) (A) (A) (A) (A) (A) (A) (A)
                 (A) (A) (A) (A) (A) (A) (A) (A) (A) (A) (A) (A)
                 (A) (A) (A) (A) (A) (A) (A) (A) (A) (A) (A) (A)
                 (A) (A) (A) (A) (A) (A) (A) (A) (A) (A) (A) (A)
                 (A) (A) (A) (A) (A) (A) (A) (A) (A) (A) (A) (A)
                 (A) (A) (A) (A) (A) (A) (A) (A) (A) (A) (A) (A)
                 (A)
 The electronic state is 1-A.
 Alpha  occ. eigenvalues --  -20.60109 -20.54964 -11.38412 -11.28463 -11.23967
 Alpha  occ. eigenvalues --  -11.22406 -11.22076 -11.21424 -11.21307  -1.44547
 Alpha  occ. eigenvalues --   -1.34780  -1.09276  -1.02324  -1.01467  -0.92695
 Alpha  occ. eigenvalues --   -0.84870  -0.81441  -0.74780  -0.68818  -0.66876
 Alpha  occ. eigenvalues --   -0.65066  -0.61562  -0.60539  -0.59857  -0.58203
 Alpha  occ. eigenvalues --   -0.56184  -0.54213  -0.54063  -0.52568  -0.50813
 Alpha  occ. eigenvalues --   -0.49045  -0.48418  -0.48115  -0.45996  -0.44255
 Alpha  occ. eigenvalues --   -0.43231
 Alpha virt. eigenvalues --    0.18438   0.22471   0.24881   0.25785   0.27335
 Alpha virt. eigenvalues --    0.28469   0.29943   0.30241   0.31552   0.32365
 Alpha virt. eigenvalues --    0.33383   0.33780   0.34268   0.35533   0.36386
 Alpha virt. eigenvalues --    0.38722   0.40442   0.42019   0.42600   0.43836
 Alpha virt. eigenvalues --    0.45555   0.50239   0.54202   0.67937   0.69749
 Alpha virt. eigenvalues --    0.71649   0.74969   0.75718   0.75868   0.76755
 Alpha virt. eigenvalues --    0.77341   0.79789   0.83077   0.85717   0.88449
 Alpha virt. eigenvalues --    0.91965   0.92705   0.94264   0.94710   0.97487
 Alpha virt. eigenvalues --    1.00330   1.03566   1.06536   1.07649   1.08761
 Alpha virt. eigenvalues --    1.09821   1.10555   1.12479   1.13347   1.13880
 Alpha virt. eigenvalues --    1.15500   1.16333   1.16430   1.18032   1.18396
 Alpha virt. eigenvalues --    1.20198   1.20989   1.21238   1.22501   1.24858
 Alpha virt. eigenvalues --    1.26588   1.33391   1.33768   1.38816   1.42746
 Alpha virt. eigenvalues --    1.43973   1.51353   1.53547   1.60389   1.65764
 Alpha virt. eigenvalues --    1.66611   1.68327   1.71213   1.77011   1.78653
 Alpha virt. eigenvalues --    1.79420   1.85453   1.86289   1.91948   1.95428
 Alpha virt. eigenvalues --    1.98329   1.99348   2.00937   2.04915   2.08191
 Alpha virt. eigenvalues --    2.09559   2.13067   2.16412   2.18270   2.19354
 Alpha virt. eigenvalues --    2.21468   2.24447   2.27835   2.29107   2.32176
 Alpha virt. eigenvalues --    2.34513   2.35433   2.35946   2.36936   2.37717
 Alpha virt. eigenvalues --    2.39539   2.40507   2.40841   2.43132   2.44233
 Alpha virt. eigenvalues --    2.45476   2.46858   2.48624   2.53870   2.55036
 Alpha virt. eigenvalues --    2.55639   2.58386   2.59273   2.63404   2.65311
 Alpha virt. eigenvalues --    2.67555   2.68217   2.70654   2.73144   2.80575
 Alpha virt. eigenvalues --    2.83882   2.85540   2.90184   2.91090   2.94047
 Alpha virt. eigenvalues --    2.95633   2.98271   3.00324   3.04463   3.04660
 Alpha virt. eigenvalues --    3.07155   3.09710   3.13302   3.15024   3.19487
 Alpha virt. eigenvalues --    3.20263   3.20970   3.22725   3.24308   3.25681
 Alpha virt. eigenvalues --    3.27005   3.29530   3.31039   3.34440   3.46072
 Alpha virt. eigenvalues --    3.48148   3.57826   3.59081   3.62180   3.68004
 Alpha virt. eigenvalues --    3.69534   3.73642   3.78819   3.79558   3.81831
 Alpha virt. eigenvalues --    3.83111   3.85870   3.87875   3.93918   3.94992
 Alpha virt. eigenvalues --    4.47058   4.55958   4.66994   4.77065   4.84169
 Alpha virt. eigenvalues --    4.99228   5.00214   5.06032   5.16608
          Condensed to atoms (all electrons):
               1          2          3          4          5          6
     1  C    4.939891   0.402497   0.403815   0.406463   0.324243  -0.040288
     2  H    0.402497   0.586598  -0.029983  -0.029554  -0.036702   0.003890
     3  H    0.403815  -0.029983   0.569350  -0.028646  -0.039245  -0.002114
     4  H    0.406463  -0.029554  -0.028646   0.574578  -0.037207  -0.003902
     5  C    0.324243  -0.036702  -0.039245  -0.037207   4.997878   0.415364
     6  H   -0.040288   0.003890  -0.002114  -0.003902   0.415364   0.544144
     7  H   -0.038893  -0.003629   0.004376  -0.002526   0.402044  -0.026220
     8  C   -0.052293  -0.004168  -0.007092   0.004439   0.365774  -0.038550
     9  H    0.004249  -0.000121   0.000116  -0.000060  -0.045979  -0.005332
    10  C   -0.005206   0.001359  -0.000014  -0.000012  -0.059195   0.004445
    11  H    0.000412  -0.002123   0.000540   0.000047  -0.005027  -0.000153
    12  H    0.000137   0.000248   0.000032  -0.000032  -0.001557   0.000017
    13  C   -0.000055   0.000019  -0.000041   0.000001   0.004280  -0.000099
    14  H   -0.000000  -0.000002   0.000000   0.000000  -0.000105  -0.000004
    15  H    0.000003   0.000002   0.000000  -0.000000  -0.000080   0.000002
    16  H    0.000000   0.000003   0.000000  -0.000000   0.000039   0.000001
    17  O   -0.003579   0.000186   0.005091   0.000016  -0.042509  -0.002843
    18  C    0.000237  -0.000017   0.000302  -0.000025  -0.003661   0.001982
    19  O    0.000059  -0.000003  -0.000020  -0.000000  -0.004527   0.004889
    20  C   -0.000017   0.000000  -0.000033   0.000001  -0.000417   0.000097
    21  H    0.000001  -0.000000  -0.000000  -0.000000   0.000006  -0.000001
    22  H    0.000001   0.000000   0.000139  -0.000000   0.000059  -0.000036
    23  H    0.000000   0.000000  -0.000001   0.000000   0.000010   0.000001
               7          8          9         10         11         12
     1  C   -0.038893  -0.052293   0.004249  -0.005206   0.000412   0.000137
     2  H   -0.003629  -0.004168  -0.000121   0.001359  -0.002123   0.000248
     3  H    0.004376  -0.007092   0.000116  -0.000014   0.000540   0.000032
     4  H   -0.002526   0.004439  -0.000060  -0.000012   0.000047  -0.000032
     5  C    0.402044   0.365774  -0.045979  -0.059195  -0.005027  -0.001557
     6  H   -0.026220  -0.038550  -0.005332   0.004445  -0.000153   0.000017
     7  H    0.591148  -0.041168  -0.000261  -0.002624   0.000420   0.000995
     8  C   -0.041168   4.835506   0.425013   0.359308  -0.034644  -0.046086
     9  H   -0.000261   0.425013   0.540367  -0.043299   0.004243  -0.000379
    10  C   -0.002624   0.359308  -0.043299   4.983937   0.405227   0.407644
    11  H    0.000420  -0.034644   0.004243   0.405227   0.575997  -0.028598
    12  H    0.000995  -0.046086  -0.000379   0.407644  -0.028598   0.589402
    13  C   -0.000141  -0.053828  -0.005846   0.337322  -0.039918  -0.037380
    14  H    0.000007  -0.003937   0.002933  -0.041409   0.004306  -0.003022
    15  H   -0.000002   0.004457  -0.000059  -0.037323  -0.002838  -0.003089
    16  H   -0.000005  -0.006535   0.000401  -0.038599  -0.002791   0.004313
    17  O    0.002946   0.129049  -0.032189  -0.055244  -0.001040   0.002972
    18  C    0.000153  -0.020902  -0.007178   0.003125  -0.000175  -0.000029
    19  O    0.000029  -0.002755   0.008153   0.000496  -0.000009   0.000007
    20  C    0.000005   0.004135   0.000252  -0.000120  -0.000009   0.000004
    21  H    0.000000  -0.000192  -0.000027  -0.000011   0.000004   0.000000
    22  H   -0.000000  -0.000224  -0.000002  -0.000007   0.000000  -0.000000
    23  H   -0.000000  -0.000117   0.000008   0.000002   0.000000  -0.000000
              13         14         15         16         17         18
     1  C   -0.000055  -0.000000   0.000003   0.000000  -0.003579   0.000237
     2  H    0.000019  -0.000002   0.000002   0.000003   0.000186  -0.000017
     3  H   -0.000041   0.000000   0.000000   0.000000   0.005091   0.000302
     4  H    0.000001   0.000000  -0.000000  -0.000000   0.000016  -0.000025
     5  C    0.004280  -0.000105  -0.000080   0.000039  -0.042509  -0.003661
     6  H   -0.000099  -0.000004   0.000002   0.000001  -0.002843   0.001982
     7  H   -0.000141   0.000007  -0.000002  -0.000005   0.002946   0.000153
     8  C   -0.053828  -0.003937   0.004457  -0.006535   0.129049  -0.020902
     9  H   -0.005846   0.002933  -0.000059   0.000401  -0.032189  -0.007178
    10  C    0.337322  -0.041409  -0.037323  -0.038599  -0.055244   0.003125
    11  H   -0.039918   0.004306  -0.002838  -0.002791  -0.001040  -0.000175
    12  H   -0.037380  -0.003022  -0.003089   0.004313   0.002972  -0.000029
    13  C    4.923659   0.401920   0.405426   0.404585  -0.000709   0.000116
    14  H    0.401920   0.586094  -0.028765  -0.029476   0.000088   0.000037
    15  H    0.405426  -0.028765   0.575417  -0.028261   0.000073  -0.000003
    16  H    0.404585  -0.029476  -0.028261   0.564500   0.004479  -0.000042
    17  O   -0.000709   0.000088   0.000073   0.004479   8.558658   0.253145
    18  C    0.000116   0.000037  -0.000003  -0.000042   0.253145   4.162554
    19  O   -0.000058  -0.000010  -0.000000  -0.000004  -0.074028   0.563004
    20  C   -0.000018  -0.000000  -0.000000  -0.000001  -0.092696   0.374496
    21  H    0.000008   0.000001  -0.000000   0.000165   0.002170  -0.030359
    22  H    0.000001  -0.000000  -0.000000  -0.000001   0.002099  -0.031399
    23  H    0.000000   0.000000   0.000000  -0.000001   0.003273  -0.038518
              19         20         21         22         23
     1  C    0.000059  -0.000017   0.000001   0.000001   0.000000
     2  H   -0.000003   0.000000  -0.000000   0.000000   0.000000
     3  H   -0.000020  -0.000033  -0.000000   0.000139  -0.000001
     4  H   -0.000000   0.000001  -0.000000  -0.000000   0.000000
     5  C   -0.004527  -0.000417   0.000006   0.000059   0.000010
     6  H    0.004889   0.000097  -0.000001  -0.000036   0.000001
     7  H    0.000029   0.000005   0.000000  -0.000000  -0.000000
     8  C   -0.002755   0.004135  -0.000192  -0.000224  -0.000117
     9  H    0.008153   0.000252  -0.000027  -0.000002   0.000008
    10  C    0.000496  -0.000120  -0.000011  -0.000007   0.000002
    11  H   -0.000009  -0.000009   0.000004   0.000000   0.000000
    12  H    0.000007   0.000004   0.000000  -0.000000  -0.000000
    13  C   -0.000058  -0.000018   0.000008   0.000001   0.000000
    14  H   -0.000010  -0.000000   0.000001  -0.000000   0.000000
    15  H   -0.000000  -0.000000  -0.000000  -0.000000   0.000000
    16  H   -0.000004  -0.000001   0.000165  -0.000001  -0.000001
    17  O   -0.074028  -0.092696   0.002170   0.002099   0.003273
    18  C    0.563004   0.374496  -0.030359  -0.031399  -0.038518
    19  O    8.146812  -0.060272   0.001107   0.000963   0.003089
    20  C   -0.060272   5.003674   0.389053   0.390195   0.395376
    21  H    0.001107   0.389053   0.528127  -0.023494  -0.021290
    22  H    0.000963   0.390195  -0.023494   0.528305  -0.021251
    23  H    0.003089   0.395376  -0.021290  -0.021251   0.521068
 Mulliken charges:
               1
     1  C   -0.341676
     2  H    0.111500
     3  H    0.123427
     4  H    0.116420
     5  C   -0.233486
     6  H    0.144711
     7  H    0.113346
     8  C    0.184811
     9  H    0.154997
    10  C   -0.219803
    11  H    0.126126
    12  H    0.114402
    13  C   -0.339244
    14  H    0.111345
    15  H    0.115040
    16  H    0.127230
    17  O   -0.659409
    18  C    0.773157
    19  O   -0.586923
    20  C   -0.403703
    21  H    0.154732
    22  H    0.154649
    23  H    0.158350
 Sum of Mulliken charges =  -0.00000
 Mulliken charges with hydrogens summed into heavy atoms:
               1
     1  C    0.009671
     5  C    0.024571
     8  C    0.339807
    10  C    0.020726
    13  C    0.014370
    17  O   -0.659409
    18  C    0.773157
    19  O   -0.586923
    20  C    0.064029
 Electronic spatial extent (au):  <R**2>=           1461.6646
 Charge=             -0.0000 electrons
 Dipole moment (field-independent basis, Debye):
    X=              0.8741    Y=              0.3913    Z=             -1.7881  Tot=              2.0284
 Quadrupole moment (field-independent basis, Debye-Ang):
   XX=            -54.2868   YY=            -56.0503   ZZ=            -60.2400
   XY=             -1.2996   XZ=              6.8915   YZ=              0.6263
 Traceless Quadrupole moment (field-independent basis, Debye-Ang):
   XX=              2.5723   YY=              0.8087   ZZ=             -3.3810
   XY=             -1.2996   XZ=              6.8915   YZ=              0.6263
 Octapole moment (field-independent basis, Debye-Ang**2):
  XXX=            -15.1100  YYY=             -1.6546  ZZZ=             -2.4516  XYY=             -5.0217
  XXY=              4.3767  XXZ=            -12.6541  XZZ=              3.6760  YZZ=              1.8405
  YYZ=              1.0097  XYZ=             -1.9092
 Hexadecapole moment (field-independent basis, Debye-Ang**3):
 XXXX=           -984.2938 YYYY=           -692.1299 ZZZZ=           -257.3502 XXXY=             -4.0820
 XXXZ=             22.5016 YYYX=             -2.6415 YYYZ=             -6.8737 ZZZX=              9.7541
 ZZZY=              0.8769 XXYY=           -282.8597 XXZZ=           -222.3259 YYZZ=           -157.1512
 XXYZ=             -1.3900 YYXZ=              0.7170 ZZXY=             -0.2666
 N-N= 4.887634581737D+02 E-N=-1.967565124078D+03  KE= 4.221799280207D+02
 No NMR shielding tensors so no spin-rotation constants.
 Leave Link  601 at Sun Sep 19 21:19:46 2021, MaxMem=   524288000 cpu:               0.3 elap:               0.9
 (Enter /opt/gaussian/g16_legacy/l9999.exe)
 1\1\GINC-TRUENO90\FOpt\RMP2-FC\6-31G(d,p)\C7H14O2\JRAMOS\19-Sep-2021\0
 \\#p opt mp2/6-31g(d,p)\\Conformer number 018. Energy MM = -6.946 kcal
 /mol\\0,1\C,-2.2608467941,1.0776026612,2.6676576789\H,-1.9488548751,1.
 5355676172,3.6049791879\H,-1.8548919463,0.0680735076,2.6326777369\H,-3
 .347521112,1.0058139412,2.681258595\C,-1.7944243685,1.8843416886,1.460
 9062238\H,-2.2261785437,1.4769181099,0.5459297965\H,-2.1445187274,2.91
 71509227,1.5381863582\C,-0.2817749207,1.9200907475,1.2782622203\H,-0.0
 486146508,2.4636612319,0.3600569199\C,0.4916620237,2.5121249471,2.4429
 672068\H,0.3303656098,1.8973207294,3.3295999301\H,0.0695064405,3.49776
 08039,2.6554667748\C,1.9839518382,2.6297806439,2.1571304278\H,2.162481
 4073,3.2563579185,1.2829076786\H,2.5109275719,3.072232005,3.0013077677
 \H,2.4121571923,1.6483955887,1.9641330494\O,0.2210564984,0.5607538607,
 1.122049356\C,0.1463480916,0.0386663678,-0.1308970292\O,-0.3091726691,
 0.6293543851,-1.095699909\C,0.7049346027,-1.3589821209,-0.1437464722\H
 ,1.7371709875,-1.3457723363,0.2000479997\H,0.1355855802,-1.9867291564,
 0.5388961944\H,0.6504507638,-1.7581840646,-1.1509776922\\Version=EM64L
 -G16RevA.03\State=1-A\HF=-423.0004168\MP2=-424.3607198\RMSD=4.891e-09\
 RMSF=4.687e-06\Dipole=0.1699058,-0.1171636,0.6439228\PG=C01 [X(C7H14O2
 )]\\@


 NATURE WILL TELL YOU A DIRECT LIE IF SHE CAN.

                                -- CHARLES DARWIN
 Job cpu time:       0 days  1 hours 17 minutes  3.7 seconds.
 Elapsed time:       0 days  1 hours 17 minutes  8.7 seconds.
 File lengths (MBytes):  RWF=     29 Int=      0 D2E=      0 Chk=      6 Scr=      1
 Normal termination of Gaussian 16 at Sun Sep 19 21:19:46 2021.
