 Entering Gaussian System, Link 0=/opt/gaussian/g16_legacy/g16
 Input=07-EVA_011_gaussian.com
 Output=07-EVA_011_gaussian.log
 Initial command:
 /opt/gaussian/g16_legacy/l1.exe "/scratch-local/jramos/2661764/Gau-2471.inp" -scrdir="/scratch-local/jramos/2661764/"
 Entering Link 1 = /opt/gaussian/g16_legacy/l1.exe PID=      2473.
  
 Copyright (c) 1988,1990,1992,1993,1995,1998,2003,2009,2016,
            Gaussian, Inc.  All Rights Reserved.
  
 This is part of the Gaussian(R) 16 program.  It is based on
 the Gaussian(R) 09 system (copyright 2009, Gaussian, Inc.),
 the Gaussian(R) 03 system (copyright 2003, Gaussian, Inc.),
 the Gaussian(R) 98 system (copyright 1998, Gaussian, Inc.),
 the Gaussian(R) 94 system (copyright 1995, Gaussian, Inc.),
 the Gaussian 92(TM) system (copyright 1992, Gaussian, Inc.),
 the Gaussian 90(TM) system (copyright 1990, Gaussian, Inc.),
 the Gaussian 88(TM) system (copyright 1988, Gaussian, Inc.),
 the Gaussian 86(TM) system (copyright 1986, Carnegie Mellon
 University), and the Gaussian 82(TM) system (copyright 1983,
 Carnegie Mellon University). Gaussian is a federally registered
 trademark of Gaussian, Inc.
  
 This software contains proprietary and confidential information,
 including trade secrets, belonging to Gaussian, Inc.
  
 This software is provided under written license and may be
 used, copied, transmitted, or stored only in accord with that
 written license.
  
 The following legend is applicable only to US Government
 contracts under FAR:
  
                    RESTRICTED RIGHTS LEGEND
  
 Use, reproduction and disclosure by the US Government is
 subject to restrictions as set forth in subparagraphs (a)
 and (c) of the Commercial Computer Software - Restricted
 Rights clause in FAR 52.227-19.
  
 Gaussian, Inc.
 340 Quinnipiac St., Bldg. 40, Wallingford CT 06492
  
  
 ---------------------------------------------------------------
 Warning -- This program may not be used in any manner that
 competes with the business of Gaussian, Inc. or will provide
 assistance to any competitor of Gaussian, Inc.  The licensee
 of this program is prohibited from giving any competitor of
 Gaussian, Inc. access to this program.  By using this program,
 the user acknowledges that Gaussian, Inc. is engaged in the
 business of creating and licensing software in the field of
 computational chemistry and represents and warrants to the
 licensee that it is not a competitor of Gaussian, Inc. and that
 it will not use this program in any manner prohibited above.
 ---------------------------------------------------------------
  

 Cite this work as:
 Gaussian 16, Revision A.03,
 M. J. Frisch, G. W. Trucks, H. B. Schlegel, G. E. Scuseria, 
 M. A. Robb, J. R. Cheeseman, G. Scalmani, V. Barone, 
 G. A. Petersson, H. Nakatsuji, X. Li, M. Caricato, A. V. Marenich, 
 J. Bloino, B. G. Janesko, R. Gomperts, B. Mennucci, H. P. Hratchian, 
 J. V. Ortiz, A. F. Izmaylov, J. L. Sonnenberg, D. Williams-Young, 
 F. Ding, F. Lipparini, F. Egidi, J. Goings, B. Peng, A. Petrone, 
 T. Henderson, D. Ranasinghe, V. G. Zakrzewski, J. Gao, N. Rega, 
 G. Zheng, W. Liang, M. Hada, M. Ehara, K. Toyota, R. Fukuda, 
 J. Hasegawa, M. Ishida, T. Nakajima, Y. Honda, O. Kitao, H. Nakai, 
 T. Vreven, K. Throssell, J. A. Montgomery, Jr., J. E. Peralta, 
 F. Ogliaro, M. J. Bearpark, J. J. Heyd, E. N. Brothers, K. N. Kudin, 
 V. N. Staroverov, T. A. Keith, R. Kobayashi, J. Normand, 
 K. Raghavachari, A. P. Rendell, J. C. Burant, S. S. Iyengar, 
 J. Tomasi, M. Cossi, J. M. Millam, M. Klene, C. Adamo, R. Cammi, 
 J. W. Ochterski, R. L. Martin, K. Morokuma, O. Farkas, 
 J. B. Foresman, and D. J. Fox, Gaussian, Inc., Wallingford CT, 2016.
 
 ******************************************
 Gaussian 16:  EM64L-G16RevA.03 25-Dec-2016
                19-Sep-2021 
 ******************************************
 %chk=07-EVA_011_gaussian.chk
 %nproc=1
 Will use up to    1 processors via shared memory.
 %mem=4000Mb
 ---------------------
 #p opt mp2/6-31g(d,p)
 ---------------------
 1/18=20,19=15,38=1/1,3;
 2/9=110,12=2,17=6,18=5,40=1/2;
 3/5=1,6=6,7=101,11=9,25=1,30=1,71=1/1,2,3;
 4//1;
 5/5=2,38=5/2;
 8/6=4,10=2/1;
 9/15=2,16=-3/6;
 10/5=1/2;
 6/7=2,8=2,9=2,10=2/1;
 7/12=2/1,2,3,16;
 1/18=20,19=15/3(2);
 2/9=110/2;
 99//99;
 2/9=110/2;
 3/5=1,6=6,7=101,11=9,25=1,30=1,71=1/1,2,3;
 4/5=5,16=3,69=1/1;
 5/5=2,38=5/2;
 8/6=4,10=2/1;
 9/15=2,16=-3/6;
 10/5=1/2;
 7/12=2/1,2,3,16;
 1/18=20,19=15/3(-8);
 2/9=110/2;
 6/7=2,8=2,9=2,10=2/1;
 99//99;
 Leave Link    1 at Sun Sep 19 20:02:33 2021, MaxMem=   524288000 cpu:               0.0 elap:               0.1
 (Enter /opt/gaussian/g16_legacy/l101.exe)
 -------------------------------------------------
 Conformer number 011. Energy MM = -6.067 kcal/mol
 -------------------------------------------------
 Symbolic Z-matrix:
 Charge =  0 Multiplicity = 1
 C                    -2.344     1.1608    2.574 
 H                    -2.0531    1.7004    3.4794 
 H                    -1.975     0.1331    2.6498 
 H                    -3.4372    1.1243    2.5489 
 C                    -1.8206    1.8502    1.3189 
 H                    -2.2463    1.325     0.457 
 H                    -2.2089    2.8721    1.2734 
 C                    -0.2831    1.8555    1.2077 
 H                     0.0152    2.3641    0.2816 
 C                     0.4109    2.5764    2.3761 
 H                     1.498     2.5063    2.2445 
 H                     0.2063    2.0641    3.3236 
 C                     0.0221    4.0459    2.4906 
 H                    -1.0493    4.1713    2.6718 
 H                     0.5497    4.5173    3.3258 
 H                     0.2813    4.5887    1.576 
 O                     0.1944    0.4922    1.1719 
 C                     0.0145   -0.1602   -0.0104 
 O                    -0.3903    0.344    -1.0496 
 C                     0.3773   -1.6094    0.0998 
 H                     1.3333   -1.7854   -0.3968 
 H                     0.4433   -1.9159    1.1473 
 H                    -0.4103   -2.2065   -0.3717 
 
 ITRead=  0  0  0  0  0  0  0  0  0  0  0  0  0  0  0  0  0  0  0  0
 ITRead=  0  0  0
 MicOpt= -1 -1 -1 -1 -1 -1 -1 -1 -1 -1 -1 -1 -1 -1 -1 -1 -1 -1 -1 -1
 MicOpt= -1 -1 -1
 NAtoms=     23 NQM=       23 NQMF=       0 NMMI=      0 NMMIF=      0
                NMic=       0 NMicF=      0.
                    Isotopes and Nuclear Properties:
 (Nuclear quadrupole moments (NQMom) in fm**2, nuclear magnetic moments (NMagM)
  in nuclear magnetons)

  Atom         1           2           3           4           5           6           7           8           9          10
 IAtWgt=          12           1           1           1          12           1           1          12           1          12
 AtmWgt=  12.0000000   1.0078250   1.0078250   1.0078250  12.0000000   1.0078250   1.0078250  12.0000000   1.0078250  12.0000000
 NucSpn=           0           1           1           1           0           1           1           0           1           0
 AtZEff=  -0.0000000  -0.0000000  -0.0000000  -0.0000000  -0.0000000  -0.0000000  -0.0000000  -0.0000000  -0.0000000  -0.0000000
 NQMom=    0.0000000   0.0000000   0.0000000   0.0000000   0.0000000   0.0000000   0.0000000   0.0000000   0.0000000   0.0000000
 NMagM=    0.0000000   2.7928460   2.7928460   2.7928460   0.0000000   2.7928460   2.7928460   0.0000000   2.7928460   0.0000000
 AtZNuc=   6.0000000   1.0000000   1.0000000   1.0000000   6.0000000   1.0000000   1.0000000   6.0000000   1.0000000   6.0000000

  Atom        11          12          13          14          15          16          17          18          19          20
 IAtWgt=           1           1          12           1           1           1          16          12          16          12
 AtmWgt=   1.0078250   1.0078250  12.0000000   1.0078250   1.0078250   1.0078250  15.9949146  12.0000000  15.9949146  12.0000000
 NucSpn=           1           1           0           1           1           1           0           0           0           0
 AtZEff=  -0.0000000  -0.0000000  -0.0000000  -0.0000000  -0.0000000  -0.0000000  -0.0000000  -0.0000000  -0.0000000  -0.0000000
 NQMom=    0.0000000   0.0000000   0.0000000   0.0000000   0.0000000   0.0000000   0.0000000   0.0000000   0.0000000   0.0000000
 NMagM=    2.7928460   2.7928460   0.0000000   2.7928460   2.7928460   2.7928460   0.0000000   0.0000000   0.0000000   0.0000000
 AtZNuc=   1.0000000   1.0000000   6.0000000   1.0000000   1.0000000   1.0000000   8.0000000   6.0000000   8.0000000   6.0000000

  Atom        21          22          23
 IAtWgt=           1           1           1
 AtmWgt=   1.0078250   1.0078250   1.0078250
 NucSpn=           1           1           1
 AtZEff=  -0.0000000  -0.0000000  -0.0000000
 NQMom=    0.0000000   0.0000000   0.0000000
 NMagM=    2.7928460   2.7928460   2.7928460
 AtZNuc=   1.0000000   1.0000000   1.0000000
 Leave Link  101 at Sun Sep 19 20:02:34 2021, MaxMem=   524288000 cpu:               0.1 elap:               0.2
 (Enter /opt/gaussian/g16_legacy/l103.exe)

 GradGradGradGradGradGradGradGradGradGradGradGradGradGradGradGradGradGrad
 Berny optimization.
 Initialization pass.
                           ----------------------------
                           !    Initial Parameters    !
                           ! (Angstroms and Degrees)  !
 --------------------------                            --------------------------
 ! Name  Definition              Value          Derivative Info.                !
 --------------------------------------------------------------------------------
 ! R1    R(1,2)                  1.0934         estimate D2E/DX2                !
 ! R2    R(1,3)                  1.0946         estimate D2E/DX2                !
 ! R3    R(1,4)                  1.0941         estimate D2E/DX2                !
 ! R4    R(1,5)                  1.5246         estimate D2E/DX2                !
 ! R5    R(5,6)                  1.0954         estimate D2E/DX2                !
 ! R6    R(5,7)                  1.0941         estimate D2E/DX2                !
 ! R7    R(5,8)                  1.5415         estimate D2E/DX2                !
 ! R8    R(8,9)                  1.0979         estimate D2E/DX2                !
 ! R9    R(8,10)                 1.5383         estimate D2E/DX2                !
 ! R10   R(8,17)                 1.4449         estimate D2E/DX2                !
 ! R11   R(10,11)                1.0973         estimate D2E/DX2                !
 ! R12   R(10,12)                1.0964         estimate D2E/DX2                !
 ! R13   R(10,13)                1.5244         estimate D2E/DX2                !
 ! R14   R(13,14)                1.0938         estimate D2E/DX2                !
 ! R15   R(13,15)                1.0946         estimate D2E/DX2                !
 ! R16   R(13,16)                1.0947         estimate D2E/DX2                !
 ! R17   R(17,18)                1.3623         estimate D2E/DX2                !
 ! R18   R(18,19)                1.2239         estimate D2E/DX2                !
 ! R19   R(18,20)                1.498          estimate D2E/DX2                !
 ! R20   R(20,21)                1.0916         estimate D2E/DX2                !
 ! R21   R(20,22)                1.0934         estimate D2E/DX2                !
 ! R22   R(20,23)                1.0951         estimate D2E/DX2                !
 ! A1    A(2,1,3)              108.4406         estimate D2E/DX2                !
 ! A2    A(2,1,4)              107.5352         estimate D2E/DX2                !
 ! A3    A(2,1,5)              111.542          estimate D2E/DX2                !
 ! A4    A(3,1,4)              107.8851         estimate D2E/DX2                !
 ! A5    A(3,1,5)              111.4586         estimate D2E/DX2                !
 ! A6    A(4,1,5)              109.829          estimate D2E/DX2                !
 ! A7    A(1,5,6)              107.3087         estimate D2E/DX2                !
 ! A8    A(1,5,7)              109.5557         estimate D2E/DX2                !
 ! A9    A(1,5,8)              113.7871         estimate D2E/DX2                !
 ! A10   A(6,5,7)              106.0909         estimate D2E/DX2                !
 ! A11   A(6,5,8)              109.4203         estimate D2E/DX2                !
 ! A12   A(7,5,8)              110.3501         estimate D2E/DX2                !
 ! A13   A(5,8,9)              109.4778         estimate D2E/DX2                !
 ! A14   A(5,8,10)             113.377          estimate D2E/DX2                !
 ! A15   A(5,8,17)             109.1561         estimate D2E/DX2                !
 ! A16   A(9,8,10)             107.5186         estimate D2E/DX2                !
 ! A17   A(9,8,17)             109.0501         estimate D2E/DX2                !
 ! A18   A(10,8,17)            108.1724         estimate D2E/DX2                !
 ! A19   A(8,10,11)            109.0214         estimate D2E/DX2                !
 ! A20   A(8,10,12)            110.6845         estimate D2E/DX2                !
 ! A21   A(8,10,13)            113.1873         estimate D2E/DX2                !
 ! A22   A(11,10,12)           104.9916         estimate D2E/DX2                !
 ! A23   A(11,10,13)           108.8617         estimate D2E/DX2                !
 ! A24   A(12,10,13)           109.751          estimate D2E/DX2                !
 ! A25   A(10,13,14)           111.8876         estimate D2E/DX2                !
 ! A26   A(10,13,15)           110.4588         estimate D2E/DX2                !
 ! A27   A(10,13,16)           110.7847         estimate D2E/DX2                !
 ! A28   A(14,13,15)           107.2385         estimate D2E/DX2                !
 ! A29   A(14,13,16)           108.2696         estimate D2E/DX2                !
 ! A30   A(15,13,16)           108.0489         estimate D2E/DX2                !
 ! A31   A(8,17,18)            115.4487         estimate D2E/DX2                !
 ! A32   A(17,18,19)           125.6815         estimate D2E/DX2                !
 ! A33   A(17,18,20)           111.56           estimate D2E/DX2                !
 ! A34   A(19,18,20)           122.7585         estimate D2E/DX2                !
 ! A35   A(18,20,21)           109.55           estimate D2E/DX2                !
 ! A36   A(18,20,22)           110.872          estimate D2E/DX2                !
 ! A37   A(18,20,23)           108.7623         estimate D2E/DX2                !
 ! A38   A(21,20,22)           109.7414         estimate D2E/DX2                !
 ! A39   A(21,20,23)           110.2492         estimate D2E/DX2                !
 ! A40   A(22,20,23)           107.6413         estimate D2E/DX2                !
 ! D1    D(2,1,5,6)           -173.4865         estimate D2E/DX2                !
 ! D2    D(2,1,5,7)            -58.7292         estimate D2E/DX2                !
 ! D3    D(2,1,5,8)             65.318          estimate D2E/DX2                !
 ! D4    D(3,1,5,6)             65.1427         estimate D2E/DX2                !
 ! D5    D(3,1,5,7)            179.9            estimate D2E/DX2                !
 ! D6    D(3,1,5,8)            -56.0529         estimate D2E/DX2                !
 ! D7    D(4,1,5,6)            -54.3639         estimate D2E/DX2                !
 ! D8    D(4,1,5,7)             60.3935         estimate D2E/DX2                !
 ! D9    D(4,1,5,8)           -175.5594         estimate D2E/DX2                !
 ! D10   D(1,5,8,9)            179.8374         estimate D2E/DX2                !
 ! D11   D(1,5,8,10)           -60.1146         estimate D2E/DX2                !
 ! D12   D(1,5,8,17)            60.5387         estimate D2E/DX2                !
 ! D13   D(6,5,8,9)             59.8272         estimate D2E/DX2                !
 ! D14   D(6,5,8,10)           179.8752         estimate D2E/DX2                !
 ! D15   D(6,5,8,17)           -59.4716         estimate D2E/DX2                !
 ! D16   D(7,5,8,9)            -56.5457         estimate D2E/DX2                !
 ! D17   D(7,5,8,10)            63.5023         estimate D2E/DX2                !
 ! D18   D(7,5,8,17)          -175.8444         estimate D2E/DX2                !
 ! D19   D(5,8,10,11)          177.9738         estimate D2E/DX2                !
 ! D20   D(5,8,10,12)           62.973          estimate D2E/DX2                !
 ! D21   D(5,8,10,13)          -60.7158         estimate D2E/DX2                !
 ! D22   D(9,8,10,11)          -60.8699         estimate D2E/DX2                !
 ! D23   D(9,8,10,12)         -175.8708         estimate D2E/DX2                !
 ! D24   D(9,8,10,13)           60.4405         estimate D2E/DX2                !
 ! D25   D(17,8,10,11)          56.766          estimate D2E/DX2                !
 ! D26   D(17,8,10,12)         -58.2348         estimate D2E/DX2                !
 ! D27   D(17,8,10,13)         178.0764         estimate D2E/DX2                !
 ! D28   D(5,8,17,18)           75.6255         estimate D2E/DX2                !
 ! D29   D(9,8,17,18)          -43.9381         estimate D2E/DX2                !
 ! D30   D(10,8,17,18)        -160.587          estimate D2E/DX2                !
 ! D31   D(8,10,13,14)          61.3376         estimate D2E/DX2                !
 ! D32   D(8,10,13,15)        -179.2726         estimate D2E/DX2                !
 ! D33   D(8,10,13,16)         -59.5826         estimate D2E/DX2                !
 ! D34   D(11,10,13,14)       -177.2621         estimate D2E/DX2                !
 ! D35   D(11,10,13,15)        -57.8723         estimate D2E/DX2                !
 ! D36   D(11,10,13,16)         61.8177         estimate D2E/DX2                !
 ! D37   D(12,10,13,14)        -62.862          estimate D2E/DX2                !
 ! D38   D(12,10,13,15)         56.5278         estimate D2E/DX2                !
 ! D39   D(12,10,13,16)        176.2178         estimate D2E/DX2                !
 ! D40   D(8,17,18,19)           7.2657         estimate D2E/DX2                !
 ! D41   D(8,17,18,20)        -172.7492         estimate D2E/DX2                !
 ! D42   D(17,18,20,21)       -105.4466         estimate D2E/DX2                !
 ! D43   D(17,18,20,22)         15.8196         estimate D2E/DX2                !
 ! D44   D(17,18,20,23)        133.9884         estimate D2E/DX2                !
 ! D45   D(19,18,20,21)         74.5389         estimate D2E/DX2                !
 ! D46   D(19,18,20,22)       -164.1948         estimate D2E/DX2                !
 ! D47   D(19,18,20,23)        -46.0261         estimate D2E/DX2                !
 --------------------------------------------------------------------------------
 Trust Radius=3.00D-01 FncErr=1.00D-07 GrdErr=1.00D-07 EigMax=2.50D+02 EigMin=1.00D-04
 Number of steps in this run=    119 maximum allowed number of steps=    138.
 GradGradGradGradGradGradGradGradGradGradGradGradGradGradGradGradGradGrad

 Leave Link  103 at Sun Sep 19 20:02:34 2021, MaxMem=   524288000 cpu:               0.0 elap:               0.1
 (Enter /opt/gaussian/g16_legacy/l202.exe)
                          Input orientation:                          
 ---------------------------------------------------------------------
 Center     Atomic      Atomic             Coordinates (Angstroms)
 Number     Number       Type             X           Y           Z
 ---------------------------------------------------------------------
      1          6           0       -2.344000    1.160800    2.574000
      2          1           0       -2.053100    1.700400    3.479400
      3          1           0       -1.975000    0.133100    2.649800
      4          1           0       -3.437200    1.124300    2.548900
      5          6           0       -1.820600    1.850200    1.318900
      6          1           0       -2.246300    1.325000    0.457000
      7          1           0       -2.208900    2.872100    1.273400
      8          6           0       -0.283100    1.855500    1.207700
      9          1           0        0.015200    2.364100    0.281600
     10          6           0        0.410900    2.576400    2.376100
     11          1           0        1.498000    2.506300    2.244500
     12          1           0        0.206300    2.064100    3.323600
     13          6           0        0.022100    4.045900    2.490600
     14          1           0       -1.049300    4.171300    2.671800
     15          1           0        0.549700    4.517300    3.325800
     16          1           0        0.281300    4.588700    1.576000
     17          8           0        0.194400    0.492200    1.171900
     18          6           0        0.014500   -0.160200   -0.010400
     19          8           0       -0.390300    0.344000   -1.049600
     20          6           0        0.377300   -1.609400    0.099800
     21          1           0        1.333300   -1.785400   -0.396800
     22          1           0        0.443300   -1.915900    1.147300
     23          1           0       -0.410300   -2.206500   -0.371700
 ---------------------------------------------------------------------
                    Distance matrix (angstroms):
                    1          2          3          4          5
     1  C    0.000000
     2  H    1.093408   0.000000
     3  H    1.094566   1.775039   0.000000
     4  H    1.094097   1.764498   1.769375   0.000000
     5  C    1.524630   2.178131   2.177973   2.157134   0.000000
     6  H    2.125605   3.051746   2.510498   2.415485   1.095412
     7  H    2.153685   2.502717   3.074298   2.488057   1.094133
     8  C    2.568403   2.884021   2.812266   3.504542   1.541525
     9  H    3.502692   3.865784   3.814004   4.312403   2.170310
    10  C    3.103637   2.838299   3.425952   4.116592   2.573836
    11  H    4.084104   3.845096   4.225882   5.134080   3.507180
    12  H    2.807469   2.293783   2.990123   3.841676   2.858828
    13  C    3.732183   3.284136   4.395880   4.528344   3.096695
    14  H    3.278555   2.786607   4.143002   3.873161   2.795129
    15  H    4.494974   3.838370   5.104145   5.292579   4.093824
    16  H    4.431558   4.173084   5.108455   5.174538   3.461714
    17  O    2.975968   3.440285   2.649422   3.934997   2.434337
    18  C    3.739878   4.462679   3.334786   4.484885   3.029247
    19  O    4.196973   5.011643   4.030051   4.779296   3.150268
    20  C    4.604470   5.318206   3.882283   5.293545   4.276190
    21  H    5.570304   6.216384   4.889505   6.316738   5.109628
    22  H    4.389829   4.974769   3.507718   5.124995   4.397522
    23  H    4.873916   5.726572   4.129343   5.365283   4.615614
                    6          7          8          9         10
     6  H    0.000000
     7  H    1.749693   0.000000
     8  C    2.167749   2.178646   0.000000
     9  H    2.494970   2.487640   1.097870   0.000000
    10  C    3.508512   2.857750   1.538340   2.142097   0.000000
    11  H    4.313978   3.849409   2.161206   2.464121   1.097278
    12  H    3.844335   3.269461   2.181756   3.062725   1.096389
    13  C    4.084662   2.799418   2.556723   2.776361   1.524371
    14  H    3.799944   2.233409   2.844922   3.179967   2.182505
    15  H    5.122344   3.811680   3.502154   3.766844   2.165246
    16  H    4.276992   3.039635   2.815062   2.587494   2.169403
    17  O    2.676127   3.383796   1.444948   2.080566   2.416787
    18  C    2.745086   3.973222   2.373896   2.541133   3.652601
    19  O    2.583978   3.885219   2.718736   2.453024   4.166648
    20  C    3.952413   5.305621   3.697175   3.994104   4.764829
    21  H    4.818412   6.085150   4.294569   4.406355   5.250247
    22  H    4.267774   5.474944   3.841193   4.387608   4.657441
    23  H    4.065604   5.633249   4.360106   4.636619   5.576819
                   11         12         13         14         15
    11  H    0.000000
    12  H    1.740255   0.000000
    13  C    2.146908   2.157626   0.000000
    14  H    3.073036   2.538044   1.093827   0.000000
    15  H    2.472368   2.477119   1.094595   1.761883   0.000000
    16  H    2.502727   3.071374   1.094673   1.773555   1.771704
    17  O    2.628011   2.664737   3.794396   4.163204   4.578969
    18  C    3.794149   4.012462   4.893499   5.204590   5.770241
    19  O    4.369475   4.737041   5.138789   5.378785   6.119163
    20  C    4.774379   4.890473   6.150163   6.485897   6.926272
    21  H    5.042051   5.470846   6.637800   7.111636   7.361780
    22  H    4.676761   4.542340   6.125759   6.450268   6.792882
    23  H    5.718094   5.680974   6.890010   7.095600   7.733214
                   16         17         18         19         20
    16  H    0.000000
    17  O    4.117300   0.000000
    18  C    5.013970   1.362286   0.000000
    19  O    5.036100   2.301934   1.223935   0.000000
    20  C    6.372192   2.366342   1.497981   2.392927   0.000000
    21  H    6.754835   2.990882   2.128336   2.816254   1.091569
    22  H    6.520725   2.421054   2.146304   3.260124   1.093414
    23  H    7.102576   3.167230   2.120928   2.639128   1.095059
                   21         22         23
    21  H    0.000000
    22  H    1.787002   0.000000
    23  H    1.793905   1.766477   0.000000
 Stoichiometry    C7H14O2
 Framework group  C1[X(C7H14O2)]
 Deg. of freedom    63
 Full point group                 C1      NOp   1
 Largest Abelian subgroup         C1      NOp   1
 Largest concise Abelian subgroup C1      NOp   1
                         Standard orientation:                         
 ---------------------------------------------------------------------
 Center     Atomic      Atomic             Coordinates (Angstroms)
 Number     Number       Type             X           Y           Z
 ---------------------------------------------------------------------
      1          6           0       -0.964433    2.098777   -0.421111
      2          1           0       -1.870004    1.891962   -0.997920
      3          1           0       -0.109397    2.091167   -1.104434
      4          1           0       -1.058109    3.108911   -0.011351
      5          6           0       -0.781451    1.095755    0.712449
      6          1           0        0.071417    1.432950    1.311484
      7          1           0       -1.650713    1.130407    1.376008
      8          6           0       -0.531392   -0.347305    0.231461
      9          1           0       -0.407369   -1.006548    1.100561
     10          6           0       -1.680220   -0.914641   -0.619899
     11          1           0       -1.413317   -1.925647   -0.952539
     12          1           0       -1.801108   -0.335117   -1.542724
     13          6           0       -3.007416   -0.976042    0.127421
     14          1           0       -3.345250    0.016014    0.440707
     15          1           0       -3.788332   -1.397196   -0.513625
     16          1           0       -2.922903   -1.606886    1.018041
     17          8           0        0.676023   -0.380246   -0.561595
     18          6           0        1.840518   -0.309960    0.141850
     19          8           0        1.941612   -0.349426    1.360964
     20          6           0        3.024592   -0.175001   -0.765731
     21          1           0        3.562483   -1.123902   -0.807965
     22          1           0        2.712769    0.117885   -1.771981
     23          1           0        3.677575    0.613871   -0.377854
 ---------------------------------------------------------------------
 Rotational constants (GHZ):           2.5348391           0.9458279           0.8549260
 Leave Link  202 at Sun Sep 19 20:02:34 2021, MaxMem=   524288000 cpu:               0.0 elap:               0.2
 (Enter /opt/gaussian/g16_legacy/l301.exe)
 Standard basis: 6-31G(d,p) (6D, 7F)
 Ernie: Thresh=  0.10000D-02 Tol=  0.10000D-05 Strict=F.
 There are   205 symmetry adapted cartesian basis functions of A   symmetry.
 There are   205 symmetry adapted basis functions of A   symmetry.
   205 basis functions,   350 primitive gaussians,   205 cartesian basis functions
    36 alpha electrons       36 beta electrons
       nuclear repulsion energy       485.3443105871 Hartrees.
 IExCor=    0 DFT=F Ex=HF Corr=None ExCW=0 ScaHFX=  1.000000
 ScaDFX=  1.000000  1.000000  1.000000  1.000000 ScalE2=  1.000000  1.000000
 IRadAn=      5 IRanWt=     -1 IRanGd=            0 ICorTp=0 IEmpDi=  4
 NAtoms=   23 NActive=   23 NUniq=   23 SFac= 1.00D+00 NAtFMM=   60 NAOKFM=F Big=F
 Integral buffers will be    131072 words long.
 Raffenetti 1 integral format.
 Two-electron integral symmetry is turned on.
 Leave Link  301 at Sun Sep 19 20:02:34 2021, MaxMem=   524288000 cpu:               0.0 elap:               0.2
 (Enter /opt/gaussian/g16_legacy/l302.exe)
 NPDir=0 NMtPBC=     1 NCelOv=     1 NCel=       1 NClECP=     1 NCelD=      1
         NCelK=      1 NCelE2=     1 NClLst=     1 CellRange=     0.0.
 One-electron integrals computed using PRISM.
 One-electron integral symmetry used in STVInt
 NBasis=   205 RedAO= T EigKep=  3.19D-03  NBF=   205
 NBsUse=   205 1.00D-06 EigRej= -1.00D+00 NBFU=   205
 Leave Link  302 at Sun Sep 19 20:02:35 2021, MaxMem=   524288000 cpu:               0.1 elap:               0.3
 (Enter /opt/gaussian/g16_legacy/l303.exe)
 DipDrv:  MaxL=1.
 Leave Link  303 at Sun Sep 19 20:02:35 2021, MaxMem=   524288000 cpu:               0.0 elap:               0.3
 (Enter /opt/gaussian/g16_legacy/l401.exe)
 ExpMin= 1.61D-01 ExpMax= 5.48D+03 ExpMxC= 8.25D+02 IAcc=3 IRadAn=         5 AccDes= 0.00D+00
 Harris functional with IExCor=  205 and IRadAn=       5 diagonalized for initial guess.
 HarFok:  IExCor=  205 AccDes= 0.00D+00 IRadAn=         5 IDoV= 1 UseB2=F ITyADJ=14
 ICtDFT=  3500011 ScaDFX=  1.000000  1.000000  1.000000  1.000000
 FoFCou: FMM=F IPFlag=           0 FMFlag=      100000 FMFlg1=           0
         NFxFlg=           0 DoJE=T BraDBF=F KetDBF=T FulRan=T
         wScrn=  0.000000 ICntrl=       500 IOpCl=  0 I1Cent=   200000004 NGrid=           0
         NMat0=    1 NMatS0=      1 NMatT0=    0 NMatD0=    1 NMtDS0=    0 NMtDT0=    0
 Petite list used in FoFCou.
 Harris En= -423.717475830942    
 JPrj=0 DoOrth=F DoCkMO=F.
 Leave Link  401 at Sun Sep 19 20:02:40 2021, MaxMem=   524288000 cpu:               4.6 elap:               4.9
 (Enter /opt/gaussian/g16_legacy/l502.exe)
 Keep R1 ints in memory in canonical form, NReq=227304434.
 FoFCou: FMM=F IPFlag=           0 FMFlag=           0 FMFlg1=           0
         NFxFlg=           0 DoJE=F BraDBF=F KetDBF=F FulRan=T
         wScrn=  0.000000 ICntrl=       600 IOpCl=  0 I1Cent=           0 NGrid=           0
         NMat0=    1 NMatS0=  21115 NMatT0=    0 NMatD0=    1 NMtDS0=    0 NMtDT0=    0
 Symmetry not used in FoFCou.
 Two-electron integral symmetry not used.
 Closed shell SCF:
 Using DIIS extrapolation, IDIIS=  1040.
 NGot=   524288000 LenX=   301268152 LenY=   301225686
 Requested convergence on RMS density matrix=1.00D-08 within 128 cycles.
 Requested convergence on MAX density matrix=1.00D-06.
 Requested convergence on             energy=1.00D-06.
 No special actions if energy rises.

 Cycle   1  Pass 1  IDiag  1:
 E= -422.507228122975    
 DIIS: error= 4.62D-02 at cycle   1 NSaved=   1.
 NSaved= 1 IEnMin= 1 EnMin= -422.507228122975     IErMin= 1 ErrMin= 4.62D-02
 ErrMax= 4.62D-02  0.00D+00 EMaxC= 1.00D-01 BMatC= 7.21D-01 BMatP= 7.21D-01
 IDIUse=3 WtCom= 5.38D-01 WtEn= 4.62D-01
 Coeff-Com:  0.100D+01
 Coeff-En:   0.100D+01
 Coeff:      0.100D+01
 Gap=     0.551 Goal=   None    Shift=    0.000
 GapD=    0.551 DampG=2.000 DampE=0.500 DampFc=1.0000 IDamp=-1.
 RMSDP=4.05D-03 MaxDP=1.17D-01              OVMax= 1.28D-01

 Cycle   2  Pass 1  IDiag  1:
 E= -422.909385344665     Delta-E=       -0.402157221690 Rises=F Damp=F
 DIIS: error= 1.18D-02 at cycle   2 NSaved=   2.
 NSaved= 2 IEnMin= 2 EnMin= -422.909385344665     IErMin= 2 ErrMin= 1.18D-02
 ErrMax= 1.18D-02  0.00D+00 EMaxC= 1.00D-01 BMatC= 1.00D-01 BMatP= 7.21D-01
 IDIUse=3 WtCom= 8.82D-01 WtEn= 1.18D-01
 Coeff-Com:  0.210D+00 0.790D+00
 Coeff-En:   0.000D+00 0.100D+01
 Coeff:      0.185D+00 0.815D+00
 Gap=     0.634 Goal=   None    Shift=    0.000
 RMSDP=1.49D-03 MaxDP=4.90D-02 DE=-4.02D-01 OVMax= 4.52D-02

 Cycle   3  Pass 1  IDiag  1:
 E= -422.986615690383     Delta-E=       -0.077230345718 Rises=F Damp=F
 DIIS: error= 5.52D-03 at cycle   3 NSaved=   3.
 NSaved= 3 IEnMin= 3 EnMin= -422.986615690383     IErMin= 3 ErrMin= 5.52D-03
 ErrMax= 5.52D-03  0.00D+00 EMaxC= 1.00D-01 BMatC= 8.63D-03 BMatP= 1.00D-01
 IDIUse=3 WtCom= 9.45D-01 WtEn= 5.52D-02
 Coeff-Com: -0.149D-01 0.189D+00 0.826D+00
 Coeff-En:   0.000D+00 0.000D+00 0.100D+01
 Coeff:     -0.141D-01 0.178D+00 0.836D+00
 Gap=     0.610 Goal=   None    Shift=    0.000
 RMSDP=3.98D-04 MaxDP=2.25D-02 DE=-7.72D-02 OVMax= 2.18D-02

 Cycle   4  Pass 1  IDiag  1:
 E= -422.993198778619     Delta-E=       -0.006583088236 Rises=F Damp=F
 DIIS: error= 1.60D-03 at cycle   4 NSaved=   4.
 NSaved= 4 IEnMin= 4 EnMin= -422.993198778619     IErMin= 4 ErrMin= 1.60D-03
 ErrMax= 1.60D-03  0.00D+00 EMaxC= 1.00D-01 BMatC= 9.51D-04 BMatP= 8.63D-03
 IDIUse=3 WtCom= 9.84D-01 WtEn= 1.60D-02
 Coeff-Com: -0.124D-01 0.334D-01 0.313D+00 0.666D+00
 Coeff-En:   0.000D+00 0.000D+00 0.000D+00 0.100D+01
 Coeff:     -0.122D-01 0.329D-01 0.308D+00 0.671D+00
 Gap=     0.610 Goal=   None    Shift=    0.000
 RMSDP=1.24D-04 MaxDP=5.80D-03 DE=-6.58D-03 OVMax= 5.55D-03

 Cycle   5  Pass 1  IDiag  1:
 E= -422.993957481016     Delta-E=       -0.000758702397 Rises=F Damp=F
 DIIS: error= 4.80D-04 at cycle   5 NSaved=   5.
 NSaved= 5 IEnMin= 5 EnMin= -422.993957481016     IErMin= 5 ErrMin= 4.80D-04
 ErrMax= 4.80D-04  0.00D+00 EMaxC= 1.00D-01 BMatC= 2.73D-05 BMatP= 9.51D-04
 IDIUse=3 WtCom= 9.95D-01 WtEn= 4.80D-03
 Coeff-Com:  0.169D-02-0.165D-01-0.756D-01-0.228D-01 0.111D+01
 Coeff-En:   0.000D+00 0.000D+00 0.000D+00 0.000D+00 0.100D+01
 Coeff:      0.168D-02-0.164D-01-0.752D-01-0.227D-01 0.111D+01
 Gap=     0.610 Goal=   None    Shift=    0.000
 RMSDP=4.93D-05 MaxDP=1.85D-03 DE=-7.59D-04 OVMax= 2.67D-03

 Cycle   6  Pass 1  IDiag  1:
 E= -422.994017653038     Delta-E=       -0.000060172022 Rises=F Damp=F
 DIIS: error= 1.15D-04 at cycle   6 NSaved=   6.
 NSaved= 6 IEnMin= 6 EnMin= -422.994017653038     IErMin= 6 ErrMin= 1.15D-04
 ErrMax= 1.15D-04  0.00D+00 EMaxC= 1.00D-01 BMatC= 3.68D-06 BMatP= 2.73D-05
 IDIUse=3 WtCom= 9.99D-01 WtEn= 1.15D-03
 Coeff-Com:  0.129D-02-0.574D-02-0.371D-01-0.713D-01 0.153D+00 0.960D+00
 Coeff-En:   0.000D+00 0.000D+00 0.000D+00 0.000D+00 0.000D+00 0.100D+01
 Coeff:      0.128D-02-0.573D-02-0.371D-01-0.712D-01 0.153D+00 0.960D+00
 Gap=     0.610 Goal=   None    Shift=    0.000
 RMSDP=1.79D-05 MaxDP=6.33D-04 DE=-6.02D-05 OVMax= 9.90D-04

 Cycle   7  Pass 1  IDiag  1:
 E= -422.994025380884     Delta-E=       -0.000007727847 Rises=F Damp=F
 DIIS: error= 5.51D-05 at cycle   7 NSaved=   7.
 NSaved= 7 IEnMin= 7 EnMin= -422.994025380884     IErMin= 7 ErrMin= 5.51D-05
 ErrMax= 5.51D-05  0.00D+00 EMaxC= 1.00D-01 BMatC= 4.76D-07 BMatP= 3.68D-06
 IDIUse=1 WtCom= 1.00D+00 WtEn= 0.00D+00
 Coeff-Com: -0.270D-03 0.212D-02 0.123D-01 0.200D-02-0.112D+00-0.955D-01
 Coeff-Com:  0.119D+01
 Coeff:     -0.270D-03 0.212D-02 0.123D-01 0.200D-02-0.112D+00-0.955D-01
 Coeff:      0.119D+01
 Gap=     0.610 Goal=   None    Shift=    0.000
 RMSDP=7.63D-06 MaxDP=3.26D-04 DE=-7.73D-06 OVMax= 5.22D-04

 Cycle   8  Pass 1  IDiag  1:
 E= -422.994026779472     Delta-E=       -0.000001398588 Rises=F Damp=F
 DIIS: error= 1.67D-05 at cycle   8 NSaved=   8.
 NSaved= 8 IEnMin= 8 EnMin= -422.994026779472     IErMin= 8 ErrMin= 1.67D-05
 ErrMax= 1.67D-05  0.00D+00 EMaxC= 1.00D-01 BMatC= 8.30D-08 BMatP= 4.76D-07
 IDIUse=1 WtCom= 1.00D+00 WtEn= 0.00D+00
 Coeff-Com: -0.214D-03 0.106D-02 0.694D-02 0.826D-02-0.287D-01-0.164D+00
 Coeff-Com:  0.755D-01 0.110D+01
 Coeff:     -0.214D-03 0.106D-02 0.694D-02 0.826D-02-0.287D-01-0.164D+00
 Coeff:      0.755D-01 0.110D+01
 Gap=     0.611 Goal=   None    Shift=    0.000
 RMSDP=3.49D-06 MaxDP=1.52D-04 DE=-1.40D-06 OVMax= 2.21D-04

 Cycle   9  Pass 1  IDiag  1:
 E= -422.994027017707     Delta-E=       -0.000000238235 Rises=F Damp=F
 DIIS: error= 6.90D-06 at cycle   9 NSaved=   9.
 NSaved= 9 IEnMin= 9 EnMin= -422.994027017707     IErMin= 9 ErrMin= 6.90D-06
 ErrMax= 6.90D-06  0.00D+00 EMaxC= 1.00D-01 BMatC= 1.14D-08 BMatP= 8.30D-08
 IDIUse=1 WtCom= 1.00D+00 WtEn= 0.00D+00
 Coeff-Com:  0.212D-06-0.130D-03-0.505D-03 0.656D-03 0.150D-01-0.133D-01
 Coeff-Com: -0.168D+00 0.176D+00 0.990D+00
 Coeff:      0.212D-06-0.130D-03-0.505D-03 0.656D-03 0.150D-01-0.133D-01
 Coeff:     -0.168D+00 0.176D+00 0.990D+00
 Gap=     0.611 Goal=   None    Shift=    0.000
 RMSDP=1.07D-06 MaxDP=4.30D-05 DE=-2.38D-07 OVMax= 6.08D-05

 Cycle  10  Pass 1  IDiag  1:
 E= -422.994027042040     Delta-E=       -0.000000024333 Rises=F Damp=F
 DIIS: error= 2.04D-06 at cycle  10 NSaved=  10.
 NSaved=10 IEnMin=10 EnMin= -422.994027042040     IErMin=10 ErrMin= 2.04D-06
 ErrMax= 2.04D-06  0.00D+00 EMaxC= 1.00D-01 BMatC= 8.92D-10 BMatP= 1.14D-08
 IDIUse=1 WtCom= 1.00D+00 WtEn= 0.00D+00
 Coeff-Com:  0.252D-04-0.137D-03-0.831D-03-0.136D-02 0.383D-02 0.194D-01
 Coeff-Com: -0.111D-01-0.118D+00-0.224D-01 0.113D+01
 Coeff:      0.252D-04-0.137D-03-0.831D-03-0.136D-02 0.383D-02 0.194D-01
 Coeff:     -0.111D-01-0.118D+00-0.224D-01 0.113D+01
 Gap=     0.611 Goal=   None    Shift=    0.000
 RMSDP=3.12D-07 MaxDP=1.68D-05 DE=-2.43D-08 OVMax= 1.67D-05

 Cycle  11  Pass 1  IDiag  1:
 E= -422.994027044251     Delta-E=       -0.000000002211 Rises=F Damp=F
 DIIS: error= 7.05D-07 at cycle  11 NSaved=  11.
 NSaved=11 IEnMin=11 EnMin= -422.994027044251     IErMin=11 ErrMin= 7.05D-07
 ErrMax= 7.05D-07  0.00D+00 EMaxC= 1.00D-01 BMatC= 1.05D-10 BMatP= 8.92D-10
 IDIUse=1 WtCom= 1.00D+00 WtEn= 0.00D+00
 Coeff-Com:  0.276D-05-0.467D-05-0.235D-04-0.231D-03-0.799D-03 0.275D-02
 Coeff-Com:  0.130D-01-0.217D-01-0.105D+00 0.132D+00 0.980D+00
 Coeff:      0.276D-05-0.467D-05-0.235D-04-0.231D-03-0.799D-03 0.275D-02
 Coeff:      0.130D-01-0.217D-01-0.105D+00 0.132D+00 0.980D+00
 Gap=     0.611 Goal=   None    Shift=    0.000
 RMSDP=7.35D-08 MaxDP=3.87D-06 DE=-2.21D-09 OVMax= 3.07D-06

 Cycle  12  Pass 1  IDiag  1:
 E= -422.994027044437     Delta-E=       -0.000000000186 Rises=F Damp=F
 DIIS: error= 1.68D-07 at cycle  12 NSaved=  12.
 NSaved=12 IEnMin=12 EnMin= -422.994027044437     IErMin=12 ErrMin= 1.68D-07
 ErrMax= 1.68D-07  0.00D+00 EMaxC= 1.00D-01 BMatC= 8.93D-12 BMatP= 1.05D-10
 IDIUse=1 WtCom= 1.00D+00 WtEn= 0.00D+00
 Coeff-Com: -0.257D-05 0.138D-04 0.938D-04 0.125D-03-0.456D-03-0.212D-02
 Coeff-Com:  0.147D-02 0.150D-01-0.562D-02-0.117D+00 0.276D-02 0.111D+01
 Coeff:     -0.257D-05 0.138D-04 0.938D-04 0.125D-03-0.456D-03-0.212D-02
 Coeff:      0.147D-02 0.150D-01-0.562D-02-0.117D+00 0.276D-02 0.111D+01
 Gap=     0.611 Goal=   None    Shift=    0.000
 RMSDP=2.79D-08 MaxDP=1.10D-06 DE=-1.86D-10 OVMax= 1.25D-06

 Cycle  13  Pass 1  IDiag  1:
 E= -422.994027044460     Delta-E=       -0.000000000023 Rises=F Damp=F
 DIIS: error= 5.10D-08 at cycle  13 NSaved=  13.
 NSaved=13 IEnMin=13 EnMin= -422.994027044460     IErMin=13 ErrMin= 5.10D-08
 ErrMax= 5.10D-08  0.00D+00 EMaxC= 1.00D-01 BMatC= 6.79D-13 BMatP= 8.93D-12
 IDIUse=1 WtCom= 1.00D+00 WtEn= 0.00D+00
 Coeff-Com: -0.205D-06 0.294D-06 0.333D-05 0.167D-04 0.684D-04-0.239D-03
 Coeff-Com: -0.118D-02 0.234D-02 0.762D-02-0.117D-01-0.851D-01 0.280D-01
 Coeff-Com:  0.106D+01
 Coeff:     -0.205D-06 0.294D-06 0.333D-05 0.167D-04 0.684D-04-0.239D-03
 Coeff:     -0.118D-02 0.234D-02 0.762D-02-0.117D-01-0.851D-01 0.280D-01
 Coeff:      0.106D+01
 Gap=     0.611 Goal=   None    Shift=    0.000
 RMSDP=8.03D-09 MaxDP=2.36D-07 DE=-2.34D-11 OVMax= 3.56D-07

 SCF Done:  E(RHF) =  -422.994027044     A.U. after   13 cycles
            NFock= 13  Conv=0.80D-08     -V/T= 2.0023
 KE= 4.220183069919D+02 PE=-1.960515787640D+03 EE= 6.301591430163D+02
 Leave Link  502 at Sun Sep 19 20:02:53 2021, MaxMem=   524288000 cpu:              12.7 elap:              12.9
 (Enter /opt/gaussian/g16_legacy/l801.exe)
 ExpMin= 1.61D-01 ExpMax= 5.48D+03 ExpMxC= 8.25D+02 IAcc=3 IRadAn=         5 AccDes= 0.00D+00
 HarFok:  IExCor=  205 AccDes= 0.00D+00 IRadAn=         5 IDoV=-2 UseB2=F ITyADJ=14
 ICtDFT= 12500011 ScaDFX=  1.000000  1.000000  1.000000  1.000000
 Largest valence mixing into a core orbital is  2.11D-04
 Largest core mixing into a valence orbital is  3.28D-05
 Range of M.O.s used for correlation:    10   205
 NBasis=   205 NAE=    36 NBE=    36 NFC=     9 NFV=     0
 NROrb=    196 NOA=    27 NOB=    27 NVA=   169 NVB=   169
 Leave Link  801 at Sun Sep 19 20:02:54 2021, MaxMem=   524288000 cpu:               0.7 elap:               0.9
 (Enter /opt/gaussian/g16_legacy/l906.exe)
 Frozen-core derivative calculation, NFC=   9 NFV=   0.
 FulOut=F Deriv=T AODrv=T NAtomX=    23
   MMem=         130  MDisk=          27 MDiskD=          27
  W3Min=     1512900 MinDsk=     1927595 NBas6D=         205
 NBas2D=       21400    NTT=       21115    LW2=     2040000
    MDV=   523792188 MDiskM=       35351 NBas2p=       19414
 Fully direct method using O(ONN) memory.
 IMap=   1   2   3   4   5   6   7   8   9  10  11  12  13  14  15  16  17  18  19  20
 IMap=  21  22  23  24  25  26  27  28  29  30  31  32  33  34  35  36
 JobTyp=1 Pass  1:  I=  10 to  36 NPSUse=  1 ParTrn=F ParDer=F DoDerP=T.
 Spin components of T(2) and E(2):
     alpha-alpha T2 =       0.5293763753D-01 E2=     -0.1653039615D+00
     alpha-beta  T2 =       0.3176554828D+00 E2=     -0.1031179085D+01
     beta-beta   T2 =       0.5293763753D-01 E2=     -0.1653039615D+00
 The integrals were generated   1 times.
 ANorm=    0.1193118082D+01
 E2 =    -0.1361787008D+01 EUMP2 =    -0.42435581405278D+03
 Leave Link  906 at Sun Sep 19 20:04:31 2021, MaxMem=   524288000 cpu:              97.1 elap:              97.2
 (Enter /opt/gaussian/g16_legacy/l1002.exe)
 Minotr:  Closed shell wavefunction.
          Computing MP2/KS-MP2 derivatives.
          Using Z-Vector for PSCF gradient.
          Skipping F1 and S1 gradient terms here.
          IDoAtm=11111111111111111111111
          Frozen-core window.
          Direct CPHF calculation.
          Differentiating once with respect to electric field.
                with respect to dipole field.
          Differentiating once with respect to nuclear coordinates.
          Requested convergence is 1.0D-10 RMS, and 1.0D-09 maximum.
          NewPWx=F KeepS1=T KeepF1=T KeepIn=T MapXYZ=F SortEE=F KeepMc=T.
 Keep R1 ints in memory in canonical form, NReq=227306992.
 FoFCou: FMM=F IPFlag=           0 FMFlag=           0 FMFlg1=           0
         NFxFlg=           0 DoJE=F BraDBF=F KetDBF=F FulRan=T
         wScrn=  0.000000 ICntrl=       600 IOpCl=  0 I1Cent=           0 NGrid=           0
         NMat0=    1 NMatS0=  21115 NMatT0=    0 NMatD0=    1 NMtDS0=    0 NMtDT0=    0
 Symmetry not used in FoFCou.
 Two-electron integral symmetry not used.
          MDV=     524288000 using IRadAn=       5.
          Solving linear equations separately, MaxMat=       0.
          There are     1 degrees of freedom in the 1st order CPHF.  IDoFFX=0 NUNeed=     1.
 LinEq1:  Iter=  0 NonCon=     1 RMS=3.74D-03 Max=6.93D-02 NDo=     1
 AX will form     1 AO Fock derivatives at one time.
 LinEq1:  Iter=  1 NonCon=     1 RMS=1.20D-03 Max=1.55D-02 NDo=     1
 LinEq1:  Iter=  2 NonCon=     1 RMS=3.76D-04 Max=5.00D-03 NDo=     1
 LinEq1:  Iter=  3 NonCon=     1 RMS=1.50D-04 Max=2.86D-03 NDo=     1
 LinEq1:  Iter=  4 NonCon=     1 RMS=4.79D-05 Max=5.31D-04 NDo=     1
 LinEq1:  Iter=  5 NonCon=     1 RMS=2.08D-05 Max=4.18D-04 NDo=     1
 LinEq1:  Iter=  6 NonCon=     1 RMS=5.24D-06 Max=9.98D-05 NDo=     1
 LinEq1:  Iter=  7 NonCon=     1 RMS=1.54D-06 Max=2.53D-05 NDo=     1
 LinEq1:  Iter=  8 NonCon=     1 RMS=5.26D-07 Max=1.84D-05 NDo=     1
 LinEq1:  Iter=  9 NonCon=     1 RMS=1.50D-07 Max=4.42D-06 NDo=     1
 LinEq1:  Iter= 10 NonCon=     1 RMS=4.55D-08 Max=1.03D-06 NDo=     1
 LinEq1:  Iter= 11 NonCon=     1 RMS=1.36D-08 Max=1.82D-07 NDo=     1
 LinEq1:  Iter= 12 NonCon=     1 RMS=3.75D-09 Max=8.15D-08 NDo=     1
 LinEq1:  Iter= 13 NonCon=     1 RMS=1.09D-09 Max=2.62D-08 NDo=     1
 LinEq1:  Iter= 14 NonCon=     1 RMS=2.70D-10 Max=4.79D-09 NDo=     1
 LinEq1:  Iter= 15 NonCon=     0 RMS=6.80D-11 Max=7.23D-10 NDo=     1
 Linear equations converged to 1.000D-10 1.000D-09 after    15 iterations.
 End of Minotr F.D. properties file   721 does not exist.
 End of Minotr F.D. properties file   722 does not exist.
 End of Minotr F.D. properties file   788 does not exist.
 Leave Link 1002 at Sun Sep 19 20:04:46 2021, MaxMem=   524288000 cpu:              14.6 elap:              14.6
 (Enter /opt/gaussian/g16_legacy/l601.exe)
 Copying SCF densities to generalized density rwf, IOpCl= 0 IROHF=0.

 **********************************************************************

            Population analysis using the SCF density.

 **********************************************************************

 Orbital symmetries:
       Occupied  (A) (A) (A) (A) (A) (A) (A) (A) (A) (A) (A) (A)
                 (A) (A) (A) (A) (A) (A) (A) (A) (A) (A) (A) (A)
                 (A) (A) (A) (A) (A) (A) (A) (A) (A) (A) (A) (A)
       Virtual   (A) (A) (A) (A) (A) (A) (A) (A) (A) (A) (A) (A)
                 (A) (A) (A) (A) (A) (A) (A) (A) (A) (A) (A) (A)
                 (A) (A) (A) (A) (A) (A) (A) (A) (A) (A) (A) (A)
                 (A) (A) (A) (A) (A) (A) (A) (A) (A) (A) (A) (A)
                 (A) (A) (A) (A) (A) (A) (A) (A) (A) (A) (A) (A)
                 (A) (A) (A) (A) (A) (A) (A) (A) (A) (A) (A) (A)
                 (A) (A) (A) (A) (A) (A) (A) (A) (A) (A) (A) (A)
                 (A) (A) (A) (A) (A) (A) (A) (A) (A) (A) (A) (A)
                 (A) (A) (A) (A) (A) (A) (A) (A) (A) (A) (A) (A)
                 (A) (A) (A) (A) (A) (A) (A) (A) (A) (A) (A) (A)
                 (A) (A) (A) (A) (A) (A) (A) (A) (A) (A) (A) (A)
                 (A) (A) (A) (A) (A) (A) (A) (A) (A) (A) (A) (A)
                 (A) (A) (A) (A) (A) (A) (A) (A) (A) (A) (A) (A)
                 (A) (A) (A) (A) (A) (A) (A) (A) (A) (A) (A) (A)
                 (A)
 The electronic state is 1-A.
 Alpha  occ. eigenvalues --  -20.60723 -20.54825 -11.38566 -11.28986 -11.23975
 Alpha  occ. eigenvalues --  -11.22746 -11.22274 -11.22171 -11.21484  -1.44651
 Alpha  occ. eigenvalues --   -1.34877  -1.09062  -1.01925  -1.01524  -0.92724
 Alpha  occ. eigenvalues --   -0.85609  -0.80228  -0.74747  -0.68696  -0.66975
 Alpha  occ. eigenvalues --   -0.66131  -0.63350  -0.60489  -0.58406  -0.56968
 Alpha  occ. eigenvalues --   -0.56356  -0.54730  -0.53717  -0.51908  -0.51000
 Alpha  occ. eigenvalues --   -0.50034  -0.48821  -0.47310  -0.45662  -0.44206
 Alpha  occ. eigenvalues --   -0.43100
 Alpha virt. eigenvalues --    0.17952   0.21783   0.24415   0.26802   0.27559
 Alpha virt. eigenvalues --    0.28186   0.29270   0.30139   0.31476   0.32742
 Alpha virt. eigenvalues --    0.33124   0.33466   0.34387   0.36074   0.36955
 Alpha virt. eigenvalues --    0.38292   0.40073   0.40729   0.42353   0.43180
 Alpha virt. eigenvalues --    0.47312   0.49751   0.56311   0.69162   0.70513
 Alpha virt. eigenvalues --    0.72408   0.73215   0.75455   0.76574   0.76814
 Alpha virt. eigenvalues --    0.79002   0.80567   0.81904   0.84512   0.87450
 Alpha virt. eigenvalues --    0.90138   0.93098   0.94672   0.95011   0.96437
 Alpha virt. eigenvalues --    0.99661   1.01863   1.05927   1.08869   1.09064
 Alpha virt. eigenvalues --    1.09929   1.11393   1.11693   1.12564   1.13364
 Alpha virt. eigenvalues --    1.14148   1.15083   1.16695   1.17497   1.18540
 Alpha virt. eigenvalues --    1.19788   1.21488   1.21600   1.22738   1.26252
 Alpha virt. eigenvalues --    1.30538   1.33707   1.34868   1.36924   1.42268
 Alpha virt. eigenvalues --    1.44511   1.48568   1.53013   1.57854   1.62745
 Alpha virt. eigenvalues --    1.66512   1.69890   1.71828   1.75455   1.76160
 Alpha virt. eigenvalues --    1.78977   1.80615   1.87772   1.91830   1.93740
 Alpha virt. eigenvalues --    1.99474   2.00690   2.02600   2.05707   2.06832
 Alpha virt. eigenvalues --    2.09051   2.13641   2.16197   2.17815   2.19417
 Alpha virt. eigenvalues --    2.20791   2.22294   2.26071   2.26585   2.32345
 Alpha virt. eigenvalues --    2.32756   2.34312   2.36186   2.36774   2.37663
 Alpha virt. eigenvalues --    2.38702   2.40002   2.40114   2.42377   2.42950
 Alpha virt. eigenvalues --    2.45160   2.48132   2.49949   2.51710   2.54011
 Alpha virt. eigenvalues --    2.56379   2.57755   2.58835   2.59922   2.63087
 Alpha virt. eigenvalues --    2.66237   2.70791   2.71519   2.76174   2.78368
 Alpha virt. eigenvalues --    2.81199   2.82470   2.87710   2.92171   2.94644
 Alpha virt. eigenvalues --    2.97640   2.98282   2.99775   3.02300   3.04569
 Alpha virt. eigenvalues --    3.06144   3.07985   3.11986   3.13950   3.16358
 Alpha virt. eigenvalues --    3.19712   3.20090   3.22115   3.23740   3.24358
 Alpha virt. eigenvalues --    3.24774   3.26716   3.30125   3.34151   3.43459
 Alpha virt. eigenvalues --    3.49268   3.55285   3.57835   3.60609   3.66900
 Alpha virt. eigenvalues --    3.71709   3.73088   3.77353   3.78362   3.81301
 Alpha virt. eigenvalues --    3.81621   3.82937   3.87330   3.92329   3.94727
 Alpha virt. eigenvalues --    4.48772   4.59647   4.65004   4.74590   4.84200
 Alpha virt. eigenvalues --    4.98050   5.01627   5.06726   5.14667
          Condensed to atoms (all electrons):
               1          2          3          4          5          6
     1  C    4.949087   0.400641   0.403316   0.406263   0.318179  -0.045197
     2  H    0.400641   0.591754  -0.029515  -0.029491  -0.037588   0.004257
     3  H    0.403316  -0.029515   0.572023  -0.029049  -0.038025  -0.002644
     4  H    0.406263  -0.029491  -0.029049   0.577900  -0.038109  -0.004023
     5  C    0.318179  -0.037588  -0.038025  -0.038109   5.038995   0.416363
     6  H   -0.045197   0.004257  -0.002644  -0.004023   0.416363   0.542487
     7  H   -0.039725  -0.003649   0.004312  -0.002892   0.402992  -0.026653
     8  C   -0.054419  -0.004172  -0.005951   0.004348   0.354041  -0.034491
     9  H    0.004273  -0.000125   0.000089  -0.000061  -0.048204  -0.004297
    10  C   -0.004681   0.000545  -0.000074  -0.000030  -0.061622   0.003958
    11  H   -0.000073   0.000053  -0.000042   0.000001   0.004636  -0.000071
    12  H    0.001092  -0.002495   0.000391   0.000025  -0.005964  -0.000125
    13  C   -0.000365   0.000023   0.000038  -0.000007  -0.000180   0.000022
    14  H    0.000201   0.000660  -0.000025  -0.000006  -0.000482   0.000054
    15  H   -0.000024  -0.000002   0.000002   0.000000  -0.000020   0.000001
    16  H    0.000066  -0.000024  -0.000001   0.000001  -0.000345  -0.000032
    17  O   -0.002412   0.000175   0.004470   0.000014  -0.044642  -0.003205
    18  C    0.000312  -0.000016   0.000371  -0.000036  -0.005380   0.002717
    19  O    0.000123  -0.000004  -0.000021  -0.000000  -0.005474   0.004417
    20  C    0.000003  -0.000000   0.000018  -0.000001  -0.000537   0.000124
    21  H    0.000001  -0.000000   0.000002  -0.000000  -0.000004   0.000002
    22  H   -0.000015   0.000001   0.000132  -0.000000   0.000060  -0.000034
    23  H    0.000000   0.000000  -0.000011   0.000000   0.000049   0.000007
               7          8          9         10         11         12
     1  C   -0.039725  -0.054419   0.004273  -0.004681  -0.000073   0.001092
     2  H   -0.003649  -0.004172  -0.000125   0.000545   0.000053  -0.002495
     3  H    0.004312  -0.005951   0.000089  -0.000074  -0.000042   0.000391
     4  H   -0.002892   0.004348  -0.000061  -0.000030   0.000001   0.000025
     5  C    0.402992   0.354041  -0.048204  -0.061622   0.004636  -0.005964
     6  H   -0.026653  -0.034491  -0.004297   0.003958  -0.000071  -0.000125
     7  H    0.584167  -0.033989  -0.000078  -0.002598  -0.000126   0.000438
     8  C   -0.033989   4.798701   0.423063   0.363964  -0.039399  -0.033785
     9  H   -0.000078   0.423063   0.548423  -0.046412  -0.004083   0.004202
    10  C   -0.002598   0.363964  -0.046412   4.984509   0.410176   0.404010
    11  H   -0.000126  -0.039399  -0.004083   0.410176   0.577367  -0.032545
    12  H    0.000438  -0.033785   0.004202   0.404010  -0.032545   0.582860
    13  C   -0.001673  -0.053546  -0.001004   0.326309  -0.038480  -0.039359
    14  H   -0.002583  -0.004993   0.000164  -0.037197   0.004190  -0.003199
    15  H    0.000089   0.004148  -0.000119  -0.034874  -0.003646  -0.003260
    16  H    0.000325  -0.002771   0.002660  -0.040984  -0.003609   0.004438
    17  O    0.002678   0.135940  -0.030106  -0.040554   0.000949   0.000465
    18  C    0.000199  -0.022910  -0.005984   0.003147  -0.000058  -0.000158
    19  O    0.000020  -0.000365   0.007204   0.000274   0.000003  -0.000005
    20  C    0.000005   0.005092   0.000097  -0.000087  -0.000006  -0.000012
    21  H    0.000000  -0.000162   0.000008   0.000007  -0.000001   0.000000
    22  H    0.000000  -0.000215   0.000004  -0.000034   0.000000   0.000009
    23  H   -0.000001  -0.000139  -0.000005   0.000001   0.000000  -0.000000
              13         14         15         16         17         18
     1  C   -0.000365   0.000201  -0.000024   0.000066  -0.002412   0.000312
     2  H    0.000023   0.000660  -0.000002  -0.000024   0.000175  -0.000016
     3  H    0.000038  -0.000025   0.000002  -0.000001   0.004470   0.000371
     4  H   -0.000007  -0.000006   0.000000   0.000001   0.000014  -0.000036
     5  C   -0.000180  -0.000482  -0.000020  -0.000345  -0.044642  -0.005380
     6  H    0.000022   0.000054   0.000001  -0.000032  -0.003205   0.002717
     7  H   -0.001673  -0.002583   0.000089   0.000325   0.002678   0.000199
     8  C   -0.053546  -0.004993   0.004148  -0.002771   0.135940  -0.022910
     9  H   -0.001004   0.000164  -0.000119   0.002660  -0.030106  -0.005984
    10  C    0.326309  -0.037197  -0.034874  -0.040984  -0.040554   0.003147
    11  H   -0.038480   0.004190  -0.003646  -0.003609   0.000949  -0.000058
    12  H   -0.039359  -0.003199  -0.003260   0.004438   0.000465  -0.000158
    13  C    4.943306   0.402755   0.405033   0.400834   0.001925  -0.000051
    14  H    0.402755   0.583538  -0.029139  -0.030682  -0.000025  -0.000002
    15  H    0.405033  -0.029139   0.568079  -0.027734  -0.000038   0.000001
    16  H    0.400834  -0.030682  -0.027734   0.581703  -0.000011  -0.000008
    17  O    0.001925  -0.000025  -0.000038  -0.000011   8.514640   0.267067
    18  C   -0.000051  -0.000002   0.000001  -0.000008   0.267067   4.165455
    19  O    0.000008  -0.000000   0.000000  -0.000003  -0.068392   0.544269
    20  C    0.000002  -0.000000  -0.000000  -0.000000  -0.084463   0.366809
    21  H   -0.000000   0.000000   0.000000   0.000000   0.001434  -0.028021
    22  H    0.000000   0.000000  -0.000000   0.000000   0.004052  -0.039117
    23  H   -0.000000  -0.000000   0.000000   0.000000   0.002239  -0.033417
              19         20         21         22         23
     1  C    0.000123   0.000003   0.000001  -0.000015   0.000000
     2  H   -0.000004  -0.000000  -0.000000   0.000001   0.000000
     3  H   -0.000021   0.000018   0.000002   0.000132  -0.000011
     4  H   -0.000000  -0.000001  -0.000000  -0.000000   0.000000
     5  C   -0.005474  -0.000537  -0.000004   0.000060   0.000049
     6  H    0.004417   0.000124   0.000002  -0.000034   0.000007
     7  H    0.000020   0.000005   0.000000   0.000000  -0.000001
     8  C   -0.000365   0.005092  -0.000162  -0.000215  -0.000139
     9  H    0.007204   0.000097   0.000008   0.000004  -0.000005
    10  C    0.000274  -0.000087   0.000007  -0.000034   0.000001
    11  H    0.000003  -0.000006  -0.000001   0.000000   0.000000
    12  H   -0.000005  -0.000012   0.000000   0.000009  -0.000000
    13  C    0.000008   0.000002  -0.000000   0.000000  -0.000000
    14  H   -0.000000  -0.000000   0.000000   0.000000  -0.000000
    15  H    0.000000  -0.000000   0.000000  -0.000000   0.000000
    16  H   -0.000003  -0.000000   0.000000   0.000000   0.000000
    17  O   -0.068392  -0.084463   0.001434   0.004052   0.002239
    18  C    0.544269   0.366809  -0.028021  -0.039117  -0.033417
    19  O    8.168171  -0.067961  -0.000019   0.002759   0.000356
    20  C   -0.067961   5.018030   0.391072   0.390037   0.395504
    21  H   -0.000019   0.391072   0.512371  -0.021249  -0.017359
    22  H    0.002759   0.390037  -0.021249   0.540261  -0.026786
    23  H    0.000356   0.395504  -0.017359  -0.026786   0.520324
 Mulliken charges:
               1
     1  C   -0.336645
     2  H    0.108974
     3  H    0.120193
     4  H    0.115153
     5  C   -0.248739
     6  H    0.146363
     7  H    0.118741
     8  C    0.202009
     9  H    0.150291
    10  C   -0.227754
    11  H    0.124762
    12  H    0.122978
    13  C   -0.345589
    14  H    0.116772
    15  H    0.121505
    16  H    0.116178
    17  O   -0.662202
    18  C    0.784811
    19  O   -0.585363
    20  C   -0.413726
    21  H    0.161918
    22  H    0.150133
    23  H    0.159237
 Sum of Mulliken charges =  -0.00000
 Mulliken charges with hydrogens summed into heavy atoms:
               1
     1  C    0.007674
     5  C    0.016365
     8  C    0.352300
    10  C    0.019986
    13  C    0.008866
    17  O   -0.662202
    18  C    0.784811
    19  O   -0.585363
    20  C    0.057563
 Electronic spatial extent (au):  <R**2>=           1537.6372
 Charge=             -0.0000 electrons
 Dipole moment (field-independent basis, Debye):
    X=             -0.7797    Y=              0.2095    Z=             -1.8441  Tot=              2.0131
 Quadrupole moment (field-independent basis, Debye-Ang):
   XX=            -53.0174   YY=            -55.5542   ZZ=            -61.7191
   XY=              0.9717   XZ=             -6.2129   YZ=              1.0092
 Traceless Quadrupole moment (field-independent basis, Debye-Ang):
   XX=              3.7462   YY=              1.2093   ZZ=             -4.9555
   XY=              0.9717   XZ=             -6.2129   YZ=              1.0092
 Octapole moment (field-independent basis, Debye-Ang**2):
  XXX=             23.9060  YYY=             -5.4320  ZZZ=             -4.1362  XYY=              6.2005
  XXY=             -1.8426  XXZ=            -15.6281  XZZ=             -5.6085  YZZ=              0.5840
  YYZ=              2.2959  XYZ=              1.4996
 Hexadecapole moment (field-independent basis, Debye-Ang**3):
 XXXX=          -1315.5074 YYYY=           -443.3030 ZZZZ=           -259.7596 XXXY=             -4.6246
 XXXZ=            -21.9134 YYYX=             -5.1102 YYYZ=              5.3927 ZZZX=             -8.3645
 ZZZY=             -0.1793 XXYY=           -291.0179 XXZZ=           -284.0077 YYZZ=           -116.8478
 XXYZ=             10.2425 YYXZ=             -0.6769 ZZXY=              4.2046
 N-N= 4.853443105871D+02 E-N=-1.960515785757D+03  KE= 4.220183069919D+02
 No NMR shielding tensors so no spin-rotation constants.
 Leave Link  601 at Sun Sep 19 20:04:46 2021, MaxMem=   524288000 cpu:               0.1 elap:               0.1
 (Enter /opt/gaussian/g16_legacy/l701.exe)
 ... and contract with generalized density number  2.
 Compute integral first derivatives.
 Leave Link  701 at Sun Sep 19 20:04:46 2021, MaxMem=   524288000 cpu:               0.1 elap:               0.1
 (Enter /opt/gaussian/g16_legacy/l702.exe)
 L702 exits ... SP integral derivatives will be done elsewhere.
 Leave Link  702 at Sun Sep 19 20:04:46 2021, MaxMem=   524288000 cpu:               0.0 elap:               0.0
 (Enter /opt/gaussian/g16_legacy/l703.exe)
 Integral derivatives from FoFJK, PRISM(SPDF).
 Compute integral first derivatives, UseDBF=F ICtDFT=           0.
 Calling FoFJK, ICntrl=  10002127 FMM=F ISym2X=0 I1Cent= 0 IOpClX= 0 NMat=1 NMatS=1 NMatT=0.
 FoFJK:  IHMeth= 1 ICntrl=10002127 DoSepK=F KAlg= 0 I1Cent=           0 FoldK=F
 IRaf=         0 NMat=       1 IRICut=       1 DoRegI=T DoRafI=F ISym2E= 0 IDoP0=0 IntGTp=1.
 FoFCou: FMM=F IPFlag=           0 FMFlag=      100000 FMFlg1=         800
         NFxFlg=           0 DoJE=F BraDBF=F KetDBF=F FulRan=T
         wScrn=  0.000000 ICntrl=  10002127 IOpCl=  0 I1Cent=           0 NGrid=           0
         NMat0=    1 NMatS0=      1 NMatT0=    0 NMatD0=    1 NMtDS0=    0 NMtDT0=    0
 Symmetry not used in FoFCou.
 Leave Link  703 at Sun Sep 19 20:04:59 2021, MaxMem=   524288000 cpu:              13.4 elap:              13.4
 (Enter /opt/gaussian/g16_legacy/l716.exe)
 Dipole        =-3.25719512D-01 7.12256167D-02-5.82149747D-01
 ***** Axes restored to original set *****
 -------------------------------------------------------------------
 Center     Atomic                   Forces (Hartrees/Bohr)
 Number     Number              X              Y              Z
 -------------------------------------------------------------------
      1        6          -0.001126599    0.000329846    0.004935157
      2        1          -0.000985194   -0.002526665   -0.001358672
      3        1          -0.000363972    0.004306200   -0.000477423
      4        1           0.003134349   -0.000112205    0.000512657
      5        6          -0.000790921   -0.006317135   -0.002387280
      6        1           0.005580308    0.003787035   -0.000867281
      7        1           0.003756894   -0.001155053   -0.000700511
      8        6          -0.006931210    0.018040400    0.002832812
      9        1          -0.002374030   -0.004558377    0.000577334
     10        6           0.004570207   -0.009369508    0.002070251
     11        1          -0.003689642   -0.001123704   -0.002716010
     12        1          -0.001952462   -0.000132864   -0.004262574
     13        6          -0.002098466    0.003050457   -0.000075140
     14        1           0.003496495   -0.000230102   -0.000788563
     15        1          -0.000878661   -0.001820803   -0.003521320
     16        1          -0.001524905   -0.000947574    0.002668177
     17        8          -0.000688836   -0.001005368   -0.001154620
     18        6          -0.003204892    0.000933874   -0.008624633
     19        8           0.002101716    0.003620139    0.009049695
     20        6          -0.001853013   -0.009564242    0.010828330
     21        1          -0.003449207   -0.001050521    0.000007982
     22        1           0.003001023    0.001961532   -0.004395870
     23        1           0.006271018    0.003884639   -0.002152499
 -------------------------------------------------------------------
 Cartesian Forces:  Max     0.018040400 RMS     0.004332926
 Leave Link  716 at Sun Sep 19 20:04:59 2021, MaxMem=   524288000 cpu:               0.0 elap:               0.0
 (Enter /opt/gaussian/g16_legacy/l103.exe)

 GradGradGradGradGradGradGradGradGradGradGradGradGradGradGradGradGradGrad
 Berny optimization.
 FormGI is forming the generalized inverse of G from B-inverse, IUseBI=4.
 Internal  Forces:  Max     0.010924411 RMS     0.002981412
 Search for a local minimum.
 Step number   1 out of a maximum of  119
 All quantities printed in internal units (Hartrees-Bohrs-Radians)
 RMS Force = .29814D-02 SwitMx=.10000D-02 MixMth= 1
 Mixed Optimization -- RFO/linear search
 Second derivative matrix not updated -- first step.
 ITU=  0
     Eigenvalues ---    0.00230   0.00259   0.00440   0.00444   0.00793
     Eigenvalues ---    0.01097   0.01161   0.02191   0.03377   0.03402
     Eigenvalues ---    0.04132   0.04759   0.04774   0.04777   0.05467
     Eigenvalues ---    0.05491   0.05642   0.05695   0.07359   0.07391
     Eigenvalues ---    0.07606   0.08482   0.08532   0.12316   0.12351
     Eigenvalues ---    0.16000   0.16000   0.16000   0.16000   0.16000
     Eigenvalues ---    0.16000   0.16000   0.16000   0.16000   0.16870
     Eigenvalues ---    0.19679   0.21858   0.21915   0.25000   0.25000
     Eigenvalues ---    0.25000   0.28384   0.28666   0.29925   0.29949
     Eigenvalues ---    0.32590   0.33919   0.33985   0.34085   0.34195
     Eigenvalues ---    0.34234   0.34278   0.34287   0.34290   0.34339
     Eigenvalues ---    0.34343   0.34374   0.34421   0.34422   0.34632
     Eigenvalues ---    0.38914   0.52488   0.93661
 RFO step:  Lambda=-5.83236708D-03 EMin= 2.30000000D-03
 Linear search not attempted -- first point.
 Iteration  1 RMS(Cart)=  0.09602061 RMS(Int)=  0.00293816
 Iteration  2 RMS(Cart)=  0.00532564 RMS(Int)=  0.00038225
 Iteration  3 RMS(Cart)=  0.00000851 RMS(Int)=  0.00038221
 Iteration  4 RMS(Cart)=  0.00000000 RMS(Int)=  0.00038221
 ITry= 1 IFail=0 DXMaxC= 3.94D-01 DCOld= 1.00D+10 DXMaxT= 3.00D-01 DXLimC= 3.00D+00 Rises=F
 Variable       Old X    -DE/DX   Delta X   Delta X   Delta X     New X
                                 (Linear)    (Quad)   (Total)
    R1        2.06624  -0.00263   0.00000  -0.00752  -0.00752   2.05872
    R2        2.06843  -0.00420   0.00000  -0.01204  -0.01204   2.05639
    R3        2.06754  -0.00314   0.00000  -0.00899  -0.00899   2.05855
    R4        2.88113   0.00184   0.00000   0.00604   0.00604   2.88718
    R5        2.07003  -0.00330   0.00000  -0.00949  -0.00949   2.06053
    R6        2.06761  -0.00238   0.00000  -0.00682  -0.00682   2.06079
    R7        2.91306  -0.00920   0.00000  -0.03176  -0.03176   2.88130
    R8        2.07467  -0.00324   0.00000  -0.00940  -0.00940   2.06527
    R9        2.90704  -0.01092   0.00000  -0.03735  -0.03735   2.86969
   R10        2.73056   0.00178   0.00000   0.00451   0.00451   2.73507
   R11        2.07355  -0.00326   0.00000  -0.00942  -0.00942   2.06413
   R12        2.07187  -0.00326   0.00000  -0.00940  -0.00940   2.06248
   R13        2.88064   0.00018   0.00000   0.00058   0.00058   2.88122
   R14        2.06703  -0.00358   0.00000  -0.01025  -0.01025   2.05679
   R15        2.06849  -0.00389   0.00000  -0.01117  -0.01117   2.05732
   R16        2.06863  -0.00306   0.00000  -0.00878  -0.00878   2.05985
   R17        2.57435  -0.00437   0.00000  -0.00823  -0.00823   2.56612
   R18        2.31290  -0.00689   0.00000  -0.00731  -0.00731   2.30559
   R19        2.83077   0.00589   0.00000   0.01776   0.01776   2.84853
   R20        2.06277  -0.00286   0.00000  -0.00811  -0.00811   2.05466
   R21        2.06625  -0.00458   0.00000  -0.01308  -0.01308   2.05317
   R22        2.06936  -0.00570   0.00000  -0.01638  -0.01638   2.05299
    A1        1.89265  -0.00071   0.00000  -0.00814  -0.00810   1.88454
    A2        1.87684  -0.00090   0.00000  -0.00097  -0.00108   1.87577
    A3        1.94678   0.00211   0.00000   0.01287   0.01284   1.95961
    A4        1.88295   0.00040   0.00000   0.00202   0.00204   1.88500
    A5        1.94532  -0.00169   0.00000  -0.01252  -0.01249   1.93283
    A6        1.91688   0.00075   0.00000   0.00667   0.00663   1.92351
    A7        1.87289   0.00434   0.00000   0.05002   0.05002   1.92291
    A8        1.91211   0.00095   0.00000   0.00973   0.00952   1.92163
    A9        1.98596   0.00022   0.00000   0.00154   0.00168   1.98764
   A10        1.85164   0.00018   0.00000   0.00068  -0.00056   1.85108
   A11        1.90975  -0.00374   0.00000  -0.03125  -0.03159   1.87816
   A12        1.92597  -0.00182   0.00000  -0.02886  -0.02903   1.89694
   A13        1.91075  -0.00304   0.00000  -0.00160  -0.00246   1.90829
   A14        1.97880   0.00501   0.00000   0.02602   0.02561   2.00442
   A15        1.90513   0.00293   0.00000   0.00737   0.00769   1.91283
   A16        1.87655   0.00238   0.00000   0.03308   0.03251   1.90906
   A17        1.90328   0.00051   0.00000  -0.01297  -0.01259   1.89069
   A18        1.88796  -0.00795   0.00000  -0.05354  -0.05330   1.83467
   A19        1.90278  -0.00224   0.00000  -0.02615  -0.02613   1.87665
   A20        1.93181  -0.00136   0.00000  -0.01508  -0.01504   1.91676
   A21        1.97549  -0.00017   0.00000  -0.00506  -0.00503   1.97046
   A22        1.83245   0.00116   0.00000   0.02044   0.02002   1.85247
   A23        1.89999   0.00154   0.00000   0.01341   0.01317   1.91317
   A24        1.91552   0.00118   0.00000   0.01447   0.01433   1.92985
   A25        1.95281   0.00023   0.00000   0.00207   0.00207   1.95487
   A26        1.92787  -0.00084   0.00000  -0.00492  -0.00492   1.92295
   A27        1.93356   0.00111   0.00000   0.00589   0.00589   1.93945
   A28        1.87166   0.00053   0.00000   0.00474   0.00475   1.87641
   A29        1.88966  -0.00076   0.00000  -0.00481  -0.00481   1.88485
   A30        1.88581  -0.00031   0.00000  -0.00320  -0.00320   1.88261
   A31        2.01496   0.00110   0.00000   0.00430   0.00430   2.01926
   A32        2.19356  -0.00808   0.00000  -0.03158  -0.03270   2.16086
   A33        1.94709  -0.00050   0.00000  -0.00194  -0.00314   1.94395
   A34        2.14254   0.00857   0.00000   0.03350   0.03221   2.17475
   A35        1.91201   0.00050   0.00000  -0.00507  -0.00518   1.90683
   A36        1.93508   0.00124   0.00000   0.01481   0.01470   1.94979
   A37        1.89826  -0.00101   0.00000  -0.00533  -0.00556   1.89270
   A38        1.91535  -0.00117   0.00000  -0.00831  -0.00831   1.90704
   A39        1.92421  -0.00277   0.00000  -0.03170  -0.03192   1.89229
   A40        1.87870   0.00320   0.00000   0.03581   0.03559   1.91428
    D1       -3.02791  -0.00187   0.00000  -0.01119  -0.01131  -3.03922
    D2       -1.02502   0.00114   0.00000   0.02130   0.02145  -1.00357
    D3        1.14001  -0.00035   0.00000  -0.00794  -0.00808   1.13194
    D4        1.13695  -0.00125   0.00000  -0.00097  -0.00105   1.13591
    D5        3.13985   0.00176   0.00000   0.03152   0.03171  -3.11163
    D6       -0.97831   0.00027   0.00000   0.00228   0.00218  -0.97612
    D7       -0.94883  -0.00117   0.00000   0.00010   0.00005  -0.94878
    D8        1.05406   0.00184   0.00000   0.03259   0.03281   1.08687
    D9       -3.06409   0.00035   0.00000   0.00335   0.00328  -3.06081
   D10        3.13875  -0.00015   0.00000   0.00013   0.00010   3.13886
   D11       -1.04920   0.00404   0.00000   0.05825   0.05808  -0.99112
   D12        1.05660  -0.00070   0.00000   0.01244   0.01229   1.06889
   D13        1.04418  -0.00318   0.00000  -0.04253  -0.04214   1.00204
   D14        3.13941   0.00101   0.00000   0.01559   0.01584  -3.12793
   D15       -1.03797  -0.00374   0.00000  -0.03022  -0.02994  -1.06792
   D16       -0.98691  -0.00015   0.00000  -0.00829  -0.00840  -0.99530
   D17        1.10832   0.00405   0.00000   0.04983   0.04958   1.15790
   D18       -3.06906  -0.00070   0.00000   0.00402   0.00380  -3.06527
   D19        3.10623  -0.00019   0.00000  -0.01570  -0.01608   3.09014
   D20        1.09909   0.00045   0.00000  -0.01684  -0.01723   1.08186
   D21       -1.05969   0.00006   0.00000  -0.02056  -0.02090  -1.08059
   D22       -1.06238   0.00079   0.00000   0.02171   0.02213  -1.04025
   D23       -3.06952   0.00144   0.00000   0.02057   0.02099  -3.04853
   D24        1.05488   0.00105   0.00000   0.01684   0.01732   1.07220
   D25        0.99075  -0.00154   0.00000  -0.00412  -0.00421   0.98654
   D26       -1.01639  -0.00089   0.00000  -0.00526  -0.00535  -1.02174
   D27        3.10802  -0.00128   0.00000  -0.00899  -0.00902   3.09900
   D28        1.31991  -0.00033   0.00000   0.06881   0.06860   1.38851
   D29       -0.76686   0.00132   0.00000   0.07410   0.07455  -0.69231
   D30       -2.80277   0.00260   0.00000   0.07132   0.07107  -2.73170
   D31        1.07054   0.00050   0.00000   0.03297   0.03299   1.10353
   D32       -3.12890   0.00075   0.00000   0.03700   0.03701  -3.09188
   D33       -1.03991   0.00053   0.00000   0.03360   0.03361  -1.00630
   D34       -3.09381  -0.00137   0.00000   0.00585   0.00572  -3.08809
   D35       -1.01006  -0.00112   0.00000   0.00987   0.00975  -1.00031
   D36        1.07892  -0.00133   0.00000   0.00647   0.00634   1.08526
   D37       -1.09715   0.00150   0.00000   0.04533   0.04545  -1.05170
   D38        0.98660   0.00175   0.00000   0.04936   0.04948   1.03607
   D39        3.07558   0.00153   0.00000   0.04596   0.04607   3.12165
   D40        0.12681  -0.00149   0.00000  -0.03681  -0.03831   0.08850
   D41       -3.01504  -0.00307   0.00000  -0.12736  -0.12586  -3.14090
   D42       -1.84039  -0.00036   0.00000   0.02999   0.03055  -1.80984
   D43        0.27610  -0.00069   0.00000   0.02583   0.02620   0.30230
   D44        2.33854   0.00333   0.00000   0.07504   0.07550   2.41403
   D45        1.30095  -0.00189   0.00000  -0.05748  -0.05784   1.24311
   D46       -2.86574  -0.00221   0.00000  -0.06164  -0.06220  -2.92794
   D47       -0.80331   0.00181   0.00000  -0.01243  -0.01290  -0.81620
         Item               Value     Threshold  Converged?
 Maximum Force            0.010924     0.000450     NO 
 RMS     Force            0.002981     0.000300     NO 
 Maximum Displacement     0.393786     0.001800     NO 
 RMS     Displacement     0.096122     0.001200     NO 
 Predicted change in Energy=-3.195034D-03
 Lowest energy point so far.  Saving SCF results.
 GradGradGradGradGradGradGradGradGradGradGradGradGradGradGradGradGradGrad

 Leave Link  103 at Sun Sep 19 20:04:59 2021, MaxMem=   524288000 cpu:               0.0 elap:               0.0
 (Enter /opt/gaussian/g16_legacy/l202.exe)
                          Input orientation:                          
 ---------------------------------------------------------------------
 Center     Atomic      Atomic             Coordinates (Angstroms)
 Number     Number       Type             X           Y           Z
 ---------------------------------------------------------------------
      1          6           0       -2.408871    1.238266    2.614333
      2          1           0       -2.100026    1.787357    3.503132
      3          1           0       -2.052159    0.214757    2.711042
      4          1           0       -3.497946    1.215831    2.605707
      5          6           0       -1.883898    1.875060    1.328582
      6          1           0       -2.296295    1.362061    0.459268
      7          1           0       -2.222381    2.909263    1.257235
      8          6           0       -0.364661    1.848457    1.202168
      9          1           0       -0.071688    2.317678    0.259609
     10          6           0        0.382545    2.508792    2.347469
     11          1           0        1.450931    2.375610    2.163319
     12          1           0        0.167864    1.984693    3.280435
     13          6           0        0.067765    3.994464    2.482880
     14          1           0       -0.979836    4.169361    2.720718
     15          1           0        0.662770    4.433052    3.282158
     16          1           0        0.297987    4.530287    1.561982
     17          8           0        0.097568    0.476962    1.190825
     18          6           0       -0.023967   -0.175535    0.006149
     19          8           0       -0.404268    0.354459   -1.024891
     20          6           0        0.483885   -1.591408    0.104005
     21          1           0        1.460286   -1.655648   -0.370012
     22          1           0        0.564512   -1.919072    1.136767
     23          1           0       -0.201917   -2.240448   -0.433278
 ---------------------------------------------------------------------
                    Distance matrix (angstroms):
                    1          2          3          4          5
     1  C    0.000000
     2  H    1.089426   0.000000
     3  H    1.088194   1.761468   0.000000
     4  H    1.089340   1.756756   1.761688   0.000000
     5  C    1.527828   2.187023   2.167052   2.161199   0.000000
     6  H    2.161551   3.079692   2.538975   2.464253   1.090388
     7  H    2.160724   2.513503   3.066414   2.512599   1.090522
     8  C    2.558386   2.882648   2.791653   3.491075   1.524719
     9  H    3.488880   3.862102   3.788676   4.296217   2.150051
    10  C    3.078547   2.831816   3.364902   4.098370   2.564470
    11  H    4.049079   3.840630   4.152220   5.102174   3.473963
    12  H    2.764129   2.287326   2.895754   3.805860   2.833986
    13  C    3.707780   3.257538   4.339623   4.522188   3.103750
    14  H    3.262633   2.746078   4.097422   3.882968   2.831817
    15  H    4.481922   3.831655   5.048864   5.302796   4.104302
    16  H    4.389980   4.128219   5.046516   5.146269   3.444609
    17  O    2.981308   3.448669   2.645967   3.933896   2.428963
    18  C    3.806472   4.515734   3.403284   4.556548   3.068080
    19  O    4.247764   5.042993   4.085616   4.847065   3.168654
    20  C    4.762021   5.444880   4.060837   5.476686   4.372915
    21  H    5.679034   6.287395   5.032750   6.456342   5.151182
    22  H    4.581811   5.141698   3.725391   5.337505   4.519617
    23  H    5.124454   5.943177   4.397519   5.660839   4.782323
                    6          7          8          9         10
     6  H    0.000000
     7  H    1.742426   0.000000
     8  C    2.125956   2.139968   0.000000
     9  H    2.429392   2.443504   1.092895   0.000000
    10  C    3.472244   2.852126   1.518576   2.145230   0.000000
    11  H    4.239431   3.820863   2.120867   2.438408   1.092291
    12  H    3.797201   3.265186   2.149730   3.048549   1.091417
    13  C    4.075945   2.815073   2.536250   2.788188   1.524679
    14  H    3.837727   2.296421   2.840956   3.211000   2.180112
    15  H    5.114270   3.840096   3.473054   3.761653   2.157533
    16  H    4.240746   3.012116   2.785818   2.593930   2.170388
    17  O    2.655025   3.361943   1.447336   2.069793   2.355285
    18  C    2.780827   3.989263   2.375516   2.506518   3.585058
    19  O    2.607251   3.878228   2.682049   2.369552   4.078362
    20  C    4.071682   5.376789   3.709268   3.951434   4.674938
    21  H    4.889394   6.086738   4.252167   4.304728   5.088102
    22  H    4.405571   5.576209   3.880968   4.373123   4.594005
    23  H    4.261588   5.784430   4.406848   4.612328   5.534386
                   11         12         13         14         15
    11  H    0.000000
    12  H    1.745573   0.000000
    13  C    2.153127   2.164553   0.000000
    14  H    3.071949   2.530468   1.088404   0.000000
    15  H    2.471046   2.497878   1.088685   1.755819   0.000000
    16  H    2.516649   3.074095   1.090028   1.762319   1.761115
    17  O    2.526301   2.577725   3.747414   4.139466   4.510407
    18  C    3.651992   3.927383   4.850928   5.211592   5.695868
    19  O    4.206125   4.639054   5.077096   5.377206   6.026952
    20  C    4.573093   4.793546   6.085571   6.494315   6.813720
    21  H    4.761185   5.314903   6.480884   7.031183   7.144693
    22  H    4.503758   4.471244   6.085120   6.477880   6.705359
    23  H    5.548172   5.637395   6.888457   7.185994   7.686856
                   16         17         18         19         20
    16  H    0.000000
    17  O    4.075214   0.000000
    18  C    4.966793   1.357932   0.000000
    19  O    4.962117   2.275135   1.220068   0.000000
    20  C    6.295666   2.368243   1.507378   2.418599   0.000000
    21  H    6.584021   2.973421   2.129609   2.818857   1.087279
    22  H    6.468854   2.441708   2.159751   3.283328   1.086490
    23  H    7.076286   3.179893   2.118638   2.669175   1.086393
                   21         22         23
    21  H    0.000000
    22  H    1.772620   0.000000
    23  H    1.763211   1.776440   0.000000
 Stoichiometry    C7H14O2
 Framework group  C1[X(C7H14O2)]
 Deg. of freedom    63
 Full point group                 C1      NOp   1
 RotChk:  IX=0 Diff= 7.69D-02
 Largest Abelian subgroup         C1      NOp   1
 Largest concise Abelian subgroup C1      NOp   1
                         Standard orientation:                         
 ---------------------------------------------------------------------
 Center     Atomic      Atomic             Coordinates (Angstroms)
 Number     Number       Type             X           Y           Z
 ---------------------------------------------------------------------
      1          6           0       -1.119104    2.070985   -0.490812
[...]
    15  H    2.459104   2.529476   1.088853   1.758638   0.000000
    16  H    2.544296   3.071126   1.090369   1.762550   1.761215
    17  O    2.548110   2.562867   3.758135   4.148016   4.524473
    18  C    3.632962   3.913174   4.856725   5.244255   5.690813
    19  O    4.194685   4.636227   5.099411   5.442479   6.031565
    20  C    4.552347   4.749219   6.074631   6.491421   6.794185
    21  H    4.288879   4.673360   6.091656   6.645537   6.667776
    22  H    4.964966   4.778163   6.343116   6.622647   7.055806
    23  H    5.444926   5.765370   6.931569   7.349546   7.695361
                   16         17         18         19         20
    16  H    0.000000
    17  O    4.079498   0.000000
    18  C    4.955355   1.359080   0.000000
    19  O    4.958632   2.281426   1.219717   0.000000
    20  C    6.286669   2.349799   1.505254   2.426331   0.000000
    21  H    6.342079   2.592908   2.135361   3.134380   1.087841
    22  H    6.701955   2.626577   2.132468   3.106773   1.088335
    23  H    7.026232   3.275008   2.126848   2.573497   1.084830
                   21         22         23
    21  H    0.000000
    22  H    1.757963   0.000000
    23  H    1.783019   1.780580   0.000000
 Stoichiometry    C7H14O2
 Framework group  C1[X(C7H14O2)]
 Deg. of freedom    63
 Full point group                 C1      NOp   1
 RotChk:  IX=0 Diff= 9.75D-16
 Largest Abelian subgroup         C1      NOp   1
 Largest concise Abelian subgroup C1      NOp   1
                         Standard orientation:                         
 ---------------------------------------------------------------------
 Center     Atomic      Atomic             Coordinates (Angstroms)
 Number     Number       Type             X           Y           Z
 ---------------------------------------------------------------------
      1          6           0       -1.156657    2.061783   -0.493983
      2          1           0       -2.061384    1.769474   -1.025732
      3          1           0       -0.329619    2.046733   -1.201898
      4          1           0       -1.292095    3.086950   -0.152086
      5          6           0       -0.869397    1.138037    0.683952
      6          1           0       -0.035321    1.522667    1.271867
      7          1           0       -1.728320    1.103876    1.357837
      8          6           0       -0.519088   -0.289405    0.280756
      9          1           0       -0.311745   -0.870600    1.181688
     10          6           0       -1.554741   -1.002341   -0.572821
     11          1           0       -1.165029   -1.995373   -0.803312
     12          1           0       -1.657067   -0.479677   -1.524906
     13          6           0       -2.909973   -1.122940    0.116239
     14          1           0       -3.377039   -0.149308    0.256395
     15          1           0       -3.588359   -1.733367   -0.477709
     16          1           0       -2.809586   -1.591637    1.095601
     17          8           0        0.694473   -0.275344   -0.526511
     18          6           0        1.865587   -0.239940    0.162210
     19          8           0        1.947893   -0.222660    1.379025
     20          6           0        3.028501   -0.223911   -0.793385
     21          1           0        2.976036   -1.087510   -1.452811
     22          1           0        2.979358    0.669982   -1.412266
     23          1           0        3.955845   -0.235869   -0.230584
 ---------------------------------------------------------------------
 Rotational constants (GHZ):           2.4888851           0.9527684           0.8578833
 Leave Link  202 at Sun Sep 19 20:42:55 2021, MaxMem=   524288000 cpu:               0.0 elap:               0.0
 (Enter /opt/gaussian/g16_legacy/l601.exe)
 Copying SCF densities to generalized density rwf, IOpCl= 0 IROHF=0.

 **********************************************************************

            Population analysis using the SCF density.

 **********************************************************************

 Orbital symmetries:
       Occupied  (A) (A) (A) (A) (A) (A) (A) (A) (A) (A) (A) (A)
                 (A) (A) (A) (A) (A) (A) (A) (A) (A) (A) (A) (A)
                 (A) (A) (A) (A) (A) (A) (A) (A) (A) (A) (A) (A)
       Virtual   (A) (A) (A) (A) (A) (A) (A) (A) (A) (A) (A) (A)
                 (A) (A) (A) (A) (A) (A) (A) (A) (A) (A) (A) (A)
                 (A) (A) (A) (A) (A) (A) (A) (A) (A) (A) (A) (A)
                 (A) (A) (A) (A) (A) (A) (A) (A) (A) (A) (A) (A)
                 (A) (A) (A) (A) (A) (A) (A) (A) (A) (A) (A) (A)
                 (A) (A) (A) (A) (A) (A) (A) (A) (A) (A) (A) (A)
                 (A) (A) (A) (A) (A) (A) (A) (A) (A) (A) (A) (A)
                 (A) (A) (A) (A) (A) (A) (A) (A) (A) (A) (A) (A)
                 (A) (A) (A) (A) (A) (A) (A) (A) (A) (A) (A) (A)
                 (A) (A) (A) (A) (A) (A) (A) (A) (A) (A) (A) (A)
                 (A) (A) (A) (A) (A) (A) (A) (A) (A) (A) (A) (A)
                 (A) (A) (A) (A) (A) (A) (A) (A) (A) (A) (A) (A)
                 (A) (A) (A) (A) (A) (A) (A) (A) (A) (A) (A) (A)
                 (A) (A) (A) (A) (A) (A) (A) (A) (A) (A) (A) (A)
                 (A)
 The electronic state is 1-A.
 Alpha  occ. eigenvalues --  -20.60031 -20.54893 -11.38346 -11.28444 -11.23895
 Alpha  occ. eigenvalues --  -11.22354 -11.22016 -11.21987 -11.21331  -1.44474
 Alpha  occ. eigenvalues --   -1.34701  -1.09473  -1.02003  -1.01531  -0.92884
 Alpha  occ. eigenvalues --   -0.86145  -0.79861  -0.74756  -0.68776  -0.66720
 Alpha  occ. eigenvalues --   -0.65910  -0.63267  -0.60497  -0.58476  -0.57138
 Alpha  occ. eigenvalues --   -0.56843  -0.54597  -0.53806  -0.52117  -0.50968
 Alpha  occ. eigenvalues --   -0.50335  -0.48523  -0.47555  -0.45986  -0.44237
 Alpha  occ. eigenvalues --   -0.43160
 Alpha virt. eigenvalues --    0.18488   0.21849   0.24617   0.26622   0.27870
 Alpha virt. eigenvalues --    0.28302   0.29609   0.30715   0.31116   0.32716
 Alpha virt. eigenvalues --    0.33100   0.33893   0.34953   0.36025   0.36699
 Alpha virt. eigenvalues --    0.38211   0.40283   0.40375   0.42431   0.43705
 Alpha virt. eigenvalues --    0.47834   0.50407   0.54572   0.69302   0.70421
 Alpha virt. eigenvalues --    0.72689   0.73444   0.75448   0.76017   0.76552
 Alpha virt. eigenvalues --    0.79486   0.80400   0.82069   0.83454   0.87980
 Alpha virt. eigenvalues --    0.90784   0.93615   0.94737   0.95509   0.97197
 Alpha virt. eigenvalues --    1.00276   1.01920   1.06892   1.08906   1.09291
 Alpha virt. eigenvalues --    1.09978   1.10919   1.11880   1.12634   1.13844
 Alpha virt. eigenvalues --    1.14157   1.15466   1.16496   1.16995   1.18897
 Alpha virt. eigenvalues --    1.19647   1.21514   1.21544   1.22948   1.25902
 Alpha virt. eigenvalues --    1.28971   1.32766   1.35635   1.38046   1.43294
 Alpha virt. eigenvalues --    1.43683   1.49942   1.54314   1.58066   1.65773
 Alpha virt. eigenvalues --    1.67978   1.69250   1.72070   1.74139   1.79055
 Alpha virt. eigenvalues --    1.79433   1.81940   1.88192   1.89635   1.93590
 Alpha virt. eigenvalues --    1.99284   2.01027   2.02592   2.05165   2.08214
 Alpha virt. eigenvalues --    2.08882   2.14719   2.16128   2.17886   2.20106
 Alpha virt. eigenvalues --    2.21692   2.22954   2.26855   2.27425   2.32209
 Alpha virt. eigenvalues --    2.33795   2.34937   2.36008   2.37547   2.38034
 Alpha virt. eigenvalues --    2.40268   2.40700   2.41004   2.42685   2.44276
 Alpha virt. eigenvalues --    2.46901   2.49153   2.50364   2.51858   2.55107
 Alpha virt. eigenvalues --    2.55839   2.57873   2.59173   2.62315   2.64674
 Alpha virt. eigenvalues --    2.66685   2.70493   2.71982   2.76194   2.79111
 Alpha virt. eigenvalues --    2.80668   2.85828   2.88077   2.92683   2.94116
 Alpha virt. eigenvalues --    2.96902   2.99070   2.99479   3.01751   3.05035
 Alpha virt. eigenvalues --    3.06415   3.11029   3.13396   3.14738   3.17657
 Alpha virt. eigenvalues --    3.20532   3.22511   3.23166   3.24663   3.25891
 Alpha virt. eigenvalues --    3.26561   3.27892   3.31116   3.35266   3.45727
 Alpha virt. eigenvalues --    3.49315   3.56918   3.59507   3.61942   3.68111
 Alpha virt. eigenvalues --    3.72921   3.73955   3.78967   3.79542   3.82237
 Alpha virt. eigenvalues --    3.83470   3.84173   3.88861   3.93144   3.94964
 Alpha virt. eigenvalues --    4.48439   4.57438   4.67255   4.74388   4.84565
 Alpha virt. eigenvalues --    4.98740   5.01325   5.06823   5.15943
          Condensed to atoms (all electrons):
               1          2          3          4          5          6
     1  C    4.942792   0.401751   0.404205   0.406762   0.321787  -0.040268
     2  H    0.401751   0.589235  -0.030060  -0.029489  -0.036526   0.003889
     3  H    0.404205  -0.030060   0.568023  -0.028503  -0.039619  -0.002155
     4  H    0.406762  -0.029489  -0.028503   0.573654  -0.037202  -0.003805
     5  C    0.321787  -0.036526  -0.039619  -0.037202   5.021362   0.415856
     6  H   -0.040268   0.003889  -0.002155  -0.003805   0.415856   0.542347
     7  H   -0.038966  -0.003809   0.004355  -0.002458   0.402544  -0.026646
     8  C   -0.053530  -0.004226  -0.006369   0.004366   0.355103  -0.037414
     9  H    0.004364  -0.000130   0.000116  -0.000065  -0.049006  -0.005003
    10  C   -0.004228   0.000886  -0.000309  -0.000027  -0.060996   0.004390
    11  H   -0.000092   0.000051  -0.000049   0.000001   0.004920  -0.000092
    12  H    0.001393  -0.002417   0.000458   0.000021  -0.006090  -0.000148
    13  C   -0.000761  -0.000263   0.000069   0.000000   0.000467  -0.000013
    14  H    0.000020   0.000800  -0.000027  -0.000007   0.000087   0.000042
    15  H   -0.000019   0.000004   0.000002   0.000000  -0.000025   0.000001
    16  H    0.000106  -0.000033  -0.000002   0.000001  -0.000575  -0.000043
    17  O   -0.003220   0.000178   0.005065   0.000002  -0.044570  -0.003416
    18  C    0.000254  -0.000015   0.000269  -0.000024  -0.003965   0.002255
    19  O    0.000067  -0.000003  -0.000015   0.000000  -0.004790   0.004939
    20  C   -0.000014   0.000000  -0.000031   0.000000  -0.000444   0.000099
    21  H    0.000000  -0.000000  -0.000001  -0.000000   0.000009  -0.000001
    22  H   -0.000001   0.000000   0.000122  -0.000000   0.000072  -0.000041
    23  H    0.000000   0.000000  -0.000001   0.000000   0.000010   0.000002
               7          8          9         10         11         12
     1  C   -0.038966  -0.053530   0.004364  -0.004228  -0.000092   0.001393
     2  H   -0.003809  -0.004226  -0.000130   0.000886   0.000051  -0.002417
     3  H    0.004355  -0.006369   0.000116  -0.000309  -0.000049   0.000458
     4  H   -0.002458   0.004366  -0.000065  -0.000027   0.000001   0.000021
     5  C    0.402544   0.355103  -0.049006  -0.060996   0.004920  -0.006090
     6  H   -0.026646  -0.037414  -0.005003   0.004390  -0.000092  -0.000148
     7  H    0.588521  -0.037863  -0.000307  -0.002729  -0.000138   0.000441
     8  C   -0.037863   4.815558   0.425379   0.365866  -0.042107  -0.035572
     9  H   -0.000307   0.425379   0.540323  -0.042838  -0.004481   0.004205
    10  C   -0.002729   0.365866  -0.042838   4.976739   0.411688   0.405821
    11  H   -0.000138  -0.042107  -0.004481   0.411688   0.574756  -0.030343
    12  H    0.000441  -0.035572   0.004205   0.405821  -0.030343   0.577324
    13  C   -0.001024  -0.055482  -0.001074   0.325942  -0.037098  -0.038034
    14  H   -0.001999  -0.004635   0.000130  -0.036527   0.004067  -0.003795
    15  H    0.000069   0.004318  -0.000112  -0.034680  -0.004284  -0.002509
    16  H    0.000382  -0.003122   0.002459  -0.041363  -0.002533   0.004341
    17  O    0.002924   0.134002  -0.030381  -0.050021   0.001099  -0.000118
    18  C    0.000139  -0.019562  -0.006925   0.003130   0.000013  -0.000217
    19  O    0.000022  -0.002750   0.008235   0.000370   0.000003  -0.000009
    20  C    0.000005   0.004157   0.000259  -0.000121  -0.000031  -0.000010
    21  H    0.000000  -0.000192  -0.000028  -0.000000   0.000009   0.000005
    22  H   -0.000000  -0.000235  -0.000002  -0.000006   0.000001   0.000000
    23  H   -0.000000  -0.000119   0.000009   0.000002   0.000000   0.000000
              13         14         15         16         17         18
     1  C   -0.000761   0.000020  -0.000019   0.000106  -0.003220   0.000254
     2  H   -0.000263   0.000800   0.000004  -0.000033   0.000178  -0.000015
     3  H    0.000069  -0.000027   0.000002  -0.000002   0.005065   0.000269
     4  H    0.000000  -0.000007   0.000000   0.000001   0.000002  -0.000024
     5  C    0.000467   0.000087  -0.000025  -0.000575  -0.044570  -0.003965
     6  H   -0.000013   0.000042   0.000001  -0.000043  -0.003416   0.002255
     7  H   -0.001024  -0.001999   0.000069   0.000382   0.002924   0.000139
     8  C   -0.055482  -0.004635   0.004318  -0.003122   0.134002  -0.019562
     9  H   -0.001074   0.000130  -0.000112   0.002459  -0.030381  -0.006925
    10  C    0.325942  -0.036527  -0.034680  -0.041363  -0.050021   0.003130
    11  H   -0.037098   0.004067  -0.004284  -0.002533   0.001099   0.000013
    12  H   -0.038034  -0.003795  -0.002509   0.004341  -0.000118  -0.000217
    13  C    4.944372   0.402999   0.405382   0.401686   0.002382  -0.000043
    14  H    0.402999   0.581294  -0.028569  -0.031152  -0.000039  -0.000002
    15  H    0.405382  -0.028569   0.567404  -0.028456  -0.000047   0.000002
    16  H    0.401686  -0.031152  -0.028456   0.582815  -0.000008  -0.000008
    17  O    0.002382  -0.000039  -0.000047  -0.000008   8.554505   0.254248
    18  C   -0.000043  -0.000002   0.000002  -0.000008   0.254248   4.162382
    19  O    0.000010  -0.000000   0.000000  -0.000004  -0.074003   0.561949
    20  C    0.000002  -0.000000  -0.000000  -0.000000  -0.093081   0.374612
    21  H   -0.000000   0.000000  -0.000000   0.000000   0.002486  -0.030423
    22  H   -0.000000   0.000000   0.000000  -0.000000   0.002050  -0.031230
    23  H   -0.000000   0.000000   0.000000   0.000000   0.003267  -0.038541
              19         20         21         22         23
     1  C    0.000067  -0.000014   0.000000  -0.000001   0.000000
     2  H   -0.000003   0.000000  -0.000000   0.000000   0.000000
     3  H   -0.000015  -0.000031  -0.000001   0.000122  -0.000001
     4  H    0.000000   0.000000  -0.000000  -0.000000   0.000000
     5  C   -0.004790  -0.000444   0.000009   0.000072   0.000010
     6  H    0.004939   0.000099  -0.000001  -0.000041   0.000002
     7  H    0.000022   0.000005   0.000000  -0.000000  -0.000000
     8  C   -0.002750   0.004157  -0.000192  -0.000235  -0.000119
     9  H    0.008235   0.000259  -0.000028  -0.000002   0.000009
    10  C    0.000370  -0.000121  -0.000000  -0.000006   0.000002
    11  H    0.000003  -0.000031   0.000009   0.000001   0.000000
    12  H   -0.000009  -0.000010   0.000005   0.000000   0.000000
    13  C    0.000010   0.000002  -0.000000  -0.000000  -0.000000
    14  H   -0.000000  -0.000000   0.000000   0.000000   0.000000
    15  H    0.000000  -0.000000  -0.000000   0.000000   0.000000
    16  H   -0.000004  -0.000000   0.000000  -0.000000   0.000000
    17  O   -0.074003  -0.093081   0.002486   0.002050   0.003267
    18  C    0.561949   0.374612  -0.030423  -0.031230  -0.038541
    19  O    8.149066  -0.060423   0.001194   0.000890   0.003088
    20  C   -0.060423   5.004288   0.388842   0.390067   0.395304
    21  H    0.001194   0.388842   0.527795  -0.023437  -0.021398
    22  H    0.000890   0.390067  -0.023437   0.528410  -0.021173
    23  H    0.003088   0.395304  -0.021398  -0.021173   0.521668
 Mulliken charges:
               1
     1  C   -0.342404
     2  H    0.110175
     3  H    0.124458
     4  H    0.116773
     5  C   -0.238409
     6  H    0.145225
     7  H    0.116537
     8  C    0.194427
     9  H    0.154876
    10  C   -0.220988
    11  H    0.124640
    12  H    0.125251
    13  C   -0.349519
    14  H    0.117312
    15  H    0.121520
    16  H    0.115509
    17  O   -0.663306
    18  C    0.771704
    19  O   -0.587836
    20  C   -0.403482
    21  H    0.155141
    22  H    0.154513
    23  H    0.157883
 Sum of Mulliken charges =  -0.00000
 Mulliken charges with hydrogens summed into heavy atoms:
               1
     1  C    0.009002
     5  C    0.023353
     8  C    0.349303
    10  C    0.028903
    13  C    0.004823
    17  O   -0.663306
    18  C    0.771704
    19  O   -0.587836
    20  C    0.064054
 Electronic spatial extent (au):  <R**2>=           1534.1423
 Charge=             -0.0000 electrons
 Dipole moment (field-independent basis, Debye):
    X=             -0.7745    Y=             -0.0248    Z=             -1.8916  Tot=              2.0441
 Quadrupole moment (field-independent basis, Debye-Ang):
   XX=            -53.4719   YY=            -55.3920   ZZ=            -61.3069
   XY=              0.4662   XZ=             -6.4468   YZ=              0.5979
 Traceless Quadrupole moment (field-independent basis, Debye-Ang):
   XX=              3.2517   YY=              1.3316   ZZ=             -4.5833
   XY=              0.4662   XZ=             -6.4468   YZ=              0.5979
 Octapole moment (field-independent basis, Debye-Ang**2):
  XXX=             23.9706  YYY=             -3.7253  ZZZ=             -3.8517  XYY=              5.2331
  XXY=             -1.8442  XXZ=            -15.2772  XZZ=             -4.6134  YZZ=             -0.3225
  YYZ=              1.1469  XYZ=              0.5818
 Hexadecapole moment (field-independent basis, Debye-Ang**3):
 XXXX=          -1300.5722 YYYY=           -450.4816 ZZZZ=           -262.8994 XXXY=             -5.2796
 XXXZ=            -20.7687 YYYX=             -2.3814 YYYZ=              5.2991 ZZZX=            -10.2783
 ZZZY=              0.1849 XXYY=           -295.7114 XXZZ=           -279.6960 YYZZ=           -116.8537
 XXYZ=              6.5460 YYXZ=             -1.2580 ZZXY=              2.7912
 N-N= 4.862579651754D+02 E-N=-1.962537371790D+03  KE= 4.221837048497D+02
 No NMR shielding tensors so no spin-rotation constants.
 Leave Link  601 at Sun Sep 19 20:42:56 2021, MaxMem=   524288000 cpu:               0.1 elap:               0.4
 (Enter /opt/gaussian/g16_legacy/l9999.exe)
 1\1\GINC-TRUENO93\FOpt\RMP2-FC\6-31G(d,p)\C7H14O2\JRAMOS\19-Sep-2021\0
 \\#p opt mp2/6-31g(d,p)\\Conformer number 011. Energy MM = -6.067 kcal
 /mol\\0,1\C,-2.3764593354,1.2490439388,2.6764371609\H,-2.0542888497,1.
 8292268025,3.5403397041\H,-1.9848140899,0.2388419278,2.7835247631\H,-3
 .4639866599,1.1958968296,2.7022145589\C,-1.901626994,1.8709863742,1.36
 83554462\H,-2.3396376981,1.3459874339,0.5187736431\H,-2.2405948601,2.9
 067567122,1.2954401733\C,-0.388858372,1.8473631085,1.1843720121\H,-0.1
 430888383,2.2931706692,0.2182925607\C,0.4160510649,2.5153784551,2.2867
 897066\H,1.4727132311,2.4032717979,2.0377677586\H,0.2583885267,1.97785
 97468,3.2229148275\C,0.0762019488,3.99231122,2.4575951029\H,-0.9420628
 224,4.1308193348,2.8177423632\H,0.7480897635,4.4590399464,3.1761581444
 \H,0.1740910402,4.5272107904,1.5125003705\O,0.0699207563,0.4639996601,
 1.1635478748\C,-0.0310842932,-0.1773428545,-0.0304273906\O,-0.46864020
 51,0.3305825217,-1.0493810482\C,0.4711268371,-1.5906721511,0.096349985
 5\H,1.4945363132,-1.5868269939,0.4651539061\H,-0.1395689157,-2.1311774
 003,0.8170292289\H,0.421792452,-2.0774278701,-0.8718908524\\Version=EM
 64L-G16RevA.03\State=1-A\HF=-422.9992122\MP2=-424.3597175\RMSD=8.126e-
 09\RMSF=1.679e-06\Dipole=0.1695761,-0.0227533,0.6648828\PG=C01 [X(C7H1
 4O2)]\\@


 I DON'T EXACTLY UNDERSTAND WHAT YOU ARE SAYING,
 BUT YOU ARE ABSOLUTELY RIGHT.
     M.S.GORDON, IN A NDSU FACULTY MEETING
 Job cpu time:       0 days  0 hours 40 minutes 13.8 seconds.
 Elapsed time:       0 days  0 hours 40 minutes 18.5 seconds.
 File lengths (MBytes):  RWF=     29 Int=      0 D2E=      0 Chk=      6 Scr=      1
 Normal termination of Gaussian 16 at Sun Sep 19 20:42:56 2021.
