 Entering Gaussian System, Link 0=/opt/gaussian/g16_legacy/g16
 Input=07-EVA_006_gaussian.com
 Output=07-EVA_006_gaussian.log
 Initial command:
 /opt/gaussian/g16_legacy/l1.exe "/scratch-local/jramos/2661760/Gau-20026.inp" -scrdir="/scratch-local/jramos/2661760/"
 Entering Link 1 = /opt/gaussian/g16_legacy/l1.exe PID=     20027.
  
 Copyright (c) 1988,1990,1992,1993,1995,1998,2003,2009,2016,
            Gaussian, Inc.  All Rights Reserved.
  
 This is part of the Gaussian(R) 16 program.  It is based on
 the Gaussian(R) 09 system (copyright 2009, Gaussian, Inc.),
 the Gaussian(R) 03 system (copyright 2003, Gaussian, Inc.),
 the Gaussian(R) 98 system (copyright 1998, Gaussian, Inc.),
 the Gaussian(R) 94 system (copyright 1995, Gaussian, Inc.),
 the Gaussian 92(TM) system (copyright 1992, Gaussian, Inc.),
 the Gaussian 90(TM) system (copyright 1990, Gaussian, Inc.),
 the Gaussian 88(TM) system (copyright 1988, Gaussian, Inc.),
 the Gaussian 86(TM) system (copyright 1986, Carnegie Mellon
 University), and the Gaussian 82(TM) system (copyright 1983,
 Carnegie Mellon University). Gaussian is a federally registered
 trademark of Gaussian, Inc.
  
 This software contains proprietary and confidential information,
 including trade secrets, belonging to Gaussian, Inc.
  
 This software is provided under written license and may be
 used, copied, transmitted, or stored only in accord with that
 written license.
  
 The following legend is applicable only to US Government
 contracts under FAR:
  
                    RESTRICTED RIGHTS LEGEND
  
 Use, reproduction and disclosure by the US Government is
 subject to restrictions as set forth in subparagraphs (a)
 and (c) of the Commercial Computer Software - Restricted
 Rights clause in FAR 52.227-19.
  
 Gaussian, Inc.
 340 Quinnipiac St., Bldg. 40, Wallingford CT 06492
  
  
 ---------------------------------------------------------------
 Warning -- This program may not be used in any manner that
 competes with the business of Gaussian, Inc. or will provide
 assistance to any competitor of Gaussian, Inc.  The licensee
 of this program is prohibited from giving any competitor of
 Gaussian, Inc. access to this program.  By using this program,
 the user acknowledges that Gaussian, Inc. is engaged in the
 business of creating and licensing software in the field of
 computational chemistry and represents and warrants to the
 licensee that it is not a competitor of Gaussian, Inc. and that
 it will not use this program in any manner prohibited above.
 ---------------------------------------------------------------
  

 Cite this work as:
 Gaussian 16, Revision A.03,
 M. J. Frisch, G. W. Trucks, H. B. Schlegel, G. E. Scuseria, 
 M. A. Robb, J. R. Cheeseman, G. Scalmani, V. Barone, 
 G. A. Petersson, H. Nakatsuji, X. Li, M. Caricato, A. V. Marenich, 
 J. Bloino, B. G. Janesko, R. Gomperts, B. Mennucci, H. P. Hratchian, 
 J. V. Ortiz, A. F. Izmaylov, J. L. Sonnenberg, D. Williams-Young, 
 F. Ding, F. Lipparini, F. Egidi, J. Goings, B. Peng, A. Petrone, 
 T. Henderson, D. Ranasinghe, V. G. Zakrzewski, J. Gao, N. Rega, 
 G. Zheng, W. Liang, M. Hada, M. Ehara, K. Toyota, R. Fukuda, 
 J. Hasegawa, M. Ishida, T. Nakajima, Y. Honda, O. Kitao, H. Nakai, 
 T. Vreven, K. Throssell, J. A. Montgomery, Jr., J. E. Peralta, 
 F. Ogliaro, M. J. Bearpark, J. J. Heyd, E. N. Brothers, K. N. Kudin, 
 V. N. Staroverov, T. A. Keith, R. Kobayashi, J. Normand, 
 K. Raghavachari, A. P. Rendell, J. C. Burant, S. S. Iyengar, 
 J. Tomasi, M. Cossi, J. M. Millam, M. Klene, C. Adamo, R. Cammi, 
 J. W. Ochterski, R. L. Martin, K. Morokuma, O. Farkas, 
 J. B. Foresman, and D. J. Fox, Gaussian, Inc., Wallingford CT, 2016.
 
 ******************************************
 Gaussian 16:  EM64L-G16RevA.03 25-Dec-2016
                19-Sep-2021 
 ******************************************
 %chk=07-EVA_006_gaussian.chk
 %nproc=1
 Will use up to    1 processors via shared memory.
 %mem=4000Mb
 ---------------------
 #p opt mp2/6-31g(d,p)
 ---------------------
 1/18=20,19=15,38=1/1,3;
 2/9=110,12=2,17=6,18=5,40=1/2;
 3/5=1,6=6,7=101,11=9,25=1,30=1,71=1/1,2,3;
 4//1;
 5/5=2,38=5/2;
 8/6=4,10=2/1;
 9/15=2,16=-3/6;
 10/5=1/2;
 6/7=2,8=2,9=2,10=2/1;
 7/12=2/1,2,3,16;
 1/18=20,19=15/3(2);
 2/9=110/2;
 99//99;
 2/9=110/2;
 3/5=1,6=6,7=101,11=9,25=1,30=1,71=1/1,2,3;
 4/5=5,16=3,69=1/1;
 5/5=2,38=5/2;
 8/6=4,10=2/1;
 9/15=2,16=-3/6;
 10/5=1/2;
 7/12=2/1,2,3,16;
 1/18=20,19=15/3(-8);
 2/9=110/2;
 6/7=2,8=2,9=2,10=2/1;
 99//99;
 Leave Link    1 at Sun Sep 19 20:02:33 2021, MaxMem=   524288000 cpu:               0.0 elap:               0.1
 (Enter /opt/gaussian/g16_legacy/l101.exe)
 -------------------------------------------------
 Conformer number 006. Energy MM = -6.223 kcal/mol
 -------------------------------------------------
 Symbolic Z-matrix:
 Charge =  0 Multiplicity = 1
 C                    -2.2397    3.7049    1.1655 
 H                    -1.7423    4.0873    0.2689 
 H                    -1.9323    4.3086    2.0237 
 H                    -3.3188    3.8411    1.0398 
 C                    -1.9285    2.2349    1.38 
 H                    -2.3707    1.8975    2.3265 
 H                    -2.444     1.6589    0.6014 
 C                    -0.4303    1.8849    1.3542 
 H                     0.007     2.1421    0.3813 
 C                     0.3566    2.601     2.4625 
 H                     0.0158    2.2531    3.4451 
 H                     0.1933    3.6824    2.4166 
 C                     1.8567    2.3541    2.3625 
 H                     2.2518    2.7324    1.4137 
 H                     2.3784    2.8735    3.1736 
 H                     2.0946    1.2886    2.4367 
 O                    -0.3246    0.4612    1.5891 
 C                    -0.5828   -0.3434    0.5201 
 O                    -0.6937    0.0265   -0.6384 
 C                    -0.7451   -1.7645    0.9665 
 H                     0.1827   -2.3156    0.8083 
 H                    -1.0253   -1.805     2.0239 
 H                    -1.5612   -2.2199    0.3972 
 
 ITRead=  0  0  0  0  0  0  0  0  0  0  0  0  0  0  0  0  0  0  0  0
 ITRead=  0  0  0
 MicOpt= -1 -1 -1 -1 -1 -1 -1 -1 -1 -1 -1 -1 -1 -1 -1 -1 -1 -1 -1 -1
 MicOpt= -1 -1 -1
 NAtoms=     23 NQM=       23 NQMF=       0 NMMI=      0 NMMIF=      0
                NMic=       0 NMicF=      0.
                    Isotopes and Nuclear Properties:
 (Nuclear quadrupole moments (NQMom) in fm**2, nuclear magnetic moments (NMagM)
  in nuclear magnetons)

  Atom         1           2           3           4           5           6           7           8           9          10
 IAtWgt=          12           1           1           1          12           1           1          12           1          12
 AtmWgt=  12.0000000   1.0078250   1.0078250   1.0078250  12.0000000   1.0078250   1.0078250  12.0000000   1.0078250  12.0000000
 NucSpn=           0           1           1           1           0           1           1           0           1           0
 AtZEff=  -0.0000000  -0.0000000  -0.0000000  -0.0000000  -0.0000000  -0.0000000  -0.0000000  -0.0000000  -0.0000000  -0.0000000
 NQMom=    0.0000000   0.0000000   0.0000000   0.0000000   0.0000000   0.0000000   0.0000000   0.0000000   0.0000000   0.0000000
 NMagM=    0.0000000   2.7928460   2.7928460   2.7928460   0.0000000   2.7928460   2.7928460   0.0000000   2.7928460   0.0000000
 AtZNuc=   6.0000000   1.0000000   1.0000000   1.0000000   6.0000000   1.0000000   1.0000000   6.0000000   1.0000000   6.0000000

  Atom        11          12          13          14          15          16          17          18          19          20
 IAtWgt=           1           1          12           1           1           1          16          12          16          12
 AtmWgt=   1.0078250   1.0078250  12.0000000   1.0078250   1.0078250   1.0078250  15.9949146  12.0000000  15.9949146  12.0000000
 NucSpn=           1           1           0           1           1           1           0           0           0           0
 AtZEff=  -0.0000000  -0.0000000  -0.0000000  -0.0000000  -0.0000000  -0.0000000  -0.0000000  -0.0000000  -0.0000000  -0.0000000
 NQMom=    0.0000000   0.0000000   0.0000000   0.0000000   0.0000000   0.0000000   0.0000000   0.0000000   0.0000000   0.0000000
 NMagM=    2.7928460   2.7928460   0.0000000   2.7928460   2.7928460   2.7928460   0.0000000   0.0000000   0.0000000   0.0000000
 AtZNuc=   1.0000000   1.0000000   6.0000000   1.0000000   1.0000000   1.0000000   8.0000000   6.0000000   8.0000000   6.0000000

  Atom        21          22          23
 IAtWgt=           1           1           1
 AtmWgt=   1.0078250   1.0078250   1.0078250
 NucSpn=           1           1           1
 AtZEff=  -0.0000000  -0.0000000  -0.0000000
 NQMom=    0.0000000   0.0000000   0.0000000
 NMagM=    2.7928460   2.7928460   2.7928460
 AtZNuc=   1.0000000   1.0000000   1.0000000
 Leave Link  101 at Sun Sep 19 20:02:33 2021, MaxMem=   524288000 cpu:               0.1 elap:               0.3
 (Enter /opt/gaussian/g16_legacy/l103.exe)

 GradGradGradGradGradGradGradGradGradGradGradGradGradGradGradGradGradGrad
 Berny optimization.
 Initialization pass.
                           ----------------------------
                           !    Initial Parameters    !
                           ! (Angstroms and Degrees)  !
 --------------------------                            --------------------------
 ! Name  Definition              Value          Derivative Info.                !
 --------------------------------------------------------------------------------
 ! R1    R(1,2)                  1.0943         estimate D2E/DX2                !
 ! R2    R(1,3)                  1.0934         estimate D2E/DX2                !
 ! R3    R(1,4)                  1.0949         estimate D2E/DX2                !
 ! R4    R(1,5)                  1.5178         estimate D2E/DX2                !
 ! R5    R(5,6)                  1.0978         estimate D2E/DX2                !
 ! R6    R(5,7)                  1.0971         estimate D2E/DX2                !
 ! R7    R(5,8)                  1.5388         estimate D2E/DX2                !
 ! R8    R(8,9)                  1.0972         estimate D2E/DX2                !
 ! R9    R(8,10)                 1.5363         estimate D2E/DX2                !
 ! R10   R(8,17)                 1.4468         estimate D2E/DX2                !
 ! R11   R(10,11)                1.0967         estimate D2E/DX2                !
 ! R12   R(10,12)                1.0946         estimate D2E/DX2                !
 ! R13   R(10,13)                1.5236         estimate D2E/DX2                !
 ! R14   R(13,14)                1.0952         estimate D2E/DX2                !
 ! R15   R(13,15)                1.0954         estimate D2E/DX2                !
 ! R16   R(13,16)                1.0943         estimate D2E/DX2                !
 ! R17   R(17,18)                1.3626         estimate D2E/DX2                !
 ! R18   R(18,19)                1.2212         estimate D2E/DX2                !
 ! R19   R(18,20)                1.4984         estimate D2E/DX2                !
 ! R20   R(20,21)                1.0907         estimate D2E/DX2                !
 ! R21   R(20,22)                1.0946         estimate D2E/DX2                !
 ! R22   R(20,23)                1.0943         estimate D2E/DX2                !
 ! A1    A(2,1,3)              108.806          estimate D2E/DX2                !
 ! A2    A(2,1,4)              108.0857         estimate D2E/DX2                !
 ! A3    A(2,1,5)              111.1634         estimate D2E/DX2                !
 ! A4    A(3,1,4)              107.3687         estimate D2E/DX2                !
 ! A5    A(3,1,5)              111.4804         estimate D2E/DX2                !
 ! A6    A(4,1,5)              109.8022         estimate D2E/DX2                !
 ! A7    A(1,5,6)              109.6885         estimate D2E/DX2                !
 ! A8    A(1,5,7)              108.1698         estimate D2E/DX2                !
 ! A9    A(1,5,8)              114.68           estimate D2E/DX2                !
 ! A10   A(6,5,7)              105.1431         estimate D2E/DX2                !
 ! A11   A(6,5,8)              109.6776         estimate D2E/DX2                !
 ! A12   A(7,5,8)              109.0358         estimate D2E/DX2                !
 ! A13   A(5,8,9)              110.4625         estimate D2E/DX2                !
 ! A14   A(5,8,10)             112.3695         estimate D2E/DX2                !
 ! A15   A(5,8,17)             106.9916         estimate D2E/DX2                !
 ! A16   A(9,8,10)             109.0416         estimate D2E/DX2                !
 ! A17   A(9,8,17)             110.2127         estimate D2E/DX2                !
 ! A18   A(10,8,17)            107.7052         estimate D2E/DX2                !
 ! A19   A(8,10,11)            109.8356         estimate D2E/DX2                !
 ! A20   A(8,10,12)            110.721          estimate D2E/DX2                !
 ! A21   A(8,10,13)            112.4216         estimate D2E/DX2                !
 ! A22   A(11,10,12)           107.7348         estimate D2E/DX2                !
 ! A23   A(11,10,13)           108.2626         estimate D2E/DX2                !
 ! A24   A(12,10,13)           107.7118         estimate D2E/DX2                !
 ! A25   A(10,13,14)           110.8602         estimate D2E/DX2                !
 ! A26   A(10,13,15)           110.0901         estimate D2E/DX2                !
 ! A27   A(10,13,16)           111.5556         estimate D2E/DX2                !
 ! A28   A(14,13,15)           107.8119         estimate D2E/DX2                !
 ! A29   A(14,13,16)           108.4608         estimate D2E/DX2                !
 ! A30   A(15,13,16)           107.9364         estimate D2E/DX2                !
 ! A31   A(8,17,18)            116.0925         estimate D2E/DX2                !
 ! A32   A(17,18,19)           125.6333         estimate D2E/DX2                !
 ! A33   A(17,18,20)           110.2928         estimate D2E/DX2                !
 ! A34   A(19,18,20)           124.0614         estimate D2E/DX2                !
 ! A35   A(18,20,21)           110.1129         estimate D2E/DX2                !
 ! A36   A(18,20,22)           110.5241         estimate D2E/DX2                !
 ! A37   A(18,20,23)           108.6919         estimate D2E/DX2                !
 ! A38   A(21,20,22)           109.8262         estimate D2E/DX2                !
 ! A39   A(21,20,23)           110.4058         estimate D2E/DX2                !
 ! A40   A(22,20,23)           107.2321         estimate D2E/DX2                !
 ! D1    D(2,1,5,6)            175.4143         estimate D2E/DX2                !
 ! D2    D(2,1,5,7)            -70.4155         estimate D2E/DX2                !
 ! D3    D(2,1,5,8)             51.4954         estimate D2E/DX2                !
 ! D4    D(3,1,5,6)             53.8249         estimate D2E/DX2                !
 ! D5    D(3,1,5,7)            167.9952         estimate D2E/DX2                !
 ! D6    D(3,1,5,8)            -70.0939         estimate D2E/DX2                !
 ! D7    D(4,1,5,6)            -65.034          estimate D2E/DX2                !
 ! D8    D(4,1,5,7)             49.1362         estimate D2E/DX2                !
 ! D9    D(4,1,5,8)            171.0471         estimate D2E/DX2                !
 ! D10   D(1,5,8,9)            -60.7024         estimate D2E/DX2                !
 ! D11   D(1,5,8,10)            61.3116         estimate D2E/DX2                !
 ! D12   D(1,5,8,17)           179.3222         estimate D2E/DX2                !
 ! D13   D(6,5,8,9)            175.373          estimate D2E/DX2                !
 ! D14   D(6,5,8,10)           -62.613          estimate D2E/DX2                !
 ! D15   D(6,5,8,17)            55.3976         estimate D2E/DX2                !
 ! D16   D(7,5,8,9)             60.7361         estimate D2E/DX2                !
 ! D17   D(7,5,8,10)          -177.2499         estimate D2E/DX2                !
 ! D18   D(7,5,8,17)           -59.2393         estimate D2E/DX2                !
 ! D19   D(5,8,10,11)           64.4943         estimate D2E/DX2                !
 ! D20   D(5,8,10,12)          -54.3661         estimate D2E/DX2                !
 ! D21   D(5,8,10,13)         -174.8939         estimate D2E/DX2                !
 ! D22   D(9,8,10,11)         -172.6882         estimate D2E/DX2                !
 ! D23   D(9,8,10,12)           68.4514         estimate D2E/DX2                !
 ! D24   D(9,8,10,13)          -52.0763         estimate D2E/DX2                !
 ! D25   D(17,8,10,11)         -53.0935         estimate D2E/DX2                !
 ! D26   D(17,8,10,12)        -171.9539         estimate D2E/DX2                !
 ! D27   D(17,8,10,13)          67.5183         estimate D2E/DX2                !
 ! D28   D(5,8,17,18)           78.8859         estimate D2E/DX2                !
 ! D29   D(9,8,17,18)          -41.2495         estimate D2E/DX2                !
 ! D30   D(10,8,17,18)        -160.0975         estimate D2E/DX2                !
 ! D31   D(8,10,13,14)          61.2863         estimate D2E/DX2                !
 ! D32   D(8,10,13,15)        -179.5088         estimate D2E/DX2                !
 ! D33   D(8,10,13,16)         -59.7035         estimate D2E/DX2                !
 ! D34   D(11,10,13,14)       -177.2001         estimate D2E/DX2                !
 ! D35   D(11,10,13,15)        -57.9952         estimate D2E/DX2                !
 ! D36   D(11,10,13,16)         61.8102         estimate D2E/DX2                !
 ! D37   D(12,10,13,14)        -60.9609         estimate D2E/DX2                !
 ! D38   D(12,10,13,15)         58.244          estimate D2E/DX2                !
 ! D39   D(12,10,13,16)        178.0494         estimate D2E/DX2                !
 ! D40   D(8,17,18,19)          11.6216         estimate D2E/DX2                !
 ! D41   D(8,17,18,20)        -167.1328         estimate D2E/DX2                !
 ! D42   D(17,18,20,21)        -98.5998         estimate D2E/DX2                !
 ! D43   D(17,18,20,22)         22.9185         estimate D2E/DX2                !
 ! D44   D(17,18,20,23)        140.3438         estimate D2E/DX2                !
 ! D45   D(19,18,20,21)         82.6222         estimate D2E/DX2                !
 ! D46   D(19,18,20,22)       -155.8595         estimate D2E/DX2                !
 ! D47   D(19,18,20,23)        -38.4342         estimate D2E/DX2                !
 --------------------------------------------------------------------------------
 Trust Radius=3.00D-01 FncErr=1.00D-07 GrdErr=1.00D-07 EigMax=2.50D+02 EigMin=1.00D-04
 Number of steps in this run=    119 maximum allowed number of steps=    138.
 GradGradGradGradGradGradGradGradGradGradGradGradGradGradGradGradGradGrad

 Leave Link  103 at Sun Sep 19 20:02:34 2021, MaxMem=   524288000 cpu:               0.0 elap:               0.2
 (Enter /opt/gaussian/g16_legacy/l202.exe)
                          Input orientation:                          
 ---------------------------------------------------------------------
 Center     Atomic      Atomic             Coordinates (Angstroms)
 Number     Number       Type             X           Y           Z
 ---------------------------------------------------------------------
      1          6           0       -2.239700    3.704900    1.165500
      2          1           0       -1.742300    4.087300    0.268900
      3          1           0       -1.932300    4.308600    2.023700
      4          1           0       -3.318800    3.841100    1.039800
      5          6           0       -1.928500    2.234900    1.380000
      6          1           0       -2.370700    1.897500    2.326500
      7          1           0       -2.444000    1.658900    0.601400
      8          6           0       -0.430300    1.884900    1.354200
      9          1           0        0.007000    2.142100    0.381300
     10          6           0        0.356600    2.601000    2.462500
     11          1           0        0.015800    2.253100    3.445100
     12          1           0        0.193300    3.682400    2.416600
     13          6           0        1.856700    2.354100    2.362500
     14          1           0        2.251800    2.732400    1.413700
     15          1           0        2.378400    2.873500    3.173600
     16          1           0        2.094600    1.288600    2.436700
     17          8           0       -0.324600    0.461200    1.589100
     18          6           0       -0.582800   -0.343400    0.520100
     19          8           0       -0.693700    0.026500   -0.638400
     20          6           0       -0.745100   -1.764500    0.966500
     21          1           0        0.182700   -2.315600    0.808300
     22          1           0       -1.025300   -1.805000    2.023900
     23          1           0       -1.561200   -2.219900    0.397200
 ---------------------------------------------------------------------
                    Distance matrix (angstroms):
                    1          2          3          4          5
     1  C    0.000000
     2  H    1.094316   0.000000
     3  H    1.093369   1.778875   0.000000
     4  H    1.094901   1.772076   1.763235   0.000000
     5  C    1.517813   2.168087   2.171312   2.151406   0.000000
     6  H    2.152156   3.069825   2.469268   2.516361   1.097835
     7  H    2.132150   2.549523   3.050522   2.391541   1.097148
     8  C    2.573312   2.783844   2.928917   3.502713   1.538756
     9  H    2.846924   2.618490   3.339474   3.792251   2.179948
    10  C    3.105089   3.380288   2.889205   4.131645   2.554901
    11  H    3.520168   4.067364   3.168683   4.407581   2.836419
    12  H    2.735918   2.919436   2.250483   3.775660   2.769807
    13  C    4.476378   4.509983   4.276842   5.544953   3.912449
    14  H    4.602275   4.370258   4.512560   5.692153   4.209935
    15  H    5.103973   5.185630   4.686568   6.160149   4.708949
    16  H    5.122559   5.220525   5.050435   6.145851   4.265845
    17  O    3.790598   4.111132   4.192382   4.548702   2.400464
    18  C    4.421605   4.586790   5.071791   5.026512   3.032815
    19  O    4.378904   4.291020   5.192041   4.925310   3.236619
    20  C    5.673426   5.977007   6.277711   6.168635   4.191255
    21  H    6.499387   6.707735   7.059068   7.086540   5.048867
    22  H    5.707067   6.189775   6.180514   6.173090   4.189412
    23  H    6.012812   6.311104   6.738288   6.343328   4.576685
                    6          7          8          9         10
     6  H    0.000000
     7  H    1.743064   0.000000
     8  C    2.170410   2.161659   0.000000
     9  H    3.081735   2.507853   1.097232   0.000000
    10  C    2.819853   3.492078   1.536340   2.159677   0.000000
    11  H    2.659530   3.806615   2.169433   3.065823   1.096669
    12  H    3.125393   3.787460   2.179123   2.559234   1.094623
    13  C    4.252139   4.699021   2.543066   2.718729   1.523568
    14  H    4.785161   4.884954   2.813442   2.540360   2.170030
    15  H    4.921799   5.598840   3.489462   3.735696   2.160462
    16  H    4.507972   4.909617   2.811139   3.051427   2.178004
    17  O    2.606385   2.627145   1.446814   2.096226   2.409482
    18  C    3.388407   2.734937   2.384177   2.558288   3.650326
    19  O    3.886335   2.695438   2.737423   2.450823   4.164944
    20  C    4.231125   3.839170   3.683413   4.021149   4.744402
    21  H    5.155094   4.768544   4.279950   4.481550   5.190335
    22  H    3.950971   4.004350   3.797089   4.398111   4.638411
    23  H    4.618492   3.983230   4.363962   4.635358   5.584308
                   11         12         13         14         15
    11  H    0.000000
    12  H    1.769807   0.000000
    13  C    2.138022   2.129368   0.000000
    14  H    3.058760   2.479058   1.095188   0.000000
    15  H    2.457740   2.449904   1.095368   1.770080   0.000000
    16  H    2.503705   3.057061   1.094254   1.776457   1.770726
    17  O    2.602213   3.365874   2.989864   3.439034   3.954243
    18  C    3.956736   4.517312   4.077021   4.277151   5.114510
    19  O    4.704903   4.846174   4.574676   4.495440   5.663440
    20  C    4.781583   5.714202   5.067647   5.422500   6.011538
    21  H    5.277650   6.209891   5.198453   5.489079   6.110851
    22  H    4.424011   5.634781   5.071359   5.630251   5.898758
    23  H    5.637761   6.480231   6.038702   6.332260   7.012244
                   16         17         18         19         20
    16  H    0.000000
    17  O    2.693612   0.000000
    18  C    3.674949   1.362648   0.000000
    19  O    4.338635   2.299338   1.221166   0.000000
    20  C    4.421177   2.349083   1.498379   2.405416   0.000000
    21  H    4.392870   2.928757   2.135093   2.889022   1.090666
    22  H    4.412997   2.411575   2.143244   3.248414   1.094645
    23  H    5.462051   3.184039   2.119817   2.621323   1.094308
                   21         22         23
    21  H    0.000000
    22  H    1.788200   0.000000
    23  H    1.794254   1.762238   0.000000
 Stoichiometry    C7H14O2
 Framework group  C1[X(C7H14O2)]
 Deg. of freedom    63
 Full point group                 C1      NOp   1
 Largest Abelian subgroup         C1      NOp   1
 Largest concise Abelian subgroup C1      NOp   1
                         Standard orientation:                         
 ---------------------------------------------------------------------
 Center     Atomic      Atomic             Coordinates (Angstroms)
 Number     Number       Type             X           Y           Z
 ---------------------------------------------------------------------
      1          6           0        2.217690   -1.975940    0.030930
      2          1           0        2.318494   -1.931128    1.119672
      3          1           0        3.066252   -1.457179   -0.423256
      4          1           0        2.276015   -3.026227   -0.272882
      5          6           0        0.896232   -1.382289   -0.421934
      6          1           0        0.855290   -1.364558   -1.518862
      7          1           0        0.092419   -2.063526   -0.116099
      8          6           0        0.600330    0.023107    0.130398
      9          1           0        0.556730    0.003103    1.226581
     10          6           0        1.647442    1.057147   -0.310800
     11          1           0        1.610721    1.182639   -1.399646
     12          1           0        2.656158    0.723477   -0.047445
     13          6           0        1.426621    2.419512    0.334536
     14          1           0        1.504318    2.351760    1.424862
     15          1           0        2.186884    3.127758   -0.012190
     16          1           0        0.444003    2.829478    0.081985
     17          8           0       -0.676945    0.430793   -0.413325
     18          6           0       -1.780222   -0.093938    0.190204
     19          8           0       -1.790517   -0.701480    1.249465
     20          6           0       -2.997569    0.151913   -0.648106
     21          1           0       -3.542612    1.018848   -0.272734
     22          1           0       -2.717168    0.313873   -1.693760
     23          1           0       -3.630958   -0.739907   -0.616718
 ---------------------------------------------------------------------
 Rotational constants (GHZ):           1.9171245           1.1075338           0.8166182
 Leave Link  202 at Sun Sep 19 20:02:34 2021, MaxMem=   524288000 cpu:               0.0 elap:               0.1
 (Enter /opt/gaussian/g16_legacy/l301.exe)
 Standard basis: 6-31G(d,p) (6D, 7F)
 Ernie: Thresh=  0.10000D-02 Tol=  0.10000D-05 Strict=F.
 There are   205 symmetry adapted cartesian basis functions of A   symmetry.
 There are   205 symmetry adapted basis functions of A   symmetry.
   205 basis functions,   350 primitive gaussians,   205 cartesian basis functions
    36 alpha electrons       36 beta electrons
       nuclear repulsion energy       482.2231474760 Hartrees.
 IExCor=    0 DFT=F Ex=HF Corr=None ExCW=0 ScaHFX=  1.000000
 ScaDFX=  1.000000  1.000000  1.000000  1.000000 ScalE2=  1.000000  1.000000
 IRadAn=      5 IRanWt=     -1 IRanGd=            0 ICorTp=0 IEmpDi=  4
 NAtoms=   23 NActive=   23 NUniq=   23 SFac= 1.00D+00 NAtFMM=   60 NAOKFM=F Big=F
 Integral buffers will be    131072 words long.
 Raffenetti 1 integral format.
 Two-electron integral symmetry is turned on.
 Leave Link  301 at Sun Sep 19 20:02:34 2021, MaxMem=   524288000 cpu:               0.0 elap:               0.1
 (Enter /opt/gaussian/g16_legacy/l302.exe)
 NPDir=0 NMtPBC=     1 NCelOv=     1 NCel=       1 NClECP=     1 NCelD=      1
         NCelK=      1 NCelE2=     1 NClLst=     1 CellRange=     0.0.
 One-electron integrals computed using PRISM.
 One-electron integral symmetry used in STVInt
 NBasis=   205 RedAO= T EigKep=  3.07D-03  NBF=   205
 NBsUse=   205 1.00D-06 EigRej= -1.00D+00 NBFU=   205
 Leave Link  302 at Sun Sep 19 20:02:34 2021, MaxMem=   524288000 cpu:               0.1 elap:               0.4
 (Enter /opt/gaussian/g16_legacy/l303.exe)
 DipDrv:  MaxL=1.
 Leave Link  303 at Sun Sep 19 20:02:35 2021, MaxMem=   524288000 cpu:               0.1 elap:               0.3
 (Enter /opt/gaussian/g16_legacy/l401.exe)
 ExpMin= 1.61D-01 ExpMax= 5.48D+03 ExpMxC= 8.25D+02 IAcc=3 IRadAn=         5 AccDes= 0.00D+00
 Harris functional with IExCor=  205 and IRadAn=       5 diagonalized for initial guess.
 HarFok:  IExCor=  205 AccDes= 0.00D+00 IRadAn=         5 IDoV= 1 UseB2=F ITyADJ=14
 ICtDFT=  3500011 ScaDFX=  1.000000  1.000000  1.000000  1.000000
 FoFCou: FMM=F IPFlag=           0 FMFlag=      100000 FMFlg1=           0
         NFxFlg=           0 DoJE=T BraDBF=F KetDBF=T FulRan=T
         wScrn=  0.000000 ICntrl=       500 IOpCl=  0 I1Cent=   200000004 NGrid=           0
         NMat0=    1 NMatS0=      1 NMatT0=    0 NMatD0=    1 NMtDS0=    0 NMtDT0=    0
 Petite list used in FoFCou.
 Harris En= -423.717951729699    
 JPrj=0 DoOrth=F DoCkMO=F.
 Leave Link  401 at Sun Sep 19 20:02:40 2021, MaxMem=   524288000 cpu:               4.6 elap:               4.9
 (Enter /opt/gaussian/g16_legacy/l502.exe)
 Keep R1 ints in memory in canonical form, NReq=227304434.
 FoFCou: FMM=F IPFlag=           0 FMFlag=           0 FMFlg1=           0
         NFxFlg=           0 DoJE=F BraDBF=F KetDBF=F FulRan=T
         wScrn=  0.000000 ICntrl=       600 IOpCl=  0 I1Cent=           0 NGrid=           0
         NMat0=    1 NMatS0=  21115 NMatT0=    0 NMatD0=    1 NMtDS0=    0 NMtDT0=    0
 Symmetry not used in FoFCou.
 Two-electron integral symmetry not used.
 Closed shell SCF:
 Using DIIS extrapolation, IDIIS=  1040.
 NGot=   524288000 LenX=   301268152 LenY=   301225686
 Requested convergence on RMS density matrix=1.00D-08 within 128 cycles.
 Requested convergence on MAX density matrix=1.00D-06.
 Requested convergence on             energy=1.00D-06.
 No special actions if energy rises.

 Cycle   1  Pass 1  IDiag  1:
 E= -422.506180657213    
 DIIS: error= 5.63D-02 at cycle   1 NSaved=   1.
 NSaved= 1 IEnMin= 1 EnMin= -422.506180657213     IErMin= 1 ErrMin= 5.63D-02
 ErrMax= 5.63D-02  0.00D+00 EMaxC= 1.00D-01 BMatC= 7.22D-01 BMatP= 7.22D-01
 IDIUse=3 WtCom= 4.37D-01 WtEn= 5.63D-01
 Coeff-Com:  0.100D+01
 Coeff-En:   0.100D+01
 Coeff:      0.100D+01
 Gap=     0.554 Goal=   None    Shift=    0.000
 GapD=    0.554 DampG=2.000 DampE=0.500 DampFc=1.0000 IDamp=-1.
 RMSDP=4.04D-03 MaxDP=1.17D-01              OVMax= 1.25D-01

 Cycle   2  Pass 1  IDiag  1:
 E= -422.913354585090     Delta-E=       -0.407173927877 Rises=F Damp=F
 DIIS: error= 1.56D-02 at cycle   2 NSaved=   2.
 NSaved= 2 IEnMin= 2 EnMin= -422.913354585090     IErMin= 2 ErrMin= 1.56D-02
 ErrMax= 1.56D-02  0.00D+00 EMaxC= 1.00D-01 BMatC= 9.70D-02 BMatP= 7.22D-01
 IDIUse=3 WtCom= 8.44D-01 WtEn= 1.56D-01
 Coeff-Com:  0.207D+00 0.793D+00
 Coeff-En:   0.000D+00 0.100D+01
 Coeff:      0.174D+00 0.826D+00
 Gap=     0.647 Goal=   None    Shift=    0.000
 RMSDP=1.47D-03 MaxDP=4.91D-02 DE=-4.07D-01 OVMax= 4.71D-02

 Cycle   3  Pass 1  IDiag  1:
 E= -422.987544330031     Delta-E=       -0.074189744941 Rises=F Damp=F
 DIIS: error= 4.42D-03 at cycle   3 NSaved=   3.
 NSaved= 3 IEnMin= 3 EnMin= -422.987544330031     IErMin= 3 ErrMin= 4.42D-03
 ErrMax= 4.42D-03  0.00D+00 EMaxC= 1.00D-01 BMatC= 8.95D-03 BMatP= 9.70D-02
 IDIUse=3 WtCom= 9.56D-01 WtEn= 4.42D-02
 Coeff-Com: -0.142D-01 0.195D+00 0.819D+00
 Coeff-En:   0.000D+00 0.000D+00 0.100D+01
 Coeff:     -0.135D-01 0.187D+00 0.827D+00
 Gap=     0.611 Goal=   None    Shift=    0.000
 RMSDP=4.02D-04 MaxDP=2.16D-02 DE=-7.42D-02 OVMax= 2.25D-02

 Cycle   4  Pass 1  IDiag  1:
 E= -422.994281255996     Delta-E=       -0.006736925965 Rises=F Damp=F
 DIIS: error= 1.50D-03 at cycle   4 NSaved=   4.
 NSaved= 4 IEnMin= 4 EnMin= -422.994281255996     IErMin= 4 ErrMin= 1.50D-03
 ErrMax= 1.50D-03  0.00D+00 EMaxC= 1.00D-01 BMatC= 9.92D-04 BMatP= 8.95D-03
 IDIUse=3 WtCom= 9.85D-01 WtEn= 1.50D-02
 Coeff-Com: -0.127D-01 0.350D-01 0.314D+00 0.664D+00
 Coeff-En:   0.000D+00 0.000D+00 0.000D+00 0.100D+01
 Coeff:     -0.125D-01 0.345D-01 0.309D+00 0.669D+00
 Gap=     0.611 Goal=   None    Shift=    0.000
 RMSDP=1.25D-04 MaxDP=5.88D-03 DE=-6.74D-03 OVMax= 6.22D-03

 Cycle   5  Pass 1  IDiag  1:
 E= -422.995076175192     Delta-E=       -0.000794919196 Rises=F Damp=F
 DIIS: error= 2.97D-04 at cycle   5 NSaved=   5.
 NSaved= 5 IEnMin= 5 EnMin= -422.995076175192     IErMin= 5 ErrMin= 2.97D-04
 ErrMax= 2.97D-04  0.00D+00 EMaxC= 1.00D-01 BMatC= 2.48D-05 BMatP= 9.92D-04
 IDIUse=3 WtCom= 9.97D-01 WtEn= 2.97D-03
 Coeff-Com:  0.238D-02-0.183D-01-0.906D-01-0.643D-01 0.117D+01
 Coeff-En:   0.000D+00 0.000D+00 0.000D+00 0.000D+00 0.100D+01
 Coeff:      0.238D-02-0.183D-01-0.903D-01-0.642D-01 0.117D+01
 Gap=     0.610 Goal=   None    Shift=    0.000
 RMSDP=5.06D-05 MaxDP=1.47D-03 DE=-7.95D-04 OVMax= 2.97D-03

 Cycle   6  Pass 1  IDiag  1:
 E= -422.995135432333     Delta-E=       -0.000059257141 Rises=F Damp=F
 DIIS: error= 9.23D-05 at cycle   6 NSaved=   6.
 NSaved= 6 IEnMin= 6 EnMin= -422.995135432333     IErMin= 6 ErrMin= 9.23D-05
 ErrMax= 9.23D-05  0.00D+00 EMaxC= 1.00D-01 BMatC= 3.33D-06 BMatP= 2.48D-05
 IDIUse=1 WtCom= 1.00D+00 WtEn= 0.00D+00
 Coeff-Com:  0.131D-02-0.618D-02-0.380D-01-0.699D-01 0.190D+00 0.923D+00
 Coeff:      0.131D-02-0.618D-02-0.380D-01-0.699D-01 0.190D+00 0.923D+00
 Gap=     0.610 Goal=   None    Shift=    0.000
 RMSDP=1.61D-05 MaxDP=5.60D-04 DE=-5.93D-05 OVMax= 9.00D-04

 Cycle   7  Pass 1  IDiag  1:
 E= -422.995142123761     Delta-E=       -0.000006691427 Rises=F Damp=F
 DIIS: error= 4.15D-05 at cycle   7 NSaved=   7.
 NSaved= 7 IEnMin= 7 EnMin= -422.995142123761     IErMin= 7 ErrMin= 4.15D-05
 ErrMax= 4.15D-05  0.00D+00 EMaxC= 1.00D-01 BMatC= 4.86D-07 BMatP= 3.33D-06
 IDIUse=1 WtCom= 1.00D+00 WtEn= 0.00D+00
 Coeff-Com: -0.375D-03 0.267D-02 0.155D-01 0.678D-02-0.142D+00-0.804D-01
 Coeff-Com:  0.120D+01
 Coeff:     -0.375D-03 0.267D-02 0.155D-01 0.678D-02-0.142D+00-0.804D-01
 Coeff:      0.120D+01
 Gap=     0.610 Goal=   None    Shift=    0.000
 RMSDP=7.73D-06 MaxDP=2.78D-04 DE=-6.69D-06 OVMax= 5.52D-04

 Cycle   8  Pass 1  IDiag  1:
 E= -422.995143518941     Delta-E=       -0.000001395181 Rises=F Damp=F
 DIIS: error= 1.81D-05 at cycle   8 NSaved=   8.
 NSaved= 8 IEnMin= 8 EnMin= -422.995143518941     IErMin= 8 ErrMin= 1.81D-05
 ErrMax= 1.81D-05  0.00D+00 EMaxC= 1.00D-01 BMatC= 8.16D-08 BMatP= 4.86D-07
 IDIUse=1 WtCom= 1.00D+00 WtEn= 0.00D+00
 Coeff-Com: -0.234D-03 0.126D-02 0.775D-02 0.828D-02-0.435D-01-0.151D+00
 Coeff-Com:  0.133D+00 0.104D+01
 Coeff:     -0.234D-03 0.126D-02 0.775D-02 0.828D-02-0.435D-01-0.151D+00
 Coeff:      0.133D+00 0.104D+01
 Gap=     0.610 Goal=   None    Shift=    0.000
 RMSDP=3.27D-06 MaxDP=9.99D-05 DE=-1.40D-06 OVMax= 2.13D-04

 Cycle   9  Pass 1  IDiag  1:
 E= -422.995143739986     Delta-E=       -0.000000221045 Rises=F Damp=F
 DIIS: error= 5.65D-06 at cycle   9 NSaved=   9.
 NSaved= 9 IEnMin= 9 EnMin= -422.995143739986     IErMin= 9 ErrMin= 5.65D-06
 ErrMax= 5.65D-06  0.00D+00 EMaxC= 1.00D-01 BMatC= 1.14D-08 BMatP= 8.16D-08
 IDIUse=1 WtCom= 1.00D+00 WtEn= 0.00D+00
 Coeff-Com:  0.292D-04-0.281D-03-0.146D-02-0.618D-03 0.216D-01-0.469D-02
 Coeff-Com: -0.192D+00 0.133D+00 0.104D+01
 Coeff:      0.292D-04-0.281D-03-0.146D-02-0.618D-03 0.216D-01-0.469D-02
 Coeff:     -0.192D+00 0.133D+00 0.104D+01
 Gap=     0.610 Goal=   None    Shift=    0.000
 RMSDP=1.16D-06 MaxDP=3.46D-05 DE=-2.21D-07 OVMax= 7.00D-05

 Cycle  10  Pass 1  IDiag  1:
 E= -422.995143765894     Delta-E=       -0.000000025908 Rises=F Damp=F
 DIIS: error= 1.38D-06 at cycle  10 NSaved=  10.
 NSaved=10 IEnMin=10 EnMin= -422.995143765894     IErMin=10 ErrMin= 1.38D-06
 ErrMax= 1.38D-06  0.00D+00 EMaxC= 1.00D-01 BMatC= 7.20D-10 BMatP= 1.14D-08
 IDIUse=1 WtCom= 1.00D+00 WtEn= 0.00D+00
 Coeff-Com:  0.203D-04-0.113D-03-0.645D-03-0.111D-02 0.309D-02 0.151D-01
 Coeff-Com: -0.249D-02-0.948D-01-0.970D-01 0.118D+01
 Coeff:      0.203D-04-0.113D-03-0.645D-03-0.111D-02 0.309D-02 0.151D-01
 Coeff:     -0.249D-02-0.948D-01-0.970D-01 0.118D+01
 Gap=     0.610 Goal=   None    Shift=    0.000
 RMSDP=2.82D-07 MaxDP=1.10D-05 DE=-2.59D-08 OVMax= 1.79D-05

 Cycle  11  Pass 1  IDiag  1:
 E= -422.995143767719     Delta-E=       -0.000000001824 Rises=F Damp=F
 DIIS: error= 5.16D-07 at cycle  11 NSaved=  11.
 NSaved=11 IEnMin=11 EnMin= -422.995143767719     IErMin=11 ErrMin= 5.16D-07
 ErrMax= 5.16D-07  0.00D+00 EMaxC= 1.00D-01 BMatC= 8.27D-11 BMatP= 7.20D-10
 IDIUse=1 WtCom= 1.00D+00 WtEn= 0.00D+00
 Coeff-Com:  0.187D-06 0.873D-05 0.626D-04-0.116D-03-0.137D-02 0.196D-02
 Coeff-Com:  0.146D-01-0.157D-01-0.108D+00 0.137D+00 0.971D+00
 Coeff:      0.187D-06 0.873D-05 0.626D-04-0.116D-03-0.137D-02 0.196D-02
 Coeff:      0.146D-01-0.157D-01-0.108D+00 0.137D+00 0.971D+00
 Gap=     0.610 Goal=   None    Shift=    0.000
 RMSDP=6.44D-08 MaxDP=2.45D-06 DE=-1.82D-09 OVMax= 3.27D-06

 Cycle  12  Pass 1  IDiag  1:
 E= -422.995143767865     Delta-E=       -0.000000000146 Rises=F Damp=F
 DIIS: error= 1.46D-07 at cycle  12 NSaved=  12.
 NSaved=12 IEnMin=12 EnMin= -422.995143767865     IErMin=12 ErrMin= 1.46D-07
 ErrMax= 1.46D-07  0.00D+00 EMaxC= 1.00D-01 BMatC= 7.13D-12 BMatP= 8.27D-11
 IDIUse=1 WtCom= 1.00D+00 WtEn= 0.00D+00
 Coeff-Com: -0.218D-05 0.118D-04 0.760D-04 0.111D-03-0.365D-03-0.166D-02
 Coeff-Com: -0.718D-04 0.133D-01 0.740D-02-0.136D+00-0.169D-01 0.113D+01
 Coeff:     -0.218D-05 0.118D-04 0.760D-04 0.111D-03-0.365D-03-0.166D-02
 Coeff:     -0.718D-04 0.133D-01 0.740D-02-0.136D+00-0.169D-01 0.113D+01
 Gap=     0.610 Goal=   None    Shift=    0.000
 RMSDP=2.59D-08 MaxDP=7.73D-07 DE=-1.46D-10 OVMax= 1.25D-06

 Cycle  13  Pass 1  IDiag  1:
 E= -422.995143767868     Delta-E=       -0.000000000004 Rises=F Damp=F
 DIIS: error= 2.98D-08 at cycle  13 NSaved=  13.
 NSaved=13 IEnMin=13 EnMin= -422.995143767868     IErMin=13 ErrMin= 2.98D-08
 ErrMax= 2.98D-08  0.00D+00 EMaxC= 1.00D-01 BMatC= 4.21D-13 BMatP= 7.13D-12
 IDIUse=1 WtCom= 1.00D+00 WtEn= 0.00D+00
 Coeff-Com:  0.961D-07-0.118D-05-0.647D-05 0.464D-07 0.102D-03-0.318D-04
 Coeff-Com: -0.106D-02 0.760D-03 0.618D-02-0.383D-02-0.652D-01-0.246D-01
 Coeff-Com:  0.109D+01
 Coeff:      0.961D-07-0.118D-05-0.647D-05 0.464D-07 0.102D-03-0.318D-04
 Coeff:     -0.106D-02 0.760D-03 0.618D-02-0.383D-02-0.652D-01-0.246D-01
 Coeff:      0.109D+01
 Gap=     0.610 Goal=   None    Shift=    0.000
 RMSDP=6.56D-09 MaxDP=1.45D-07 DE=-3.52D-12 OVMax= 2.96D-07

 SCF Done:  E(RHF) =  -422.995143768     A.U. after   13 cycles
            NFock= 13  Conv=0.66D-08     -V/T= 2.0023
 KE= 4.220407918557D+02 PE=-1.954316771618D+03 EE= 6.270576885188D+02
 Leave Link  502 at Sun Sep 19 20:02:50 2021, MaxMem=   524288000 cpu:              10.1 elap:              10.4
 (Enter /opt/gaussian/g16_legacy/l801.exe)
 ExpMin= 1.61D-01 ExpMax= 5.48D+03 ExpMxC= 8.25D+02 IAcc=3 IRadAn=         5 AccDes= 0.00D+00
 HarFok:  IExCor=  205 AccDes= 0.00D+00 IRadAn=         5 IDoV=-2 UseB2=F ITyADJ=14
 ICtDFT= 12500011 ScaDFX=  1.000000  1.000000  1.000000  1.000000
 Largest valence mixing into a core orbital is  2.11D-04
 Largest core mixing into a valence orbital is  3.25D-05
 Range of M.O.s used for correlation:    10   205
 NBasis=   205 NAE=    36 NBE=    36 NFC=     9 NFV=     0
 NROrb=    196 NOA=    27 NOB=    27 NVA=   169 NVB=   169
 Leave Link  801 at Sun Sep 19 20:02:51 2021, MaxMem=   524288000 cpu:               0.8 elap:               1.0
 (Enter /opt/gaussian/g16_legacy/l906.exe)
 Frozen-core derivative calculation, NFC=   9 NFV=   0.
 FulOut=F Deriv=T AODrv=T NAtomX=    23
   MMem=         131  MDisk=          27 MDiskD=          27
  W3Min=     1512900 MinDsk=     1927595 NBas6D=         205
 NBas2D=       21400    NTT=       21115    LW2=     2040000
    MDV=   523794834 MDiskM=       35351 NBas2p=       19244
 Fully direct method using O(ONN) memory.
 IMap=   1   2   3   4   5   6   7   8   9  10  11  12  13  14  15  16  17  18  19  20
 IMap=  21  22  23  24  25  26  27  28  29  30  31  32  33  34  35  36
 JobTyp=1 Pass  1:  I=  10 to  36 NPSUse=  1 ParTrn=F ParDer=F DoDerP=T.
 Spin components of T(2) and E(2):
     alpha-alpha T2 =       0.5277473313D-01 E2=     -0.1649806023D+00
     alpha-beta  T2 =       0.3171953735D+00 E2=     -0.1030328243D+01
     beta-beta   T2 =       0.5277473313D-01 E2=     -0.1649806023D+00
 The integrals were generated   1 times.
 ANorm=    0.1192788682D+01
 E2 =    -0.1360289448D+01 EUMP2 =    -0.42435543321562D+03
 Leave Link  906 at Sun Sep 19 20:04:15 2021, MaxMem=   524288000 cpu:              83.2 elap:              83.4
 (Enter /opt/gaussian/g16_legacy/l1002.exe)
 Minotr:  Closed shell wavefunction.
          Computing MP2/KS-MP2 derivatives.
          Using Z-Vector for PSCF gradient.
          Skipping F1 and S1 gradient terms here.
          IDoAtm=11111111111111111111111
          Frozen-core window.
          Direct CPHF calculation.
          Differentiating once with respect to electric field.
                with respect to dipole field.
          Differentiating once with respect to nuclear coordinates.
          Requested convergence is 1.0D-10 RMS, and 1.0D-09 maximum.
          NewPWx=F KeepS1=T KeepF1=T KeepIn=T MapXYZ=F SortEE=F KeepMc=T.
 Keep R1 ints in memory in canonical form, NReq=227306992.
 FoFCou: FMM=F IPFlag=           0 FMFlag=           0 FMFlg1=           0
         NFxFlg=           0 DoJE=F BraDBF=F KetDBF=F FulRan=T
         wScrn=  0.000000 ICntrl=       600 IOpCl=  0 I1Cent=           0 NGrid=           0
         NMat0=    1 NMatS0=  21115 NMatT0=    0 NMatD0=    1 NMtDS0=    0 NMtDT0=    0
 Symmetry not used in FoFCou.
 Two-electron integral symmetry not used.
          MDV=     524288000 using IRadAn=       5.
          Solving linear equations separately, MaxMat=       0.
          There are     1 degrees of freedom in the 1st order CPHF.  IDoFFX=0 NUNeed=     1.
 LinEq1:  Iter=  0 NonCon=     1 RMS=3.73D-03 Max=1.06D-01 NDo=     1
 AX will form     1 AO Fock derivatives at one time.
 LinEq1:  Iter=  1 NonCon=     1 RMS=1.19D-03 Max=1.82D-02 NDo=     1
 LinEq1:  Iter=  2 NonCon=     1 RMS=3.73D-04 Max=7.62D-03 NDo=     1
 LinEq1:  Iter=  3 NonCon=     1 RMS=1.51D-04 Max=3.28D-03 NDo=     1
 LinEq1:  Iter=  4 NonCon=     1 RMS=4.66D-05 Max=6.45D-04 NDo=     1
 LinEq1:  Iter=  5 NonCon=     1 RMS=2.11D-05 Max=3.78D-04 NDo=     1
 LinEq1:  Iter=  6 NonCon=     1 RMS=4.98D-06 Max=1.00D-04 NDo=     1
 LinEq1:  Iter=  7 NonCon=     1 RMS=1.43D-06 Max=2.79D-05 NDo=     1
 LinEq1:  Iter=  8 NonCon=     1 RMS=5.02D-07 Max=1.93D-05 NDo=     1
 LinEq1:  Iter=  9 NonCon=     1 RMS=1.44D-07 Max=4.66D-06 NDo=     1
 LinEq1:  Iter= 10 NonCon=     1 RMS=4.45D-08 Max=9.08D-07 NDo=     1
 LinEq1:  Iter= 11 NonCon=     1 RMS=1.27D-08 Max=1.54D-07 NDo=     1
 LinEq1:  Iter= 12 NonCon=     1 RMS=3.33D-09 Max=5.41D-08 NDo=     1
 LinEq1:  Iter= 13 NonCon=     1 RMS=9.50D-10 Max=2.11D-08 NDo=     1
 LinEq1:  Iter= 14 NonCon=     1 RMS=2.59D-10 Max=3.38D-09 NDo=     1
 LinEq1:  Iter= 15 NonCon=     0 RMS=7.68D-11 Max=8.04D-10 NDo=     1
 Linear equations converged to 1.000D-10 1.000D-09 after    15 iterations.
 End of Minotr F.D. properties file   721 does not exist.
 End of Minotr F.D. properties file   722 does not exist.
 End of Minotr F.D. properties file   788 does not exist.
 Leave Link 1002 at Sun Sep 19 20:04:26 2021, MaxMem=   524288000 cpu:              11.3 elap:              11.6
 (Enter /opt/gaussian/g16_legacy/l601.exe)
 Copying SCF densities to generalized density rwf, IOpCl= 0 IROHF=0.

 **********************************************************************

            Population analysis using the SCF density.

 **********************************************************************

 Orbital symmetries:
       Occupied  (A) (A) (A) (A) (A) (A) (A) (A) (A) (A) (A) (A)
                 (A) (A) (A) (A) (A) (A) (A) (A) (A) (A) (A) (A)
                 (A) (A) (A) (A) (A) (A) (A) (A) (A) (A) (A) (A)
       Virtual   (A) (A) (A) (A) (A) (A) (A) (A) (A) (A) (A) (A)
                 (A) (A) (A) (A) (A) (A) (A) (A) (A) (A) (A) (A)
                 (A) (A) (A) (A) (A) (A) (A) (A) (A) (A) (A) (A)
                 (A) (A) (A) (A) (A) (A) (A) (A) (A) (A) (A) (A)
                 (A) (A) (A) (A) (A) (A) (A) (A) (A) (A) (A) (A)
                 (A) (A) (A) (A) (A) (A) (A) (A) (A) (A) (A) (A)
                 (A) (A) (A) (A) (A) (A) (A) (A) (A) (A) (A) (A)
                 (A) (A) (A) (A) (A) (A) (A) (A) (A) (A) (A) (A)
                 (A) (A) (A) (A) (A) (A) (A) (A) (A) (A) (A) (A)
                 (A) (A) (A) (A) (A) (A) (A) (A) (A) (A) (A) (A)
                 (A) (A) (A) (A) (A) (A) (A) (A) (A) (A) (A) (A)
                 (A) (A) (A) (A) (A) (A) (A) (A) (A) (A) (A) (A)
                 (A) (A) (A) (A) (A) (A) (A) (A) (A) (A) (A) (A)
                 (A) (A) (A) (A) (A) (A) (A) (A) (A) (A) (A) (A)
                 (A)
 The electronic state is 1-A.
 Alpha  occ. eigenvalues --  -20.60486 -20.54923 -11.38524 -11.28980 -11.23921
 Alpha  occ. eigenvalues --  -11.22683 -11.22274 -11.21881 -11.21526  -1.44584
 Alpha  occ. eigenvalues --   -1.34964  -1.09019  -1.02375  -1.01472  -0.92489
 Alpha  occ. eigenvalues --   -0.84224  -0.81025  -0.76312  -0.68683  -0.66196
 Alpha  occ. eigenvalues --   -0.65170  -0.61695  -0.60304  -0.60159  -0.57588
 Alpha  occ. eigenvalues --   -0.56797  -0.55245  -0.52577  -0.52057  -0.50368
 Alpha  occ. eigenvalues --   -0.49853  -0.48437  -0.48039  -0.46143  -0.44115
 Alpha  occ. eigenvalues --   -0.42943
 Alpha virt. eigenvalues --    0.18102   0.23126   0.24623   0.25439   0.27157
 Alpha virt. eigenvalues --    0.27967   0.30141   0.30853   0.31104   0.31877
 Alpha virt. eigenvalues --    0.32784   0.33163   0.33265   0.34736   0.35997
 Alpha virt. eigenvalues --    0.39508   0.40669   0.42264   0.42533   0.43842
 Alpha virt. eigenvalues --    0.45931   0.49829   0.55301   0.68410   0.70182
 Alpha virt. eigenvalues --    0.70987   0.74894   0.75539   0.76156   0.77077
 Alpha virt. eigenvalues --    0.77996   0.80992   0.82570   0.84903   0.89812
 Alpha virt. eigenvalues --    0.90039   0.92585   0.93317   0.94552   0.96804
 Alpha virt. eigenvalues --    1.01886   1.03522   1.04749   1.07873   1.09398
 Alpha virt. eigenvalues --    1.10544   1.11208   1.11888   1.12734   1.14085
 Alpha virt. eigenvalues --    1.14885   1.15820   1.16566   1.16904   1.17855
 Alpha virt. eigenvalues --    1.18673   1.19965   1.20963   1.24296   1.24930
 Alpha virt. eigenvalues --    1.26541   1.32226   1.33841   1.38709   1.42447
 Alpha virt. eigenvalues --    1.42788   1.50381   1.53807   1.57791   1.61918
 Alpha virt. eigenvalues --    1.65481   1.69230   1.71548   1.76532   1.79628
 Alpha virt. eigenvalues --    1.82424   1.83632   1.89569   1.89658   1.96568
 Alpha virt. eigenvalues --    1.97119   1.99591   2.02136   2.06545   2.08109
 Alpha virt. eigenvalues --    2.10066   2.12522   2.15229   2.16259   2.18716
 Alpha virt. eigenvalues --    2.19165   2.22796   2.25850   2.29349   2.31815
 Alpha virt. eigenvalues --    2.32988   2.34523   2.35417   2.36525   2.36956
 Alpha virt. eigenvalues --    2.38370   2.38844   2.40044   2.41267   2.43547
 Alpha virt. eigenvalues --    2.43771   2.45571   2.49123   2.53419   2.54702
 Alpha virt. eigenvalues --    2.56673   2.58114   2.58482   2.60037   2.61234
 Alpha virt. eigenvalues --    2.66161   2.68187   2.72274   2.79144   2.80738
 Alpha virt. eigenvalues --    2.83316   2.85011   2.86697   2.92635   2.94026
 Alpha virt. eigenvalues --    2.97288   2.97984   3.01962   3.05226   3.06186
 Alpha virt. eigenvalues --    3.07192   3.09201   3.12214   3.12524   3.15649
 Alpha virt. eigenvalues --    3.18766   3.19945   3.21161   3.24440   3.24975
 Alpha virt. eigenvalues --    3.25162   3.28114   3.29137   3.34279   3.44414
 Alpha virt. eigenvalues --    3.48192   3.55967   3.56791   3.60591   3.64791
 Alpha virt. eigenvalues --    3.68440   3.71621   3.76995   3.78584   3.81059
 Alpha virt. eigenvalues --    3.81473   3.84766   3.86842   3.93699   3.93805
 Alpha virt. eigenvalues --    4.47324   4.59514   4.65131   4.75966   4.82891
 Alpha virt. eigenvalues --    4.95264   5.01062   5.05418   5.15636
          Condensed to atoms (all electrons):
               1          2          3          4          5          6
     1  C    4.940432   0.402138   0.403871   0.404233   0.321274  -0.038335
     2  H    0.402138   0.579700  -0.030514  -0.027372  -0.042003   0.004463
     3  H    0.403871  -0.030514   0.589147  -0.029729  -0.039681  -0.004628
     4  H    0.404233  -0.027372  -0.029729   0.571102  -0.035014  -0.002223
     5  C    0.321274  -0.042003  -0.039681  -0.035014   5.004906   0.401320
     6  H   -0.038335   0.004463  -0.004628  -0.002223   0.401320   0.591723
     7  H   -0.038257  -0.002262   0.004242  -0.005025   0.413128  -0.032624
     8  C   -0.049307  -0.003819  -0.003587   0.004044   0.369833  -0.038243
     9  H    0.000691   0.002452   0.000078  -0.000143  -0.043911   0.004144
    10  C   -0.001839  -0.000190   0.000029   0.000032  -0.063628  -0.005461
    11  H    0.000321   0.000043   0.000311  -0.000030  -0.003485   0.002520
    12  H   -0.002040   0.000368  -0.002049   0.000117  -0.003038   0.000456
    13  C   -0.000093  -0.000050   0.000004   0.000002   0.004444  -0.000113
    14  H    0.000000   0.000000   0.000009  -0.000000  -0.000047   0.000001
    15  H    0.000001   0.000001   0.000003  -0.000000  -0.000094   0.000000
    16  H   -0.000007   0.000000  -0.000002   0.000000   0.000012   0.000007
    17  O    0.002653  -0.000006  -0.000034  -0.000050  -0.042435   0.000352
    18  C    0.000069  -0.000001  -0.000001  -0.000006  -0.004831   0.000200
    19  O   -0.000059   0.000009  -0.000002   0.000001  -0.004085   0.000123
    20  C    0.000000  -0.000000  -0.000000  -0.000000  -0.000540  -0.000048
    21  H    0.000000   0.000000   0.000000  -0.000000  -0.000002   0.000001
    22  H    0.000001   0.000000   0.000000  -0.000000   0.000123   0.000019
    23  H   -0.000001  -0.000000   0.000000   0.000000   0.000049  -0.000002
               7          8          9         10         11         12
     1  C   -0.038257  -0.049307   0.000691  -0.001839   0.000321  -0.002040
     2  H   -0.002262  -0.003819   0.002452  -0.000190   0.000043   0.000368
     3  H    0.004242  -0.003587   0.000078   0.000029   0.000311  -0.002049
     4  H   -0.005025   0.004044  -0.000143   0.000032  -0.000030   0.000117
     5  C    0.413128   0.369833  -0.043911  -0.063628  -0.003485  -0.003038
     6  H   -0.032624  -0.038243   0.004144  -0.005461   0.002520   0.000456
     7  H    0.557811  -0.036918  -0.003765   0.004108  -0.000085  -0.000016
     8  C   -0.036918   4.803955   0.413336   0.361111  -0.037085  -0.037900
     9  H   -0.003765   0.413336   0.545791  -0.044695   0.004238   0.000322
    10  C    0.004108   0.361111  -0.044695   4.990955   0.402327   0.409276
    11  H   -0.000085  -0.037085   0.004238   0.402327   0.580218  -0.027533
    12  H   -0.000016  -0.037900   0.000322   0.409276  -0.027533   0.579997
    13  C   -0.000094  -0.054117  -0.005478   0.334006  -0.042277  -0.041330
    14  H    0.000001  -0.004126   0.002762  -0.041292   0.004505  -0.003410
    15  H    0.000001   0.004607  -0.000069  -0.038557  -0.003430  -0.003293
    16  H   -0.000002  -0.005926   0.000386  -0.037735  -0.002720   0.004352
    17  O   -0.003458   0.132548  -0.029389  -0.046965  -0.000254   0.002346
    18  C    0.003796  -0.019894  -0.006145   0.003096  -0.000126  -0.000038
    19  O    0.003193  -0.000459   0.007771   0.000311  -0.000004   0.000005
    20  C    0.000078   0.005354   0.000105  -0.000123  -0.000021   0.000003
    21  H    0.000004  -0.000165   0.000003   0.000008   0.000001  -0.000000
    22  H   -0.000054  -0.000297   0.000005  -0.000033   0.000012   0.000000
    23  H    0.000010  -0.000145  -0.000002   0.000001   0.000000  -0.000000
              13         14         15         16         17         18
     1  C   -0.000093   0.000000   0.000001  -0.000007   0.002653   0.000069
     2  H   -0.000050   0.000000   0.000001   0.000000  -0.000006  -0.000001
     3  H    0.000004   0.000009   0.000003  -0.000002  -0.000034  -0.000001
     4  H    0.000002  -0.000000  -0.000000   0.000000  -0.000050  -0.000006
     5  C    0.004444  -0.000047  -0.000094   0.000012  -0.042435  -0.004831
     6  H   -0.000113   0.000001   0.000000   0.000007   0.000352   0.000200
     7  H   -0.000094   0.000001   0.000001  -0.000002  -0.003458   0.003796
     8  C   -0.054117  -0.004126   0.004607  -0.005926   0.132548  -0.019894
     9  H   -0.005478   0.002762  -0.000069   0.000386  -0.029389  -0.006145
    10  C    0.334006  -0.041292  -0.038557  -0.037735  -0.046965   0.003096
    11  H   -0.042277   0.004505  -0.003430  -0.002720  -0.000254  -0.000126
    12  H   -0.041330  -0.003410  -0.003293   0.004352   0.002346  -0.000038
    13  C    4.933197   0.401234   0.404383   0.404079   0.000470  -0.000019
    14  H    0.401234   0.587663  -0.028889  -0.028888   0.000071   0.000011
    15  H    0.404383  -0.028889   0.581505  -0.028644   0.000011  -0.000001
    16  H    0.404079  -0.028888  -0.028644   0.564541   0.003781   0.000023
    17  O    0.000470   0.000071   0.000011   0.003781   8.531002   0.263744
    18  C   -0.000019   0.000011  -0.000001   0.000023   0.263744   4.155749
    19  O   -0.000037  -0.000006  -0.000000   0.000000  -0.069436   0.552218
    20  C    0.000001   0.000000  -0.000000   0.000018  -0.090734   0.366972
    21  H   -0.000000   0.000000   0.000000   0.000002   0.001514  -0.026958
    22  H   -0.000000   0.000000  -0.000000   0.000005   0.004013  -0.037933
    23  H    0.000000  -0.000000   0.000000  -0.000000   0.002579  -0.034929
              19         20         21         22         23
     1  C   -0.000059   0.000000   0.000000   0.000001  -0.000001
     2  H    0.000009  -0.000000   0.000000   0.000000  -0.000000
     3  H   -0.000002  -0.000000   0.000000   0.000000   0.000000
     4  H    0.000001  -0.000000  -0.000000  -0.000000   0.000000
     5  C   -0.004085  -0.000540  -0.000002   0.000123   0.000049
     6  H    0.000123  -0.000048   0.000001   0.000019  -0.000002
     7  H    0.003193   0.000078   0.000004  -0.000054   0.000010
     8  C   -0.000459   0.005354  -0.000165  -0.000297  -0.000145
     9  H    0.007771   0.000105   0.000003   0.000005  -0.000002
    10  C    0.000311  -0.000123   0.000008  -0.000033   0.000001
    11  H   -0.000004  -0.000021   0.000001   0.000012   0.000000
    12  H    0.000005   0.000003  -0.000000   0.000000  -0.000000
    13  C   -0.000037   0.000001  -0.000000  -0.000000   0.000000
    14  H   -0.000006   0.000000   0.000000   0.000000  -0.000000
    15  H   -0.000000  -0.000000   0.000000  -0.000000   0.000000
    16  H    0.000000   0.000018   0.000002   0.000005  -0.000000
    17  O   -0.069436  -0.090734   0.001514   0.004013   0.002579
    18  C    0.552218   0.366972  -0.026958  -0.037933  -0.034929
    19  O    8.157065  -0.066512   0.000249   0.002489   0.000871
    20  C   -0.066512   5.025522   0.388865   0.390650   0.395536
    21  H    0.000249   0.388865   0.513373  -0.020634  -0.017213
    22  H    0.002489   0.390650  -0.020634   0.537639  -0.027481
    23  H    0.000871   0.395536  -0.017213  -0.027481   0.522435
 Mulliken charges:
               1
     1  C   -0.345748
     2  H    0.117043
     3  H    0.112533
     4  H    0.120061
     5  C   -0.232294
     6  H    0.116348
     7  H    0.136188
     8  C    0.197200
     9  H    0.151515
    10  C   -0.224741
    11  H    0.122552
    12  H    0.123406
    13  C   -0.338212
    14  H    0.110399
    15  H    0.112464
    16  H    0.126717
    17  O   -0.662322
    18  C    0.785007
    19  O   -0.583707
    20  C   -0.415126
    21  H    0.160951
    22  H    0.151474
    23  H    0.158293
 Sum of Mulliken charges =  -0.00000
 Mulliken charges with hydrogens summed into heavy atoms:
               1
     1  C    0.003890
     5  C    0.020242
     8  C    0.348714
    10  C    0.021217
    13  C    0.011368
    17  O   -0.662322
    18  C    0.785007
    19  O   -0.583707
    20  C    0.055592
 Electronic spatial extent (au):  <R**2>=           1556.0243
 Charge=              0.0000 electrons
 Dipole moment (field-independent basis, Debye):
    X=              0.6590    Y=              0.6772    Z=             -1.8751  Tot=              2.0997
 Quadrupole moment (field-independent basis, Debye-Ang):
   XX=            -52.5897   YY=            -57.3464   ZZ=            -60.1929
   XY=             -2.2451   XZ=              5.0258   YZ=              2.7045
 Traceless Quadrupole moment (field-independent basis, Debye-Ang):
   XX=              4.1200   YY=             -0.6368   ZZ=             -3.4832
   XY=             -2.2451   XZ=              5.0258   YZ=              2.7045
 Octapole moment (field-independent basis, Debye-Ang**2):
  XXX=            -25.5850  YYY=             -3.7559  ZZZ=             -2.6078  XYY=             -3.7282
  XXY=              7.4560  XXZ=            -10.7292  XZZ=              3.4133  YZZ=              2.5153
  YYZ=             -1.9667  XYZ=             -5.3740
 Hexadecapole moment (field-independent basis, Debye-Ang**3):
 XXXX=          -1149.3247 YYYY=           -696.1801 ZZZZ=           -194.9313 XXXY=             -1.9616
 XXXZ=             16.1321 YYYX=             -1.0414 YYYZ=             -3.5520 ZZZX=              7.2333
 ZZZY=             -0.9244 XXYY=           -311.8927 XXZZ=           -244.6390 YYZZ=           -152.8815
 XXYZ=              8.0924 YYXZ=             -2.4838 ZZXY=             -4.4276
 N-N= 4.822231474760D+02 E-N=-1.954316770328D+03  KE= 4.220407918557D+02
 No NMR shielding tensors so no spin-rotation constants.
 Leave Link  601 at Sun Sep 19 20:04:27 2021, MaxMem=   524288000 cpu:               0.2 elap:               0.4
 (Enter /opt/gaussian/g16_legacy/l701.exe)
 ... and contract with generalized density number  2.
 Compute integral first derivatives.
 Leave Link  701 at Sun Sep 19 20:04:27 2021, MaxMem=   524288000 cpu:               0.2 elap:               0.3
 (Enter /opt/gaussian/g16_legacy/l702.exe)
 L702 exits ... SP integral derivatives will be done elsewhere.
 Leave Link  702 at Sun Sep 19 20:04:27 2021, MaxMem=   524288000 cpu:               0.0 elap:               0.0
 (Enter /opt/gaussian/g16_legacy/l703.exe)
 Integral derivatives from FoFJK, PRISM(SPDF).
 Compute integral first derivatives, UseDBF=F ICtDFT=           0.
 Calling FoFJK, ICntrl=  10002127 FMM=F ISym2X=0 I1Cent= 0 IOpClX= 0 NMat=1 NMatS=1 NMatT=0.
 FoFJK:  IHMeth= 1 ICntrl=10002127 DoSepK=F KAlg= 0 I1Cent=           0 FoldK=F
 IRaf=         0 NMat=       1 IRICut=       1 DoRegI=T DoRafI=F ISym2E= 0 IDoP0=0 IntGTp=1.
 FoFCou: FMM=F IPFlag=           0 FMFlag=      100000 FMFlg1=         800
         NFxFlg=           0 DoJE=F BraDBF=F KetDBF=F FulRan=T
         wScrn=  0.000000 ICntrl=  10002127 IOpCl=  0 I1Cent=           0 NGrid=           0
         NMat0=    1 NMatS0=      1 NMatT0=    0 NMatD0=    1 NMtDS0=    0 NMtDT0=    0
 Symmetry not used in FoFCou.
 Leave Link  703 at Sun Sep 19 20:04:40 2021, MaxMem=   524288000 cpu:              12.8 elap:              13.0
 (Enter /opt/gaussian/g16_legacy/l716.exe)
 Dipole        = 2.84166666D-01 2.07789898D-01-6.02549614D-01
 ***** Axes restored to original set *****
 -------------------------------------------------------------------
 Center     Atomic                   Forces (Hartrees/Bohr)
 Number     Number              X              Y              Z
 -------------------------------------------------------------------
      1        6          -0.001671405    0.006134756    0.001059369
      2        1          -0.001511018   -0.000246426    0.002569936
      3        1          -0.000335427   -0.000425525   -0.003770665
      4        1           0.004071914    0.000390399   -0.000156999
      5        6          -0.003464641   -0.007481092   -0.003798191
      6        1           0.005903928    0.000841252   -0.000829831
      7        1           0.005437427    0.000565479    0.000754063
      8        6          -0.009426465    0.016809039    0.008386083
      9        1          -0.002751740   -0.003770688    0.001319102
     10        6           0.005035579   -0.008728101   -0.000991209
     11        1          -0.003795235    0.001255324   -0.004054703
     12        1          -0.004287144   -0.004184061   -0.002242058
     13        6           0.006184667   -0.000723034    0.000808278
     14        1          -0.000897695   -0.001827740    0.002762302
     15        1          -0.000838987   -0.002128574   -0.003268446
     16        1          -0.001726642    0.003685968   -0.000927587
     17        8           0.002943871    0.000996688   -0.002020406
     18        6          -0.003213366    0.000817262   -0.003324728
     19        8           0.001874995    0.004130938    0.005490845
     20        6          -0.007903305   -0.006993713    0.008741924
     21        1          -0.002766025   -0.000443427   -0.000464061
     22        1           0.005558983    0.000333175   -0.004360017
     23        1           0.007577731    0.000992101   -0.001683003
 -------------------------------------------------------------------
 Cartesian Forces:  Max     0.016809039 RMS     0.004423538
 Leave Link  716 at Sun Sep 19 20:04:40 2021, MaxMem=   524288000 cpu:               0.0 elap:               0.2
 (Enter /opt/gaussian/g16_legacy/l103.exe)

 GradGradGradGradGradGradGradGradGradGradGradGradGradGradGradGradGradGrad
 Berny optimization.
 FormGI is forming the generalized inverse of G from B-inverse, IUseBI=4.
 Internal  Forces:  Max     0.011771727 RMS     0.003187024
 Search for a local minimum.
 Step number   1 out of a maximum of  119
 All quantities printed in internal units (Hartrees-Bohrs-Radians)
 RMS Force = .31870D-02 SwitMx=.10000D-02 MixMth= 1
 Mixed Optimization -- RFO/linear search
 Second derivative matrix not updated -- first step.
 ITU=  0
     Eigenvalues ---    0.00253   0.00285   0.00454   0.00530   0.00787
     Eigenvalues ---    0.01073   0.01149   0.02186   0.03317   0.03602
     Eigenvalues ---    0.04205   0.04779   0.04850   0.05045   0.05525
     Eigenvalues ---    0.05551   0.05697   0.05778   0.07278   0.07354
     Eigenvalues ---    0.07615   0.08273   0.08737   0.12142   0.12492
     Eigenvalues ---    0.16000   0.16000   0.16000   0.16000   0.16000
     Eigenvalues ---    0.16000   0.16000   0.16000   0.16000   0.16398
     Eigenvalues ---    0.19280   0.21899   0.21947   0.24996   0.25000
     Eigenvalues ---    0.25000   0.28629   0.28846   0.30025   0.30578
     Eigenvalues ---    0.32548   0.33923   0.33990   0.33999   0.34053
     Eigenvalues ---    0.34200   0.34220   0.34252   0.34281   0.34284
     Eigenvalues ---    0.34319   0.34319   0.34326   0.34426   0.34736
     Eigenvalues ---    0.38665   0.52416   0.94868
 RFO step:  Lambda=-8.17864186D-03 EMin= 2.53284878D-03
 Linear search not attempted -- first point.
 Iteration  1 RMS(Cart)=  0.15020095 RMS(Int)=  0.00756006
 Iteration  2 RMS(Cart)=  0.01505427 RMS(Int)=  0.00067859
 Iteration  3 RMS(Cart)=  0.00013038 RMS(Int)=  0.00067586
 Iteration  4 RMS(Cart)=  0.00000012 RMS(Int)=  0.00067586
 ITry= 1 IFail=0 DXMaxC= 5.51D-01 DCOld= 1.00D+10 DXMaxT= 3.00D-01 DXLimC= 3.00D+00 Rises=F
 Variable       Old X    -DE/DX   Delta X   Delta X   Delta X     New X
                                 (Linear)    (Quad)   (Total)
    R1        2.06796  -0.00288   0.00000  -0.00819  -0.00819   2.05977
    R2        2.06617  -0.00329   0.00000  -0.00933  -0.00933   2.05684
    R3        2.06906  -0.00395   0.00000  -0.01125  -0.01125   2.05781
    R4        2.86825   0.00560   0.00000   0.01783   0.01783   2.88608
    R5        2.07461  -0.00335   0.00000  -0.00965  -0.00965   2.06496
    R6        2.07331  -0.00339   0.00000  -0.00973  -0.00973   2.06358
    R7        2.90783  -0.00833   0.00000  -0.02828  -0.02828   2.87954
    R8        2.07347  -0.00315   0.00000  -0.00905  -0.00905   2.06442
    R9        2.90326  -0.01177   0.00000  -0.03968  -0.03968   2.86358
   R10        2.73408   0.00085   0.00000   0.00215   0.00215   2.73623
   R11        2.07240  -0.00285   0.00000  -0.00818  -0.00818   2.06423
   R12        2.06854  -0.00340   0.00000  -0.00969  -0.00969   2.05885
   R13        2.87913   0.00288   0.00000   0.00934   0.00934   2.88847
   R14        2.06961  -0.00335   0.00000  -0.00956  -0.00956   2.06005
   R15        2.06995  -0.00383   0.00000  -0.01093  -0.01093   2.05901
   R16        2.06784  -0.00403   0.00000  -0.01146  -0.01146   2.05638
   R17        2.57503  -0.00298   0.00000  -0.00560  -0.00560   2.56943
   R18        2.30767  -0.00413   0.00000  -0.00431  -0.00431   2.30336
   R19        2.83153   0.00620   0.00000   0.01857   0.01857   2.85009
   R20        2.06106  -0.00206   0.00000  -0.00580  -0.00580   2.05526
   R21        2.06858  -0.00565   0.00000  -0.01609  -0.01609   2.05249
   R22        2.06794  -0.00519   0.00000  -0.01477  -0.01477   2.05318
    A1        1.89902  -0.00157   0.00000  -0.01238  -0.01236   1.88666
    A2        1.88645  -0.00098   0.00000  -0.00773  -0.00772   1.87873
    A3        1.94017   0.00030   0.00000  -0.00085  -0.00083   1.93934
    A4        1.87394  -0.00079   0.00000   0.00041   0.00030   1.87423
    A5        1.94570   0.00184   0.00000   0.01188   0.01183   1.95753
    A6        1.91641   0.00106   0.00000   0.00798   0.00793   1.92434
    A7        1.91443   0.00201   0.00000   0.01661   0.01620   1.93062
    A8        1.88792   0.00173   0.00000   0.01913   0.01887   1.90679
    A9        2.00154  -0.00033   0.00000  -0.00736  -0.00731   1.99423
   A10        1.83509   0.00165   0.00000   0.02841   0.02771   1.86281
   A11        1.91424  -0.00279   0.00000  -0.03119  -0.03116   1.88308
   A12        1.90303  -0.00206   0.00000  -0.02190  -0.02183   1.88120
   A13        1.92793  -0.00371   0.00000  -0.01068  -0.01094   1.91700
   A14        1.96122   0.00531   0.00000   0.03761   0.03761   1.99882
   A15        1.86736   0.00549   0.00000   0.03640   0.03702   1.90438
   A16        1.90313   0.00187   0.00000   0.01517   0.01434   1.91748
   A17        1.92357  -0.00095   0.00000  -0.03594  -0.03601   1.88757
   A18        1.87981  -0.00816   0.00000  -0.04490  -0.04571   1.83410
   A19        1.91699  -0.00233   0.00000  -0.02675  -0.02705   1.88994
   A20        1.93245  -0.00367   0.00000  -0.03814  -0.03841   1.89404
   A21        1.96213   0.00023   0.00000   0.00345   0.00374   1.96586
   A22        1.88033  -0.00006   0.00000  -0.00488  -0.00663   1.87370
   A23        1.88954   0.00245   0.00000   0.03045   0.03034   1.91988
   A24        1.87993   0.00359   0.00000   0.03799   0.03791   1.91784
   A25        1.93488   0.00051   0.00000   0.00205   0.00199   1.93686
   A26        1.92144   0.00197   0.00000   0.01486   0.01485   1.93628
   A27        1.94701  -0.00172   0.00000  -0.01239  -0.01239   1.93462
   A28        1.88167  -0.00072   0.00000  -0.00001  -0.00008   1.88159
   A29        1.89300  -0.00012   0.00000  -0.00650  -0.00655   1.88645
   A30        1.88384   0.00006   0.00000   0.00211   0.00216   1.88601
   A31        2.02620  -0.00272   0.00000  -0.01053  -0.01053   2.01567
   A32        2.19271  -0.00894   0.00000  -0.03371  -0.03668   2.15603
   A33        1.92497   0.00449   0.00000   0.01829   0.01518   1.94016
   A34        2.16528   0.00451   0.00000   0.01831   0.01505   2.18033
   A35        1.92183   0.00061   0.00000  -0.00552  -0.00561   1.91623
   A36        1.92901   0.00060   0.00000   0.01041   0.01028   1.93929
   A37        1.89703  -0.00080   0.00000  -0.00268  -0.00290   1.89413
   A38        1.91683  -0.00150   0.00000  -0.01288  -0.01288   1.90395
   A39        1.92695  -0.00287   0.00000  -0.03107  -0.03127   1.89568
   A40        1.87155   0.00402   0.00000   0.04277   0.04252   1.91407
    D1        3.06156  -0.00204   0.00000  -0.02120  -0.02142   3.04014
    D2       -1.22898   0.00190   0.00000   0.03136   0.03156  -1.19743
    D3        0.89876   0.00030   0.00000   0.01242   0.01244   0.91120
    D4        0.93942  -0.00152   0.00000  -0.01303  -0.01321   0.92621
    D5        2.93207   0.00242   0.00000   0.03952   0.03976   2.97183
    D6       -1.22337   0.00082   0.00000   0.02059   0.02064  -1.20273
    D7       -1.13506  -0.00237   0.00000  -0.02618  -0.02643  -1.16149
    D8        0.85759   0.00156   0.00000   0.02638   0.02654   0.88413
    D9        2.98534  -0.00004   0.00000   0.00744   0.00743   2.99276
   D10       -1.05946  -0.00097   0.00000  -0.00329  -0.00315  -1.06261
   D11        1.07009   0.00247   0.00000   0.03478   0.03442   1.10451
   D12        3.12976  -0.00104   0.00000   0.02413   0.02452  -3.12890
   D13        3.06084  -0.00118   0.00000   0.00491   0.00496   3.06579
   D14       -1.09280   0.00226   0.00000   0.04298   0.04253  -1.05028
   D15        0.96687  -0.00125   0.00000   0.03233   0.03262   0.99949
   D16        1.06005  -0.00050   0.00000   0.00005   0.00012   1.06017
   D17       -3.09359   0.00293   0.00000   0.03813   0.03769  -3.05590
   D18       -1.03392  -0.00057   0.00000   0.02747   0.02779  -1.00613
   D19        1.12564  -0.00085   0.00000  -0.06371  -0.06382   1.06182
   D20       -0.94887   0.00297   0.00000  -0.01714  -0.01795  -0.96682
   D21       -3.05247   0.00080   0.00000  -0.04131  -0.04176  -3.09423
   D22       -3.01398  -0.00066   0.00000  -0.04109  -0.04053  -3.05451
   D23        1.19470   0.00315   0.00000   0.00548   0.00534   1.20004
   D24       -0.90890   0.00099   0.00000  -0.01869  -0.01847  -0.92737
   D25       -0.92666  -0.00547   0.00000  -0.10158  -0.10099  -1.02765
   D26       -3.00116  -0.00165   0.00000  -0.05501  -0.05513  -3.05629
   D27        1.17842  -0.00382   0.00000  -0.07918  -0.07893   1.09948
   D28        1.37682  -0.00130   0.00000   0.03004   0.03013   1.40695
   D29       -0.71994   0.00041   0.00000   0.04136   0.04226  -0.67768
   D30       -2.79423   0.00356   0.00000   0.07021   0.06922  -2.72501
   D31        1.06965  -0.00084   0.00000  -0.01098  -0.01099   1.05866
   D32       -3.13302  -0.00015   0.00000  -0.00017  -0.00014  -3.13316
   D33       -1.04202   0.00013   0.00000   0.00433   0.00430  -1.03772
   D34       -3.09273  -0.00194   0.00000  -0.02149  -0.02170  -3.11443
   D35       -1.01221  -0.00125   0.00000  -0.01068  -0.01085  -1.02306
   D36        1.07879  -0.00097   0.00000  -0.00618  -0.00641   1.07238
   D37       -1.06397   0.00114   0.00000   0.00853   0.00874  -1.05523
   D38        1.01655   0.00184   0.00000   0.01934   0.01958   1.03613
   D39        3.10755   0.00212   0.00000   0.02384   0.02402   3.13157
   D40        0.20284  -0.00285   0.00000  -0.07220  -0.07420   0.12864
   D41       -2.91702  -0.00583   0.00000  -0.21648  -0.21448  -3.13150
   D42       -1.72089   0.00059   0.00000   0.06535   0.06597  -1.65492
   D43        0.40000  -0.00050   0.00000   0.05238   0.05282   0.45282
   D44        2.44946   0.00424   0.00000   0.10866   0.10922   2.55868
   D45        1.44203  -0.00214   0.00000  -0.07542  -0.07588   1.36615
   D46       -2.72026  -0.00322   0.00000  -0.08839  -0.08904  -2.80930
   D47       -0.67080   0.00152   0.00000  -0.03212  -0.03263  -0.70344
         Item               Value     Threshold  Converged?
 Maximum Force            0.011772     0.000450     NO 
 RMS     Force            0.003187     0.000300     NO 
 Maximum Displacement     0.551127     0.001800     NO 
 RMS     Displacement     0.157498     0.001200     NO 
 Predicted change in Energy=-4.728078D-03
 Lowest energy point so far.  Saving SCF results.
 GradGradGradGradGradGradGradGradGradGradGradGradGradGradGradGradGradGrad

 Leave Link  103 at Sun Sep 19 20:04:41 2021, MaxMem=   524288000 cpu:               0.0 elap:               0.1
 (Enter /opt/gaussian/g16_legacy/l202.exe)
                          Input orientation:                          
 ---------------------------------------------------------------------
 Center     Atomic      Atomic             Coordinates (Angstroms)
 Number     Number       Type             X           Y           Z
 ---------------------------------------------------------------------
      1          6           0       -2.239825    3.806829    1.129094
      2          1           0       -1.745899    4.116587    0.208145
      3          1           0       -1.880754    4.443132    1.935857
      4          1           0       -3.305371    3.998929    1.012852
      5          6           0       -1.997341    2.325765    1.412171
      6          1           0       -2.407769    2.047942    2.386040
      7          1           0       -2.523385    1.725868    0.666607
      8          6           0       -0.529923    1.915827    1.388360
      9          1           0       -0.107023    2.109154    0.399820
     10          6           0        0.324680    2.575200    2.451909
     11          1           0       -0.068161    2.292475    3.431170
     12          1           0        0.219904    3.655686    2.359308
     13          6           0        1.798848    2.184990    2.347454
     14          1           0        2.214657    2.484907    1.385405
     15          1           0        2.385575    2.666984    3.128876
     16          1           0        1.922557    1.108553    2.448135
     17          8           0       -0.430103    0.495536    1.651746
     18          6           0       -0.671377   -0.315342    0.587316
     19          8           0       -0.826509    0.094732   -0.549984
     20          6           0       -0.555389   -1.768839    0.972767
     21          1           0        0.445653   -2.130407    0.749046
     22          1           0       -0.755888   -1.910214    2.030829
     23          1           0       -1.269556   -2.339694    0.385776
 ---------------------------------------------------------------------
                    Distance matrix (angstroms):
                    1          2          3          4          5
     1  C    0.000000
     2  H    1.089981   0.000000
     3  H    1.088431   1.763464   0.000000
     4  H    1.088946   1.758793   1.754648   0.000000
     5  C    1.527247   2.172544   2.184281   2.160990   0.000000
     6  H    2.168364   3.075807   2.493460   2.549055   1.092729
     7  H    2.150512   2.555428   3.067165   2.428620   1.092001
     8  C    2.562591   2.777561   2.917494   3.490477   1.523788
     9  H    2.821840   2.598545   3.309530   3.765167   2.155244
    10  C    3.137425   3.420182   2.935885   4.156340   2.556375
    11  H    3.508412   4.065720   3.185401   4.386317   2.792705
    12  H    2.754367   2.950307   2.283012   3.789238   2.753531
    13  C    4.519474   4.568691   4.336830   5.578942   3.912240
    14  H    4.653556   4.442333   4.572749   5.736006   4.215088
    15  H    5.166498   5.263182   4.772794   6.215987   4.719476
    16  H    5.132835   5.246274   5.083997   6.143740   4.233253
    17  O    3.809583   4.114281   4.215285   4.577020   2.421439
    18  C    4.443630   4.576064   5.091585   5.072666   3.068226
    19  O    4.312358   4.194682   5.118538   4.881595   3.193495
    20  C    5.826649   6.053115   6.424385   6.389926   4.363265
    21  H    6.527404   6.642320   7.073338   7.190865   5.124980
    22  H    5.974929   6.373745   6.452856   6.515681   4.457292
    23  H    6.266873   6.476266   6.984487   6.686995   4.832149
                    6          7          8          9         10
     6  H    0.000000
     7  H    1.753155   0.000000
     8  C    2.130522   2.128592   0.000000
     9  H    3.040106   2.461075   1.092443   0.000000
    10  C    2.783633   3.467008   1.515340   2.148171   0.000000
    11  H    2.574074   3.740586   2.127948   3.037137   1.092341
    12  H    3.080620   3.757003   2.128870   2.517585   1.089497
    13  C    4.209026   4.660230   2.532881   2.726055   1.528512
    14  H    4.749635   4.851995   2.802959   2.550052   2.172003
    15  H    4.889904   5.571926   3.477608   3.737909   2.171174
    16  H    4.431482   4.829216   2.790963   3.052212   2.168935
    17  O    2.619221   2.620314   1.447952   2.067719   2.352649
    18  C    3.440288   2.757310   2.374826   2.496363   3.581071
    19  O    3.864667   2.649544   2.676104   2.340446   4.060704
    20  C    4.471742   4.022402   3.708117   3.945647   4.672585
    21  H    5.317929   4.867529   4.210996   4.289673   5.005708
    22  H    4.303706   4.266876   3.886183   4.385948   4.632912
    23  H    4.954588   4.263771   4.434151   4.598253   5.564771
                   11         12         13         14         15
    11  H    0.000000
    12  H    1.757901   0.000000
    13  C    2.161416   2.157813   0.000000
    14  H    3.071391   2.509632   1.090131   0.000000
    15  H    2.500491   2.501979   1.089581   1.761266   0.000000
    16  H    2.516145   3.065095   1.088190   1.763256   1.762527
    17  O    2.554671   3.302984   2.882098   3.320134   3.850343
    18  C    3.905392   4.438851   3.930872   4.099699   4.969783
    19  O    4.610288   4.715862   4.433602   4.325200   5.519780
    20  C    4.772359   5.652349   4.802599   5.092915   5.742351
    21  H    5.198046   6.010224   4.796738   4.983518   5.695775
    22  H    4.482915   5.660328   4.837109   5.343950   5.659085
    23  H    5.672281   6.485207   5.808275   6.034549   6.778747
                   16         17         18         19         20
    16  H    0.000000
    17  O    2.558326   0.000000
    18  C    3.495514   1.359686   0.000000
    19  O    4.192125   2.272750   1.218883   0.000000
    20  C    4.073857   2.367299   1.508204   2.421812   0.000000
    21  H    3.944491   2.911596   2.137376   2.873520   1.087597
    22  H    4.057236   2.457127   2.152786   3.268851   1.086131
    23  H    5.131600   3.216503   2.120481   2.645443   1.086494
                   21         22         23
    21  H    0.000000
    22  H    1.770636   0.000000
    23  H    1.765704   1.776093   0.000000
 Stoichiometry    C7H14O2
 Framework group  C1[X(C7H14O2)]
 Deg. of freedom    63
 Full point group                 C1      NOp   1
 RotChk:  IX=0 Diff= 1.75D-01
 Largest Abelian subgroup         C1      NOp   1
 Largest concise Abelian subgroup C1      NOp   1
                         Standard orientation:                         
 ---------------------------------------------------------------------
 Center     Atomic      Atomic             Coordinates (Angstroms)
 Number     Number       Type             X           Y           Z
 ---------------------------------------------------------------------
      1          6           0        2.505661   -1.696360    0.054287
      2          1           0        2.529223   -1.684137    1.143945
[...]
    14  H    3.069143   2.514054   1.090381   0.000000
    15  H    2.513422   2.482597   1.089094   1.762718   0.000000
    16  H    2.503209   3.059199   1.087515   1.763660   1.764800
    17  O    2.610494   3.319080   2.865400   3.246619   3.857674
    18  C    3.957348   4.435083   3.882058   3.971184   4.939137
    19  O    4.659799   4.723493   4.448278   4.276953   5.536405
    20  C    4.815058   5.636151   4.721178   4.928092   5.687318
    21  H    4.786639   5.672816   4.374026   4.604484   5.248250
    22  H    4.808587   5.879205   5.147164   5.542274   6.044970
    23  H    5.828033   6.507911   5.613325   5.673882   6.610088
                   16         17         18         19         20
    16  H    0.000000
    17  O    2.549824   0.000000
    18  C    3.471248   1.358932   0.000000
    19  O    4.250441   2.280942   1.219662   0.000000
    20  C    4.001783   2.349472   1.505146   2.426584   0.000000
    21  H    3.489829   2.612585   2.134106   3.118571   1.088164
    22  H    4.422489   2.605821   2.133513   3.123287   1.088060
    23  H    4.921034   3.275039   2.126798   2.573766   1.084825
                   21         22         23
    21  H    0.000000
    22  H    1.758070   0.000000
    23  H    1.781644   1.781940   0.000000
 Stoichiometry    C7H14O2
 Framework group  C1[X(C7H14O2)]
 Deg. of freedom    63
 Full point group                 C1      NOp   1
 RotChk:  IX=0 Diff= 1.77D-15
 Largest Abelian subgroup         C1      NOp   1
 Largest concise Abelian subgroup C1      NOp   1
                         Standard orientation:                         
 ---------------------------------------------------------------------
 Center     Atomic      Atomic             Coordinates (Angstroms)
 Number     Number       Type             X           Y           Z
 ---------------------------------------------------------------------
      1          6           0        2.542825   -1.646877    0.060397
      2          1           0        2.509576   -1.704449    1.148659
      3          1           0        3.320026   -0.937212   -0.217862
      4          1           0        2.839589   -2.625029   -0.314941
      5          6           0        1.181043   -1.250453   -0.502393
      6          1           0        1.234566   -1.131850   -1.587101
      7          1           0        0.460358   -2.042057   -0.294892
      8          6           0        0.631714    0.037825    0.094133
      9          1           0        0.519415   -0.079334    1.174975
     10          6           0        1.443250    1.281450   -0.221310
     11          1           0        1.524000    1.376861   -1.307014
     12          1           0        2.454252    1.134912    0.162601
     13          6           0        0.844274    2.548333    0.378051
     14          1           0        0.755320    2.457164    1.460967
     15          1           0        1.469700    3.413934    0.164269
     16          1           0       -0.147087    2.733361   -0.028956
     17          8           0       -0.690884    0.280802   -0.465813
     18          6           0       -1.723314   -0.354286    0.148556
     19          8           0       -1.600556   -1.095123    1.109631
     20          6           0       -3.022055   -0.005316   -0.527429
     21          1           0       -3.181282    1.070238   -0.483479
     22          1           0       -2.977693   -0.291924   -1.576125
     23          1           0       -3.835646   -0.524107   -0.031677
 ---------------------------------------------------------------------
 Rotational constants (GHZ):           1.9342680           1.1397142           0.8200732
 Leave Link  202 at Sun Sep 19 20:32:07 2021, MaxMem=   524288000 cpu:               0.0 elap:               0.1
 (Enter /opt/gaussian/g16_legacy/l601.exe)
 Copying SCF densities to generalized density rwf, IOpCl= 0 IROHF=0.

 **********************************************************************

            Population analysis using the SCF density.

 **********************************************************************

 Orbital symmetries:
       Occupied  (A) (A) (A) (A) (A) (A) (A) (A) (A) (A) (A) (A)
                 (A) (A) (A) (A) (A) (A) (A) (A) (A) (A) (A) (A)
                 (A) (A) (A) (A) (A) (A) (A) (A) (A) (A) (A) (A)
       Virtual   (A) (A) (A) (A) (A) (A) (A) (A) (A) (A) (A) (A)
                 (A) (A) (A) (A) (A) (A) (A) (A) (A) (A) (A) (A)
                 (A) (A) (A) (A) (A) (A) (A) (A) (A) (A) (A) (A)
                 (A) (A) (A) (A) (A) (A) (A) (A) (A) (A) (A) (A)
                 (A) (A) (A) (A) (A) (A) (A) (A) (A) (A) (A) (A)
                 (A) (A) (A) (A) (A) (A) (A) (A) (A) (A) (A) (A)
                 (A) (A) (A) (A) (A) (A) (A) (A) (A) (A) (A) (A)
                 (A) (A) (A) (A) (A) (A) (A) (A) (A) (A) (A) (A)
                 (A) (A) (A) (A) (A) (A) (A) (A) (A) (A) (A) (A)
                 (A) (A) (A) (A) (A) (A) (A) (A) (A) (A) (A) (A)
                 (A) (A) (A) (A) (A) (A) (A) (A) (A) (A) (A) (A)
                 (A) (A) (A) (A) (A) (A) (A) (A) (A) (A) (A) (A)
                 (A) (A) (A) (A) (A) (A) (A) (A) (A) (A) (A) (A)
                 (A) (A) (A) (A) (A) (A) (A) (A) (A) (A) (A) (A)
                 (A)
 The electronic state is 1-A.
 Alpha  occ. eigenvalues --  -20.60046 -20.54886 -11.38353 -11.28423 -11.23903
 Alpha  occ. eigenvalues --  -11.22390 -11.22058 -11.21753 -11.21373  -1.44513
 Alpha  occ. eigenvalues --   -1.34721  -1.09353  -1.02413  -1.01476  -0.92622
 Alpha  occ. eigenvalues --   -0.84619  -0.80975  -0.76325  -0.68768  -0.66182
 Alpha  occ. eigenvalues --   -0.64877  -0.61765  -0.60376  -0.60013  -0.57431
 Alpha  occ. eigenvalues --   -0.56746  -0.55394  -0.52914  -0.52423  -0.50522
 Alpha  occ. eigenvalues --   -0.49740  -0.48526  -0.47970  -0.46347  -0.44101
 Alpha  occ. eigenvalues --   -0.43179
 Alpha virt. eigenvalues --    0.18563   0.23208   0.24031   0.26036   0.27199
 Alpha virt. eigenvalues --    0.28057   0.30566   0.30950   0.31133   0.32000
 Alpha virt. eigenvalues --    0.32868   0.33382   0.34461   0.34577   0.37035
 Alpha virt. eigenvalues --    0.38913   0.40613   0.42214   0.42913   0.44455
 Alpha virt. eigenvalues --    0.46254   0.50175   0.54253   0.68515   0.69861
 Alpha virt. eigenvalues --    0.71227   0.74388   0.75420   0.76070   0.77533
 Alpha virt. eigenvalues --    0.77840   0.80414   0.82685   0.86388   0.88987
 Alpha virt. eigenvalues --    0.90170   0.91977   0.93344   0.94277   0.98600
 Alpha virt. eigenvalues --    1.01330   1.03985   1.04612   1.08843   1.09287
 Alpha virt. eigenvalues --    1.10063   1.11549   1.12601   1.13184   1.14245
 Alpha virt. eigenvalues --    1.15122   1.15753   1.16617   1.17059   1.18409
 Alpha virt. eigenvalues --    1.19179   1.20890   1.22003   1.22775   1.25291
 Alpha virt. eigenvalues --    1.25953   1.32147   1.34530   1.39554   1.41439
 Alpha virt. eigenvalues --    1.43565   1.51578   1.53635   1.58071   1.65234
 Alpha virt. eigenvalues --    1.68415   1.69979   1.71254   1.78149   1.79151
 Alpha virt. eigenvalues --    1.81406   1.82239   1.89530   1.90363   1.95148
 Alpha virt. eigenvalues --    1.98460   2.00659   2.01897   2.04610   2.07337
 Alpha virt. eigenvalues --    2.11173   2.13720   2.14713   2.16908   2.18352
 Alpha virt. eigenvalues --    2.19652   2.24503   2.25790   2.30424   2.32291
 Alpha virt. eigenvalues --    2.34928   2.35214   2.35793   2.36821   2.37816
 Alpha virt. eigenvalues --    2.38343   2.39794   2.40699   2.42201   2.43571
 Alpha virt. eigenvalues --    2.45925   2.46154   2.48997   2.53617   2.54155
 Alpha virt. eigenvalues --    2.57557   2.58145   2.59095   2.61734   2.63904
 Alpha virt. eigenvalues --    2.66655   2.69170   2.71715   2.78971   2.80760
 Alpha virt. eigenvalues --    2.84582   2.85673   2.88474   2.93097   2.93822
 Alpha virt. eigenvalues --    2.94830   2.97002   3.02573   3.05152   3.07016
 Alpha virt. eigenvalues --    3.08852   3.10565   3.12573   3.15173   3.17500
 Alpha virt. eigenvalues --    3.20114   3.21462   3.23114   3.24698   3.26226
 Alpha virt. eigenvalues --    3.26384   3.29087   3.31477   3.34314   3.46043
 Alpha virt. eigenvalues --    3.49175   3.57608   3.58414   3.62471   3.65491
 Alpha virt. eigenvalues --    3.69283   3.73534   3.78267   3.79368   3.82113
 Alpha virt. eigenvalues --    3.83211   3.86158   3.88633   3.94083   3.95286
 Alpha virt. eigenvalues --    4.47788   4.58311   4.67006   4.76491   4.83211
 Alpha virt. eigenvalues --    4.95129   5.00662   5.05767   5.16776
          Condensed to atoms (all electrons):
               1          2          3          4          5          6
     1  C    4.941478   0.402594   0.403222   0.404630   0.324106  -0.037467
     2  H    0.402594   0.578127  -0.031400  -0.027917  -0.041339   0.004339
     3  H    0.403222  -0.031400   0.586898  -0.029138  -0.038018  -0.003659
     4  H    0.404630  -0.027917  -0.029138   0.567097  -0.034083  -0.002480
     5  C    0.324106  -0.041339  -0.038018  -0.034083   4.985663   0.401836
     6  H   -0.037467   0.004339  -0.003659  -0.002480   0.401836   0.590316
     7  H   -0.035973  -0.002413   0.003929  -0.004138   0.414331  -0.029022
     8  C   -0.052154  -0.004088  -0.004131   0.004203   0.371296  -0.041973
     9  H    0.000055   0.002730   0.000109  -0.000135  -0.045811   0.004701
    10  C   -0.001122  -0.000066   0.000368  -0.000014  -0.061499  -0.006019
    11  H    0.000337   0.000044   0.000336  -0.000035  -0.004468   0.003347
    12  H   -0.001636   0.000336  -0.001847   0.000091  -0.002433   0.000428
    13  C   -0.000074  -0.000041   0.000000   0.000002   0.004281  -0.000139
    14  H   -0.000001  -0.000000   0.000007  -0.000000  -0.000034   0.000002
    15  H    0.000000   0.000000   0.000002  -0.000000  -0.000077  -0.000000
    16  H   -0.000006   0.000000  -0.000001   0.000000  -0.000019   0.000011
    17  O    0.002537  -0.000012  -0.000034  -0.000045  -0.038929   0.000378
    18  C    0.000038  -0.000010  -0.000000  -0.000003  -0.003039   0.000107
    19  O   -0.000048   0.000018  -0.000003   0.000000  -0.004265   0.000100
    20  C    0.000002  -0.000000  -0.000000  -0.000000  -0.000389  -0.000024
    21  H    0.000000   0.000000  -0.000000   0.000000   0.000005   0.000001
    22  H   -0.000000  -0.000000   0.000000   0.000000   0.000088  -0.000001
    23  H   -0.000000  -0.000000   0.000000   0.000000   0.000010   0.000000
               7          8          9         10         11         12
     1  C   -0.035973  -0.052154   0.000055  -0.001122   0.000337  -0.001636
     2  H   -0.002413  -0.004088   0.002730  -0.000066   0.000044   0.000336
     3  H    0.003929  -0.004131   0.000109   0.000368   0.000336  -0.001847
     4  H   -0.004138   0.004203  -0.000135  -0.000014  -0.000035   0.000091
     5  C    0.414331   0.371296  -0.045811  -0.061499  -0.004468  -0.002433
     6  H   -0.029022  -0.041973   0.004701  -0.006019   0.003347   0.000428
     7  H    0.547150  -0.038880  -0.004084   0.004287  -0.000077  -0.000052
     8  C   -0.038880   4.817411   0.416769   0.361938  -0.039631  -0.042175
     9  H   -0.004084   0.416769   0.547317  -0.043582   0.004521  -0.000622
    10  C    0.004287   0.361938  -0.043582   4.986134   0.402876   0.408946
    11  H   -0.000077  -0.039631   0.004521   0.402876   0.583550  -0.028850
    12  H   -0.000052  -0.042175  -0.000622   0.408946  -0.028850   0.585245
    13  C   -0.000104  -0.053183  -0.005359   0.336742  -0.039677  -0.037542
    14  H    0.000001  -0.003716   0.002695  -0.041673   0.004341  -0.002916
    15  H    0.000002   0.004395  -0.000081  -0.037376  -0.002816  -0.003188
    16  H   -0.000003  -0.006405   0.000399  -0.037937  -0.002761   0.004226
    17  O   -0.003616   0.132515  -0.031967  -0.054472  -0.000700   0.002885
    18  C    0.002860  -0.019291  -0.007399   0.003117  -0.000202  -0.000029
    19  O    0.004146  -0.003338   0.008524   0.000479  -0.000010   0.000008
    20  C    0.000083   0.004150   0.000238  -0.000121  -0.000009   0.000004
    21  H    0.000000  -0.000193  -0.000026  -0.000009   0.000004   0.000000
    22  H   -0.000041  -0.000236  -0.000000  -0.000007   0.000001  -0.000000
    23  H    0.000002  -0.000116   0.000007   0.000002   0.000000  -0.000000
              13         14         15         16         17         18
     1  C   -0.000074  -0.000001   0.000000  -0.000006   0.002537   0.000038
     2  H   -0.000041  -0.000000   0.000000   0.000000  -0.000012  -0.000010
     3  H    0.000000   0.000007   0.000002  -0.000001  -0.000034  -0.000000
     4  H    0.000002  -0.000000  -0.000000   0.000000  -0.000045  -0.000003
     5  C    0.004281  -0.000034  -0.000077  -0.000019  -0.038929  -0.003039
     6  H   -0.000139   0.000002  -0.000000   0.000011   0.000378   0.000107
     7  H   -0.000104   0.000001   0.000002  -0.000003  -0.003616   0.002860
     8  C   -0.053183  -0.003716   0.004395  -0.006405   0.132515  -0.019291
     9  H   -0.005359   0.002695  -0.000081   0.000399  -0.031967  -0.007399
    10  C    0.336742  -0.041673  -0.037376  -0.037937  -0.054472   0.003117
    11  H   -0.039677   0.004341  -0.002816  -0.002761  -0.000700  -0.000202
    12  H   -0.037542  -0.002916  -0.003188   0.004226   0.002885  -0.000029
    13  C    4.922738   0.401709   0.405106   0.405122  -0.001681   0.000154
    14  H    0.401709   0.586739  -0.028947  -0.029291   0.000083   0.000047
    15  H    0.405106  -0.028947   0.576936  -0.028334   0.000124  -0.000003
    16  H    0.405122  -0.029291  -0.028334   0.561801   0.004274  -0.000070
    17  O   -0.001681   0.000083   0.000124   0.004274   8.556741   0.254647
    18  C    0.000154   0.000047  -0.000003  -0.000070   0.254647   4.159510
    19  O   -0.000062  -0.000009  -0.000000   0.000000  -0.073990   0.562116
    20  C   -0.000024  -0.000001  -0.000000   0.000005  -0.093055   0.374603
    21  H    0.000009   0.000001  -0.000000   0.000182   0.002092  -0.030148
    22  H    0.000001   0.000000  -0.000000  -0.000000   0.002346  -0.031499
    23  H    0.000000  -0.000000   0.000000  -0.000001   0.003266  -0.038502
              19         20         21         22         23
     1  C   -0.000048   0.000002   0.000000  -0.000000  -0.000000
     2  H    0.000018  -0.000000   0.000000  -0.000000  -0.000000
     3  H   -0.000003  -0.000000  -0.000000   0.000000   0.000000
     4  H    0.000000  -0.000000   0.000000   0.000000   0.000000
     5  C   -0.004265  -0.000389   0.000005   0.000088   0.000010
     6  H    0.000100  -0.000024   0.000001  -0.000001   0.000000
     7  H    0.004146   0.000083   0.000000  -0.000041   0.000002
     8  C   -0.003338   0.004150  -0.000193  -0.000236  -0.000116
     9  H    0.008524   0.000238  -0.000026  -0.000000   0.000007
    10  C    0.000479  -0.000121  -0.000009  -0.000007   0.000002
    11  H   -0.000010  -0.000009   0.000004   0.000001   0.000000
    12  H    0.000008   0.000004   0.000000  -0.000000  -0.000000
    13  C   -0.000062  -0.000024   0.000009   0.000001   0.000000
    14  H   -0.000009  -0.000001   0.000001   0.000000  -0.000000
    15  H   -0.000000  -0.000000  -0.000000  -0.000000   0.000000
    16  H    0.000000   0.000005   0.000182  -0.000000  -0.000001
    17  O   -0.073990  -0.093055   0.002092   0.002346   0.003266
    18  C    0.562116   0.374603  -0.030148  -0.031499  -0.038502
    19  O    8.150235  -0.060373   0.001061   0.001023   0.003085
    20  C   -0.060373   5.004756   0.388884   0.389989   0.395322
    21  H    0.001061   0.388884   0.528289  -0.023457  -0.021250
    22  H    0.001023   0.389989  -0.023457   0.527894  -0.021288
    23  H    0.003085   0.395322  -0.021250  -0.021288   0.521493
 Mulliken charges:
               1
     1  C   -0.350517
     2  H    0.119099
     3  H    0.113359
     4  H    0.121966
     5  C   -0.227211
     6  H    0.115220
     7  H    0.141612
     8  C    0.196833
     9  H    0.151001
    10  C   -0.220993
    11  H    0.119879
    12  H    0.119122
    13  C   -0.337978
    14  H    0.110961
    15  H    0.114257
    16  H    0.128805
    17  O   -0.663386
    18  C    0.772994
    19  O   -0.588696
    20  C   -0.404040
    21  H    0.154555
    22  H    0.155189
    23  H    0.157970
 Sum of Mulliken charges =  -0.00000
 Mulliken charges with hydrogens summed into heavy atoms:
               1
     1  C    0.003907
     5  C    0.029621
     8  C    0.347834
    10  C    0.018007
    13  C    0.016045
    17  O   -0.663386
    18  C    0.772994
    19  O   -0.588696
    20  C    0.063675
 Electronic spatial extent (au):  <R**2>=           1536.9898
 Charge=             -0.0000 electrons
 Dipole moment (field-independent basis, Debye):
    X=              0.4348    Y=              1.1769    Z=             -1.5672  Tot=              2.0075
 Quadrupole moment (field-independent basis, Debye-Ang):
   XX=            -51.6634   YY=            -58.5573   ZZ=            -59.3858
   XY=             -2.5090   XZ=              3.9794   YZ=              3.3493
 Traceless Quadrupole moment (field-independent basis, Debye-Ang):
   XX=              4.8721   YY=             -2.0218   ZZ=             -2.8503
   XY=             -2.5090   XZ=              3.9794   YZ=              3.3493
 Octapole moment (field-independent basis, Debye-Ang**2):
  XXX=            -27.9914  YYY=             -2.1298  ZZZ=             -1.7784  XYY=              0.8791
  XXY=              4.4185  XXZ=             -7.8725  XZZ=              0.9699  YZZ=              1.8433
  YYZ=             -4.0772  XYZ=             -5.3090
 Hexadecapole moment (field-independent basis, Debye-Ang**3):
 XXXX=          -1135.4741 YYYY=           -697.4698 ZZZZ=           -177.4658 XXXY=              5.4980
 XXXZ=              9.2625 YYYX=             -2.3939 YYYZ=             -2.5995 ZZZX=              5.5398
 ZZZY=             -0.1653 XXYY=           -314.0877 XXZZ=           -233.8992 YYZZ=           -152.1211
 XXYZ=              7.0356 YYXZ=              2.5642 ZZXY=             -3.0624
 N-N= 4.844630918348D+02 E-N=-1.958959668453D+03  KE= 4.221815945280D+02
 No NMR shielding tensors so no spin-rotation constants.
 Leave Link  601 at Sun Sep 19 20:32:08 2021, MaxMem=   524288000 cpu:               0.2 elap:               0.4
 (Enter /opt/gaussian/g16_legacy/l9999.exe)
 1\1\GINC-TRUENO95\FOpt\RMP2-FC\6-31G(d,p)\C7H14O2\JRAMOS\19-Sep-2021\0
 \\#p opt mp2/6-31g(d,p)\\Conformer number 006. Energy MM = -6.223 kcal
 /mol\\0,1\C,-2.2521005184,3.8116472617,1.1603879292\H,-1.8283709833,4.
 0761689806,0.1912561748\H,-1.8086906178,4.4614236285,1.9128993133\H,-3
 .3190093144,4.0267329344,1.1261639757\C,-2.0151967815,2.3364243951,1.4
 701108909\H,-2.3845621677,2.0904246416,2.4683973208\H,-2.5679665208,1.
 7244771806,0.756636722\C,-0.5510294413,1.9283438147,1.3867281676\H,-0.
 1766158234,2.116701726,0.3773269067\C,0.3515964421,2.584054547,2.41629
 45069\H,-0.0415017923,2.3647202708,3.4121572181\H,0.2934320374,3.66538
 1373,2.2808849333\C,1.8024083203,2.1296581589,2.3082728766\H,2.1988562
 695,2.3402095373,1.3145787064\H,2.4275723801,2.6458944958,3.0354564905
 \H,1.8832296722,1.0597463889,2.4855994761\O,-0.4540295898,0.4964838645
 ,1.6361531104\C,-0.6611609277,-0.3102193286,0.5623637814\O,-0.91937394
 86,0.0917525841,-0.5598308452\C,-0.5217314443,-1.7539268121,0.96452347
 13\H,0.4759507166,-1.9295243227,1.3618854289\H,-1.2377670709,-1.986065
 6609,1.7501952267\H,-0.6963388959,-2.3859096592,0.1002582176\\Version=
 EM64L-G16RevA.03\State=1-A\HF=-423.0007156\MP2=-424.3604352\RMSD=4.656
 e-09\RMSF=3.993e-06\Dipole=0.102532,0.0556772,0.6579891\PG=C01 [X(C7H1
 4O2)]\\@


 OLD AGE AND TREACHERY WILL ALWAYS PREVAIL OVER YOUTH AND SKILL.
 Job cpu time:       0 days  0 hours 29 minutes 24.2 seconds.
 Elapsed time:       0 days  0 hours 29 minutes 30.9 seconds.
 File lengths (MBytes):  RWF=     29 Int=      0 D2E=      0 Chk=      6 Scr=      1
 Normal termination of Gaussian 16 at Sun Sep 19 20:32:08 2021.
