 Entering Gaussian System, Link 0=/dragofs/sw/campus/0.2/software/gaussian/16.gaussian/gaussian/g16_legacy/g16
 Input=MD_extract_012_gaussian.com
 Output=MD_extract_012_gaussian.log
 Initial command:
 /dragofs/sw/campus/0.2/software/gaussian/16.gaussian/gaussian/g16_legacy/l1.exe "/tmp/iem/jramos/5425/Gau-1572540.inp" -scrdir="/tmp/iem/jramos/5425/"
 Entering Link 1 = /dragofs/sw/campus/0.2/software/gaussian/16.gaussian/gaussian/g16_legacy/l1.exe PID=   1572541.
  
 Copyright (c) 1988,1990,1992,1993,1995,1998,2003,2009,2016,
            Gaussian, Inc.  All Rights Reserved.
  
 This is part of the Gaussian(R) 16 program.  It is based on
 the Gaussian(R) 09 system (copyright 2009, Gaussian, Inc.),
 the Gaussian(R) 03 system (copyright 2003, Gaussian, Inc.),
 the Gaussian(R) 98 system (copyright 1998, Gaussian, Inc.),
 the Gaussian(R) 94 system (copyright 1995, Gaussian, Inc.),
 the Gaussian 92(TM) system (copyright 1992, Gaussian, Inc.),
 the Gaussian 90(TM) system (copyright 1990, Gaussian, Inc.),
 the Gaussian 88(TM) system (copyright 1988, Gaussian, Inc.),
 the Gaussian 86(TM) system (copyright 1986, Carnegie Mellon
 University), and the Gaussian 82(TM) system (copyright 1983,
 Carnegie Mellon University). Gaussian is a federally registered
 trademark of Gaussian, Inc.
  
 This software contains proprietary and confidential information,
 including trade secrets, belonging to Gaussian, Inc.
  
 This software is provided under written license and may be
 used, copied, transmitted, or stored only in accord with that
 written license.
  
 The following legend is applicable only to US Government
 contracts under FAR:
  
                    RESTRICTED RIGHTS LEGEND
  
 Use, reproduction and disclosure by the US Government is
 subject to restrictions as set forth in subparagraphs (a)
 and (c) of the Commercial Computer Software - Restricted
 Rights clause in FAR 52.227-19.
  
 Gaussian, Inc.
 340 Quinnipiac St., Bldg. 40, Wallingford CT 06492
  
  
 ---------------------------------------------------------------
 Warning -- This program may not be used in any manner that
 competes with the business of Gaussian, Inc. or will provide
 assistance to any competitor of Gaussian, Inc.  The licensee
 of this program is prohibited from giving any competitor of
 Gaussian, Inc. access to this program.  By using this program,
 the user acknowledges that Gaussian, Inc. is engaged in the
 business of creating and licensing software in the field of
 computational chemistry and represents and warrants to the
 licensee that it is not a competitor of Gaussian, Inc. and that
 it will not use this program in any manner prohibited above.
 ---------------------------------------------------------------
  

 Cite this work as:
 Gaussian 16, Revision A.03,
 M. J. Frisch, G. W. Trucks, H. B. Schlegel, G. E. Scuseria, 
 M. A. Robb, J. R. Cheeseman, G. Scalmani, V. Barone, 
 G. A. Petersson, H. Nakatsuji, X. Li, M. Caricato, A. V. Marenich, 
 J. Bloino, B. G. Janesko, R. Gomperts, B. Mennucci, H. P. Hratchian, 
 J. V. Ortiz, A. F. Izmaylov, J. L. Sonnenberg, D. Williams-Young, 
 F. Ding, F. Lipparini, F. Egidi, J. Goings, B. Peng, A. Petrone, 
 T. Henderson, D. Ranasinghe, V. G. Zakrzewski, J. Gao, N. Rega, 
 G. Zheng, W. Liang, M. Hada, M. Ehara, K. Toyota, R. Fukuda, 
 J. Hasegawa, M. Ishida, T. Nakajima, Y. Honda, O. Kitao, H. Nakai, 
 T. Vreven, K. Throssell, J. A. Montgomery, Jr., J. E. Peralta, 
 F. Ogliaro, M. J. Bearpark, J. J. Heyd, E. N. Brothers, K. N. Kudin, 
 V. N. Staroverov, T. A. Keith, R. Kobayashi, J. Normand, 
 K. Raghavachari, A. P. Rendell, J. C. Burant, S. S. Iyengar, 
 J. Tomasi, M. Cossi, J. M. Millam, M. Klene, C. Adamo, R. Cammi, 
 J. W. Ochterski, R. L. Martin, K. Morokuma, O. Farkas, 
 J. B. Foresman, and D. J. Fox, Gaussian, Inc., Wallingford CT, 2016.
 
 ******************************************
 Gaussian 16:  EM64L-G16RevA.03 25-Dec-2016
                 7-Sep-2022 
 ******************************************
 %chk=MD_extract_012_gaussian.chk
 %nproc=8
 Will use up to    8 processors via shared memory.
 %mem=2000Mb
 -------------------------------------------
 #p opt blyp/6-31G** EmpiricalDispersion=GD3
 -------------------------------------------
 1/18=20,19=15,26=3,38=1/1,3;
 2/9=110,12=2,17=6,18=5,40=1/2;
 3/5=1,6=6,7=101,11=2,25=1,30=1,71=1,74=402,124=31/1,2,3;
 4//1;
 5/5=2,38=5/2;
 6/7=2,8=2,9=2,10=2,28=1/1;
 7//1,2,3,16;
 1/18=20,19=15,26=3/3(2);
 2/9=110/2;
 99//99;
 2/9=110/2;
 3/5=1,6=6,7=101,11=2,25=1,30=1,71=1,74=402,124=31/1,2,3;
 4/5=5,16=3,69=1/1;
 5/5=2,38=5/2;
 7//1,2,3,16;
 1/18=20,19=15,26=3/3(-5);
 2/9=110/2;
 6/7=2,8=2,9=2,10=2,19=2,28=1/1;
 99/9=1/99;
 Leave Link    1 at Wed Sep  7 18:07:25 2022, MaxMem=   262144000 cpu:               0.6 elap:               0.1
 (Enter /dragofs/sw/campus/0.2/software/gaussian/16.gaussian/gaussian/g16_legacy/l101.exe)
 ------------------------------------------------
 Conformer number 012. Energy MM = 0.000 kcal/mol
 ------------------------------------------------
 Symbolic Z-matrix:
 Charge =  0 Multiplicity = 1
 C                     5.905     15.078    10.327 
 H                     5.443     14.895    11.278 
 H                     5.305     14.389    9.617 
 H                     5.773     16.099    10.121 
 C                     7.382     14.694    10.209 
 H                     8.091     15.341    10.886 
 H                     7.678     15.053    9.188 
 C                     7.689     13.287    10.327 
 H                     6.917     12.582    9.945 
 O                     8.879     13.174    9.509 
 C                     7.915     12.923    11.738 
 H                     8.72      12.483    8.859 
 H                     8.506     13.656    12.26 
 H                     6.941     12.799    12.26 
 C                     8.538     11.517    11.872 
 H                     7.897     10.838    11.307 
 H                     8.752     11.221    12.906 
 H                     9.488     11.372    11.301 
 
 ITRead=  0  0  0  0  0  0  0  0  0  0  0  0  0  0  0  0  0  0
 MicOpt= -1 -1 -1 -1 -1 -1 -1 -1 -1 -1 -1 -1 -1 -1 -1 -1 -1 -1
 NAtoms=     18 NQM=       18 NQMF=       0 NMMI=      0 NMMIF=      0
                NMic=       0 NMicF=      0.
                    Isotopes and Nuclear Properties:
 (Nuclear quadrupole moments (NQMom) in fm**2, nuclear magnetic moments (NMagM)
  in nuclear magnetons)

  Atom         1           2           3           4           5           6           7           8           9          10
 IAtWgt=          12           1           1           1          12           1           1          12           1          16
 AtmWgt=  12.0000000   1.0078250   1.0078250   1.0078250  12.0000000   1.0078250   1.0078250  12.0000000   1.0078250  15.9949146
 NucSpn=           0           1           1           1           0           1           1           0           1           0
 AtZEff=  -0.0000000  -0.0000000  -0.0000000  -0.0000000  -0.0000000  -0.0000000  -0.0000000  -0.0000000  -0.0000000  -0.0000000
 NQMom=    0.0000000   0.0000000   0.0000000   0.0000000   0.0000000   0.0000000   0.0000000   0.0000000   0.0000000   0.0000000
 NMagM=    0.0000000   2.7928460   2.7928460   2.7928460   0.0000000   2.7928460   2.7928460   0.0000000   2.7928460   0.0000000
 AtZNuc=   6.0000000   1.0000000   1.0000000   1.0000000   6.0000000   1.0000000   1.0000000   6.0000000   1.0000000   8.0000000

  Atom        11          12          13          14          15          16          17          18
 IAtWgt=          12           1           1           1          12           1           1           1
 AtmWgt=  12.0000000   1.0078250   1.0078250   1.0078250  12.0000000   1.0078250   1.0078250   1.0078250
 NucSpn=           0           1           1           1           0           1           1           1
 AtZEff=  -0.0000000  -0.0000000  -0.0000000  -0.0000000  -0.0000000  -0.0000000  -0.0000000  -0.0000000
 NQMom=    0.0000000   0.0000000   0.0000000   0.0000000   0.0000000   0.0000000   0.0000000   0.0000000
 NMagM=    0.0000000   2.7928460   2.7928460   2.7928460   0.0000000   2.7928460   2.7928460   2.7928460
 AtZNuc=   6.0000000   1.0000000   1.0000000   1.0000000   6.0000000   1.0000000   1.0000000   1.0000000
 Leave Link  101 at Wed Sep  7 18:07:25 2022, MaxMem=   262144000 cpu:               1.1 elap:               0.2
 (Enter /dragofs/sw/campus/0.2/software/gaussian/16.gaussian/gaussian/g16_legacy/l103.exe)

 GradGradGradGradGradGradGradGradGradGradGradGradGradGradGradGradGradGrad
 Berny optimization.
 Initialization pass.
                           ----------------------------
                           !    Initial Parameters    !
                           ! (Angstroms and Degrees)  !
 --------------------------                            --------------------------
 ! Name  Definition              Value          Derivative Info.                !
 --------------------------------------------------------------------------------
 ! R1    R(1,2)                  1.073          estimate D2E/DX2                !
 ! R2    R(1,3)                  1.1571         estimate D2E/DX2                !
 ! R3    R(1,4)                  1.0499         estimate D2E/DX2                !
 ! R4    R(1,5)                  1.5307         estimate D2E/DX2                !
 ! R5    R(5,6)                  1.1746         estimate D2E/DX2                !
 ! R6    R(5,7)                  1.122          estimate D2E/DX2                !
 ! R7    R(5,8)                  1.4449         estimate D2E/DX2                !
 ! R8    R(8,9)                  1.1131         estimate D2E/DX2                !
 ! R9    R(8,10)                 1.4484         estimate D2E/DX2                !
 ! R10   R(8,11)                 1.4746         estimate D2E/DX2                !
 ! R11   R(10,12)                0.9619         estimate D2E/DX2                !
 ! R12   R(11,13)                1.0766         estimate D2E/DX2                !
 ! R13   R(11,14)                1.112          estimate D2E/DX2                !
 ! R14   R(11,15)                1.5437         estimate D2E/DX2                !
 ! R15   R(15,16)                1.0914         estimate D2E/DX2                !
 ! R16   R(15,17)                1.0966         estimate D2E/DX2                !
 ! R17   R(15,18)                1.1178         estimate D2E/DX2                !
 ! A1    A(2,1,3)              102.6515         estimate D2E/DX2                !
 ! A2    A(2,1,4)              106.5959         estimate D2E/DX2                !
 ! A3    A(2,1,5)              116.1686         estimate D2E/DX2                !
 ! A4    A(3,1,4)              113.1713         estimate D2E/DX2                !
 ! A5    A(3,1,5)              107.6788         estimate D2E/DX2                !
 ! A6    A(4,1,5)              110.497          estimate D2E/DX2                !
 ! A7    A(1,5,6)              113.5682         estimate D2E/DX2                !
 ! A8    A(1,5,7)              104.1489         estimate D2E/DX2                !
 ! A9    A(1,5,8)              116.2961         estimate D2E/DX2                !
 ! A10   A(6,5,7)              100.8943         estimate D2E/DX2                !
 ! A11   A(6,5,8)              111.1653         estimate D2E/DX2                !
 ! A12   A(7,5,8)              109.2578         estimate D2E/DX2                !
 ! A13   A(5,8,9)              116.1911         estimate D2E/DX2                !
 ! A14   A(5,8,10)             101.7946         estimate D2E/DX2                !
 ! A15   A(5,8,11)             110.5527         estimate D2E/DX2                !
 ! A16   A(9,8,10)             109.062          estimate D2E/DX2                !
 ! A17   A(9,8,11)             106.1611         estimate D2E/DX2                !
 ! A18   A(10,8,11)            113.279          estimate D2E/DX2                !
 ! A19   A(8,10,12)            107.5694         estimate D2E/DX2                !
 ! A20   A(8,11,13)            112.3346         estimate D2E/DX2                !
 ! A21   A(8,11,14)            110.0268         estimate D2E/DX2                !
 ! A22   A(8,11,15)            111.6998         estimate D2E/DX2                !
 ! A23   A(13,11,14)           109.2169         estimate D2E/DX2                !
 ! A24   A(13,11,15)           110.8849         estimate D2E/DX2                !
 ! A25   A(14,11,15)           102.1918         estimate D2E/DX2                !
 ! A26   A(11,15,16)           106.5399         estimate D2E/DX2                !
 ! A27   A(11,15,17)           113.9824         estimate D2E/DX2                !
 ! A28   A(11,15,18)           114.6322         estimate D2E/DX2                !
 ! A29   A(16,15,17)           115.7732         estimate D2E/DX2                !
 ! A30   A(16,15,18)            98.8588         estimate D2E/DX2                !
 ! A31   A(17,15,18)           106.3069         estimate D2E/DX2                !
 ! D1    D(2,1,5,6)            -66.0962         estimate D2E/DX2                !
 ! D2    D(2,1,5,7)           -174.9175         estimate D2E/DX2                !
 ! D3    D(2,1,5,8)             64.8195         estimate D2E/DX2                !
 ! D4    D(3,1,5,6)            179.5262         estimate D2E/DX2                !
 ! D5    D(3,1,5,7)             70.7049         estimate D2E/DX2                !
 ! D6    D(3,1,5,8)            -49.5581         estimate D2E/DX2                !
 ! D7    D(4,1,5,6)             55.467          estimate D2E/DX2                !
 ! D8    D(4,1,5,7)            -53.3543         estimate D2E/DX2                !
 ! D9    D(4,1,5,8)           -173.6173         estimate D2E/DX2                !
 ! D10   D(1,5,8,9)             32.3732         estimate D2E/DX2                !
 ! D11   D(1,5,8,10)           150.7012         estimate D2E/DX2                !
 ! D12   D(1,5,8,11)           -88.6704         estimate D2E/DX2                !
 ! D13   D(6,5,8,9)            164.4076         estimate D2E/DX2                !
 ! D14   D(6,5,8,10)           -77.2644         estimate D2E/DX2                !
 ! D15   D(6,5,8,11)            43.364          estimate D2E/DX2                !
 ! D16   D(7,5,8,9)            -85.1081         estimate D2E/DX2                !
 ! D17   D(7,5,8,10)            33.2199         estimate D2E/DX2                !
 ! D18   D(7,5,8,11)           153.8483         estimate D2E/DX2                !
 ! D19   D(5,8,10,12)         -125.9217         estimate D2E/DX2                !
 ! D20   D(9,8,10,12)           -2.6097         estimate D2E/DX2                !
 ! D21   D(11,8,10,12)         115.3758         estimate D2E/DX2                !
 ! D22   D(5,8,11,13)          -42.3432         estimate D2E/DX2                !
 ! D23   D(5,8,11,14)           79.5603         estimate D2E/DX2                !
 ! D24   D(5,8,11,15)         -167.6736         estimate D2E/DX2                !
 ! D25   D(9,8,11,13)         -169.1712         estimate D2E/DX2                !
 ! D26   D(9,8,11,14)          -47.2677         estimate D2E/DX2                !
 ! D27   D(9,8,11,15)           65.4985         estimate D2E/DX2                !
 ! D28   D(10,8,11,13)          71.1696         estimate D2E/DX2                !
 ! D29   D(10,8,11,14)        -166.9269         estimate D2E/DX2                !
 ! D30   D(10,8,11,15)         -54.1608         estimate D2E/DX2                !
 ! D31   D(8,11,15,16)         -52.9175         estimate D2E/DX2                !
 ! D32   D(8,11,15,17)         178.1396         estimate D2E/DX2                !
 ! D33   D(8,11,15,18)          55.3162         estimate D2E/DX2                !
 ! D34   D(13,11,15,16)       -179.0461         estimate D2E/DX2                !
 ! D35   D(13,11,15,17)         52.011          estimate D2E/DX2                !
 ! D36   D(13,11,15,18)        -70.8124         estimate D2E/DX2                !
 ! D37   D(14,11,15,16)         64.6674         estimate D2E/DX2                !
 ! D38   D(14,11,15,17)        -64.2755         estimate D2E/DX2                !
 ! D39   D(14,11,15,18)        172.9011         estimate D2E/DX2                !
 --------------------------------------------------------------------------------
 Trust Radius=3.00D-01 FncErr=1.00D-07 GrdErr=1.00D-06 EigMax=2.50D+02 EigMin=1.00D-04
 Number of steps in this run=     97 maximum allowed number of steps=    108.
 GradGradGradGradGradGradGradGradGradGradGradGradGradGradGradGradGradGrad

 Leave Link  103 at Wed Sep  7 18:07:25 2022, MaxMem=   262144000 cpu:               0.1 elap:               0.0
 (Enter /dragofs/sw/campus/0.2/software/gaussian/16.gaussian/gaussian/g16_legacy/l202.exe)
                          Input orientation:                          
 ---------------------------------------------------------------------
 Center     Atomic      Atomic             Coordinates (Angstroms)
 Number     Number       Type             X           Y           Z
 ---------------------------------------------------------------------
      1          6           0        5.905000   15.078000   10.327000
      2          1           0        5.443000   14.895000   11.278000
      3          1           0        5.305000   14.389000    9.617000
      4          1           0        5.773000   16.099000   10.121000
      5          6           0        7.382000   14.694000   10.209000
      6          1           0        8.091000   15.341000   10.886000
      7          1           0        7.678000   15.053000    9.188000
      8          6           0        7.689000   13.287000   10.327000
      9          1           0        6.917000   12.582000    9.945000
     10          8           0        8.879000   13.174000    9.509000
     11          6           0        7.915000   12.923000   11.738000
     12          1           0        8.720000   12.483000    8.859000
     13          1           0        8.506000   13.656000   12.260000
     14          1           0        6.941000   12.799000   12.260000
     15          6           0        8.538000   11.517000   11.872000
     16          1           0        7.897000   10.838000   11.307000
     17          1           0        8.752000   11.221000   12.906000
     18          1           0        9.488000   11.372000   11.301000
 ---------------------------------------------------------------------
                    Distance matrix (angstroms):
                    1          2          3          4          5
     1  C    0.000000
     2  H    1.073002   0.000000
     3  H    1.157074   1.741838   0.000000
     4  H    1.049905   1.702106   1.843133   0.000000
     5  C    1.530656   2.223260   2.181151   2.137908   0.000000
     6  H    2.271617   2.713758   3.206004   2.555956   1.174572
     7  H    2.107481   3.064031   2.501213   2.365086   1.122024
     8  C    2.527912   2.921401   2.720654   3.408935   1.444930
     9  H    2.720310   3.049514   2.443640   3.702567   2.178638
    10  O    3.624778   4.230520   3.776422   4.310151   2.245308
    11  C    3.267269   3.195492   3.668773   4.158104   2.399661
    12  H    4.100399   4.733712   3.983670   4.832485   2.915693
    13  H    3.538894   3.446943   4.215346   4.244156   2.558793
    14  H    3.162851   2.757090   3.491424   4.102383   2.827031
    15  C    4.690462   4.619821   4.877058   5.630804   3.767656
    16  H    4.786028   4.741540   4.710007   5.796214   4.042223
    17  H    5.443629   5.205587   5.721499   6.358109   4.605696
    18  H    5.246046   5.364148   5.425462   6.126839   4.082081
                    6          7          8          9         10
     6  H    0.000000
     7  H    1.771078   0.000000
     8  C    2.166334   2.101475   0.000000
     9  H    3.142585   2.694070   1.113074   0.000000
    10  O    2.685696   2.253016   1.448445   2.095234   0.000000
    11  C    2.569748   3.331001   1.474616   2.080176   2.441462
    12  H    3.559850   2.792652   1.965808   2.107132   0.961905
    13  H    2.213442   3.474820   2.130760   3.006264   2.817704
    14  H    3.110006   3.880834   2.129351   2.325272   3.385922
    15  C    3.974290   4.521808   2.498145   2.734080   2.906148
    16  H    4.526796   4.722748   2.645990   2.420120   3.107093
    17  H    4.635916   5.446212   3.471248   3.739929   3.920452
    18  H    4.228096   4.614177   2.802196   3.148472   2.613302
                   11         12         13         14         15
    11  C    0.000000
    12  H    3.021633   0.000000
    13  H    1.076594   3.603960   0.000000
    14  H    1.111996   3.851168   1.784285   0.000000
    15  C    1.543671   3.169298   2.174141   2.084341   0.000000
    16  H    2.129157   3.062035   3.036481   2.380686   1.091397
    17  H    2.227464   4.239325   2.531217   2.487392   1.096617
    18  H    2.251866   2.790611   2.664707   3.072982   1.117840
                   16         17         18
    16  H    0.000000
    17  H    1.853244   0.000000
    18  H    1.678235   1.772152   0.000000
 Stoichiometry    C5H12O
 Framework group  C1[X(C5H12O)]
 Deg. of freedom    48
 Full point group                 C1      NOp   1
 Largest Abelian subgroup         C1      NOp   1
 Largest concise Abelian subgroup C1      NOp   1
                         Standard orientation:                         
 ---------------------------------------------------------------------
 Center     Atomic      Atomic             Coordinates (Angstroms)
 Number     Number       Type             X           Y           Z
 ---------------------------------------------------------------------
      1          6           0        2.363133   -0.661353    0.242476
      2          1           0        2.161412   -1.714903    0.216488
      3          1           0        2.382746   -0.434992    1.377023
      4          1           0        3.294150   -0.522731   -0.222597
      5          6           0        1.305939    0.244270   -0.393996
      6          1           0        1.205593    0.104332   -1.555877
      7          1           0        1.756688    1.270464   -0.342144
      8          6           0        0.009312    0.260527    0.243433
      9          1           0        0.002770    0.118373    1.347372
     10          8           0       -0.455043    1.597608   -0.064107
     11          6           0       -0.853853   -0.798285   -0.311865
     12          1           0       -0.694555    2.019965    0.766260
     13          1           0       -0.773349   -0.871985   -1.382912
     14          1           0       -0.593952   -1.779115    0.143065
     15          6           0       -2.325496   -0.619105    0.118348
     16          1           0       -2.323103   -0.535432    1.206530
     17          1           0       -3.006873   -1.369232   -0.300703
     18          1           0       -2.765399    0.378074   -0.130015
 ---------------------------------------------------------------------
 Rotational constants (GHZ):           5.5921526           2.2045743           1.7469721
 Leave Link  202 at Wed Sep  7 18:07:25 2022, MaxMem=   262144000 cpu:               0.0 elap:               0.0
 (Enter /dragofs/sw/campus/0.2/software/gaussian/16.gaussian/gaussian/g16_legacy/l301.exe)
 Standard basis: 6-31G(d,p) (6D, 7F)
 Ernie: Thresh=  0.10000D-02 Tol=  0.10000D-05 Strict=F.
 There are   150 symmetry adapted cartesian basis functions of A   symmetry.
 There are   150 symmetry adapted basis functions of A   symmetry.
   150 basis functions,   252 primitive gaussians,   150 cartesian basis functions
    25 alpha electrons       25 beta electrons
       nuclear repulsion energy       261.1338284460 Hartrees.
 IExCor=  402 DFT=T Ex=B Corr=LYP ExCW=0 ScaHFX=  0.000000
 ScaDFX=  1.000000  1.000000  1.000000  1.000000 ScalE2=  1.000000  1.000000
 IRadAn=      5 IRanWt=     -1 IRanGd=            0 ICorTp=0 IEmpDi=131
 NAtoms=   18 NActive=   18 NUniq=   18 SFac= 1.00D+00 NAtFMM=   60 NAOKFM=F Big=F
 Integral buffers will be    131072 words long.
 Raffenetti 2 integral format.
 Two-electron integral symmetry is turned on.
 R6Disp:  Grimme-D3 Dispersion energy=       -0.0156086966 Hartrees.
 Nuclear repulsion after empirical dispersion term =      261.1182197495 Hartrees.
 Leave Link  301 at Wed Sep  7 18:07:25 2022, MaxMem=   262144000 cpu:               0.4 elap:               0.1
 (Enter /dragofs/sw/campus/0.2/software/gaussian/16.gaussian/gaussian/g16_legacy/l302.exe)
 NPDir=0 NMtPBC=     1 NCelOv=     1 NCel=       1 NClECP=     1 NCelD=      1
         NCelK=      1 NCelE2=     1 NClLst=     1 CellRange=     0.0.
 One-electron integrals computed using PRISM.
 One-electron integral symmetry used in STVInt
 NBasis=   150 RedAO= T EigKep=  2.54D-03  NBF=   150
 NBsUse=   150 1.00D-06 EigRej= -1.00D+00 NBFU=   150
 Precomputing XC quadrature grid using
 IXCGrd= 4 IRadAn=           5 IRanWt=          -1 IRanGd=           0 AccXCQ= 0.00D+00.
 Generated NRdTot=       0 NPtTot=           0 NUsed=           0 NTot=          32
 NSgBfM=   150   150   150   150   150 MxSgAt=    18 MxSgA2=    18.
 Leave Link  302 at Wed Sep  7 18:07:25 2022, MaxMem=   262144000 cpu:               1.1 elap:               0.2
 (Enter /dragofs/sw/campus/0.2/software/gaussian/16.gaussian/gaussian/g16_legacy/l303.exe)
 DipDrv:  MaxL=1.
 Leave Link  303 at Wed Sep  7 18:07:26 2022, MaxMem=   262144000 cpu:               0.3 elap:               0.1
 (Enter /dragofs/sw/campus/0.2/software/gaussian/16.gaussian/gaussian/g16_legacy/l401.exe)
 ExpMin= 1.61D-01 ExpMax= 5.48D+03 ExpMxC= 8.25D+02 IAcc=3 IRadAn=         5 AccDes= 0.00D+00
 Harris functional with IExCor=  402 and IRadAn=       5 diagonalized for initial guess.
 HarFok:  IExCor=  402 AccDes= 0.00D+00 IRadAn=         5 IDoV= 1 UseB2=F ITyADJ=14
 ICtDFT=  3500011 ScaDFX=  1.000000  1.000000  1.000000  1.000000
 FoFCou: FMM=F IPFlag=           0 FMFlag=      100000 FMFlg1=           0
         NFxFlg=           0 DoJE=T BraDBF=F KetDBF=T FulRan=T
         wScrn=  0.000000 ICntrl=       500 IOpCl=  0 I1Cent=   200000004 NGrid=           0
         NMat0=    1 NMatS0=      1 NMatT0=    0 NMatD0=    1 NMtDS0=    0 NMtDT0=    0
 Petite list used in FoFCou.
 Harris En= -273.058684310479    
 JPrj=0 DoOrth=F DoCkMO=F.
 Leave Link  401 at Wed Sep  7 18:07:26 2022, MaxMem=   262144000 cpu:               5.0 elap:               0.6
 (Enter /dragofs/sw/campus/0.2/software/gaussian/16.gaussian/gaussian/g16_legacy/l502.exe)
 Integral symmetry usage will be decided dynamically.
 Closed shell SCF:
 Using DIIS extrapolation, IDIIS=  1040.
 NGot=   262144000 LenX=   262095960 LenY=   262073019
 Requested convergence on RMS density matrix=1.00D-08 within 128 cycles.
 Requested convergence on MAX density matrix=1.00D-06.
 Requested convergence on             energy=1.00D-06.
 No special actions if energy rises.
 Fock matrices will be formed incrementally for  20 cycles.
 Integral accuracy reduced to 1.0D-05 until final iterations.

 Cycle   1  Pass 0  IDiag  1:
 FoFJK:  IHMeth= 1 ICntrl=     500 DoSepK=F KAlg= 0 I1Cent=           0 FoldK=F
 IRaf= 960000000 NMat=       1 IRICut=       1 DoRegI=T DoRafI=F ISym2E= 0 IDoP0=0 IntGTp=1.
 FoFCou: FMM=F IPFlag=           0 FMFlag=      100000 FMFlg1=           0
         NFxFlg=           0 DoJE=T BraDBF=F KetDBF=F FulRan=T
         wScrn=  0.000000 ICntrl=       500 IOpCl=  0 I1Cent=           0 NGrid=           0
         NMat0=    1 NMatS0=      1 NMatT0=    0 NMatD0=    1 NMtDS0=    0 NMtDT0=    0
 Symmetry not used in FoFCou.
 E= -272.561881439194    
 DIIS: error= 2.69D-02 at cycle   1 NSaved=   1.
 NSaved= 1 IEnMin= 1 EnMin= -272.561881439194     IErMin= 1 ErrMin= 2.69D-02
 ErrMax= 2.69D-02  0.00D+00 EMaxC= 1.00D-01 BMatC= 2.43D-01 BMatP= 2.43D-01
 IDIUse=3 WtCom= 7.31D-01 WtEn= 2.69D-01
 Coeff-Com:  0.100D+01
 Coeff-En:   0.100D+01
 Coeff:      0.100D+01
 Gap=     0.182 Goal=   None    Shift=    0.000
 GapD=    0.182 DampG=1.000 DampE=0.500 DampFc=0.5000 IDamp=-1.
 Damping current iteration by 5.00D-01
 RMSDP=1.01D-02 MaxDP=2.08D-01              OVMax= 2.14D-01

 Cycle   2  Pass 0  IDiag  1:
 RMSU=  5.05D-03    CP:  9.79D-01
 E= -272.631112163417     Delta-E=       -0.069230724224 Rises=F Damp=T
 DIIS: error= 8.45D-03 at cycle   2 NSaved=   2.
 NSaved= 2 IEnMin= 2 EnMin= -272.631112163417     IErMin= 2 ErrMin= 8.45D-03
 ErrMax= 8.45D-03  0.00D+00 EMaxC= 1.00D-01 BMatC= 2.82D-02 BMatP= 2.43D-01
 IDIUse=3 WtCom= 9.15D-01 WtEn= 8.45D-02
 Coeff-Com:  0.233D+00 0.767D+00
 Coeff-En:   0.364D+00 0.636D+00
 Coeff:      0.244D+00 0.756D+00
 Gap=     0.239 Goal=   None    Shift=    0.000
 RMSDP=2.08D-03 MaxDP=4.54D-02 DE=-6.92D-02 OVMax= 1.36D-01

 Cycle   3  Pass 0  IDiag  1:
 RMSU=  1.38D-03    CP:  9.81D-01  6.91D-01
 E= -272.819384956972     Delta-E=       -0.188272793555 Rises=F Damp=F
 DIIS: error= 3.88D-03 at cycle   3 NSaved=   3.
 NSaved= 3 IEnMin= 3 EnMin= -272.819384956972     IErMin= 3 ErrMin= 3.88D-03
 ErrMax= 3.88D-03  0.00D+00 EMaxC= 1.00D-01 BMatC= 3.73D-03 BMatP= 2.82D-02
 IDIUse=3 WtCom= 9.61D-01 WtEn= 3.88D-02
 Coeff-Com:  0.903D-01 0.320D+00 0.590D+00
 Coeff-En:   0.000D+00 0.000D+00 0.100D+01
 Coeff:      0.868D-01 0.308D+00 0.606D+00
 Gap=     0.232 Goal=   None    Shift=    0.000
 RMSDP=6.95D-04 MaxDP=1.62D-02 DE=-1.88D-01 OVMax= 1.82D-02

 Cycle   4  Pass 0  IDiag  1:
 RMSU=  5.40D-04    CP:  9.84D-01  7.18D-01  7.02D-01
 E= -272.821140085958     Delta-E=       -0.001755128986 Rises=F Damp=F
 DIIS: error= 2.47D-03 at cycle   4 NSaved=   4.
 NSaved= 4 IEnMin= 4 EnMin= -272.821140085958     IErMin= 4 ErrMin= 2.47D-03
 ErrMax= 2.47D-03  0.00D+00 EMaxC= 1.00D-01 BMatC= 1.81D-03 BMatP= 3.73D-03
 IDIUse=3 WtCom= 9.75D-01 WtEn= 2.47D-02
 Coeff-Com:  0.244D-01 0.900D-01 0.402D+00 0.484D+00
 Coeff-En:   0.000D+00 0.000D+00 0.335D+00 0.665D+00
 Coeff:      0.238D-01 0.878D-01 0.400D+00 0.488D+00
 Gap=     0.238 Goal=   None    Shift=    0.000
 RMSDP=3.17D-04 MaxDP=7.95D-03 DE=-1.76D-03 OVMax= 8.83D-03

 Cycle   5  Pass 0  IDiag  1:
 RMSU=  1.45D-04    CP:  9.83D-01  7.10D-01  7.85D-01  5.33D-01
 E= -272.822576417228     Delta-E=       -0.001436331269 Rises=F Damp=F
 DIIS: error= 3.57D-04 at cycle   5 NSaved=   5.
 NSaved= 5 IEnMin= 5 EnMin= -272.822576417228     IErMin= 5 ErrMin= 3.57D-04
 ErrMax= 3.57D-04  0.00D+00 EMaxC= 1.00D-01 BMatC= 4.77D-05 BMatP= 1.81D-03
 IDIUse=3 WtCom= 9.96D-01 WtEn= 3.57D-03
 Coeff-Com:  0.404D-02 0.142D-01 0.129D+00 0.217D+00 0.636D+00
 Coeff-En:   0.000D+00 0.000D+00 0.000D+00 0.000D+00 0.100D+01
 Coeff:      0.403D-02 0.142D-01 0.128D+00 0.216D+00 0.638D+00
 Gap=     0.237 Goal=   None    Shift=    0.000
 RMSDP=6.63D-05 MaxDP=1.44D-03 DE=-1.44D-03 OVMax= 1.57D-03

 Cycle   6  Pass 0  IDiag  1:
 RMSU=  3.44D-05    CP:  9.83D-01  7.09D-01  7.90D-01  5.70D-01  6.41D-01
 E= -272.822607535139     Delta-E=       -0.000031117911 Rises=F Damp=F
 DIIS: error= 1.64D-04 at cycle   6 NSaved=   6.
 NSaved= 6 IEnMin= 6 EnMin= -272.822607535139     IErMin= 6 ErrMin= 1.64D-04
 ErrMax= 1.64D-04  0.00D+00 EMaxC= 1.00D-01 BMatC= 1.21D-05 BMatP= 4.77D-05
 IDIUse=3 WtCom= 9.98D-01 WtEn= 1.64D-03
 Coeff-Com:  0.102D-02 0.218D-02 0.523D-01 0.102D+00 0.408D+00 0.434D+00
 Coeff-En:   0.000D+00 0.000D+00 0.000D+00 0.000D+00 0.187D+00 0.813D+00
 Coeff:      0.102D-02 0.218D-02 0.523D-01 0.102D+00 0.408D+00 0.435D+00
 Gap=     0.237 Goal=   None    Shift=    0.000
 RMSDP=2.23D-05 MaxDP=5.27D-04 DE=-3.11D-05 OVMax= 5.63D-04

 Cycle   7  Pass 0  IDiag  1:
 RMSU=  7.93D-06    CP:  9.83D-01  7.10D-01  7.89D-01  5.70D-01  6.96D-01
                    CP:  4.58D-01
 E= -272.822618669873     Delta-E=       -0.000011134734 Rises=F Damp=F
 DIIS: error= 1.39D-05 at cycle   7 NSaved=   7.
 NSaved= 7 IEnMin= 7 EnMin= -272.822618669873     IErMin= 7 ErrMin= 1.39D-05
 ErrMax= 1.39D-05  0.00D+00 EMaxC= 1.00D-01 BMatC= 8.90D-08 BMatP= 1.21D-05
 IDIUse=1 WtCom= 1.00D+00 WtEn= 0.00D+00
 Coeff-Com:  0.317D-03-0.197D-04 0.122D-01 0.244D-01 0.109D+00 0.145D+00
 Coeff-Com:  0.709D+00
 Coeff:      0.317D-03-0.197D-04 0.122D-01 0.244D-01 0.109D+00 0.145D+00
 Coeff:      0.709D+00
 Gap=     0.237 Goal=   None    Shift=    0.000
 RMSDP=3.00D-06 MaxDP=7.72D-05 DE=-1.11D-05 OVMax= 7.75D-05

 Initial convergence to 1.0D-05 achieved.  Increase integral accuracy.
 Cycle   8  Pass 1  IDiag  1:
 E= -272.822623314929     Delta-E=       -0.000004645056 Rises=F Damp=F
 DIIS: error= 4.98D-06 at cycle   1 NSaved=   1.
 NSaved= 1 IEnMin= 1 EnMin= -272.822623314929     IErMin= 1 ErrMin= 4.98D-06
 ErrMax= 4.98D-06  0.00D+00 EMaxC= 1.00D-01 BMatC= 1.29D-08 BMatP= 1.29D-08
 IDIUse=1 WtCom= 1.00D+00 WtEn= 0.00D+00
 Coeff-Com:  0.100D+01
 Coeff:      0.100D+01
 Gap=     0.237 Goal=   None    Shift=    0.000
 RMSDP=3.00D-06 MaxDP=7.72D-05 DE=-4.65D-06 OVMax= 3.99D-05

 Cycle   9  Pass 1  IDiag  1:
 RMSU=  2.26D-06    CP:  1.00D+00
 E= -272.822623315762     Delta-E=       -0.000000000833 Rises=F Damp=F
 DIIS: error= 4.29D-06 at cycle   2 NSaved=   2.
 NSaved= 2 IEnMin= 2 EnMin= -272.822623315762     IErMin= 2 ErrMin= 4.29D-06
 ErrMax= 4.29D-06  0.00D+00 EMaxC= 1.00D-01 BMatC= 1.23D-08 BMatP= 1.29D-08
 IDIUse=1 WtCom= 1.00D+00 WtEn= 0.00D+00
 Coeff-Com:  0.494D+00 0.506D+00
 Coeff:      0.494D+00 0.506D+00
 Gap=     0.237 Goal=   None    Shift=    0.000
 RMSDP=9.83D-07 MaxDP=2.14D-05 DE=-8.33D-10 OVMax= 2.37D-05

 Cycle  10  Pass 1  IDiag  1:
 RMSU=  7.94D-07    CP:  1.00D+00  7.43D-01
 E= -272.822623327195     Delta-E=       -0.000000011433 Rises=F Damp=F
 DIIS: error= 1.44D-06 at cycle   3 NSaved=   3.
 NSaved= 3 IEnMin= 3 EnMin= -272.822623327195     IErMin= 3 ErrMin= 1.44D-06
 ErrMax= 1.44D-06  0.00D+00 EMaxC= 1.00D-01 BMatC= 9.95D-10 BMatP= 1.23D-08
 IDIUse=1 WtCom= 1.00D+00 WtEn= 0.00D+00
 Coeff-Com:  0.613D-01 0.229D+00 0.710D+00
 Coeff:      0.613D-01 0.229D+00 0.710D+00
 Gap=     0.237 Goal=   None    Shift=    0.000
 RMSDP=2.60D-07 MaxDP=5.69D-06 DE=-1.14D-08 OVMax= 6.70D-06

 Cycle  11  Pass 1  IDiag  1:
 RMSU=  1.93D-07    CP:  1.00D+00  7.81D-01  8.07D-01
 E= -272.822623328023     Delta-E=       -0.000000000828 Rises=F Damp=F
 DIIS: error= 4.62D-07 at cycle   4 NSaved=   4.
 NSaved= 4 IEnMin= 4 EnMin= -272.822623328023     IErMin= 4 ErrMin= 4.62D-07
 ErrMax= 4.62D-07  0.00D+00 EMaxC= 1.00D-01 BMatC= 1.19D-10 BMatP= 9.95D-10
 IDIUse=1 WtCom= 1.00D+00 WtEn= 0.00D+00
 Coeff-Com:  0.128D-02 0.911D-01 0.380D+00 0.528D+00
 Coeff:      0.128D-02 0.911D-01 0.380D+00 0.528D+00
 Gap=     0.237 Goal=   None    Shift=    0.000
 RMSDP=9.45D-08 MaxDP=2.00D-06 DE=-8.28D-10 OVMax= 2.43D-06

 Cycle  12  Pass 1  IDiag  1:
 RMSU=  3.53D-08    CP:  1.00D+00  7.83D-01  8.12D-01  5.48D-01
 E= -272.822623328131     Delta-E=       -0.000000000108 Rises=F Damp=F
 DIIS: error= 1.95D-07 at cycle   5 NSaved=   5.
 NSaved= 5 IEnMin= 5 EnMin= -272.822623328131     IErMin= 5 ErrMin= 1.95D-07
 ErrMax= 1.95D-07  0.00D+00 EMaxC= 1.00D-01 BMatC= 1.17D-11 BMatP= 1.19D-10
 IDIUse=1 WtCom= 1.00D+00 WtEn= 0.00D+00
 Coeff-Com: -0.102D-02 0.484D-01 0.209D+00 0.333D+00 0.411D+00
 Coeff:     -0.102D-02 0.484D-01 0.209D+00 0.333D+00 0.411D+00
 Gap=     0.237 Goal=   None    Shift=    0.000
 RMSDP=2.33D-08 MaxDP=6.88D-07 DE=-1.08D-10 OVMax= 6.38D-07

 Cycle  13  Pass 1  IDiag  1:
 RMSU=  8.70D-09    CP:  1.00D+00  7.85D-01  8.12D-01  5.51D-01  4.06D-01
 E= -272.822623328137     Delta-E=       -0.000000000006 Rises=F Damp=F
 DIIS: error= 3.09D-08 at cycle   6 NSaved=   6.
 NSaved= 6 IEnMin= 6 EnMin= -272.822623328137     IErMin= 6 ErrMin= 3.09D-08
 ErrMax= 3.09D-08  0.00D+00 EMaxC= 1.00D-01 BMatC= 2.92D-13 BMatP= 1.17D-11
 IDIUse=1 WtCom= 1.00D+00 WtEn= 0.00D+00
 Coeff-Com: -0.637D-03 0.183D-01 0.793D-01 0.133D+00 0.207D+00 0.563D+00
 Coeff:     -0.637D-03 0.183D-01 0.793D-01 0.133D+00 0.207D+00 0.563D+00
 Gap=     0.237 Goal=   None    Shift=    0.000
 RMSDP=5.05D-09 MaxDP=1.18D-07 DE=-5.91D-12 OVMax= 1.24D-07

 SCF Done:  E(RB-LYP) =  -272.822623328     A.U. after   13 cycles
            NFock= 13  Conv=0.51D-08     -V/T= 2.0083
 KE= 2.705695509645D+02 PE=-1.156688566390D+03 EE= 3.521781723477D+02
 Leave Link  502 at Wed Sep  7 18:07:35 2022, MaxMem=   262144000 cpu:              68.1 elap:               8.6
 (Enter /dragofs/sw/campus/0.2/software/gaussian/16.gaussian/gaussian/g16_legacy/l601.exe)
 Copying SCF densities to generalized density rwf, IOpCl= 0 IROHF=0.

 **********************************************************************

            Population analysis using the SCF density.

 **********************************************************************

 Orbital symmetries:
       Occupied  (A) (A) (A) (A) (A) (A) (A) (A) (A) (A) (A) (A)
                 (A) (A) (A) (A) (A) (A) (A) (A) (A) (A) (A) (A)
                 (A)
       Virtual   (A) (A) (A) (A) (A) (A) (A) (A) (A) (A) (A) (A)
                 (A) (A) (A) (A) (A) (A) (A) (A) (A) (A) (A) (A)
                 (A) (A) (A) (A) (A) (A) (A) (A) (A) (A) (A) (A)
                 (A) (A) (A) (A) (A) (A) (A) (A) (A) (A) (A) (A)
                 (A) (A) (A) (A) (A) (A) (A) (A) (A) (A) (A) (A)
                 (A) (A) (A) (A) (A) (A) (A) (A) (A) (A) (A) (A)
                 (A) (A) (A) (A) (A) (A) (A) (A) (A) (A) (A) (A)
                 (A) (A) (A) (A) (A) (A) (A) (A) (A) (A) (A) (A)
                 (A) (A) (A) (A) (A) (A) (A) (A) (A) (A) (A) (A)
                 (A) (A) (A) (A) (A) (A) (A) (A) (A) (A) (A) (A)
                 (A) (A) (A) (A) (A)
 The electronic state is 1-A.
 Alpha  occ. eigenvalues --  -18.77741  -9.95730  -9.91045  -9.90907  -9.90860
 Alpha  occ. eigenvalues --   -9.90585  -0.90768  -0.71587  -0.66543  -0.59773
 Alpha  occ. eigenvalues --   -0.53460  -0.49520  -0.45401  -0.39342  -0.39273
 Alpha  occ. eigenvalues --   -0.36312  -0.35029  -0.32422  -0.31679  -0.29786
 Alpha  occ. eigenvalues --   -0.28881  -0.28452  -0.26273  -0.25234  -0.19926
 Alpha virt. eigenvalues --    0.03810   0.07659   0.08571   0.10227   0.11849
 Alpha virt. eigenvalues --    0.12844   0.14411   0.14990   0.15684   0.15915
 Alpha virt. eigenvalues --    0.17145   0.17966   0.20025   0.22709   0.22792
 Alpha virt. eigenvalues --    0.26710   0.29363   0.47165   0.48400   0.49136
 Alpha virt. eigenvalues --    0.50047   0.52628   0.54690   0.55841   0.60459
 Alpha virt. eigenvalues --    0.63449   0.63918   0.67337   0.69000   0.72707
 Alpha virt. eigenvalues --    0.74320   0.75007   0.77336   0.79832   0.80215
 Alpha virt. eigenvalues --    0.81016   0.83646   0.84364   0.84581   0.88331
 Alpha virt. eigenvalues --    0.89570   0.90783   0.91858   0.93660   0.94924
 Alpha virt. eigenvalues --    1.02969   1.03446   1.10913   1.16153   1.23841
 Alpha virt. eigenvalues --    1.24115   1.36376   1.39967   1.43938   1.46693
 Alpha virt. eigenvalues --    1.49332   1.58273   1.59377   1.63424   1.66089
 Alpha virt. eigenvalues --    1.69841   1.71437   1.75869   1.79121   1.81485
 Alpha virt. eigenvalues --    1.86795   1.88746   1.90655   1.93088   1.94472
 Alpha virt. eigenvalues --    1.97633   1.99838   2.03374   2.05933   2.07918
 Alpha virt. eigenvalues --    2.09066   2.10316   2.11768   2.15867   2.19450
 Alpha virt. eigenvalues --    2.20545   2.25217   2.26599   2.29004   2.33590
 Alpha virt. eigenvalues --    2.37777   2.40748   2.43450   2.45071   2.48647
 Alpha virt. eigenvalues --    2.50252   2.52670   2.58163   2.61155   2.63052
 Alpha virt. eigenvalues --    2.66883   2.68189   2.69980   2.72342   2.75693
 Alpha virt. eigenvalues --    2.78912   2.80320   2.80836   2.86074   2.87103
 Alpha virt. eigenvalues --    2.92372   2.92799   3.10514   3.12292   3.18034
 Alpha virt. eigenvalues --    3.21696   3.22964   3.31551   3.34218   3.37532
 Alpha virt. eigenvalues --    3.41109   3.44774   3.48629   3.51611   3.87688
 Alpha virt. eigenvalues --    4.24635   4.30608   4.44692   4.57015   4.65023
          Condensed to atoms (all electrons):
               1          2          3          4          5          6
     1  C    4.925928   0.374909   0.373441   0.377655   0.334339  -0.031286
     2  H    0.374909   0.640694  -0.041566  -0.038748  -0.028534  -0.004927
     3  H    0.373441  -0.041566   0.657543  -0.024524  -0.038556   0.005063
     4  H    0.377655  -0.038748  -0.024524   0.614443  -0.021647  -0.000824
     5  C    0.334339  -0.028534  -0.038556  -0.021647   4.975177   0.358473
     6  H   -0.031286  -0.004927   0.005063  -0.000824   0.358473   0.677178
     7  H   -0.034298   0.006339  -0.005837  -0.008243   0.349740  -0.041044
     8  C   -0.032624  -0.004030  -0.007170   0.004229   0.395357  -0.029948
     9  H   -0.005116  -0.000507   0.007873   0.000298  -0.051926   0.006491
    10  O    0.005087  -0.000034   0.000110  -0.000153  -0.083755   0.001904
    11  C    0.003175   0.001445  -0.000159  -0.000329  -0.068112  -0.018836
    12  H   -0.000746   0.000016  -0.000014   0.000010   0.007543  -0.000247
    13  H    0.000159   0.000122   0.000047  -0.000004  -0.013830   0.010327
    14  H   -0.000358   0.002041   0.000198   0.000004   0.000971   0.000120
    15  C   -0.000025  -0.000103  -0.000007   0.000002   0.006335   0.000533
    16  H   -0.000018   0.000008  -0.000008   0.000000   0.000267   0.000013
    17  H   -0.000000   0.000004  -0.000000  -0.000000  -0.000205  -0.000023
    18  H   -0.000012   0.000001   0.000001   0.000000   0.000398   0.000019
               7          8          9         10         11         12
     1  C   -0.034298  -0.032624  -0.005116   0.005087   0.003175  -0.000746
     2  H    0.006339  -0.004030  -0.000507  -0.000034   0.001445   0.000016
     3  H   -0.005837  -0.007170   0.007873   0.000110  -0.000159  -0.000014
     4  H   -0.008243   0.004229   0.000298  -0.000153  -0.000329   0.000010
     5  C    0.349740   0.395357  -0.051926  -0.083755  -0.068112   0.007543
     6  H   -0.041044  -0.029948   0.006491   0.001904  -0.018836  -0.000247
     7  H    0.670796  -0.033369  -0.000882   0.004462   0.007553   0.001745
     8  C   -0.033369   4.704381   0.371141   0.219084   0.347612  -0.016296
     9  H   -0.000882   0.371141   0.730173  -0.032940  -0.065403  -0.013252
    10  O    0.004462   0.219084  -0.032940   8.179765  -0.058852   0.265374
    11  C    0.007553   0.347612  -0.065403  -0.058852   4.999304   0.002799
    12  H    0.001745  -0.016296  -0.013252   0.265374   0.002799   0.467261
    13  H    0.000395  -0.033622   0.008393  -0.001183   0.377555  -0.000229
    14  H   -0.000147  -0.022184  -0.006949   0.003769   0.347270  -0.000326
    15  C   -0.000410  -0.027870  -0.005748  -0.003332   0.348483   0.001380
    16  H    0.000012  -0.004318   0.008409  -0.000331  -0.041317   0.000045
    17  H    0.000005   0.004138  -0.000012   0.000420  -0.024567  -0.000021
    18  H   -0.000019  -0.006489   0.000011   0.014597  -0.034521  -0.000417
              13         14         15         16         17         18
     1  C    0.000159  -0.000358  -0.000025  -0.000018  -0.000000  -0.000012
     2  H    0.000122   0.002041  -0.000103   0.000008   0.000004   0.000001
     3  H    0.000047   0.000198  -0.000007  -0.000008  -0.000000   0.000001
     4  H   -0.000004   0.000004   0.000002   0.000000  -0.000000   0.000000
     5  C   -0.013830   0.000971   0.006335   0.000267  -0.000205   0.000398
     6  H    0.010327   0.000120   0.000533   0.000013  -0.000023   0.000019
     7  H    0.000395  -0.000147  -0.000410   0.000012   0.000005  -0.000019
     8  C   -0.033622  -0.022184  -0.027870  -0.004318   0.004138  -0.006489
     9  H    0.008393  -0.006949  -0.005748   0.008409  -0.000012   0.000011
    10  O   -0.001183   0.003769  -0.003332  -0.000331   0.000420   0.014597
    11  C    0.377555   0.347270   0.348483  -0.041317  -0.024567  -0.034521
    12  H   -0.000229  -0.000326   0.001380   0.000045  -0.000021  -0.000417
    13  H    0.643270  -0.038149  -0.037117   0.006313  -0.002391  -0.003649
    14  H   -0.038149   0.674229  -0.038427  -0.007815  -0.002331   0.006389
    15  C   -0.037117  -0.038427   4.934476   0.371990   0.369422   0.372665
    16  H    0.006313  -0.007815   0.371990   0.660489  -0.024839  -0.044370
    17  H   -0.002391  -0.002331   0.369422  -0.024839   0.630593  -0.033994
    18  H   -0.003649   0.006389   0.372665  -0.044370  -0.033994   0.634141
 Mulliken charges:
               1
     1  C   -0.290211
     2  H    0.092869
     3  H    0.073566
     4  H    0.097831
     5  C   -0.122035
     6  H    0.067015
     7  H    0.083202
     8  C    0.171979
     9  H    0.049946
    10  O   -0.513993
    11  C   -0.123098
    12  H    0.285376
    13  H    0.083589
    14  H    0.081695
    15  C   -0.292249
    16  H    0.075470
    17  H    0.083800
    18  H    0.095248
 Sum of Mulliken charges =  -0.00000
 Mulliken charges with hydrogens summed into heavy atoms:
               1
     1  C   -0.025944
     5  C    0.028181
     8  C    0.221925
    10  O   -0.228617
    11  C    0.042186
    15  C   -0.037731
 Electronic spatial extent (au):  <R**2>=            765.1829
 Charge=             -0.0000 electrons
 Dipole moment (field-independent basis, Debye):
    X=              0.1135    Y=             -0.4093    Z=              1.3227  Tot=              1.3892
 Quadrupole moment (field-independent basis, Debye-Ang):
   XX=            -40.4330   YY=            -39.9749   ZZ=            -38.4355
   XY=             -0.2444   XZ=             -1.2409   YZ=              3.2481
 Traceless Quadrupole moment (field-independent basis, Debye-Ang):
   XX=             -0.8185   YY=             -0.3605   ZZ=              1.1790
   XY=             -0.2444   XZ=             -1.2409   YZ=              3.2481
 Octapole moment (field-independent basis, Debye-Ang**2):
  XXX=             -0.4897  YYY=              9.9208  ZZZ=              0.8484  XYY=             -2.7336
  XXY=              3.8319  XXZ=             -2.1902  XZZ=             -1.3664  YZZ=              4.6684
  YYZ=              6.2409  XYZ=             -3.0580
 Hexadecapole moment (field-independent basis, Debye-Ang**3):
 XXXX=           -695.7552 YYYY=           -225.0998 ZZZZ=            -96.2971 XXXY=             -3.4386
 XXXZ=             -3.8397 YYYX=             -8.9404 YYYZ=             13.9976 ZZZX=             -1.1785
 ZZZY=              3.9648 XXYY=           -152.6925 XXZZ=           -133.2044 YYZZ=            -53.2174
 XXYZ=              5.2124 YYXZ=             -3.1405 ZZXY=             -2.5500
 N-N= 2.611182197495D+02 E-N=-1.156688566447D+03  KE= 2.705695509645D+02
 No NMR shielding tensors so no spin-rotation constants.
 Leave Link  601 at Wed Sep  7 18:07:35 2022, MaxMem=   262144000 cpu:               0.6 elap:               0.1
 (Enter /dragofs/sw/campus/0.2/software/gaussian/16.gaussian/gaussian/g16_legacy/l701.exe)
 ... and contract with generalized density number  0.
 Compute integral first derivatives.
 R6Disp: Adding Grimme-D3 dispersion energy 1st derivatives to the gradient.
 Leave Link  701 at Wed Sep  7 18:07:35 2022, MaxMem=   262144000 cpu:               0.6 elap:               0.1
 (Enter /dragofs/sw/campus/0.2/software/gaussian/16.gaussian/gaussian/g16_legacy/l702.exe)
 L702 exits ... SP integral derivatives will be done elsewhere.
 Leave Link  702 at Wed Sep  7 18:07:35 2022, MaxMem=   262144000 cpu:               0.1 elap:               0.0
 (Enter /dragofs/sw/campus/0.2/software/gaussian/16.gaussian/gaussian/g16_legacy/l703.exe)
 Integral derivatives from FoFJK, PRISM(SPDF).
 Compute integral first derivatives, UseDBF=F ICtDFT=           0.
 Calling FoFJK, ICntrl=      2527 FMM=F ISym2X=0 I1Cent= 0 IOpClX= 0 NMat=1 NMatS=1 NMatT=0.
 FoFJK:  IHMeth= 1 ICntrl=    2527 DoSepK=F KAlg= 0 I1Cent=           0 FoldK=F
 IRaf=         0 NMat=       1 IRICut=       1 DoRegI=T DoRafI=F ISym2E= 0 IDoP0=0 IntGTp=1.
 FoFCou: FMM=F IPFlag=           0 FMFlag=      100000 FMFlg1=         800
         NFxFlg=           0 DoJE=F BraDBF=F KetDBF=F FulRan=T
         wScrn=  0.000000 ICntrl=      2527 IOpCl=  0 I1Cent=           0 NGrid=           0
         NMat0=    1 NMatS0=      1 NMatT0=    0 NMatD0=    1 NMtDS0=    0 NMtDT0=    0
 Symmetry not used in FoFCou.
 Leave Link  703 at Wed Sep  7 18:07:37 2022, MaxMem=   262144000 cpu:              15.2 elap:               1.9
 (Enter /dragofs/sw/campus/0.2/software/gaussian/16.gaussian/gaussian/g16_legacy/l716.exe)
 Dipole        = 4.46523491D-02-1.61048105D-01 5.20390214D-01
 ***** Axes restored to original set *****
 -------------------------------------------------------------------
 Center     Atomic                   Forces (Hartrees/Bohr)
 Number     Number              X              Y              Z
 -------------------------------------------------------------------
      1        6          -0.009116565   -0.046728471   -0.012238559
      2        1          -0.002616339   -0.004294934    0.022324642
      3        1           0.012085813    0.023419792    0.010392668
      4        1          -0.009113788    0.032701894   -0.013071581
      5        6          -0.005797696    0.083741443   -0.011588080
      6        1          -0.023622837   -0.019656952   -0.014077202
      7        1          -0.002127201   -0.007207578    0.007732219
      8        6           0.008701089   -0.023147233   -0.021198333
      9        1          -0.003084169    0.008147399   -0.004692896
     10        8           0.021119998   -0.010405808    0.004266561
     11        6           0.003079685   -0.043890542    0.032748775
     12        1           0.000329074   -0.010003599   -0.006090686
     13        1           0.008398037    0.011701977    0.007620502
     14        1           0.001250018    0.012422751   -0.001712155
     15        6           0.021326720   -0.002006727   -0.018081108
     16        1          -0.010709788   -0.013311008    0.009746173
     17        1          -0.007812199   -0.004648150    0.001102728
     18        1          -0.002289852    0.013165745    0.006816332
 -------------------------------------------------------------------
 Cartesian Forces:  Max     0.083741443 RMS     0.019383206
 Leave Link  716 at Wed Sep  7 18:07:37 2022, MaxMem=   262144000 cpu:               0.3 elap:               0.1
 (Enter /dragofs/sw/campus/0.2/software/gaussian/16.gaussian/gaussian/g16_legacy/l103.exe)

 GradGradGradGradGradGradGradGradGradGradGradGradGradGradGradGradGradGrad
 Berny optimization.
 FormGI is forming the generalized inverse of G from B-inverse, IUseBI=4.
 Internal  Forces:  Max     0.069772900 RMS     0.013140804
 Search for a local minimum.
 Step number   1 out of a maximum of   97
 All quantities printed in internal units (Hartrees-Bohrs-Radians)
 RMS Force = .13141D-01 SwitMx=.10000D-02 MixMth= 1
 Mixed Optimization -- RFO/linear search
 Second derivative matrix not updated -- first step.
 ITU=  0
     Eigenvalues ---    0.00230   0.00360   0.01051   0.01102   0.01494
     Eigenvalues ---    0.03355   0.03821   0.04715   0.04979   0.05111
     Eigenvalues ---    0.05148   0.05275   0.05716   0.05741   0.05780
     Eigenvalues ---    0.07575   0.08237   0.09406   0.12148   0.13011
     Eigenvalues ---    0.15999   0.16000   0.16000   0.16000   0.16000
     Eigenvalues ---    0.16000   0.16000   0.16000   0.19398   0.21781
     Eigenvalues ---    0.21988   0.26619   0.28084   0.28196   0.29363
     Eigenvalues ---    0.31359   0.31784   0.32277   0.32390   0.34059
     Eigenvalues ---    0.34652   0.35193   0.36409   0.36853   0.38449
     Eigenvalues ---    0.38917   0.39890   0.55066
 RFO step:  Lambda=-4.92297341D-02 EMin= 2.30000000D-03
 Linear search not attempted -- first point.
 Maximum step size (   0.300) exceeded in Quadratic search.
    -- Step size scaled by   0.807
 Iteration  1 RMS(Cart)=  0.07222343 RMS(Int)=  0.00191068
 Iteration  2 RMS(Cart)=  0.00264919 RMS(Int)=  0.00072714
 Iteration  3 RMS(Cart)=  0.00000912 RMS(Int)=  0.00072713
 Iteration  4 RMS(Cart)=  0.00000003 RMS(Int)=  0.00072713
 ITry= 1 IFail=0 DXMaxC= 2.02D-01 DCOld= 1.00D+10 DXMaxT= 3.00D-01 DXLimC= 3.00D+00 Rises=F
 Variable       Old X    -DE/DX   Delta X   Delta X   Delta X     New X
                                 (Linear)    (Quad)   (Total)
    R1        2.02768   0.02165   0.00000   0.04183   0.04183   2.06951
    R2        2.18655  -0.02659   0.00000  -0.06504  -0.06504   2.12151
    R3        1.98403   0.03551   0.00000   0.06398   0.06398   2.04801
    R4        2.89252   0.01030   0.00000   0.02426   0.02426   2.91678
    R5        2.21962  -0.03320   0.00000  -0.08498  -0.08498   2.13464
    R6        2.12032  -0.00990   0.00000  -0.02204  -0.02204   2.09828
    R7        2.73052   0.06977   0.00000   0.12849   0.12849   2.85902
    R8        2.10340  -0.00141   0.00000  -0.00306  -0.00306   2.10034
    R9        2.73716   0.02024   0.00000   0.03768   0.03768   2.77485
   R10        2.78662   0.04518   0.00000   0.09092   0.09092   2.87754
   R11        1.81774   0.01125   0.00000   0.01514   0.01514   1.83288
   R12        2.03447   0.01627   0.00000   0.03179   0.03179   2.06625
   R13        2.10137  -0.00328   0.00000  -0.00711  -0.00711   2.09426
   R14        2.91712   0.00637   0.00000   0.01552   0.01552   2.93263
   R15        2.06244   0.00953   0.00000   0.01943   0.01943   2.08188
   R16        2.07231   0.00077   0.00000   0.00159   0.00159   2.07390
   R17        2.11241  -0.00714   0.00000  -0.01569  -0.01569   2.09672
    A1        1.79161   0.00486   0.00000   0.02755   0.02784   1.81945
    A2        1.86045   0.00310   0.00000   0.01311   0.01323   1.87368
    A3        2.02752  -0.01048   0.00000  -0.03575  -0.03555   1.99197
    A4        1.97521  -0.00857   0.00000  -0.04275  -0.04274   1.93247
    A5        1.87935   0.00515   0.00000   0.01948   0.01964   1.89899
    A6        1.92854   0.00501   0.00000   0.01505   0.01512   1.94365
    A7        1.98214  -0.00599   0.00000  -0.03323  -0.03337   1.94877
    A8        1.81774   0.00422   0.00000   0.03092   0.03101   1.84875
    A9        2.02975   0.00298   0.00000   0.00574   0.00533   2.03508
   A10        1.76094   0.00265   0.00000   0.01916   0.01956   1.78050
   A11        1.94020  -0.00051   0.00000  -0.01170  -0.01217   1.92803
   A12        1.90691  -0.00295   0.00000  -0.00395  -0.00425   1.90266
   A13        2.02792  -0.01582   0.00000  -0.07473  -0.07411   1.95380
   A14        1.77665   0.02081   0.00000   0.09581   0.09731   1.87396
   A15        1.92951   0.00869   0.00000   0.04072   0.04127   1.97078
   A16        1.90349   0.00003   0.00000  -0.00571  -0.00487   1.89862
   A17        1.85286   0.00480   0.00000   0.00368   0.00342   1.85629
   A18        1.97709  -0.02016   0.00000  -0.06436  -0.06762   1.90947
   A19        1.87744   0.00209   0.00000   0.00805   0.00805   1.88549
   A20        1.96061  -0.00208   0.00000  -0.01405  -0.01422   1.94639
   A21        1.92033  -0.00519   0.00000  -0.02165  -0.02252   1.89781
   A22        1.94953   0.00569   0.00000   0.02151   0.02147   1.97100
   A23        1.90619  -0.00128   0.00000  -0.01636  -0.01676   1.88943
   A24        1.93531  -0.00253   0.00000  -0.00719  -0.00699   1.92832
   A25        1.78358   0.00585   0.00000   0.04129   0.04144   1.82502
   A26        1.85947   0.01021   0.00000   0.04304   0.04350   1.90297
   A27        1.98937  -0.00031   0.00000  -0.01265  -0.01295   1.97642
   A28        2.00071  -0.01438   0.00000  -0.04869  -0.04876   1.95195
   A29        2.02062  -0.01113   0.00000  -0.05750  -0.05733   1.96330
   A30        1.72541   0.00879   0.00000   0.05979   0.06055   1.78596
   A31        1.85540   0.00656   0.00000   0.01988   0.01916   1.87457
    D1       -1.15360   0.00308   0.00000   0.02779   0.02752  -1.12608
    D2       -3.05289   0.00017   0.00000   0.00231   0.00247  -3.05042
    D3        1.13131  -0.00088   0.00000  -0.01829  -0.01832   1.11299
    D4        3.13332  -0.00053   0.00000   0.00043   0.00027   3.13360
    D5        1.23403  -0.00343   0.00000  -0.02506  -0.02477   1.20926
    D6       -0.86495  -0.00448   0.00000  -0.04566  -0.04557  -0.91052
    D7        0.96808   0.00350   0.00000   0.03099   0.03074   0.99882
    D8       -0.93121   0.00060   0.00000   0.00551   0.00569  -0.92552
    D9       -3.03019  -0.00045   0.00000  -0.01509  -0.01510  -3.04530
   D10        0.56502   0.00423   0.00000   0.04197   0.04245   0.60747
   D11        2.63023   0.01029   0.00000   0.06177   0.05984   2.69007
   D12       -1.54759   0.00249   0.00000   0.05932   0.06068  -1.48691
   D13        2.86945  -0.00225   0.00000  -0.01340  -0.01290   2.85656
   D14       -1.34852   0.00381   0.00000   0.00640   0.00449  -1.34402
   D15        0.75685  -0.00400   0.00000   0.00395   0.00533   0.76218
   D16       -1.48542  -0.00097   0.00000   0.00122   0.00176  -1.48366
   D17        0.57980   0.00509   0.00000   0.02102   0.01915   0.59895
   D18        2.68516  -0.00272   0.00000   0.01857   0.01999   2.70515
   D19       -2.19775   0.00497   0.00000   0.01350   0.01179  -2.18596
   D20       -0.04555  -0.00192   0.00000  -0.02318  -0.02279  -0.06833
   D21        2.01369  -0.00838   0.00000  -0.06230  -0.06099   1.95270
   D22       -0.73903  -0.00906   0.00000  -0.05736  -0.05687  -0.79590
   D23        1.38859  -0.01581   0.00000  -0.10332  -0.10236   1.28623
   D24       -2.92646  -0.00854   0.00000  -0.05374  -0.05317  -2.97962
   D25       -2.95259   0.00179   0.00000   0.00709   0.00719  -2.94540
   D26       -0.82498  -0.00496   0.00000  -0.03887  -0.03830  -0.86327
   D27        1.14316   0.00231   0.00000   0.01072   0.01090   1.15406
   D28        1.24214   0.01024   0.00000   0.04893   0.04779   1.28994
   D29       -2.91342   0.00349   0.00000   0.00298   0.00230  -2.91112
   D30       -0.94528   0.01076   0.00000   0.05256   0.05150  -0.89379
   D31       -0.92358  -0.00537   0.00000  -0.04424  -0.04431  -0.96790
   D32        3.10912   0.00128   0.00000   0.00620   0.00618   3.11531
   D33        0.96545   0.00437   0.00000   0.02956   0.02893   0.99438
   D34       -3.12494  -0.00502   0.00000  -0.03657  -0.03644   3.12180
   D35        0.90776   0.00163   0.00000   0.01387   0.01406   0.92182
   D36       -1.23591   0.00473   0.00000   0.03723   0.03680  -1.19911
   D37        1.12866  -0.00557   0.00000  -0.03659  -0.03614   1.09251
   D38       -1.12182   0.00108   0.00000   0.01385   0.01435  -1.10747
   D39        3.01769   0.00418   0.00000   0.03721   0.03709   3.05479
         Item               Value     Threshold  Converged?
 Maximum Force            0.069773     0.000450     NO 
 RMS     Force            0.013141     0.000300     NO 
 Maximum Displacement     0.201691     0.001800     NO 
 RMS     Displacement     0.072277     0.001200     NO 
 Predicted change in Energy=-2.706880D-02
 Lowest energy point so far.  Saving SCF results.
 GradGradGradGradGradGradGradGradGradGradGradGradGradGradGradGradGradGrad

 Leave Link  103 at Wed Sep  7 18:07:37 2022, MaxMem=   262144000 cpu:               0.2 elap:               0.0
 (Enter /dragofs/sw/campus/0.2/software/gaussian/16.gaussian/gaussian/g16_legacy/l202.exe)
                          Input orientation:                          
 ---------------------------------------------------------------------
 Center     Atomic      Atomic             Coordinates (Angstroms)
 Number     Number       Type             X           Y           Z
 ---------------------------------------------------------------------
      1          6           0        5.856614   15.115791   10.323525
      2          1           0        5.452294   14.904824   11.319189
      3          1           0        5.255845   14.461447    9.637035
      4          1           0        5.671358   16.162969   10.114627
      5          6           0        7.351323   14.766160   10.162332
      6          1           0        8.003005   15.404851   10.828202
      7          1           0        7.639319   15.119182    9.149742
      8          6           0        7.724290   13.306404   10.300005
      9          1           0        6.934533   12.636128    9.897087
     10          8           0        8.959368   13.095411    9.534354
     11          6           0        7.947419   12.885252   11.746225
     12          1           0        8.801960   12.376270    8.902850
     13          1           0        8.563019   13.610833   12.284856
     14          1           0        6.964332   12.819519   12.253576
     15          6           0        8.549175   11.460607   11.875125
     16          1           0        7.900680   10.747117   11.342127
     17          1           0        8.736552   11.162069   12.914444
     18          1           0        9.507914   11.366167   11.324698
 ---------------------------------------------------------------------
                    Distance matrix (angstroms):
                    1          2          3          4          5
     1  C    0.000000
     2  H    1.095139   0.000000
     3  H    1.122656   1.750662   0.000000
     4  H    1.083762   1.755530   1.815467   0.000000
     5  C    1.543496   2.227971   2.181700   2.185323   0.000000
     6  H    2.223791   2.645225   3.139391   2.553528   1.129601
     7  H    2.134435   3.087964   2.520122   2.427625   1.110363
     8  C    2.600509   2.958994   2.804795   3.522621   1.512926
     9  H    2.737241   3.060455   2.493474   3.752538   2.186573
    10  O    3.785737   4.331186   3.948757   4.534054   2.402409
    11  C    3.372068   3.238314   3.765321   4.311147   2.530189
    12  H    4.265953   4.842782   4.178747   5.060451   3.066303
    13  H    3.665562   3.504787   4.321100   4.425494   2.703348
    14  H    3.197655   2.740042   3.530034   4.174390   2.883135
    15  C    4.797679   4.665015   4.985992   5.787348   3.910906
    16  H    4.929611   4.825105   4.868135   5.983985   4.224501
    17  H    5.535235   5.228709   5.808841   6.499491   4.741566
    18  H    5.328603   5.382394   5.523500   6.260410   4.190695
                    6          7          8          9         10
     6  H    0.000000
     7  H    1.741006   0.000000
     8  C    2.181778   2.148601   0.000000
     9  H    3.110375   2.687155   1.111454   0.000000
    10  O    2.814639   2.446652   1.468386   2.107717   0.000000
    11  C    2.682207   3.439053   1.522730   2.123043   2.441430
    12  H    3.676631   2.989357   1.994634   2.131505   0.969916
    13  H    2.377805   3.599622   2.176183   3.050156   2.826307
    14  H    3.129612   3.921459   2.151983   2.363802   3.383852
    15  C    4.117210   4.651959   2.562890   2.810970   2.884450
    16  H    4.687118   4.897939   2.768950   2.567088   3.146958
    17  H    4.784527   5.570964   3.529609   3.811111   3.900316
    18  H    4.338459   4.723050   2.827689   3.205177   2.548827
                   11         12         13         14         15
    11  C    0.000000
    12  H    3.012322   0.000000
    13  H    1.093414   3.608213   0.000000
    14  H    1.108236   3.847169   1.784085   0.000000
    15  C    1.551883   3.120378   2.188959   2.121697   0.000000
    16  H    2.176488   3.068635   3.086794   2.449966   1.101681
    17  H    2.226394   4.191831   2.534352   2.514886   1.097460
    18  H    2.218208   2.717356   2.617872   3.073248   1.109535
                   16         17         18
    16  H    0.000000
    17  H    1.828400   0.000000
    18  H    1.722419   1.778749   0.000000
 Stoichiometry    C5H12O
 Framework group  C1[X(C5H12O)]
 Deg. of freedom    48
 Full point group                 C1      NOp   1
 RotChk:  IX=0 Diff= 3.09D-02
 Largest Abelian subgroup         C1      NOp   1
 Largest concise Abelian subgroup C1      NOp   1
                         Standard orientation:                         
 ---------------------------------------------------------------------
 Center     Atomic      Atomic             Coordinates (Angstroms)
 Number     Number       Type             X           Y           Z
 ---------------------------------------------------------------------
      1          6           0        2.441282   -0.653159    0.253446
      2          1           0        2.190964   -1.716338    0.173945
      3          1           0        2.472510   -0.458571    1.358669
      4          1           0        3.422001   -0.518114   -0.187566
      5          6           0        1.401428    0.289679   -0.388535
      6          1           0        1.336537    0.139515   -1.506228
      7          1           0        1.831141    1.311026   -0.317097
      8          6           0        0.018951    0.292466    0.226032
      9          1           0        0.053629    0.145946    1.327240
     10          8           0       -0.584465    1.600638   -0.058104
     11          6           0       -0.877161   -0.808438   -0.325059
     12          1           0       -0.863124    1.992086    0.784425
     13          1           0       -0.815432   -0.867801   -1.415114
     14          1           0       -0.547204   -1.779554    0.094760
     15          6           0       -2.354742   -0.669026    0.128439
     16          1           0       -2.390808   -0.631869    1.228902
     17          1           0       -3.010303   -1.444908   -0.287093
     18          1           0       -2.782735    0.314343   -0.155946
 ---------------------------------------------------------------------
 Rotational constants (GHZ):           5.4901568           2.0730971           1.6530529
 Leave Link  202 at Wed Sep  7 18:07:37 2022, MaxMem=   262144000 cpu:               0.2 elap:               0.0
 (Enter /dragofs/sw/campus/0.2/software/gaussian/16.gaussian/gaussian/g16_legacy/l301.exe)
 Standard basis: 6-31G(d,p) (6D, 7F)
 Ernie: Thresh=  0.10000D-02 Tol=  0.10000D-05 Strict=F.
 There are   150 symmetry adapted cartesian basis functions of A   symmetry.
 There are   150 symmetry adapted basis functions of A   symmetry.
   150 basis functions,   252 primitive gaussians,   150 cartesian basis functions
    25 alpha electrons       25 beta electrons
       nuclear repulsion energy       256.0505139041 Hartrees.
 IExCor=  402 DFT=T Ex=B Corr=LYP ExCW=0 ScaHFX=  0.000000
 ScaDFX=  1.000000  1.000000  1.000000  1.000000 ScalE2=  1.000000  1.000000
 IRadAn=      5 IRanWt=     -1 IRanGd=            0 ICorTp=0 IEmpDi=131
 NAtoms=   18 NActive=   18 NUniq=   18 SFac= 1.00D+00 NAtFMM=   60 NAOKFM=F Big=F
 Integral buffers will be    131072 words long.
 Raffenetti 2 integral format.
 Two-electron integral symmetry is turned on.
 R6Disp:  Grimme-D3 Dispersion energy=       -0.0156433639 Hartrees.
 Nuclear repulsion after empirical dispersion term =      256.0348705402 Hartrees.
 Leave Link  301 at Wed Sep  7 18:07:37 2022, MaxMem=   262144000 cpu:               0.4 elap:               0.1
 (Enter /dragofs/sw/campus/0.2/software/gaussian/16.gaussian/gaussian/g16_legacy/l302.exe)
 NPDir=0 NMtPBC=     1 NCelOv=     1 NCel=       1 NClECP=     1 NCelD=      1
         NCelK=      1 NCelE2=     1 NClLst=     1 CellRange=     0.0.
 One-electron integrals computed using PRISM.
 One-electron integral symmetry used in STVInt
 NBasis=   150 RedAO= T EigKep=  3.19D-03  NBF=   150
 NBsUse=   150 1.00D-06 EigRej= -1.00D+00 NBFU=   150
 Precomputing XC quadrature grid using
 IXCGrd= 4 IRadAn=           5 IRanWt=          -1 IRanGd=           0 AccXCQ= 0.00D+00.
 Generated NRdTot=       0 NPtTot=           0 NUsed=           0 NTot=          32
 NSgBfM=   150   150   150   150   150 MxSgAt=    18 MxSgA2=    18.
 Leave Link  302 at Wed Sep  7 18:07:37 2022, MaxMem=   262144000 cpu:               2.2 elap:               0.3
 (Enter /dragofs/sw/campus/0.2/software/gaussian/16.gaussian/gaussian/g16_legacy/l303.exe)
 DipDrv:  MaxL=1.
 Leave Link  303 at Wed Sep  7 18:07:38 2022, MaxMem=   262144000 cpu:               0.2 elap:               0.0
 (Enter /dragofs/sw/campus/0.2/software/gaussian/16.gaussian/gaussian/g16_legacy/l401.exe)
 Initial guess from the checkpoint file:  "MD_extract_012_gaussian.chk"
 B after Tr=     0.000000    0.000000   -0.000000
         Rot=    0.999932   -0.004203    0.001403   -0.010770 Ang=  -1.33 deg.
 Guess basis will be translated and rotated to current coordinates.
 JPrj=2 DoOrth=T DoCkMO=T.
 Generating alternative initial guess.
 ExpMin= 1.61D-01 ExpMax= 5.48D+03 ExpMxC= 8.25D+02 IAcc=2 IRadAn=         4 AccDes= 0.00D+00
 Harris functional with IExCor=  402 and IRadAn=       4 diagonalized for initial guess.
 HarFok:  IExCor=  402 AccDes= 0.00D+00 IRadAn=         4 IDoV= 1 UseB2=F ITyADJ=14
 ICtDFT=  3500011 ScaDFX=  1.000000  1.000000  1.000000  1.000000
 FoFCou: FMM=F IPFlag=           0 FMFlag=      100000 FMFlg1=           0
         NFxFlg=           0 DoJE=T BraDBF=F KetDBF=T FulRan=T
         wScrn=  0.000000 ICntrl=       500 IOpCl=  0 I1Cent=   200000004 NGrid=           0
         NMat0=    1 NMatS0=      1 NMatT0=    0 NMatD0=    1 NMtDS0=    0 NMtDT0=    0
 Petite list used in FoFCou.
 Harris En= -273.074791579334    
 Leave Link  401 at Wed Sep  7 18:07:38 2022, MaxMem=   262144000 cpu:               3.0 elap:               0.4
 (Enter /dragofs/sw/campus/0.2/software/gaussian/16.gaussian/gaussian/g16_legacy/l502.exe)
 Integral symmetry usage will be decided dynamically.
 Closed shell SCF:
 Using DIIS extrapolation, IDIIS=  1040.
 NGot=   262144000 LenX=   262095960 LenY=   262073019
 Requested convergence on RMS density matrix=1.00D-08 within 128 cycles.
 Requested convergence on MAX density matrix=1.00D-06.
 Requested convergence on             energy=1.00D-06.
 No special actions if energy rises.
 Fock matrices will be formed incrementally for  20 cycles.
 Integral accuracy reduced to 1.0D-05 until final iterations.

 Cycle   1  Pass 0  IDiag  1:
 FoFJK:  IHMeth= 1 ICntrl=     500 DoSepK=F KAlg= 0 I1Cent=           0 FoldK=F
 IRaf= 950000000 NMat=       1 IRICut=       1 DoRegI=T DoRafI=F ISym2E= 0 IDoP0=0 IntGTp=1.
 FoFCou: FMM=F IPFlag=           0 FMFlag=      100000 FMFlg1=           0
         NFxFlg=           0 DoJE=T BraDBF=F KetDBF=F FulRan=T
         wScrn=  0.000000 ICntrl=       500 IOpCl=  0 I1Cent=           0 NGrid=           0
         NMat0=    1 NMatS0=      1 NMatT0=    0 NMatD0=    1 NMtDS0=    0 NMtDT0=    0
 Symmetry not used in FoFCou.
 E= -272.841211589553    
 DIIS: error= 2.66D-03 at cycle   1 NSaved=   1.
 NSaved= 1 IEnMin= 1 EnMin= -272.841211589553     IErMin= 1 ErrMin= 2.66D-03
 ErrMax= 2.66D-03  0.00D+00 EMaxC= 1.00D-01 BMatC= 3.67D-03 BMatP= 3.67D-03
 IDIUse=3 WtCom= 9.73D-01 WtEn= 2.66D-02
 Coeff-Com:  0.100D+01
 Coeff-En:   0.100D+01
 Coeff:      0.100D+01
 Gap=     1.789 Goal=   None    Shift=    0.000
 GapD=    1.789 DampG=2.000 DampE=1.000 DampFc=2.0000 IDamp=-1.
 RMSDP=9.22D-04 MaxDP=1.88D-02              OVMax= 3.40D-02

 Cycle   2  Pass 0  IDiag  1:
 RMSU=  9.19D-04    CP:  9.97D-01
 E= -272.847421552677     Delta-E=       -0.006209963124 Rises=F Damp=F
 DIIS: error= 8.66D-04 at cycle   2 NSaved=   2.
 NSaved= 2 IEnMin= 2 EnMin= -272.847421552677     IErMin= 2 ErrMin= 8.66D-04
 ErrMax= 8.66D-04  0.00D+00 EMaxC= 1.00D-01 BMatC= 4.08D-04 BMatP= 3.67D-03
 IDIUse=3 WtCom= 9.91D-01 WtEn= 8.66D-03
 Coeff-Com:  0.154D+00 0.846D+00
 Coeff-En:   0.000D+00 0.100D+01
 Coeff:      0.153D+00 0.847D+00
 Gap=     0.241 Goal=   None    Shift=    0.000
 RMSDP=2.63D-04 MaxDP=7.90D-03 DE=-6.21D-03 OVMax= 7.09D-03

 Cycle   3  Pass 0  IDiag  1:
 RMSU=  2.52D-04    CP:  9.97D-01  9.21D-01
 E= -272.847302959302     Delta-E=        0.000118593376 Rises=F Damp=F
 DIIS: error= 9.92D-04 at cycle   3 NSaved=   3.
 NSaved= 3 IEnMin= 2 EnMin= -272.847421552677     IErMin= 2 ErrMin= 8.66D-04
 ErrMax= 9.92D-04  0.00D+00 EMaxC= 1.00D-01 BMatC= 5.48D-04 BMatP= 4.08D-04
 IDIUse=3 WtCom= 2.41D-01 WtEn= 7.59D-01
 Coeff-Com:  0.176D-01 0.534D+00 0.448D+00
 Coeff-En:   0.000D+00 0.557D+00 0.443D+00
 Coeff:      0.424D-02 0.551D+00 0.444D+00
 Gap=     0.242 Goal=   None    Shift=    0.000
 RMSDP=1.49D-04 MaxDP=4.37D-03 DE= 1.19D-04 OVMax= 4.13D-03

 Cycle   4  Pass 0  IDiag  1:
 RMSU=  5.50D-05    CP:  9.97D-01  9.47D-01  4.60D-01
 E= -272.847803113119     Delta-E=       -0.000500153817 Rises=F Damp=F
 DIIS: error= 2.33D-04 at cycle   4 NSaved=   4.
 NSaved= 4 IEnMin= 4 EnMin= -272.847803113119     IErMin= 4 ErrMin= 2.33D-04
 ErrMax= 2.33D-04  0.00D+00 EMaxC= 1.00D-01 BMatC= 1.27D-05 BMatP= 4.08D-04
 IDIUse=3 WtCom= 9.98D-01 WtEn= 2.33D-03
 Coeff-Com:  0.267D-02 0.233D+00 0.213D+00 0.551D+00
 Coeff-En:   0.000D+00 0.000D+00 0.000D+00 0.100D+01
 Coeff:      0.266D-02 0.233D+00 0.212D+00 0.552D+00
 Gap=     0.241 Goal=   None    Shift=    0.000
 RMSDP=3.44D-05 MaxDP=9.72D-04 DE=-5.00D-04 OVMax= 1.11D-03

 Cycle   5  Pass 0  IDiag  1:
 RMSU=  2.17D-05    CP:  9.97D-01  9.50D-01  4.54D-01  5.21D-01
 E= -272.847810607905     Delta-E=       -0.000007494786 Rises=F Damp=F
 DIIS: error= 1.51D-04 at cycle   5 NSaved=   5.
 NSaved= 5 IEnMin= 5 EnMin= -272.847810607905     IErMin= 5 ErrMin= 1.51D-04
 ErrMax= 1.51D-04  0.00D+00 EMaxC= 1.00D-01 BMatC= 3.73D-06 BMatP= 1.27D-05
 IDIUse=3 WtCom= 9.98D-01 WtEn= 1.51D-03
 Coeff-Com: -0.238D-05 0.955D-01 0.921D-01 0.368D+00 0.445D+00
 Coeff-En:   0.000D+00 0.000D+00 0.000D+00 0.216D+00 0.784D+00
 Coeff:     -0.237D-05 0.953D-01 0.919D-01 0.368D+00 0.445D+00
 Gap=     0.241 Goal=   None    Shift=    0.000
 RMSDP=1.33D-05 MaxDP=3.73D-04 DE=-7.49D-06 OVMax= 4.32D-04

 Cycle   6  Pass 0  IDiag  1:
 RMSU=  4.12D-06    CP:  9.97D-01  9.52D-01  4.61D-01  6.02D-01  4.66D-01
 E= -272.847813471106     Delta-E=       -0.000002863201 Rises=F Damp=F
 DIIS: error= 8.34D-06 at cycle   6 NSaved=   6.
 NSaved= 6 IEnMin= 6 EnMin= -272.847813471106     IErMin= 6 ErrMin= 8.34D-06
 ErrMax= 8.34D-06  0.00D+00 EMaxC= 1.00D-01 BMatC= 2.58D-08 BMatP= 3.73D-06
 IDIUse=1 WtCom= 1.00D+00 WtEn= 0.00D+00
 Coeff-Com: -0.120D-03 0.222D-01 0.223D-01 0.103D+00 0.152D+00 0.701D+00
 Coeff:     -0.120D-03 0.222D-01 0.223D-01 0.103D+00 0.152D+00 0.701D+00
 Gap=     0.241 Goal=   None    Shift=    0.000
 RMSDP=1.69D-06 MaxDP=3.14D-05 DE=-2.86D-06 OVMax= 4.02D-05

 Initial convergence to 1.0D-05 achieved.  Increase integral accuracy.
 Cycle   7  Pass 1  IDiag  1:
 E= -272.847824487346     Delta-E=       -0.000011016240 Rises=F Damp=F
 DIIS: error= 4.89D-06 at cycle   1 NSaved=   1.
 NSaved= 1 IEnMin= 1 EnMin= -272.847824487346     IErMin= 1 ErrMin= 4.89D-06
 ErrMax= 4.89D-06  0.00D+00 EMaxC= 1.00D-01 BMatC= 1.43D-08 BMatP= 1.43D-08
 IDIUse=1 WtCom= 1.00D+00 WtEn= 0.00D+00
 Coeff-Com:  0.100D+01
 Coeff:      0.100D+01
 Gap=     0.241 Goal=   None    Shift=    0.000
 RMSDP=1.69D-06 MaxDP=3.14D-05 DE=-1.10D-05 OVMax= 4.50D-05

 Cycle   8  Pass 1  IDiag  1:
 RMSU=  2.20D-06    CP:  1.00D+00
 E= -272.847824482531     Delta-E=        0.000000004815 Rises=F Damp=F
 DIIS: error= 6.88D-06 at cycle   2 NSaved=   2.
 NSaved= 2 IEnMin= 1 EnMin= -272.847824487346     IErMin= 1 ErrMin= 4.89D-06
 ErrMax= 6.88D-06  0.00D+00 EMaxC= 1.00D-01 BMatC= 1.97D-08 BMatP= 1.43D-08
 IDIUse=1 WtCom= 1.00D+00 WtEn= 0.00D+00
 Coeff-Com:  0.546D+00 0.454D+00
 Coeff:      0.546D+00 0.454D+00
 Gap=     0.241 Goal=   None    Shift=    0.000
 RMSDP=1.03D-06 MaxDP=2.85D-05 DE= 4.82D-09 OVMax= 3.21D-05

 Cycle   9  Pass 1  IDiag  1:
 RMSU=  8.90D-07    CP:  1.00D+00  7.68D-01
 E= -272.847824500934     Delta-E=       -0.000000018403 Rises=F Damp=F
 DIIS: error= 1.34D-06 at cycle   3 NSaved=   3.
 NSaved= 3 IEnMin= 3 EnMin= -272.847824500934     IErMin= 3 ErrMin= 1.34D-06
 ErrMax= 1.34D-06  0.00D+00 EMaxC= 1.00D-01 BMatC= 8.03D-10 BMatP= 1.43D-08
 IDIUse=1 WtCom= 1.00D+00 WtEn= 0.00D+00
 Coeff-Com:  0.167D-01 0.170D+00 0.814D+00
 Coeff:      0.167D-01 0.170D+00 0.814D+00
 Gap=     0.241 Goal=   None    Shift=    0.000
 RMSDP=2.30D-07 MaxDP=4.64D-06 DE=-1.84D-08 OVMax= 5.70D-06

 Cycle  10  Pass 1  IDiag  1:
 RMSU=  1.21D-07    CP:  1.00D+00  8.06D-01  8.03D-01
 E= -272.847824501616     Delta-E=       -0.000000000682 Rises=F Damp=F
 DIIS: error= 8.33D-07 at cycle   4 NSaved=   4.
 NSaved= 4 IEnMin= 4 EnMin= -272.847824501616     IErMin= 4 ErrMin= 8.33D-07
 ErrMax= 8.33D-07  0.00D+00 EMaxC= 1.00D-01 BMatC= 1.09D-10 BMatP= 8.03D-10
 IDIUse=1 WtCom= 1.00D+00 WtEn= 0.00D+00
 Coeff-Com: -0.121D-02 0.952D-01 0.502D+00 0.404D+00
 Coeff:     -0.121D-02 0.952D-01 0.502D+00 0.404D+00
 Gap=     0.241 Goal=   None    Shift=    0.000
 RMSDP=7.81D-08 MaxDP=2.21D-06 DE=-6.82D-10 OVMax= 2.58D-06

 Cycle  11  Pass 1  IDiag  1:
 RMSU=  2.62D-08    CP:  1.00D+00  8.07D-01  8.27D-01  4.23D-01
 E= -272.847824501699     Delta-E=       -0.000000000083 Rises=F Damp=F
 DIIS: error= 1.05D-07 at cycle   5 NSaved=   5.
 NSaved= 5 IEnMin= 5 EnMin= -272.847824501699     IErMin= 5 ErrMin= 1.05D-07
 ErrMax= 1.05D-07  0.00D+00 EMaxC= 1.00D-01 BMatC= 3.18D-12 BMatP= 1.09D-10
 IDIUse=1 WtCom= 1.00D+00 WtEn= 0.00D+00
 Coeff-Com: -0.147D-02 0.420D-01 0.227D+00 0.221D+00 0.512D+00
 Coeff:     -0.147D-02 0.420D-01 0.227D+00 0.221D+00 0.512D+00
 Gap=     0.241 Goal=   None    Shift=    0.000
 RMSDP=1.50D-08 MaxDP=3.61D-07 DE=-8.31D-11 OVMax= 3.81D-07

 Cycle  12  Pass 1  IDiag  1:
 RMSU=  7.31D-09    CP:  1.00D+00  8.06D-01  8.27D-01  4.38D-01  5.12D-01
 E= -272.847824501704     Delta-E=       -0.000000000004 Rises=F Damp=F
 DIIS: error= 2.38D-08 at cycle   6 NSaved=   6.
 NSaved= 6 IEnMin= 6 EnMin= -272.847824501704     IErMin= 6 ErrMin= 2.38D-08
 ErrMax= 2.38D-08  0.00D+00 EMaxC= 1.00D-01 BMatC= 3.14D-13 BMatP= 3.18D-12
 IDIUse=1 WtCom= 1.00D+00 WtEn= 0.00D+00
 Coeff-Com: -0.686D-03 0.173D-01 0.941D-01 0.973D-01 0.304D+00 0.488D+00
 Coeff:     -0.686D-03 0.173D-01 0.941D-01 0.973D-01 0.304D+00 0.488D+00
 Gap=     0.241 Goal=   None    Shift=    0.000
 RMSDP=4.08D-09 MaxDP=1.18D-07 DE=-4.09D-12 OVMax= 1.18D-07

 SCF Done:  E(RB-LYP) =  -272.847824502     A.U. after   12 cycles
            NFock= 12  Conv=0.41D-08     -V/T= 2.0097
 KE= 2.702249573439D+02 PE=-1.146318719549D+03 EE= 3.472110671632D+02
 Leave Link  502 at Wed Sep  7 18:07:46 2022, MaxMem=   262144000 cpu:              64.1 elap:               8.1
 (Enter /dragofs/sw/campus/0.2/software/gaussian/16.gaussian/gaussian/g16_legacy/l701.exe)
 ... and contract with generalized density number  0.
 Compute integral first derivatives.
 R6Disp: Adding Grimme-D3 dispersion energy 1st derivatives to the gradient.
 Leave Link  701 at Wed Sep  7 18:07:46 2022, MaxMem=   262144000 cpu:               0.8 elap:               0.1
 (Enter /dragofs/sw/campus/0.2/software/gaussian/16.gaussian/gaussian/g16_legacy/l702.exe)
 L702 exits ... SP integral derivatives will be done elsewhere.
 Leave Link  702 at Wed Sep  7 18:07:46 2022, MaxMem=   262144000 cpu:               0.1 elap:               0.0
 (Enter /dragofs/sw/campus/0.2/software/gaussian/16.gaussian/gaussian/g16_legacy/l703.exe)
 Integral derivatives from FoFJK, PRISM(SPDF).
 Compute integral first derivatives, UseDBF=F ICtDFT=           0.
 Calling FoFJK, ICntrl=      2527 FMM=F ISym2X=0 I1Cent= 0 IOpClX= 0 NMat=1 NMatS=1 NMatT=0.
 FoFJK:  IHMeth= 1 ICntrl=    2527 DoSepK=F KAlg= 0 I1Cent=           0 FoldK=F
 IRaf=         0 NMat=       1 IRICut=       1 DoRegI=T DoRafI=F ISym2E= 0 IDoP0=0 IntGTp=1.
 FoFCou: FMM=F IPFlag=           0 FMFlag=      100000 FMFlg1=         800
         NFxFlg=           0 DoJE=F BraDBF=F KetDBF=F FulRan=T
         wScrn=  0.000000 ICntrl=      2527 IOpCl=  0 I1Cent=           0 NGrid=           0
         NMat0=    1 NMatS0=      1 NMatT0=    0 NMatD0=    1 NMtDS0=    0 NMtDT0=    0
 Symmetry not used in FoFCou.
 Leave Link  703 at Wed Sep  7 18:07:48 2022, MaxMem=   262144000 cpu:              15.0 elap:               1.9
 (Enter /dragofs/sw/campus/0.2/software/gaussian/16.gaussian/gaussian/g16_legacy/l716.exe)
 Dipole        = 9.57509461D-02-1.63760284D-01 5.24534840D-01
 ***** Axes restored to original set *****
 -------------------------------------------------------------------
 Center     Atomic                   Forces (Hartrees/Bohr)
 Number     Number              X              Y              Z
 -------------------------------------------------------------------
      1        6          -0.004216667   -0.023209722   -0.000557184
      2        1           0.002061512   -0.000385667    0.007099051
      3        1           0.004236960    0.011005258    0.002746970
[...]
 ! D29   D(10,8,11,14)         179.4947         -DE/DX =    0.0                 !
 ! D30   D(10,8,11,15)         -58.6614         -DE/DX =    0.0                 !
 ! D31   D(8,11,15,16)         -57.4239         -DE/DX =    0.0                 !
 ! D32   D(8,11,15,17)        -177.5328         -DE/DX =    0.0                 !
 ! D33   D(8,11,15,18)          63.0776         -DE/DX =    0.0                 !
 ! D34   D(13,11,15,16)       -178.6295         -DE/DX =    0.0                 !
 ! D35   D(13,11,15,17)         61.2617         -DE/DX =    0.0                 !
 ! D36   D(13,11,15,18)        -58.128          -DE/DX =    0.0                 !
 ! D37   D(14,11,15,16)         64.2463         -DE/DX =    0.0                 !
 ! D38   D(14,11,15,17)        -55.8626         -DE/DX =    0.0                 !
 ! D39   D(14,11,15,18)       -175.2522         -DE/DX =    0.0                 !
 --------------------------------------------------------------------------------
 Lowest energy point so far.  Saving SCF results.
 Largest change from initial coordinates is atom   12       0.257 Angstoms.
 GradGradGradGradGradGradGradGradGradGradGradGradGradGradGradGradGradGrad

 Leave Link  103 at Wed Sep  7 18:10:11 2022, MaxMem=   262144000 cpu:               0.3 elap:               0.1
 (Enter /dragofs/sw/campus/0.2/software/gaussian/16.gaussian/gaussian/g16_legacy/l202.exe)
                          Input orientation:                          
 ---------------------------------------------------------------------
 Center     Atomic      Atomic             Coordinates (Angstroms)
 Number     Number       Type             X           Y           Z
 ---------------------------------------------------------------------
      1          6           0        5.882008   15.061043   10.513072
      2          1           0        5.806136   14.934906   11.604713
      3          1           0        5.150693   14.379127   10.046820
      4          1           0        5.572278   16.091667   10.278633
      5          6           0        7.309838   14.788373    9.996667
      6          1           0        8.035141   15.446129   10.507781
      7          1           0        7.373795   15.030598    8.922540
      8          6           0        7.782574   13.330685   10.163592
      9          1           0        7.056843   12.662734    9.646021
     10          8           0        9.070559   13.267290    9.499857
     11          6           0        7.889049   12.880781   11.640675
     12          1           0        9.321823   12.325695    9.445949
     13          1           0        8.548409   13.590634   12.170957
     14          1           0        6.892262   12.952717   12.109170
     15          6           0        8.426033   11.443700   11.807237
     16          1           0        7.797816   10.715326   11.265465
     17          1           0        8.447041   11.142561   12.866132
     18          1           0        9.456702   11.357034   11.424719
 ---------------------------------------------------------------------
                    Distance matrix (angstroms):
                    1          2          3          4          5
     1  C    0.000000
     2  H    1.101521   0.000000
     3  H    1.103278   1.779193   0.000000
     4  H    1.101399   1.775182   1.778838   0.000000
     5  C    1.542634   2.206446   2.198160   2.190250   0.000000
     6  H    2.187304   2.536350   3.109826   2.556349   1.104511
     7  H    2.180859   3.108177   2.574996   2.492051   1.102956
     8  C    2.593921   2.925177   2.835431   3.538596   1.541492
     9  H    2.807828   3.250155   2.596161   3.789685   2.169171
    10  O    3.796183   4.227034   4.111046   4.563065   2.379212
    11  C    3.170685   2.925619   3.504855   4.187167   2.584019
    12  H    4.522521   4.881423   4.687851   5.379125   3.227407
    13  H    3.467042   3.106084   4.083890   4.323588   2.774198
    14  H    2.830756   2.315862   3.053031   3.866035   2.829607
    15  C    4.607830   4.369599   4.737474   5.664287   3.963698
    16  H    4.808499   4.678325   4.681431   5.901855   4.293912
    17  H    5.241258   4.790348   5.412004   6.281167   4.776925
    18  H    5.227735   5.114704   5.438140   6.230490   4.292138
                    6          7          8          9         10
     6  H    0.000000
     7  H    1.767210   0.000000
     8  C    2.158091   2.144065   0.000000
     9  H    3.073594   2.496130   1.113878   0.000000
    10  O    2.614448   2.514271   1.450334   2.107583   0.000000
    11  C    2.808167   3.503635   1.547748   2.172270   2.475571
    12  H    3.538381   3.374206   1.973399   2.298642   0.976033
    13  H    2.544103   3.742383   2.164160   3.075885   2.740796
    14  H    3.176118   3.834590   2.172738   2.485615   3.413568
    15  C    4.226207   4.721708   2.583858   2.834005   3.010797
    16  H    4.796968   4.928556   2.838038   2.638947   3.354067
    17  H    4.924650   5.640976   3.540215   3.822655   4.029274
    18  H    4.425190   4.908612   2.878966   3.260053   2.739211
                   11         12         13         14         15
    11  C    0.000000
    12  H    2.679138   0.000000
    13  H    1.104466   3.102242   0.000000
    14  H    1.103742   3.659053   1.775832   0.000000
    15  C    1.543146   2.675077   2.180962   2.172729   0.000000
    16  H    2.199613   2.868192   3.106557   2.556909   1.103948
    17  H    2.198752   3.723265   2.546881   2.503396   1.101083
    18  H    2.196811   2.207267   2.524052   3.096939   1.102774
                   16         17         18
    16  H    0.000000
    17  H    1.779369   0.000000
    18  H    1.785792   1.772875   0.000000
 Stoichiometry    C5H12O
 Framework group  C1[X(C5H12O)]
 Deg. of freedom    48
 Full point group                 C1      NOp   1
 RotChk:  IX=0 Diff= 1.36D-16
 Largest Abelian subgroup         C1      NOp   1
 Largest concise Abelian subgroup C1      NOp   1
                         Standard orientation:                         
 ---------------------------------------------------------------------
 Center     Atomic      Atomic             Coordinates (Angstroms)
 Number     Number       Type             X           Y           Z
 ---------------------------------------------------------------------
      1          6           0        2.310347   -0.806778    0.156907
      2          1           0        1.943801   -1.724354   -0.329968
      3          1           0        2.298245   -0.979603    1.246497
      4          1           0        3.360263   -0.670183   -0.146572
      5          6           0        1.466298    0.427169   -0.223457
      6          1           0        1.449882    0.557925   -1.320078
      7          1           0        1.926271    1.339715    0.191507
      8          6           0        0.008967    0.383869    0.277053
      9          1           0        0.019365    0.256508    1.383577
     10          8           0       -0.552069    1.676847   -0.064871
     11          6           0       -0.821407   -0.768938   -0.336980
     12          1           0       -1.418512    1.742573    0.379647
     13          1           0       -0.766246   -0.686092   -1.436953
     14          1           0       -0.356367   -1.731104   -0.060898
     15          6           0       -2.297139   -0.770106    0.114145
     16          1           0       -2.380600   -0.827585    1.213432
     17          1           0       -2.845505   -1.627204   -0.306644
     18          1           0       -2.816444    0.143343   -0.220581
 ---------------------------------------------------------------------
 Rotational constants (GHZ):           5.0552555           2.1991912           1.6600710
 Leave Link  202 at Wed Sep  7 18:10:11 2022, MaxMem=   262144000 cpu:               0.0 elap:               0.0
 (Enter /dragofs/sw/campus/0.2/software/gaussian/16.gaussian/gaussian/g16_legacy/l601.exe)
 Copying SCF densities to generalized density rwf, IOpCl= 0 IROHF=0.

 **********************************************************************

            Population analysis using the SCF density.

 **********************************************************************

 Orbital symmetries:
       Occupied  (A) (A) (A) (A) (A) (A) (A) (A) (A) (A) (A) (A)
                 (A) (A) (A) (A) (A) (A) (A) (A) (A) (A) (A) (A)
                 (A)
       Virtual   (A) (A) (A) (A) (A) (A) (A) (A) (A) (A) (A) (A)
                 (A) (A) (A) (A) (A) (A) (A) (A) (A) (A) (A) (A)
                 (A) (A) (A) (A) (A) (A) (A) (A) (A) (A) (A) (A)
                 (A) (A) (A) (A) (A) (A) (A) (A) (A) (A) (A) (A)
                 (A) (A) (A) (A) (A) (A) (A) (A) (A) (A) (A) (A)
                 (A) (A) (A) (A) (A) (A) (A) (A) (A) (A) (A) (A)
                 (A) (A) (A) (A) (A) (A) (A) (A) (A) (A) (A) (A)
                 (A) (A) (A) (A) (A) (A) (A) (A) (A) (A) (A) (A)
                 (A) (A) (A) (A) (A) (A) (A) (A) (A) (A) (A) (A)
                 (A) (A) (A) (A) (A) (A) (A) (A) (A) (A) (A) (A)
                 (A) (A) (A) (A) (A)
 The electronic state is 1-A.
 Alpha  occ. eigenvalues --  -18.78254  -9.96467  -9.91855  -9.91744  -9.91363
 Alpha  occ. eigenvalues --   -9.91346  -0.90167  -0.70001  -0.66476  -0.59346
 Alpha  occ. eigenvalues --   -0.54038  -0.49053  -0.43898  -0.39691  -0.38381
 Alpha  occ. eigenvalues --   -0.37419  -0.34705  -0.32327  -0.31394  -0.30173
 Alpha  occ. eigenvalues --   -0.29496  -0.28828  -0.27584  -0.25645  -0.20194
 Alpha virt. eigenvalues --    0.04622   0.07348   0.10052   0.10715   0.11264
 Alpha virt. eigenvalues --    0.13522   0.13881   0.14070   0.15527   0.16156
 Alpha virt. eigenvalues --    0.16619   0.17687   0.19037   0.21933   0.22733
 Alpha virt. eigenvalues --    0.23283   0.25067   0.46245   0.48535   0.49103
 Alpha virt. eigenvalues --    0.49797   0.51828   0.53845   0.55441   0.59343
 Alpha virt. eigenvalues --    0.61023   0.62934   0.63655   0.65048   0.72555
 Alpha virt. eigenvalues --    0.73125   0.75141   0.78365   0.80639   0.81155
 Alpha virt. eigenvalues --    0.81699   0.83235   0.84129   0.84760   0.87041
 Alpha virt. eigenvalues --    0.88790   0.89766   0.90972   0.94127   0.94366
 Alpha virt. eigenvalues --    0.99512   1.02542   1.11105   1.20219   1.24245
 Alpha virt. eigenvalues --    1.27639   1.30768   1.38104   1.44446   1.47345
 Alpha virt. eigenvalues --    1.51125   1.55845   1.56390   1.60485   1.62633
 Alpha virt. eigenvalues --    1.66089   1.72354   1.74551   1.78050   1.79773
 Alpha virt. eigenvalues --    1.82592   1.85190   1.91106   1.93853   1.98397
 Alpha virt. eigenvalues --    1.98857   1.99295   2.00056   2.01247   2.03939
 Alpha virt. eigenvalues --    2.05262   2.06870   2.07933   2.12836   2.18075
 Alpha virt. eigenvalues --    2.19593   2.21182   2.21484   2.26960   2.30813
 Alpha virt. eigenvalues --    2.32307   2.39113   2.40901   2.43148   2.47259
 Alpha virt. eigenvalues --    2.49499   2.55607   2.58931   2.60008   2.65378
 Alpha virt. eigenvalues --    2.65825   2.67077   2.68792   2.72198   2.74392
 Alpha virt. eigenvalues --    2.77731   2.79839   2.80663   2.82862   2.83638
 Alpha virt. eigenvalues --    2.89687   2.92022   3.08245   3.10507   3.17678
 Alpha virt. eigenvalues --    3.22551   3.25195   3.31262   3.35094   3.37564
 Alpha virt. eigenvalues --    3.38235   3.39828   3.45630   3.46403   3.85681
 Alpha virt. eigenvalues --    4.19640   4.30094   4.42673   4.53927   4.61090
          Condensed to atoms (all electrons):
               1          2          3          4          5          6
     1  C    4.915443   0.378543   0.377776   0.371558   0.353270  -0.035134
     2  H    0.378543   0.625534  -0.035684  -0.032121  -0.031809  -0.005569
     3  H    0.377776  -0.035684   0.632651  -0.032692  -0.034223   0.005610
     4  H    0.371558  -0.032121  -0.032692   0.628336  -0.022875  -0.002257
     5  C    0.353270  -0.031809  -0.034223  -0.022875   4.910305   0.365474
     6  H   -0.035134  -0.005569   0.005610  -0.002257   0.365474   0.653813
     7  H   -0.033397   0.005348  -0.004310  -0.004745   0.359098  -0.039536
     8  C   -0.034118  -0.005223  -0.005697   0.003851   0.380107  -0.032562
     9  H   -0.002882  -0.000276   0.006914  -0.000059  -0.050265   0.007602
    10  O    0.002660   0.000001   0.000006  -0.000053  -0.048681   0.002121
    11  C   -0.000878   0.001878  -0.001178   0.000061  -0.039819  -0.013043
    12  H   -0.000331   0.000003   0.000000   0.000004   0.007031  -0.000147
    13  H   -0.000267   0.000496   0.000114  -0.000031  -0.008004   0.007700
    14  H    0.000894   0.003958   0.000804  -0.000056  -0.004041   0.000307
    15  C    0.000098  -0.000139  -0.000022  -0.000002   0.004470   0.000034
    16  H   -0.000020   0.000009   0.000003  -0.000000   0.000061   0.000015
    17  H   -0.000001   0.000009   0.000000  -0.000000  -0.000137  -0.000001
    18  H   -0.000003   0.000001   0.000001   0.000000   0.000014   0.000019
               7          8          9         10         11         12
     1  C   -0.033397  -0.034118  -0.002882   0.002660  -0.000878  -0.000331
     2  H    0.005348  -0.005223  -0.000276   0.000001   0.001878   0.000003
     3  H   -0.004310  -0.005697   0.006914   0.000006  -0.001178   0.000000
     4  H   -0.004745   0.003851  -0.000059  -0.000053   0.000061   0.000004
     5  C    0.359098   0.380107  -0.050265  -0.048681  -0.039819   0.007031
     6  H   -0.039536  -0.032562   0.007602   0.002121  -0.013043  -0.000147
     7  H    0.654013  -0.027262  -0.006714   0.004070   0.006164  -0.000101
     8  C   -0.027262   4.726934   0.354101   0.227545   0.348241  -0.021034
     9  H   -0.006714   0.354101   0.749654  -0.036812  -0.070275  -0.006833
    10  O    0.004070   0.227545  -0.036812   8.148095  -0.049261   0.261828
    11  C    0.006164   0.348241  -0.070275  -0.049261   4.994092  -0.006649
    12  H   -0.000101  -0.021034  -0.006833   0.261828  -0.006649   0.467922
    13  H   -0.000039  -0.032650   0.007622   0.000834   0.362428  -0.000425
    14  H   -0.000147  -0.022086   0.000436   0.003794   0.336606  -0.000104
    15  C   -0.000194  -0.029378  -0.006902  -0.005272   0.364815   0.006789
    16  H    0.000001  -0.004318   0.006577  -0.000457  -0.035983   0.000304
    17  H    0.000002   0.003716  -0.000034   0.000223  -0.023614  -0.000242
    18  H   -0.000011  -0.006249   0.000562   0.007617  -0.035711   0.004338
              13         14         15         16         17         18
     1  C   -0.000267   0.000894   0.000098  -0.000020  -0.000001  -0.000003
     2  H    0.000496   0.003958  -0.000139   0.000009   0.000009   0.000001
     3  H    0.000114   0.000804  -0.000022   0.000003   0.000000   0.000001
     4  H   -0.000031  -0.000056  -0.000002  -0.000000  -0.000000   0.000000
     5  C   -0.008004  -0.004041   0.004470   0.000061  -0.000137   0.000014
     6  H    0.007700   0.000307   0.000034   0.000015  -0.000001   0.000019
     7  H   -0.000039  -0.000147  -0.000194   0.000001   0.000002  -0.000011
     8  C   -0.032650  -0.022086  -0.029378  -0.004318   0.003716  -0.006249
     9  H    0.007622   0.000436  -0.006902   0.006577  -0.000034   0.000562
    10  O    0.000834   0.003794  -0.005272  -0.000457   0.000223   0.007617
    11  C    0.362428   0.336606   0.364815  -0.035983  -0.023614  -0.035711
    12  H   -0.000425  -0.000104   0.006789   0.000304  -0.000242   0.004338
    13  H    0.654840  -0.036462  -0.039082   0.005722  -0.002420  -0.004731
    14  H   -0.036462   0.674235  -0.035434  -0.004333  -0.003044   0.006428
    15  C   -0.039082  -0.035434   4.933545   0.375104   0.371208   0.365451
    16  H    0.005722  -0.004333   0.375104   0.636182  -0.032250  -0.035852
    17  H   -0.002420  -0.003044   0.371208  -0.032250   0.623167  -0.030639
    18  H   -0.004731   0.006428   0.365451  -0.035852  -0.030639   0.640909
 Mulliken charges:
               1
     1  C   -0.293211
     2  H    0.095040
     3  H    0.089926
     4  H    0.091080
     5  C   -0.139976
     6  H    0.085551
     7  H    0.087759
     8  C    0.176080
     9  H    0.047582
    10  O   -0.518257
    11  C   -0.137875
    12  H    0.287646
    13  H    0.084356
    14  H    0.078245
    15  C   -0.305090
    16  H    0.089235
    17  H    0.094055
    18  H    0.087854
 Sum of Mulliken charges =  -0.00000
 Mulliken charges with hydrogens summed into heavy atoms:
               1
     1  C   -0.017164
     5  C    0.033334
     8  C    0.223662
    10  O   -0.230612
    11  C    0.024726
    15  C   -0.033946
 Electronic spatial extent (au):  <R**2>=            789.9609
 Charge=             -0.0000 electrons
 Dipole moment (field-independent basis, Debye):
    X=             -0.6394    Y=             -1.0152    Z=              0.7484  Tot=              1.4141
 Quadrupole moment (field-independent basis, Debye-Ang):
   XX=            -37.1844   YY=            -42.1533   ZZ=            -39.5269
   XY=             -1.1566   XZ=             -1.0074   YZ=              1.5629
 Traceless Quadrupole moment (field-independent basis, Debye-Ang):
   XX=              2.4372   YY=             -2.5318   ZZ=              0.0946
   XY=             -1.1566   XZ=             -1.0074   YZ=              1.5629
 Octapole moment (field-independent basis, Debye-Ang**2):
  XXX=             -4.9361  YYY=              2.7265  ZZZ=              0.1440  XYY=             -4.8104
  XXY=              7.7688  XXZ=              0.3691  XZZ=             -1.1091  YZZ=              2.5649
  YYZ=              2.1944  XYZ=             -1.9837
 Hexadecapole moment (field-independent basis, Debye-Ang**3):
 XXXX=           -690.3315 YYYY=           -277.3473 ZZZZ=            -88.5391 XXXY=             -9.9891
 XXXZ=             -1.6905 YYYX=             -9.0997 YYYZ=              5.7072 ZZZX=             -0.8519
 ZZZY=             -0.3101 XXYY=           -151.5987 XXZZ=           -131.3361 YYZZ=            -60.8030
 XXYZ=              3.9846 YYXZ=             -2.5473 ZZXY=             -1.8247
 N-N= 2.561765305281D+02 E-N=-1.146471917318D+03  KE= 2.701783609225D+02
 No NMR shielding tensors so no spin-rotation constants.
 Leave Link  601 at Wed Sep  7 18:10:11 2022, MaxMem=   262144000 cpu:               0.6 elap:               0.1
 (Enter /dragofs/sw/campus/0.2/software/gaussian/16.gaussian/gaussian/g16_legacy/l9999.exe)
 1\1\GINC-DRAGO31010008\FOpt\RBLYP\6-31G(d,p)\C5H12O1\JRAMOS\07-Sep-202
 2\0\\#p opt blyp/6-31G** EmpiricalDispersion=GD3\\Conformer number 012
 . Energy MM = 0.000 kcal/mol\\0,1\C,5.8820082059,15.0610425285,10.5130
 716848\H,5.8061364105,14.9349060255,11.6047131296\H,5.150692559,14.379
 1268367,10.0468198988\H,5.5722778873,16.0916666151,10.2786333588\C,7.3
 098380258,14.7883733564,9.9966670106\H,8.0351409714,15.4461287693,10.5
 077805381\H,7.3737950439,15.0305981882,8.922539736\C,7.7825740233,13.3
 306849316,10.1635922788\H,7.0568428235,12.6627341769,9.6460208609\O,9.
 0705588565,13.267290208,9.4998574442\C,7.8890490506,12.880781059,11.64
 06747984\H,9.321822565,12.3256954731,9.4459490603\H,8.5484090633,13.59
 06338567,12.170956716\H,6.8922621601,12.9527172057,12.1091703808\C,8.4
 260331999,11.443699619,11.8072371424\H,7.797816184,10.7153264358,11.26
 54654523\H,8.4470410156,11.1425608972,12.8661318853\H,9.4567019546,11.
 3570338174,11.4247186238\\Version=EM64L-G16RevA.03\State=1-A\HF=-272.8
 578551\RMSD=5.003e-09\RMSF=8.252e-06\Dipole=-0.2773024,-0.4291976,0.22
 00196\Quadrupole=-0.863895,1.4551062,-0.5912112,-1.6692911,0.7650996,1
 .0429319\PG=C01 [X(C5H12O1)]\\@


 "MATHEMATICS IS THE ART OF GIVING THE SAME NAME
 TO DIFFERENT THINGS."
                    - H. POINCARE
 Job cpu time:       0 days  0 hours 21 minutes 28.3 seconds.
 Elapsed time:       0 days  0 hours  2 minutes 45.3 seconds.
 File lengths (MBytes):  RWF=     17 Int=      0 D2E=      0 Chk=      3 Scr=      1
 Normal termination of Gaussian 16 at Wed Sep  7 18:10:11 2022.
