 Entering Gaussian System, Link 0=/dragofs/sw/campus/0.2/software/gaussian/16.gaussian/gaussian/g16_legacy/g16
 Input=MD_extract_011_gaussian.com
 Output=MD_extract_011_gaussian.log
 Initial command:
 /dragofs/sw/campus/0.2/software/gaussian/16.gaussian/gaussian/g16_legacy/l1.exe "/tmp/iem/jramos/5424/Gau-890536.inp" -scrdir="/tmp/iem/jramos/5424/"
 Entering Link 1 = /dragofs/sw/campus/0.2/software/gaussian/16.gaussian/gaussian/g16_legacy/l1.exe PID=    890537.
  
 Copyright (c) 1988,1990,1992,1993,1995,1998,2003,2009,2016,
            Gaussian, Inc.  All Rights Reserved.
  
 This is part of the Gaussian(R) 16 program.  It is based on
 the Gaussian(R) 09 system (copyright 2009, Gaussian, Inc.),
 the Gaussian(R) 03 system (copyright 2003, Gaussian, Inc.),
 the Gaussian(R) 98 system (copyright 1998, Gaussian, Inc.),
 the Gaussian(R) 94 system (copyright 1995, Gaussian, Inc.),
 the Gaussian 92(TM) system (copyright 1992, Gaussian, Inc.),
 the Gaussian 90(TM) system (copyright 1990, Gaussian, Inc.),
 the Gaussian 88(TM) system (copyright 1988, Gaussian, Inc.),
 the Gaussian 86(TM) system (copyright 1986, Carnegie Mellon
 University), and the Gaussian 82(TM) system (copyright 1983,
 Carnegie Mellon University). Gaussian is a federally registered
 trademark of Gaussian, Inc.
  
 This software contains proprietary and confidential information,
 including trade secrets, belonging to Gaussian, Inc.
  
 This software is provided under written license and may be
 used, copied, transmitted, or stored only in accord with that
 written license.
  
 The following legend is applicable only to US Government
 contracts under FAR:
  
                    RESTRICTED RIGHTS LEGEND
  
 Use, reproduction and disclosure by the US Government is
 subject to restrictions as set forth in subparagraphs (a)
 and (c) of the Commercial Computer Software - Restricted
 Rights clause in FAR 52.227-19.
  
 Gaussian, Inc.
 340 Quinnipiac St., Bldg. 40, Wallingford CT 06492
  
  
 ---------------------------------------------------------------
 Warning -- This program may not be used in any manner that
 competes with the business of Gaussian, Inc. or will provide
 assistance to any competitor of Gaussian, Inc.  The licensee
 of this program is prohibited from giving any competitor of
 Gaussian, Inc. access to this program.  By using this program,
 the user acknowledges that Gaussian, Inc. is engaged in the
 business of creating and licensing software in the field of
 computational chemistry and represents and warrants to the
 licensee that it is not a competitor of Gaussian, Inc. and that
 it will not use this program in any manner prohibited above.
 ---------------------------------------------------------------
  

 Cite this work as:
 Gaussian 16, Revision A.03,
 M. J. Frisch, G. W. Trucks, H. B. Schlegel, G. E. Scuseria, 
 M. A. Robb, J. R. Cheeseman, G. Scalmani, V. Barone, 
 G. A. Petersson, H. Nakatsuji, X. Li, M. Caricato, A. V. Marenich, 
 J. Bloino, B. G. Janesko, R. Gomperts, B. Mennucci, H. P. Hratchian, 
 J. V. Ortiz, A. F. Izmaylov, J. L. Sonnenberg, D. Williams-Young, 
 F. Ding, F. Lipparini, F. Egidi, J. Goings, B. Peng, A. Petrone, 
 T. Henderson, D. Ranasinghe, V. G. Zakrzewski, J. Gao, N. Rega, 
 G. Zheng, W. Liang, M. Hada, M. Ehara, K. Toyota, R. Fukuda, 
 J. Hasegawa, M. Ishida, T. Nakajima, Y. Honda, O. Kitao, H. Nakai, 
 T. Vreven, K. Throssell, J. A. Montgomery, Jr., J. E. Peralta, 
 F. Ogliaro, M. J. Bearpark, J. J. Heyd, E. N. Brothers, K. N. Kudin, 
 V. N. Staroverov, T. A. Keith, R. Kobayashi, J. Normand, 
 K. Raghavachari, A. P. Rendell, J. C. Burant, S. S. Iyengar, 
 J. Tomasi, M. Cossi, J. M. Millam, M. Klene, C. Adamo, R. Cammi, 
 J. W. Ochterski, R. L. Martin, K. Morokuma, O. Farkas, 
 J. B. Foresman, and D. J. Fox, Gaussian, Inc., Wallingford CT, 2016.
 
 ******************************************
 Gaussian 16:  EM64L-G16RevA.03 25-Dec-2016
                 7-Sep-2022 
 ******************************************
 %chk=MD_extract_011_gaussian.chk
 %nproc=8
 Will use up to    8 processors via shared memory.
 %mem=2000Mb
 -------------------------------------------
 #p opt blyp/6-31G** EmpiricalDispersion=GD3
 -------------------------------------------
 1/18=20,19=15,26=3,38=1/1,3;
 2/9=110,12=2,17=6,18=5,40=1/2;
 3/5=1,6=6,7=101,11=2,25=1,30=1,71=1,74=402,124=31/1,2,3;
 4//1;
 5/5=2,38=5/2;
 6/7=2,8=2,9=2,10=2,28=1/1;
 7//1,2,3,16;
 1/18=20,19=15,26=3/3(2);
 2/9=110/2;
 99//99;
 2/9=110/2;
 3/5=1,6=6,7=101,11=2,25=1,30=1,71=1,74=402,124=31/1,2,3;
 4/5=5,16=3,69=1/1;
 5/5=2,38=5/2;
 7//1,2,3,16;
 1/18=20,19=15,26=3/3(-5);
 2/9=110/2;
 6/7=2,8=2,9=2,10=2,19=2,28=1/1;
 99/9=1/99;
 Leave Link    1 at Wed Sep  7 18:07:25 2022, MaxMem=   262144000 cpu:               0.7 elap:               0.1
 (Enter /dragofs/sw/campus/0.2/software/gaussian/16.gaussian/gaussian/g16_legacy/l101.exe)
 ------------------------------------------------
 Conformer number 011. Energy MM = 0.000 kcal/mol
 ------------------------------------------------
 Symbolic Z-matrix:
 Charge =  0 Multiplicity = 1
 C                     14.786    3.687     10.598 
 H                     15.617    3.755     11.275 
 H                     14.591    2.616     10.434 
 H                     13.977    4.251     11.069 
 C                     15.051    4.345     9.277 
 H                     15.512    3.627     8.602 
 H                     15.742    5.146     9.463 
 C                     13.919    4.82      8.443 
 H                     13.478    5.578     9.043 
 O                     14.442    5.522     7.325 
 C                     12.9      3.973     8.072 
 H                     14.837    4.87      6.752 
 H                     12.471    3.643     9.023 
 H                     12.147    4.56      7.454 
 C                     13.099    2.747     7.184 
 H                     13.85     2.022     7.683 
 H                     13.403    2.951     6.132 
 H                     12.106    2.238     7.025 
 
 ITRead=  0  0  0  0  0  0  0  0  0  0  0  0  0  0  0  0  0  0
 MicOpt= -1 -1 -1 -1 -1 -1 -1 -1 -1 -1 -1 -1 -1 -1 -1 -1 -1 -1
 NAtoms=     18 NQM=       18 NQMF=       0 NMMI=      0 NMMIF=      0
                NMic=       0 NMicF=      0.
                    Isotopes and Nuclear Properties:
 (Nuclear quadrupole moments (NQMom) in fm**2, nuclear magnetic moments (NMagM)
  in nuclear magnetons)

  Atom         1           2           3           4           5           6           7           8           9          10
 IAtWgt=          12           1           1           1          12           1           1          12           1          16
 AtmWgt=  12.0000000   1.0078250   1.0078250   1.0078250  12.0000000   1.0078250   1.0078250  12.0000000   1.0078250  15.9949146
 NucSpn=           0           1           1           1           0           1           1           0           1           0
 AtZEff=  -0.0000000  -0.0000000  -0.0000000  -0.0000000  -0.0000000  -0.0000000  -0.0000000  -0.0000000  -0.0000000  -0.0000000
 NQMom=    0.0000000   0.0000000   0.0000000   0.0000000   0.0000000   0.0000000   0.0000000   0.0000000   0.0000000   0.0000000
 NMagM=    0.0000000   2.7928460   2.7928460   2.7928460   0.0000000   2.7928460   2.7928460   0.0000000   2.7928460   0.0000000
 AtZNuc=   6.0000000   1.0000000   1.0000000   1.0000000   6.0000000   1.0000000   1.0000000   6.0000000   1.0000000   8.0000000

  Atom        11          12          13          14          15          16          17          18
 IAtWgt=          12           1           1           1          12           1           1           1
 AtmWgt=  12.0000000   1.0078250   1.0078250   1.0078250  12.0000000   1.0078250   1.0078250   1.0078250
 NucSpn=           0           1           1           1           0           1           1           1
 AtZEff=  -0.0000000  -0.0000000  -0.0000000  -0.0000000  -0.0000000  -0.0000000  -0.0000000  -0.0000000
 NQMom=    0.0000000   0.0000000   0.0000000   0.0000000   0.0000000   0.0000000   0.0000000   0.0000000
 NMagM=    0.0000000   2.7928460   2.7928460   2.7928460   0.0000000   2.7928460   2.7928460   2.7928460
 AtZNuc=   6.0000000   1.0000000   1.0000000   1.0000000   6.0000000   1.0000000   1.0000000   1.0000000
 Leave Link  101 at Wed Sep  7 18:07:25 2022, MaxMem=   262144000 cpu:               1.0 elap:               0.1
 (Enter /dragofs/sw/campus/0.2/software/gaussian/16.gaussian/gaussian/g16_legacy/l103.exe)

 GradGradGradGradGradGradGradGradGradGradGradGradGradGradGradGradGradGrad
 Berny optimization.
 Initialization pass.
                           ----------------------------
                           !    Initial Parameters    !
                           ! (Angstroms and Degrees)  !
 --------------------------                            --------------------------
 ! Name  Definition              Value          Derivative Info.                !
 --------------------------------------------------------------------------------
 ! R1    R(1,2)                  1.074          estimate D2E/DX2                !
 ! R2    R(1,3)                  1.1009         estimate D2E/DX2                !
 ! R3    R(1,4)                  1.0929         estimate D2E/DX2                !
 ! R4    R(1,5)                  1.4994         estimate D2E/DX2                !
 ! R5    R(5,6)                  1.088          estimate D2E/DX2                !
 ! R6    R(5,7)                  1.0741         estimate D2E/DX2                !
 ! R7    R(5,8)                  1.4841         estimate D2E/DX2                !
 ! R8    R(8,9)                  1.0626         estimate D2E/DX2                !
 ! R9    R(8,10)                 1.4199         estimate D2E/DX2                !
 ! R10   R(8,11)                 1.376          estimate D2E/DX2                !
 ! R11   R(10,12)                0.9537         estimate D2E/DX2                !
 ! R12   R(11,13)                1.0942         estimate D2E/DX2                !
 ! R13   R(11,14)                1.1373         estimate D2E/DX2                !
 ! R14   R(11,15)                1.5268         estimate D2E/DX2                !
 ! R15   R(15,16)                1.157          estimate D2E/DX2                !
 ! R16   R(15,17)                1.1139         estimate D2E/DX2                !
 ! R17   R(15,18)                1.1271         estimate D2E/DX2                !
 ! A1    A(2,1,3)              107.0105         estimate D2E/DX2                !
 ! A2    A(2,1,4)              105.5699         estimate D2E/DX2                !
 ! A3    A(2,1,5)              113.0049         estimate D2E/DX2                !
 ! A4    A(3,1,4)              115.7937         estimate D2E/DX2                !
 ! A5    A(3,1,5)              109.0858         estimate D2E/DX2                !
 ! A6    A(4,1,5)              106.5018         estimate D2E/DX2                !
 ! A7    A(1,5,6)              109.3828         estimate D2E/DX2                !
 ! A8    A(1,5,7)              106.7621         estimate D2E/DX2                !
 ! A9    A(1,5,8)              120.0486         estimate D2E/DX2                !
 ! A10   A(6,5,7)              109.0864         estimate D2E/DX2                !
 ! A11   A(6,5,8)              100.7058         estimate D2E/DX2                !
 ! A12   A(7,5,8)              110.4464         estimate D2E/DX2                !
 ! A13   A(5,8,9)              103.1537         estimate D2E/DX2                !
 ! A14   A(5,8,10)             108.6476         estimate D2E/DX2                !
 ! A15   A(5,8,11)             121.2886         estimate D2E/DX2                !
 ! A16   A(9,8,10)             104.1691         estimate D2E/DX2                !
 ! A17   A(9,8,11)             106.4995         estimate D2E/DX2                !
 ! A18   A(10,8,11)            111.3947         estimate D2E/DX2                !
 ! A19   A(8,10,12)            106.7163         estimate D2E/DX2                !
 ! A20   A(8,11,13)            103.9837         estimate D2E/DX2                !
 ! A21   A(8,11,14)            108.609          estimate D2E/DX2                !
 ! A22   A(8,11,15)            123.6801         estimate D2E/DX2                !
 ! A23   A(13,11,14)           111.613          estimate D2E/DX2                !
 ! A24   A(13,11,15)           108.3249         estimate D2E/DX2                !
 ! A25   A(14,11,15)           100.6434         estimate D2E/DX2                !
 ! A26   A(11,15,16)           109.6896         estimate D2E/DX2                !
 ! A27   A(11,15,17)           115.9634         estimate D2E/DX2                !
 ! A28   A(11,15,18)           109.2586         estimate D2E/DX2                !
 ! A29   A(16,15,17)           110.1782         estimate D2E/DX2                !
 ! A30   A(16,15,18)           110.4701         estimate D2E/DX2                !
 ! A31   A(17,15,18)           100.948          estimate D2E/DX2                !
 ! D1    D(2,1,5,6)             88.3707         estimate D2E/DX2                !
 ! D2    D(2,1,5,7)            -29.5331         estimate D2E/DX2                !
 ! D3    D(2,1,5,8)           -156.0966         estimate D2E/DX2                !
 ! D4    D(3,1,5,6)            -30.5249         estimate D2E/DX2                !
 ! D5    D(3,1,5,7)           -148.4287         estimate D2E/DX2                !
 ! D6    D(3,1,5,8)             85.0078         estimate D2E/DX2                !
 ! D7    D(4,1,5,6)           -156.1674         estimate D2E/DX2                !
 ! D8    D(4,1,5,7)             85.9288         estimate D2E/DX2                !
 ! D9    D(4,1,5,8)            -40.6347         estimate D2E/DX2                !
 ! D10   D(1,5,8,9)             63.8312         estimate D2E/DX2                !
 ! D11   D(1,5,8,10)           173.9623         estimate D2E/DX2                !
 ! D12   D(1,5,8,11)           -55.0714         estimate D2E/DX2                !
 ! D13   D(6,5,8,9)           -176.1975         estimate D2E/DX2                !
 ! D14   D(6,5,8,10)           -66.0663         estimate D2E/DX2                !
 ! D15   D(6,5,8,11)            64.8999         estimate D2E/DX2                !
 ! D16   D(7,5,8,9)            -61.006          estimate D2E/DX2                !
 ! D17   D(7,5,8,10)            49.1252         estimate D2E/DX2                !
 ! D18   D(7,5,8,11)          -179.9086         estimate D2E/DX2                !
 ! D19   D(5,8,10,12)           71.4251         estimate D2E/DX2                !
 ! D20   D(9,8,10,12)         -179.1296         estimate D2E/DX2                !
 ! D21   D(11,8,10,12)         -64.7042         estimate D2E/DX2                !
 ! D22   D(5,8,11,13)           60.2583         estimate D2E/DX2                !
 ! D23   D(5,8,11,14)          179.2299         estimate D2E/DX2                !
 ! D24   D(5,8,11,15)          -63.4742         estimate D2E/DX2                !
 ! D25   D(9,8,11,13)          -56.9832         estimate D2E/DX2                !
 ! D26   D(9,8,11,14)           61.9883         estimate D2E/DX2                !
 ! D27   D(9,8,11,15)          179.2842         estimate D2E/DX2                !
 ! D28   D(10,8,11,13)        -169.9527         estimate D2E/DX2                !
 ! D29   D(10,8,11,14)         -50.9812         estimate D2E/DX2                !
 ! D30   D(10,8,11,15)          66.3148         estimate D2E/DX2                !
 ! D31   D(8,11,15,16)          59.4623         estimate D2E/DX2                !
 ! D32   D(8,11,15,17)         -66.1106         estimate D2E/DX2                !
 ! D33   D(8,11,15,18)        -179.3074         estimate D2E/DX2                !
 ! D34   D(13,11,15,16)        -62.3149         estimate D2E/DX2                !
 ! D35   D(13,11,15,17)        172.1122         estimate D2E/DX2                !
 ! D36   D(13,11,15,18)         58.9154         estimate D2E/DX2                !
 ! D37   D(14,11,15,16)       -179.5116         estimate D2E/DX2                !
 ! D38   D(14,11,15,17)         54.9155         estimate D2E/DX2                !
 ! D39   D(14,11,15,18)        -58.2813         estimate D2E/DX2                !
 --------------------------------------------------------------------------------
 Trust Radius=3.00D-01 FncErr=1.00D-07 GrdErr=1.00D-06 EigMax=2.50D+02 EigMin=1.00D-04
 Number of steps in this run=     97 maximum allowed number of steps=    108.
 GradGradGradGradGradGradGradGradGradGradGradGradGradGradGradGradGradGrad

 Leave Link  103 at Wed Sep  7 18:07:25 2022, MaxMem=   262144000 cpu:               0.1 elap:               0.0
 (Enter /dragofs/sw/campus/0.2/software/gaussian/16.gaussian/gaussian/g16_legacy/l202.exe)
                          Input orientation:                          
 ---------------------------------------------------------------------
 Center     Atomic      Atomic             Coordinates (Angstroms)
 Number     Number       Type             X           Y           Z
 ---------------------------------------------------------------------
      1          6           0       14.786000    3.687000   10.598000
      2          1           0       15.617000    3.755000   11.275000
      3          1           0       14.591000    2.616000   10.434000
      4          1           0       13.977000    4.251000   11.069000
      5          6           0       15.051000    4.345000    9.277000
      6          1           0       15.512000    3.627000    8.602000
      7          1           0       15.742000    5.146000    9.463000
      8          6           0       13.919000    4.820000    8.443000
      9          1           0       13.478000    5.578000    9.043000
     10          8           0       14.442000    5.522000    7.325000
     11          6           0       12.900000    3.973000    8.072000
     12          1           0       14.837000    4.870000    6.752000
     13          1           0       12.471000    3.643000    9.023000
     14          1           0       12.147000    4.560000    7.454000
     15          6           0       13.099000    2.747000    7.184000
     16          1           0       13.850000    2.022000    7.683000
     17          1           0       13.403000    2.951000    6.132000
     18          1           0       12.106000    2.238000    7.025000
 ---------------------------------------------------------------------
                    Distance matrix (angstroms):
                    1          2          3          4          5
     1  C    0.000000
     2  H    1.074018   0.000000
     3  H    1.100891   1.748507   0.000000
     4  H    1.092894   1.725703   1.858345   0.000000
     5  C    1.499410   2.158810   2.130655   2.091310   0.000000
     6  H    2.124780   2.678122   2.286173   2.971816   1.087966
     7  H    2.081068   2.287761   2.944239   2.548624   1.074094
     8  C    2.584454   3.469532   3.045206   2.687564   1.484118
     9  H    2.775747   3.588938   3.456457   2.472773   2.012306
    10  O    3.768035   4.483906   4.258276   3.981106   2.359346
    11  C    3.165354   4.205808   3.206240   3.196752   2.493433
    12  H    4.024153   4.723257   4.324136   4.445138   2.587865
    13  H    2.800319   3.870577   2.745915   2.612243   2.685837
    14  H    4.196568   5.223884   4.316558   4.063571   3.435516
    15  C    3.922367   4.908428   3.578509   4.257479   3.277889
    16  H    3.485046   4.362114   2.910312   4.055806   3.062608
    17  H    4.732815   5.656736   4.475575   5.137455   3.814468
    18  H    4.695565   5.717597   4.235492   4.889453   4.264268
                    6          7          8          9         10
     6  H    0.000000
     7  H    1.761131   0.000000
     8  C    1.996542   2.114239   0.000000
     9  H    2.852725   2.342802   1.062565   0.000000
    10  O    2.523223   2.530300   1.419950   1.970775   0.000000
    11  C    2.687594   3.374578   1.376013   1.962893   2.309800
    12  H    2.328771   2.871362   1.924761   2.756234   0.953655
    13  H    3.070045   3.626576   1.954081   2.181439   3.209157
    14  H    3.675815   4.159748   2.045900   2.309287   2.491809
    15  C    2.933887   4.234913   2.560236   3.407944   3.086123
    16  H    2.486530   4.062935   2.900201   3.825326   3.567720
    17  H    3.317493   4.624339   3.016643   3.921820   3.018743
    18  H    4.002135   5.255550   3.458962   4.136461   4.041231
                   11         12         13         14         15
    11  C    0.000000
    12  H    2.509776   0.000000
    13  H    1.094231   3.501561   0.000000
    14  H    1.137322   2.797321   1.845976   0.000000
    15  C    1.526834   2.777480   2.139888   2.065472   0.000000
    16  H    2.204591   3.154684   2.514932   3.064979   1.156990
    17  H    2.249687   2.474534   3.115344   2.431892   1.113883
    18  H    2.176435   3.802672   2.469667   2.361653   1.127125
                   16         17         18
    16  H    0.000000
    17  H    1.862378   0.000000
    18  H    1.876474   1.728591   0.000000
 Stoichiometry    C5H12O
 Framework group  C1[X(C5H12O)]
 Deg. of freedom    48
 Full point group                 C1      NOp   1
 Largest Abelian subgroup         C1      NOp   1
 Largest concise Abelian subgroup C1      NOp   1
                         Standard orientation:                         
 ---------------------------------------------------------------------
 Center     Atomic      Atomic             Coordinates (Angstroms)
 Number     Number       Type             X           Y           Z
 ---------------------------------------------------------------------
      1          6           0        2.159997   -0.764594    0.034323
      2          1           0        3.160304   -0.605261   -0.322766
      3          1           0        1.820485   -1.727379   -0.377670
      4          1           0        2.225312   -0.710108    1.123903
      5          6           0        1.207786    0.313245   -0.389691
      6          1           0        0.780527    0.057540   -1.357025
      7          1           0        1.783743    1.214588   -0.487323
      8          6           0       -0.024425    0.568058    0.397285
      9          1           0        0.351451    0.889100    1.337867
     10          8           0       -0.670124    1.717662   -0.129725
     11          6           0       -0.925791   -0.438042    0.659417
     12          1           0       -1.035066    1.464606   -0.973667
     13          1           0       -0.343359   -1.175376    1.220179
     14          1           0       -1.774464   -0.011161    1.284740
     15          6           0       -1.714314   -1.171610   -0.422864
     16          1           0       -0.982858   -1.684240   -1.158262
     17          1           0       -2.457499   -0.560214   -0.983762
     18          1           0       -2.387098   -1.935729    0.060762
 ---------------------------------------------------------------------
 Rotational constants (GHZ):           4.2975279           2.6733447           1.9423001
 Leave Link  202 at Wed Sep  7 18:07:25 2022, MaxMem=   262144000 cpu:               0.0 elap:               0.0
 (Enter /dragofs/sw/campus/0.2/software/gaussian/16.gaussian/gaussian/g16_legacy/l301.exe)
 Standard basis: 6-31G(d,p) (6D, 7F)
 Ernie: Thresh=  0.10000D-02 Tol=  0.10000D-05 Strict=F.
 There are   150 symmetry adapted cartesian basis functions of A   symmetry.
 There are   150 symmetry adapted basis functions of A   symmetry.
   150 basis functions,   252 primitive gaussians,   150 cartesian basis functions
    25 alpha electrons       25 beta electrons
       nuclear repulsion energy       265.2263490577 Hartrees.
 IExCor=  402 DFT=T Ex=B Corr=LYP ExCW=0 ScaHFX=  0.000000
 ScaDFX=  1.000000  1.000000  1.000000  1.000000 ScalE2=  1.000000  1.000000
 IRadAn=      5 IRanWt=     -1 IRanGd=            0 ICorTp=0 IEmpDi=131
 NAtoms=   18 NActive=   18 NUniq=   18 SFac= 1.00D+00 NAtFMM=   60 NAOKFM=F Big=F
 Integral buffers will be    131072 words long.
 Raffenetti 2 integral format.
 Two-electron integral symmetry is turned on.
 R6Disp:  Grimme-D3 Dispersion energy=       -0.0165771517 Hartrees.
 Nuclear repulsion after empirical dispersion term =      265.2097719060 Hartrees.
 Leave Link  301 at Wed Sep  7 18:07:25 2022, MaxMem=   262144000 cpu:               0.4 elap:               0.1
 (Enter /dragofs/sw/campus/0.2/software/gaussian/16.gaussian/gaussian/g16_legacy/l302.exe)
 NPDir=0 NMtPBC=     1 NCelOv=     1 NCel=       1 NClECP=     1 NCelD=      1
         NCelK=      1 NCelE2=     1 NClLst=     1 CellRange=     0.0.
 One-electron integrals computed using PRISM.
 One-electron integral symmetry used in STVInt
 NBasis=   150 RedAO= T EigKep=  2.90D-03  NBF=   150
 NBsUse=   150 1.00D-06 EigRej= -1.00D+00 NBFU=   150
 Precomputing XC quadrature grid using
 IXCGrd= 4 IRadAn=           5 IRanWt=          -1 IRanGd=           0 AccXCQ= 0.00D+00.
 Generated NRdTot=       0 NPtTot=           0 NUsed=           0 NTot=          32
 NSgBfM=   150   150   150   150   150 MxSgAt=    18 MxSgA2=    18.
 Leave Link  302 at Wed Sep  7 18:07:25 2022, MaxMem=   262144000 cpu:               1.1 elap:               0.2
 (Enter /dragofs/sw/campus/0.2/software/gaussian/16.gaussian/gaussian/g16_legacy/l303.exe)
 DipDrv:  MaxL=1.
 Leave Link  303 at Wed Sep  7 18:07:25 2022, MaxMem=   262144000 cpu:               0.3 elap:               0.1
 (Enter /dragofs/sw/campus/0.2/software/gaussian/16.gaussian/gaussian/g16_legacy/l401.exe)
 ExpMin= 1.61D-01 ExpMax= 5.48D+03 ExpMxC= 8.25D+02 IAcc=3 IRadAn=         5 AccDes= 0.00D+00
 Harris functional with IExCor=  402 and IRadAn=       5 diagonalized for initial guess.
 HarFok:  IExCor=  402 AccDes= 0.00D+00 IRadAn=         5 IDoV= 1 UseB2=F ITyADJ=14
 ICtDFT=  3500011 ScaDFX=  1.000000  1.000000  1.000000  1.000000
 FoFCou: FMM=F IPFlag=           0 FMFlag=      100000 FMFlg1=           0
         NFxFlg=           0 DoJE=T BraDBF=F KetDBF=T FulRan=T
         wScrn=  0.000000 ICntrl=       500 IOpCl=  0 I1Cent=   200000004 NGrid=           0
         NMat0=    1 NMatS0=      1 NMatT0=    0 NMatD0=    1 NMtDS0=    0 NMtDT0=    0
 Petite list used in FoFCou.
 Harris En= -273.057598341871    
 JPrj=0 DoOrth=F DoCkMO=F.
 Leave Link  401 at Wed Sep  7 18:07:26 2022, MaxMem=   262144000 cpu:               4.8 elap:               0.6
 (Enter /dragofs/sw/campus/0.2/software/gaussian/16.gaussian/gaussian/g16_legacy/l502.exe)
 Integral symmetry usage will be decided dynamically.
 Closed shell SCF:
 Using DIIS extrapolation, IDIIS=  1040.
 NGot=   262144000 LenX=   262095960 LenY=   262073019
 Requested convergence on RMS density matrix=1.00D-08 within 128 cycles.
 Requested convergence on MAX density matrix=1.00D-06.
 Requested convergence on             energy=1.00D-06.
 No special actions if energy rises.
 Fock matrices will be formed incrementally for  20 cycles.
 Integral accuracy reduced to 1.0D-05 until final iterations.

 Cycle   1  Pass 0  IDiag  1:
 FoFJK:  IHMeth= 1 ICntrl=     500 DoSepK=F KAlg= 0 I1Cent=           0 FoldK=F
 IRaf= 980000000 NMat=       1 IRICut=       1 DoRegI=T DoRafI=F ISym2E= 0 IDoP0=0 IntGTp=1.
 FoFCou: FMM=F IPFlag=           0 FMFlag=      100000 FMFlg1=           0
         NFxFlg=           0 DoJE=T BraDBF=F KetDBF=F FulRan=T
         wScrn=  0.000000 ICntrl=       500 IOpCl=  0 I1Cent=           0 NGrid=           0
         NMat0=    1 NMatS0=      1 NMatT0=    0 NMatD0=    1 NMtDS0=    0 NMtDT0=    0
 Symmetry not used in FoFCou.
 E= -272.546031967559    
 DIIS: error= 2.79D-02 at cycle   1 NSaved=   1.
 NSaved= 1 IEnMin= 1 EnMin= -272.546031967559     IErMin= 1 ErrMin= 2.79D-02
 ErrMax= 2.79D-02  0.00D+00 EMaxC= 1.00D-01 BMatC= 2.47D-01 BMatP= 2.47D-01
 IDIUse=3 WtCom= 7.21D-01 WtEn= 2.79D-01
 Coeff-Com:  0.100D+01
 Coeff-En:   0.100D+01
 Coeff:      0.100D+01
 Gap=     0.141 Goal=   None    Shift=    0.000
 GapD=    0.141 DampG=1.000 DampE=0.500 DampFc=0.5000 IDamp=-1.
 Damping current iteration by 5.00D-01
 RMSDP=1.02D-02 MaxDP=2.24D-01              OVMax= 2.07D-01

 Cycle   2  Pass 0  IDiag  1:
 RMSU=  5.05D-03    CP:  9.75D-01
 E= -272.623253638634     Delta-E=       -0.077221671075 Rises=F Damp=T
 DIIS: error= 8.17D-03 at cycle   2 NSaved=   2.
 NSaved= 2 IEnMin= 2 EnMin= -272.623253638634     IErMin= 2 ErrMin= 8.17D-03
 ErrMax= 8.17D-03  0.00D+00 EMaxC= 1.00D-01 BMatC= 2.48D-02 BMatP= 2.47D-01
 IDIUse=3 WtCom= 9.18D-01 WtEn= 8.17D-02
 Coeff-Com:  0.217D+00 0.783D+00
 Coeff-En:   0.344D+00 0.656D+00
 Coeff:      0.227D+00 0.773D+00
 Gap=     0.245 Goal=   None    Shift=    0.000
 RMSDP=1.96D-03 MaxDP=4.90D-02 DE=-7.72D-02 OVMax= 1.33D-01

 Cycle   3  Pass 0  IDiag  1:
 RMSU=  1.35D-03    CP:  9.80D-01  7.18D-01
 E= -272.810602264778     Delta-E=       -0.187348626144 Rises=F Damp=F
 DIIS: error= 1.97D-03 at cycle   3 NSaved=   3.
 NSaved= 3 IEnMin= 3 EnMin= -272.810602264778     IErMin= 3 ErrMin= 1.97D-03
 ErrMax= 1.97D-03  0.00D+00 EMaxC= 1.00D-01 BMatC= 2.04D-03 BMatP= 2.48D-02
 IDIUse=3 WtCom= 9.80D-01 WtEn= 1.97D-02
 Coeff-Com:  0.677D-01 0.263D+00 0.669D+00
 Coeff-En:   0.000D+00 0.000D+00 0.100D+01
 Coeff:      0.663D-01 0.258D+00 0.676D+00
 Gap=     0.237 Goal=   None    Shift=    0.000
 RMSDP=5.24D-04 MaxDP=1.04D-02 DE=-1.87D-01 OVMax= 1.29D-02

 Cycle   4  Pass 0  IDiag  1:
 RMSU=  4.24D-04    CP:  9.81D-01  7.30D-01  7.77D-01
 E= -272.811707270041     Delta-E=       -0.001105005263 Rises=F Damp=F
 DIIS: error= 1.74D-03 at cycle   4 NSaved=   4.
 NSaved= 4 IEnMin= 4 EnMin= -272.811707270041     IErMin= 4 ErrMin= 1.74D-03
 ErrMax= 1.74D-03  0.00D+00 EMaxC= 1.00D-01 BMatC= 8.83D-04 BMatP= 2.04D-03
 IDIUse=3 WtCom= 9.83D-01 WtEn= 1.74D-02
 Coeff-Com:  0.223D-01 0.871D-01 0.405D+00 0.486D+00
 Coeff-En:   0.000D+00 0.000D+00 0.276D+00 0.724D+00
 Coeff:      0.219D-01 0.856D-01 0.403D+00 0.490D+00
 Gap=     0.243 Goal=   None    Shift=    0.000
 RMSDP=2.51D-04 MaxDP=6.30D-03 DE=-1.11D-03 OVMax= 7.01D-03

 Cycle   5  Pass 0  IDiag  1:
 RMSU=  1.55D-04    CP:  9.80D-01  7.24D-01  8.27D-01  5.71D-01
 E= -272.812377391953     Delta-E=       -0.000670121912 Rises=F Damp=F
 DIIS: error= 5.03D-04 at cycle   5 NSaved=   5.
 NSaved= 5 IEnMin= 5 EnMin= -272.812377391953     IErMin= 5 ErrMin= 5.03D-04
 ErrMax= 5.03D-04  0.00D+00 EMaxC= 1.00D-01 BMatC= 7.21D-05 BMatP= 8.83D-04
 IDIUse=3 WtCom= 9.95D-01 WtEn= 5.03D-03
 Coeff-Com:  0.310D-02 0.106D-01 0.126D+00 0.269D+00 0.592D+00
 Coeff-En:   0.000D+00 0.000D+00 0.000D+00 0.287D-01 0.971D+00
 Coeff:      0.308D-02 0.105D-01 0.125D+00 0.268D+00 0.594D+00
 Gap=     0.241 Goal=   None    Shift=    0.000
 RMSDP=7.28D-05 MaxDP=1.62D-03 DE=-6.70D-04 OVMax= 1.58D-03

 Cycle   6  Pass 0  IDiag  1:
 RMSU=  3.00D-05    CP:  9.80D-01  7.26D-01  8.33D-01  6.10D-01  5.93D-01
 E= -272.812432953304     Delta-E=       -0.000055561351 Rises=F Damp=F
 DIIS: error= 1.11D-04 at cycle   6 NSaved=   6.
 NSaved= 6 IEnMin= 6 EnMin= -272.812432953304     IErMin= 6 ErrMin= 1.11D-04
 ErrMax= 1.11D-04  0.00D+00 EMaxC= 1.00D-01 BMatC= 5.83D-06 BMatP= 7.21D-05
 IDIUse=3 WtCom= 9.99D-01 WtEn= 1.11D-03
 Coeff-Com:  0.103D-02 0.201D-02 0.551D-01 0.135D+00 0.350D+00 0.458D+00
 Coeff-En:   0.000D+00 0.000D+00 0.000D+00 0.000D+00 0.000D+00 0.100D+01
 Coeff:      0.103D-02 0.201D-02 0.550D-01 0.134D+00 0.349D+00 0.458D+00
 Gap=     0.241 Goal=   None    Shift=    0.000
 RMSDP=1.71D-05 MaxDP=4.15D-04 DE=-5.56D-05 OVMax= 4.29D-04

 Cycle   7  Pass 0  IDiag  1:
 RMSU=  8.22D-06    CP:  9.80D-01  7.26D-01  8.31D-01  6.15D-01  6.28D-01
                    CP:  5.50D-01
 E= -272.812438101063     Delta-E=       -0.000005147759 Rises=F Damp=F
 DIIS: error= 2.23D-05 at cycle   7 NSaved=   7.
 NSaved= 7 IEnMin= 7 EnMin= -272.812438101063     IErMin= 7 ErrMin= 2.23D-05
 ErrMax= 2.23D-05  0.00D+00 EMaxC= 1.00D-01 BMatC= 1.96D-07 BMatP= 5.83D-06
 IDIUse=1 WtCom= 1.00D+00 WtEn= 0.00D+00
 Coeff-Com:  0.407D-03 0.205D-03 0.183D-01 0.466D-01 0.129D+00 0.222D+00
 Coeff-Com:  0.583D+00
 Coeff:      0.407D-03 0.205D-03 0.183D-01 0.466D-01 0.129D+00 0.222D+00
 Coeff:      0.583D+00
 Gap=     0.242 Goal=   None    Shift=    0.000
 RMSDP=4.28D-06 MaxDP=6.97D-05 DE=-5.15D-06 OVMax= 9.79D-05

 Initial convergence to 1.0D-05 achieved.  Increase integral accuracy.
 Cycle   8  Pass 1  IDiag  1:
 E= -272.812447580997     Delta-E=       -0.000009479934 Rises=F Damp=F
 DIIS: error= 7.41D-06 at cycle   1 NSaved=   1.
 NSaved= 1 IEnMin= 1 EnMin= -272.812447580997     IErMin= 1 ErrMin= 7.41D-06
 ErrMax= 7.41D-06  0.00D+00 EMaxC= 1.00D-01 BMatC= 1.88D-08 BMatP= 1.88D-08
 IDIUse=1 WtCom= 1.00D+00 WtEn= 0.00D+00
 Coeff-Com:  0.100D+01
 Coeff:      0.100D+01
 Gap=     0.242 Goal=   None    Shift=    0.000
 RMSDP=4.28D-06 MaxDP=6.97D-05 DE=-9.48D-06 OVMax= 4.37D-05

 Cycle   9  Pass 1  IDiag  1:
 RMSU=  3.53D-06    CP:  1.00D+00
 E= -272.812447584122     Delta-E=       -0.000000003126 Rises=F Damp=F
 DIIS: error= 5.96D-06 at cycle   2 NSaved=   2.
 NSaved= 2 IEnMin= 2 EnMin= -272.812447584122     IErMin= 2 ErrMin= 5.96D-06
 ErrMax= 5.96D-06  0.00D+00 EMaxC= 1.00D-01 BMatC= 1.74D-08 BMatP= 1.88D-08
 IDIUse=1 WtCom= 1.00D+00 WtEn= 0.00D+00
 Coeff-Com:  0.489D+00 0.511D+00
 Coeff:      0.489D+00 0.511D+00
 Gap=     0.242 Goal=   None    Shift=    0.000
 RMSDP=1.20D-06 MaxDP=2.24D-05 DE=-3.13D-09 OVMax= 2.77D-05

 Cycle  10  Pass 1  IDiag  1:
 RMSU=  9.13D-07    CP:  1.00D+00  7.78D-01
 E= -272.812447599709     Delta-E=       -0.000000015586 Rises=F Damp=F
 DIIS: error= 1.93D-06 at cycle   3 NSaved=   3.
 NSaved= 3 IEnMin= 3 EnMin= -272.812447599709     IErMin= 3 ErrMin= 1.93D-06
 ErrMax= 1.93D-06  0.00D+00 EMaxC= 1.00D-01 BMatC= 1.62D-09 BMatP= 1.74D-08
 IDIUse=1 WtCom= 1.00D+00 WtEn= 0.00D+00
 Coeff-Com:  0.789D-01 0.243D+00 0.678D+00
 Coeff:      0.789D-01 0.243D+00 0.678D+00
 Gap=     0.242 Goal=   None    Shift=    0.000
 RMSDP=3.06D-07 MaxDP=7.65D-06 DE=-1.56D-08 OVMax= 8.09D-06

 Cycle  11  Pass 1  IDiag  1:
 RMSU=  2.58D-07    CP:  1.00D+00  7.91D-01  8.29D-01
 E= -272.812447600849     Delta-E=       -0.000000001140 Rises=F Damp=F
 DIIS: error= 1.08D-06 at cycle   4 NSaved=   4.
 NSaved= 4 IEnMin= 4 EnMin= -272.812447600849     IErMin= 4 ErrMin= 1.08D-06
 ErrMax= 1.08D-06  0.00D+00 EMaxC= 1.00D-01 BMatC= 2.97D-10 BMatP= 1.62D-09
 IDIUse=1 WtCom= 1.00D+00 WtEn= 0.00D+00
 Coeff-Com:  0.522D-02 0.967D-01 0.394D+00 0.504D+00
 Coeff:      0.522D-02 0.967D-01 0.394D+00 0.504D+00
 Gap=     0.242 Goal=   None    Shift=    0.000
 RMSDP=1.47D-07 MaxDP=3.06D-06 DE=-1.14D-09 OVMax= 3.33D-06

 Cycle  12  Pass 1  IDiag  1:
 RMSU=  5.61D-08    CP:  1.00D+00  8.05D-01  8.26D-01  5.17D-01
 E= -272.812447601101     Delta-E=       -0.000000000252 Rises=F Damp=F
 DIIS: error= 2.82D-07 at cycle   5 NSaved=   5.
 NSaved= 5 IEnMin= 5 EnMin= -272.812447601101     IErMin= 5 ErrMin= 2.82D-07
 ErrMax= 2.82D-07  0.00D+00 EMaxC= 1.00D-01 BMatC= 2.02D-11 BMatP= 2.97D-10
 IDIUse=1 WtCom= 1.00D+00 WtEn= 0.00D+00
 Coeff-Com: -0.438D-03 0.497D-01 0.216D+00 0.312D+00 0.423D+00
 Coeff:     -0.438D-03 0.497D-01 0.216D+00 0.312D+00 0.423D+00
 Gap=     0.242 Goal=   None    Shift=    0.000
 RMSDP=3.45D-08 MaxDP=8.44D-07 DE=-2.52D-10 OVMax= 8.59D-07

 Cycle  13  Pass 1  IDiag  1:
 RMSU=  1.14D-08    CP:  1.00D+00  8.06D-01  8.23D-01  5.22D-01  4.29D-01
 E= -272.812447601123     Delta-E=       -0.000000000021 Rises=F Damp=F
 DIIS: error= 2.61D-08 at cycle   6 NSaved=   6.
 NSaved= 6 IEnMin= 6 EnMin= -272.812447601123     IErMin= 6 ErrMin= 2.61D-08
 ErrMax= 2.61D-08  0.00D+00 EMaxC= 1.00D-01 BMatC= 4.08D-13 BMatP= 2.02D-11
 IDIUse=1 WtCom= 1.00D+00 WtEn= 0.00D+00
 Coeff-Com: -0.526D-03 0.159D-01 0.702D-01 0.106D+00 0.193D+00 0.616D+00
 Coeff:     -0.526D-03 0.159D-01 0.702D-01 0.106D+00 0.193D+00 0.616D+00
 Gap=     0.242 Goal=   None    Shift=    0.000
 RMSDP=5.20D-09 MaxDP=9.68D-08 DE=-2.13D-11 OVMax= 1.34D-07

 SCF Done:  E(RB-LYP) =  -272.812447601     A.U. after   13 cycles
            NFock= 13  Conv=0.52D-08     -V/T= 2.0071
 KE= 2.708967976394D+02 PE=-1.164867399011D+03 EE= 3.559483818644D+02
 Leave Link  502 at Wed Sep  7 18:07:35 2022, MaxMem=   262144000 cpu:              67.4 elap:               8.5
 (Enter /dragofs/sw/campus/0.2/software/gaussian/16.gaussian/gaussian/g16_legacy/l601.exe)
 Copying SCF densities to generalized density rwf, IOpCl= 0 IROHF=0.

 **********************************************************************

            Population analysis using the SCF density.

 **********************************************************************

 Orbital symmetries:
       Occupied  (A) (A) (A) (A) (A) (A) (A) (A) (A) (A) (A) (A)
                 (A) (A) (A) (A) (A) (A) (A) (A) (A) (A) (A) (A)
                 (A)
       Virtual   (A) (A) (A) (A) (A) (A) (A) (A) (A) (A) (A) (A)
                 (A) (A) (A) (A) (A) (A) (A) (A) (A) (A) (A) (A)
                 (A) (A) (A) (A) (A) (A) (A) (A) (A) (A) (A) (A)
                 (A) (A) (A) (A) (A) (A) (A) (A) (A) (A) (A) (A)
                 (A) (A) (A) (A) (A) (A) (A) (A) (A) (A) (A) (A)
                 (A) (A) (A) (A) (A) (A) (A) (A) (A) (A) (A) (A)
                 (A) (A) (A) (A) (A) (A) (A) (A) (A) (A) (A) (A)
                 (A) (A) (A) (A) (A) (A) (A) (A) (A) (A) (A) (A)
                 (A) (A) (A) (A) (A) (A) (A) (A) (A) (A) (A) (A)
                 (A) (A) (A) (A) (A) (A) (A) (A) (A) (A) (A) (A)
                 (A) (A) (A) (A) (A)
 The electronic state is 1-A.
 Alpha  occ. eigenvalues --  -18.77402  -9.94281  -9.92619  -9.91060  -9.91016
 Alpha  occ. eigenvalues --   -9.90338  -0.91570  -0.72577  -0.67668  -0.61044
 Alpha  occ. eigenvalues --   -0.55442  -0.49536  -0.43340  -0.42480  -0.39199
 Alpha  occ. eigenvalues --   -0.37318  -0.36358  -0.34441  -0.31908  -0.30275
 Alpha  occ. eigenvalues --   -0.29781  -0.28701  -0.26625  -0.24183  -0.20147
 Alpha virt. eigenvalues --    0.04004   0.06709   0.08892   0.10610   0.11619
 Alpha virt. eigenvalues --    0.12349   0.13210   0.14912   0.14949   0.16052
 Alpha virt. eigenvalues --    0.18772   0.19554   0.19967   0.22152   0.24559
 Alpha virt. eigenvalues --    0.25831   0.33253   0.46900   0.47627   0.49754
 Alpha virt. eigenvalues --    0.50872   0.51371   0.54591   0.57151   0.59977
 Alpha virt. eigenvalues --    0.61999   0.64859   0.65771   0.69451   0.74718
 Alpha virt. eigenvalues --    0.75220   0.76048   0.76604   0.78749   0.79349
 Alpha virt. eigenvalues --    0.80417   0.81592   0.83486   0.86905   0.87613
 Alpha virt. eigenvalues --    0.89564   0.90880   0.91867   0.93474   0.96604
 Alpha virt. eigenvalues --    0.99551   1.03184   1.05329   1.14064   1.21726
 Alpha virt. eigenvalues --    1.28043   1.36731   1.41165   1.45843   1.47468
 Alpha virt. eigenvalues --    1.52259   1.55825   1.60003   1.61888   1.65112
 Alpha virt. eigenvalues --    1.68925   1.76110   1.79500   1.81153   1.83985
 Alpha virt. eigenvalues --    1.88096   1.92358   1.94427   1.94498   1.96508
 Alpha virt. eigenvalues --    1.97225   2.00606   2.03255   2.04597   2.05957
 Alpha virt. eigenvalues --    2.06731   2.09992   2.12283   2.14481   2.20789
 Alpha virt. eigenvalues --    2.22234   2.24793   2.26442   2.29285   2.33080
 Alpha virt. eigenvalues --    2.34760   2.38341   2.41780   2.45924   2.50819
 Alpha virt. eigenvalues --    2.54146   2.56742   2.59394   2.60898   2.63095
 Alpha virt. eigenvalues --    2.64521   2.66664   2.70393   2.71997   2.74333
 Alpha virt. eigenvalues --    2.81140   2.82164   2.86819   2.90429   2.95232
 Alpha virt. eigenvalues --    2.95749   3.02196   3.05685   3.14574   3.22525
 Alpha virt. eigenvalues --    3.26818   3.29287   3.32834   3.33289   3.37532
 Alpha virt. eigenvalues --    3.40340   3.42756   3.48644   3.55240   3.90947
 Alpha virt. eigenvalues --    4.20771   4.30811   4.49216   4.58726   4.66265
          Condensed to atoms (all electrons):
               1          2          3          4          5          6
     1  C    4.955675   0.373140   0.377723   0.381745   0.311405  -0.036034
     2  H    0.373140   0.626606  -0.035551  -0.036376  -0.015487   0.000060
     3  H    0.377723  -0.035551   0.624633  -0.025071  -0.028558  -0.013799
     4  H    0.381745  -0.036376  -0.025071   0.633207  -0.051802   0.007944
     5  C    0.311405  -0.015487  -0.028558  -0.051802   5.004723   0.351470
     6  H   -0.036034   0.000060  -0.013799   0.007944   0.351470   0.706485
     7  H   -0.044479  -0.011773   0.006795  -0.000022   0.376073  -0.037023
     8  C   -0.029093   0.003586  -0.003630  -0.009880   0.385497  -0.046353
     9  H   -0.005174  -0.000133  -0.000518   0.009842  -0.072647   0.012566
    10  O    0.004911  -0.000089  -0.000062   0.000017  -0.046326  -0.003357
    11  C    0.001635  -0.000035   0.002197  -0.002392  -0.054857  -0.018979
    12  H   -0.000148  -0.000002   0.000008   0.000052  -0.008927   0.010170
    13  H    0.002566  -0.000035   0.001047   0.002163  -0.004944   0.000018
    14  H   -0.000219   0.000004   0.000001  -0.000138   0.010088  -0.000432
    15  C   -0.000811  -0.000004   0.000173   0.000235  -0.012481   0.008471
    16  H   -0.000224  -0.000003   0.001388  -0.000064   0.004298   0.000876
    17  H   -0.000003   0.000001  -0.000009  -0.000001  -0.000363   0.000019
    18  H    0.000001  -0.000000  -0.000010   0.000000   0.000109  -0.000143
               7          8          9         10         11         12
     1  C   -0.044479  -0.029093  -0.005174   0.004911   0.001635  -0.000148
     2  H   -0.011773   0.003586  -0.000133  -0.000089  -0.000035  -0.000002
     3  H    0.006795  -0.003630  -0.000518  -0.000062   0.002197   0.000008
     4  H   -0.000022  -0.009880   0.009842   0.000017  -0.002392   0.000052
     5  C    0.376073   0.385497  -0.072647  -0.046326  -0.054857  -0.008927
     6  H   -0.037023  -0.046353   0.012566  -0.003357  -0.018979   0.010170
     7  H    0.644204  -0.026434  -0.010802   0.002744   0.009241  -0.001150
     8  C   -0.026434   4.660698   0.381059   0.260949   0.380547  -0.037320
     9  H   -0.010802   0.381059   0.719471  -0.044278  -0.059331   0.010829
    10  O    0.002744   0.260949  -0.044278   8.116141  -0.060764   0.279194
    11  C    0.009241   0.380547  -0.059331  -0.060764   4.978797  -0.011737
    12  H   -0.001150  -0.037320   0.010829   0.279194  -0.011737   0.472777
    13  H   -0.000109  -0.030055  -0.006646   0.006772   0.327495  -0.000103
    14  H   -0.000268  -0.030658  -0.015234   0.002063   0.364158  -0.001965
    15  C   -0.000084  -0.039642   0.009764  -0.005772   0.365340   0.008835
    16  H   -0.000080  -0.005022  -0.000201  -0.000233  -0.037697  -0.000275
    17  H   -0.000016  -0.004000  -0.000040   0.003843  -0.032599   0.002770
    18  H    0.000001   0.005032  -0.000239   0.000107  -0.021883  -0.000218
              13         14         15         16         17         18
     1  C    0.002566  -0.000219  -0.000811  -0.000224  -0.000003   0.000001
     2  H   -0.000035   0.000004  -0.000004  -0.000003   0.000001  -0.000000
     3  H    0.001047   0.000001   0.000173   0.001388  -0.000009  -0.000010
     4  H    0.002163  -0.000138   0.000235  -0.000064  -0.000001   0.000000
     5  C   -0.004944   0.010088  -0.012481   0.004298  -0.000363   0.000109
     6  H    0.000018  -0.000432   0.008471   0.000876   0.000019  -0.000143
     7  H   -0.000109  -0.000268  -0.000084  -0.000080  -0.000016   0.000001
     8  C   -0.030055  -0.030658  -0.039642  -0.005022  -0.004000   0.005032
     9  H   -0.006646  -0.015234   0.009764  -0.000201  -0.000040  -0.000239
    10  O    0.006772   0.002063  -0.005772  -0.000233   0.003843   0.000107
    11  C    0.327495   0.364158   0.365340  -0.037697  -0.032599  -0.021883
    12  H   -0.000103  -0.001965   0.008835  -0.000275   0.002770  -0.000218
    13  H    0.692221  -0.024043  -0.039033  -0.004358   0.006500  -0.005764
    14  H   -0.024043   0.675536  -0.059535   0.006790  -0.004957  -0.004757
    15  C   -0.039033  -0.059535   4.964593   0.364706   0.367239   0.370279
    16  H   -0.004358   0.006790   0.364706   0.644760  -0.030871  -0.024923
    17  H    0.006500  -0.004957   0.367239  -0.030871   0.647586  -0.041303
    18  H   -0.005764  -0.004757   0.370279  -0.024923  -0.041303   0.628513
 Mulliken charges:
               1
     1  C   -0.292616
     2  H    0.096091
     3  H    0.093243
     4  H    0.090540
     5  C   -0.147271
     6  H    0.058042
     7  H    0.093185
     8  C    0.184719
     9  H    0.071713
    10  O   -0.515859
    11  C   -0.129135
    12  H    0.277211
    13  H    0.076309
    14  H    0.083566
    15  C   -0.302271
    16  H    0.081132
    17  H    0.086205
    18  H    0.095197
 Sum of Mulliken charges =  -0.00000
 Mulliken charges with hydrogens summed into heavy atoms:
               1
     1  C   -0.012742
     5  C    0.003955
     8  C    0.256431
    10  O   -0.238648
    11  C    0.030740
    15  C   -0.039737
 Electronic spatial extent (au):  <R**2>=            715.9765
 Charge=             -0.0000 electrons
 Dipole moment (field-independent basis, Debye):
    X=              0.1207    Y=             -1.3469    Z=             -0.5810  Tot=              1.4718
 Quadrupole moment (field-independent basis, Debye-Ang):
   XX=            -37.9526   YY=            -44.3000   ZZ=            -38.4748
   XY=              1.0725   XZ=              1.2956   YZ=             -1.0525
 Traceless Quadrupole moment (field-independent basis, Debye-Ang):
   XX=              2.2898   YY=             -4.0575   ZZ=              1.7677
   XY=              1.0725   XZ=              1.2956   YZ=             -1.0525
 Octapole moment (field-independent basis, Debye-Ang**2):
  XXX=             -3.6234  YYY=             -0.4072  ZZZ=             -1.2910  XYY=              0.9791
  XXY=              3.9947  XXZ=             -1.6852  XZZ=             -2.0461  YZZ=              5.5727
  YYZ=             -2.3337  XYZ=              3.4384
 Hexadecapole moment (field-independent basis, Debye-Ang**3):
 XXXX=           -522.0935 YYYY=           -311.8593 ZZZZ=           -123.0642 XXXY=              0.0343
 XXXZ=             -0.9173 YYYX=              0.2422 YYYZ=             -4.7622 ZZZX=              4.1427
 ZZZY=             -3.5059 XXYY=           -139.2433 XXZZ=           -109.3387 YYZZ=            -65.6618
 XXYZ=             -3.9316 YYXZ=              1.2327 ZZXY=             -5.9829
 N-N= 2.652097719060D+02 E-N=-1.164867398525D+03  KE= 2.708967976394D+02
 No NMR shielding tensors so no spin-rotation constants.
 Leave Link  601 at Wed Sep  7 18:07:35 2022, MaxMem=   262144000 cpu:               0.6 elap:               0.1
 (Enter /dragofs/sw/campus/0.2/software/gaussian/16.gaussian/gaussian/g16_legacy/l701.exe)
 ... and contract with generalized density number  0.
 Compute integral first derivatives.
 R6Disp: Adding Grimme-D3 dispersion energy 1st derivatives to the gradient.
 Leave Link  701 at Wed Sep  7 18:07:35 2022, MaxMem=   262144000 cpu:               0.7 elap:               0.1
 (Enter /dragofs/sw/campus/0.2/software/gaussian/16.gaussian/gaussian/g16_legacy/l702.exe)
 L702 exits ... SP integral derivatives will be done elsewhere.
 Leave Link  702 at Wed Sep  7 18:07:35 2022, MaxMem=   262144000 cpu:               0.1 elap:               0.0
 (Enter /dragofs/sw/campus/0.2/software/gaussian/16.gaussian/gaussian/g16_legacy/l703.exe)
 Integral derivatives from FoFJK, PRISM(SPDF).
 Compute integral first derivatives, UseDBF=F ICtDFT=           0.
 Calling FoFJK, ICntrl=      2527 FMM=F ISym2X=0 I1Cent= 0 IOpClX= 0 NMat=1 NMatS=1 NMatT=0.
 FoFJK:  IHMeth= 1 ICntrl=    2527 DoSepK=F KAlg= 0 I1Cent=           0 FoldK=F
 IRaf=         0 NMat=       1 IRICut=       1 DoRegI=T DoRafI=F ISym2E= 0 IDoP0=0 IntGTp=1.
 FoFCou: FMM=F IPFlag=           0 FMFlag=      100000 FMFlg1=         800
         NFxFlg=           0 DoJE=F BraDBF=F KetDBF=F FulRan=T
         wScrn=  0.000000 ICntrl=      2527 IOpCl=  0 I1Cent=           0 NGrid=           0
         NMat0=    1 NMatS0=      1 NMatT0=    0 NMatD0=    1 NMtDS0=    0 NMtDT0=    0
 Symmetry not used in FoFCou.
 Leave Link  703 at Wed Sep  7 18:07:37 2022, MaxMem=   262144000 cpu:              15.8 elap:               2.0
 (Enter /dragofs/sw/campus/0.2/software/gaussian/16.gaussian/gaussian/g16_legacy/l716.exe)
 Dipole        = 4.74886427D-02-5.29904679D-01-2.28591725D-01
 ***** Axes restored to original set *****
 -------------------------------------------------------------------
 Center     Atomic                   Forces (Hartrees/Bohr)
 Number     Number              X              Y              Z
 -------------------------------------------------------------------
      1        6          -0.015894025   -0.009378100   -0.000371297
      2        1           0.016656268    0.000705687    0.008319411
      3        1          -0.011366971    0.000802634    0.008808233
      4        1          -0.010958803   -0.007984170    0.008922087
      5        6           0.028108869   -0.025519725   -0.008197829
      6        1           0.020867748   -0.008664088   -0.001583884
      7        1           0.009864757    0.016897002   -0.007388182
      8        6           0.060272413    0.071352292    0.016179273
      9        1          -0.016793240    0.027972760    0.013380323
     10        8           0.003111582    0.030788424   -0.007980212
     11        6          -0.099661704   -0.056273059   -0.039450424
     12        1           0.010930124   -0.015144299   -0.015267208
     13        1          -0.015934859   -0.006394196    0.001388476
     14        1           0.004902214   -0.002303942    0.021198557
     15        6           0.013818432   -0.034675071    0.001440877
     16        1          -0.019285975    0.011569450   -0.018141635
     17        1           0.007478297    0.004485879    0.009178831
     18        1           0.013884873    0.001762521    0.009564603
 -------------------------------------------------------------------
 Cartesian Forces:  Max     0.099661704 RMS     0.024929170
 Leave Link  716 at Wed Sep  7 18:07:37 2022, MaxMem=   262144000 cpu:               0.2 elap:               0.0
 (Enter /dragofs/sw/campus/0.2/software/gaussian/16.gaussian/gaussian/g16_legacy/l103.exe)

 GradGradGradGradGradGradGradGradGradGradGradGradGradGradGradGradGradGrad
 Berny optimization.
 FormGI is forming the generalized inverse of G from B-inverse, IUseBI=4.
 Internal  Forces:  Max     0.124569478 RMS     0.018158327
 Search for a local minimum.
 Step number   1 out of a maximum of   97
 All quantities printed in internal units (Hartrees-Bohrs-Radians)
 RMS Force = .18158D-01 SwitMx=.10000D-02 MixMth= 1
 Mixed Optimization -- RFO/linear search
 Second derivative matrix not updated -- first step.
 ITU=  0
     Eigenvalues ---    0.00411   0.00774   0.00976   0.01428   0.02406
     Eigenvalues ---    0.03377   0.03637   0.04129   0.05055   0.05132
     Eigenvalues ---    0.05485   0.05613   0.05765   0.05883   0.06205
     Eigenvalues ---    0.08778   0.09641   0.10364   0.13078   0.13461
     Eigenvalues ---    0.16000   0.16000   0.16000   0.16000   0.16000
     Eigenvalues ---    0.16000   0.16000   0.19524   0.20819   0.22136
     Eigenvalues ---    0.22318   0.28091   0.29718   0.29870   0.30852
     Eigenvalues ---    0.32192   0.32439   0.33584   0.34102   0.34328
     Eigenvalues ---    0.34480   0.35049   0.36717   0.36727   0.38186
     Eigenvalues ---    0.42468   0.49838   0.56861
 RFO step:  Lambda=-6.76096976D-02 EMin= 4.10989757D-03
 Linear search not attempted -- first point.
 Maximum step size (   0.300) exceeded in Quadratic search.
    -- Step size scaled by   0.725
 Iteration  1 RMS(Cart)=  0.06250026 RMS(Int)=  0.00164748
 Iteration  2 RMS(Cart)=  0.00294988 RMS(Int)=  0.00035355
 Iteration  3 RMS(Cart)=  0.00000504 RMS(Int)=  0.00035355
 Iteration  4 RMS(Cart)=  0.00000000 RMS(Int)=  0.00035355
 ITry= 1 IFail=0 DXMaxC= 1.85D-01 DCOld= 1.00D+10 DXMaxT= 3.00D-01 DXLimC= 3.00D+00 Rises=F
 Variable       Old X    -DE/DX   Delta X   Delta X   Delta X     New X
                                 (Linear)    (Quad)   (Total)
    R1        2.02960   0.01818   0.00000   0.03028   0.03028   2.05988
    R2        2.08038  -0.00008   0.00000  -0.00014  -0.00014   2.08024
    R3        2.06527   0.00784   0.00000   0.01377   0.01377   2.07904
    R4        2.83347   0.03339   0.00000   0.06171   0.06171   2.89519
    R5        2.05596   0.01554   0.00000   0.02694   0.02694   2.08289
    R6        2.02974   0.01767   0.00000   0.02944   0.02944   2.05919
    R7        2.80458   0.04382   0.00000   0.07770   0.07770   2.88228
    R8        2.00796   0.03448   0.00000   0.05558   0.05558   2.06354
    R9        2.68332   0.03121   0.00000   0.04593   0.04593   2.72925
   R10        2.60029   0.12457   0.00000   0.15946   0.15946   2.75975
   R11        1.80215   0.02405   0.00000   0.02739   0.02739   1.82954
   R12        2.06780   0.00938   0.00000   0.01654   0.01654   2.08434
   R13        2.14923  -0.01595   0.00000  -0.03155  -0.03155   2.11767
   R14        2.88530   0.01442   0.00000   0.02863   0.02863   2.91393
   R15        2.18640  -0.02759   0.00000  -0.05736  -0.05736   2.12903
   R16        2.10493  -0.00581   0.00000  -0.01080  -0.01080   2.09413
   R17        2.12996  -0.01438   0.00000  -0.02769  -0.02769   2.10226
    A1        1.86769  -0.00141   0.00000  -0.00260  -0.00240   1.86529
    A2        1.84254  -0.00143   0.00000   0.00021   0.00044   1.84298
    A3        1.97231  -0.00801   0.00000  -0.02247  -0.02225   1.95006
    A4        2.02098  -0.01664   0.00000  -0.05928  -0.05981   1.96117
    A5        1.90391   0.01169   0.00000   0.03507   0.03489   1.93880
    A6        1.85881   0.01445   0.00000   0.04511   0.04492   1.90373
    A7        1.90909  -0.00177   0.00000  -0.00700  -0.00622   1.90288
    A8        1.86335   0.01555   0.00000   0.04352   0.04280   1.90615
    A9        2.09524  -0.02112   0.00000  -0.05083  -0.05072   2.04453
   A10        1.90392  -0.00730   0.00000  -0.02572  -0.02547   1.87845
   A11        1.75765   0.01733   0.00000   0.06147   0.06181   1.81946
   A12        1.92765  -0.00312   0.00000  -0.02328  -0.02294   1.90471
   A13        1.80037   0.01006   0.00000   0.03540   0.03556   1.83593
   A14        1.89626   0.00369   0.00000   0.00601   0.00595   1.90221
   A15        2.11689  -0.02068   0.00000  -0.05646  -0.05625   2.06063
   A16        1.81809  -0.00521   0.00000  -0.01198  -0.01227   1.80582
   A17        1.85877   0.00256   0.00000   0.00759   0.00806   1.86682
   A18        1.94420   0.01109   0.00000   0.02542   0.02510   1.96931
   A19        1.86255   0.00309   0.00000   0.00983   0.00983   1.87238
   A20        1.81486   0.01884   0.00000   0.05730   0.05701   1.87187
   A21        1.89559   0.00026   0.00000  -0.00431  -0.00344   1.89215
   A22        2.15862  -0.02906   0.00000  -0.06923  -0.06879   2.08983
   A23        1.94801  -0.00997   0.00000  -0.03726  -0.03731   1.91070
   A24        1.89063  -0.00018   0.00000  -0.01058  -0.00982   1.88081
   A25        1.75656   0.01853   0.00000   0.05720   0.05732   1.81388
   A26        1.91444   0.01251   0.00000   0.03575   0.03584   1.95028
   A27        2.02394  -0.01090   0.00000  -0.03397  -0.03377   1.99017
   A28        1.90692  -0.00003   0.00000   0.00316   0.00319   1.91011
   A29        1.92297  -0.00391   0.00000  -0.01745  -0.01723   1.90574
   A30        1.92807  -0.00733   0.00000  -0.02516  -0.02525   1.90282
   A31        1.76188   0.00867   0.00000   0.03537   0.03551   1.79739
    D1        1.54236  -0.00438   0.00000  -0.02979  -0.02987   1.51249
    D2       -0.51545  -0.00347   0.00000  -0.01991  -0.02018  -0.53563
    D3       -2.72440   0.00323   0.00000   0.01266   0.01304  -2.71136
    D4       -0.53276  -0.00547   0.00000  -0.03608  -0.03597  -0.56873
    D5       -2.59057  -0.00457   0.00000  -0.02620  -0.02629  -2.61685
    D6        1.48367   0.00214   0.00000   0.00637   0.00694   1.49060
    D7       -2.72564  -0.00151   0.00000  -0.01387  -0.01416  -2.73980
    D8        1.49974  -0.00061   0.00000  -0.00399  -0.00447   1.49527
    D9       -0.70921   0.00609   0.00000   0.02858   0.02875  -0.68046
   D10        1.11406   0.00042   0.00000  -0.00336  -0.00297   1.11109
   D11        3.03622   0.00044   0.00000   0.00123   0.00177   3.03799
   D12       -0.96118   0.00123   0.00000  -0.00848  -0.00757  -0.96874
   D13       -3.07523  -0.00004   0.00000   0.00738   0.00697  -3.06825
   D14       -1.15307  -0.00002   0.00000   0.01197   0.01171  -1.14136
   D15        1.13272   0.00077   0.00000   0.00226   0.00238   1.13509
   D16       -1.06476  -0.00084   0.00000   0.00005  -0.00060  -1.06536
   D17        0.85740  -0.00082   0.00000   0.00464   0.00414   0.86153
   D18       -3.14000  -0.00003   0.00000  -0.00507  -0.00520   3.13799
   D19        1.24660  -0.00901   0.00000  -0.03218  -0.03225   1.21436
   D20       -3.12640   0.00140   0.00000   0.00458   0.00452  -3.12188
   D21       -1.12930   0.00659   0.00000   0.01848   0.01861  -1.11069
   D22        1.05171   0.00098   0.00000   0.01346   0.01316   1.06487
   D23        3.12815  -0.00057   0.00000  -0.00168  -0.00172   3.12643
   D24       -1.10783   0.00465   0.00000   0.02451   0.02519  -1.08265
   D25       -0.99455  -0.00125   0.00000  -0.00373  -0.00416  -0.99870
   D26        1.08190  -0.00280   0.00000  -0.01887  -0.01905   1.06285
   D27        3.12910   0.00242   0.00000   0.00732   0.00786   3.13696
   D28       -2.96623  -0.00192   0.00000  -0.00619  -0.00669  -2.97292
   D29       -0.88979  -0.00347   0.00000  -0.02132  -0.02157  -0.91136
   D30        1.15741   0.00175   0.00000   0.00486   0.00534   1.16275
   D31        1.03781   0.00112   0.00000   0.00210   0.00267   1.04049
   D32       -1.15385   0.00436   0.00000   0.02211   0.02278  -1.13107
   D33       -3.12950  -0.00011   0.00000  -0.00455  -0.00383  -3.13334
   D34       -1.08760  -0.00259   0.00000  -0.01468  -0.01507  -1.10267
   D35        3.00392   0.00065   0.00000   0.00533   0.00503   3.00895
   D36        1.02827  -0.00382   0.00000  -0.02133  -0.02158   1.00669
   D37       -3.13307  -0.00004   0.00000   0.00428   0.00386  -3.12921
   D38        0.95846   0.00320   0.00000   0.02429   0.02396   0.98242
   D39       -1.01720  -0.00127   0.00000  -0.00237  -0.00265  -1.01985
         Item               Value     Threshold  Converged?
 Maximum Force            0.124569     0.000450     NO 
 RMS     Force            0.018158     0.000300     NO 
 Maximum Displacement     0.184892     0.001800     NO 
 RMS     Displacement     0.063136     0.001200     NO 
 Predicted change in Energy=-3.461878D-02
 Lowest energy point so far.  Saving SCF results.
 GradGradGradGradGradGradGradGradGradGradGradGradGradGradGradGradGradGrad

 Leave Link  103 at Wed Sep  7 18:07:37 2022, MaxMem=   262144000 cpu:               0.2 elap:               0.0
 (Enter /dragofs/sw/campus/0.2/software/gaussian/16.gaussian/gaussian/g16_legacy/l202.exe)
                          Input orientation:                          
 ---------------------------------------------------------------------
 Center     Atomic      Atomic             Coordinates (Angstroms)
 Number     Number       Type             X           Y           Z
 ---------------------------------------------------------------------
      1          6           0       14.755331    3.666760   10.586856
      2          1           0       15.598982    3.696596   11.276462
      3          1           0       14.493159    2.606622   10.448407
      4          1           0       13.951924    4.236073   11.077584
      5          6           0       15.093398    4.330319    9.247965
      6          1           0       15.562240    3.584492    8.585532
      7          1           0       15.819156    5.125766    9.415084
      8          6           0       13.929121    4.879655    8.430020
      9          1           0       13.499323    5.675048    9.042424
     10          8           0       14.451891    5.583884    7.282567
     11          6           0       12.839609    3.969234    8.088179
     12          1           0       14.833978    4.921861    6.688386
     13          1           0       12.397014    3.618480    9.035628
     14          1           0       12.071105    4.539931    7.505508
     15          6           0       13.123395    2.730676    7.214587
     16          1           0       13.882360    2.048375    7.691813
     17          1           0       13.447717    2.971109    6.182578
     18          1           0       12.178297    2.166118    7.054417
 ---------------------------------------------------------------------
                    Distance matrix (angstroms):
                    1          2          3          4          5
     1  C    0.000000
     2  H    1.090043   0.000000
     3  H    1.100816   1.759705   0.000000
     4  H    1.100179   1.744531   1.828636   0.000000
     5  C    1.532067   2.184496   2.184601   2.158553   0.000000
     6  H    2.159437   2.693515   2.359972   3.037762   1.102220
     7  H    2.152550   2.357060   3.028550   2.653680   1.089674
     8  C    2.608770   3.505752   3.091715   2.724759   1.525236
     9  H    2.827728   3.648804   3.518485   2.533253   2.095619
    10  O    3.832202   4.563867   4.346072   4.058167   2.417798
    11  C    3.163048   4.225355   3.187730   3.200780   2.560284
    12  H    4.096283   4.810088   4.428798   4.529171   2.639823
    13  H    2.823172   3.908969   2.722798   2.639839   2.796836
    14  H    4.178781   5.232326   4.273721   4.048400   3.494904
    15  C    3.861563   4.853902   3.514148   4.227934   3.251830
    16  H    3.429654   4.302689   2.878112   4.031663   3.015873
    17  H    4.646660   5.576910   4.407164   5.080890   3.735279
    18  H    4.622895   5.645273   4.131803   4.859664   4.241843
                    6          7          8          9         10
     6  H    0.000000
     7  H    1.769093   0.000000
     8  C    2.090146   2.145497   0.000000
     9  H    2.972340   2.412926   1.091977   0.000000
    10  O    2.632141   2.574280   1.444257   2.003196   0.000000
    11  C    2.794299   3.460628   1.460396   2.062912   2.419826
    12  H    2.432712   2.906379   1.963120   2.808931   0.968151
    13  H    3.197249   3.758584   2.074770   2.333367   3.340442
    14  H    3.777214   4.247067   2.102941   2.385458   2.609154
    15  C    2.925143   4.224426   2.597033   3.485919   3.148066
    16  H    2.445483   4.023827   2.926309   3.888910   3.604396
    17  H    3.259085   4.551413   2.987523   3.936072   3.007479
    18  H    3.975823   5.252440   3.510121   4.243803   4.111254
                   11         12         13         14         15
    11  C    0.000000
    12  H    2.616186   0.000000
    13  H    1.102986   3.625899   0.000000
    14  H    1.120624   2.906377   1.815642   0.000000
    15  C    1.541986   2.829182   2.152212   2.113138   0.000000
    16  H    2.221291   3.188944   2.545058   3.085969   1.126635
    17  H    2.235478   2.446015   3.108530   2.471114   1.108167
    18  H    2.181106   3.844573   2.466250   2.418669   1.112470
                   16         17         18
    16  H    0.000000
    17  H    1.821577   0.000000
    18  H    1.823175   1.737683   0.000000
 Stoichiometry    C5H12O
 Framework group  C1[X(C5H12O)]
 Deg. of freedom    48
 Full point group                 C1      NOp   1
 RotChk:  IX=0 Diff= 4.14D-02
 Largest Abelian subgroup         C1      NOp   1
 Largest concise Abelian subgroup C1      NOp   1
                         Standard orientation:                         
 ---------------------------------------------------------------------
 Center     Atomic      Atomic             Coordinates (Angstroms)
 Number     Number       Type             X           Y           Z
 ---------------------------------------------------------------------
      1          6           0        2.158630   -0.743001    0.051083
      2          1           0        3.171282   -0.585687   -0.320377
      3          1           0        1.838411   -1.734493   -0.304163
      4          1           0        2.235136   -0.695764    1.147582
      5          6           0        1.201014    0.351163   -0.431623
      6          1           0        0.800399    0.068223   -1.418710
      7          1           0        1.753230    1.282512   -0.554243
      8          6           0       -0.039665    0.613505    0.415867
      9          1           0        0.339679    0.969295    1.376037
     10          8           0       -0.737986    1.760506   -0.115747
     11          6           0       -0.928595   -0.510085    0.698895
     12          1           0       -1.115516    1.497888   -0.967697
     13          1           0       -0.341577   -1.259198    1.256406
     14          1           0       -1.770621   -0.142359    1.340430
     15          6           0       -1.636685   -1.236577   -0.462372
     16          1           0       -0.898803   -1.675787   -1.191710
     17          1           0       -2.362342   -0.605992   -1.013570
     18          1           0       -2.273584   -2.052716   -0.055106
 ---------------------------------------------------------------------
 Rotational constants (GHZ):           3.9904857           2.6780614           1.9124968
 Leave Link  202 at Wed Sep  7 18:07:37 2022, MaxMem=   262144000 cpu:               0.0 elap:               0.0
 (Enter /dragofs/sw/campus/0.2/software/gaussian/16.gaussian/gaussian/g16_legacy/l301.exe)
 Standard basis: 6-31G(d,p) (6D, 7F)
 Ernie: Thresh=  0.10000D-02 Tol=  0.10000D-05 Strict=F.
 There are   150 symmetry adapted cartesian basis functions of A   symmetry.
 There are   150 symmetry adapted basis functions of A   symmetry.
   150 basis functions,   252 primitive gaussians,   150 cartesian basis functions
    25 alpha electrons       25 beta electrons
       nuclear repulsion energy       260.6446427913 Hartrees.
 IExCor=  402 DFT=T Ex=B Corr=LYP ExCW=0 ScaHFX=  0.000000
 ScaDFX=  1.000000  1.000000  1.000000  1.000000 ScalE2=  1.000000  1.000000
 IRadAn=      5 IRanWt=     -1 IRanGd=            0 ICorTp=0 IEmpDi=131
 NAtoms=   18 NActive=   18 NUniq=   18 SFac= 1.00D+00 NAtFMM=   60 NAOKFM=F Big=F
 Integral buffers will be    131072 words long.
 Raffenetti 2 integral format.
 Two-electron integral symmetry is turned on.
 R6Disp:  Grimme-D3 Dispersion energy=       -0.0168260087 Hartrees.
 Nuclear repulsion after empirical dispersion term =      260.6278167826 Hartrees.
 Leave Link  301 at Wed Sep  7 18:07:37 2022, MaxMem=   262144000 cpu:               0.4 elap:               0.1
 (Enter /dragofs/sw/campus/0.2/software/gaussian/16.gaussian/gaussian/g16_legacy/l302.exe)
 NPDir=0 NMtPBC=     1 NCelOv=     1 NCel=       1 NClECP=     1 NCelD=      1
         NCelK=      1 NCelE2=     1 NClLst=     1 CellRange=     0.0.
 One-electron integrals computed using PRISM.
 One-electron integral symmetry used in STVInt
 NBasis=   150 RedAO= T EigKep=  3.48D-03  NBF=   150
 NBsUse=   150 1.00D-06 EigRej= -1.00D+00 NBFU=   150
 Precomputing XC quadrature grid using
 IXCGrd= 4 IRadAn=           5 IRanWt=          -1 IRanGd=           0 AccXCQ= 0.00D+00.
 Generated NRdTot=       0 NPtTot=           0 NUsed=           0 NTot=          32
 NSgBfM=   150   150   150   150   150 MxSgAt=    18 MxSgA2=    18.
 Leave Link  302 at Wed Sep  7 18:07:37 2022, MaxMem=   262144000 cpu:               1.2 elap:               0.2
 (Enter /dragofs/sw/campus/0.2/software/gaussian/16.gaussian/gaussian/g16_legacy/l303.exe)
 DipDrv:  MaxL=1.
 Leave Link  303 at Wed Sep  7 18:07:37 2022, MaxMem=   262144000 cpu:               0.2 elap:               0.0
 (Enter /dragofs/sw/campus/0.2/software/gaussian/16.gaussian/gaussian/g16_legacy/l401.exe)
 Initial guess from the checkpoint file:  "MD_extract_011_gaussian.chk"
 B after Tr=     0.000000    0.000000   -0.000000
         Rot=    0.999891   -0.004520    0.002558   -0.013817 Ang=  -1.69 deg.
 Guess basis will be translated and rotated to current coordinates.
 JPrj=2 DoOrth=T DoCkMO=T.
 Generating alternative initial guess.
 ExpMin= 1.61D-01 ExpMax= 5.48D+03 ExpMxC= 8.25D+02 IAcc=2 IRadAn=         4 AccDes= 0.00D+00
 Harris functional with IExCor=  402 and IRadAn=       4 diagonalized for initial guess.
 HarFok:  IExCor=  402 AccDes= 0.00D+00 IRadAn=         4 IDoV= 1 UseB2=F ITyADJ=14
 ICtDFT=  3500011 ScaDFX=  1.000000  1.000000  1.000000  1.000000
 FoFCou: FMM=F IPFlag=           0 FMFlag=      100000 FMFlg1=           0
         NFxFlg=           0 DoJE=T BraDBF=F KetDBF=T FulRan=T
         wScrn=  0.000000 ICntrl=       500 IOpCl=  0 I1Cent=   200000004 NGrid=           0
         NMat0=    1 NMatS0=      1 NMatT0=    0 NMatD0=    1 NMtDS0=    0 NMtDT0=    0
 Petite list used in FoFCou.
 Harris En= -273.075820418274    
 Leave Link  401 at Wed Sep  7 18:07:38 2022, MaxMem=   262144000 cpu:               3.0 elap:               0.4
 (Enter /dragofs/sw/campus/0.2/software/gaussian/16.gaussian/gaussian/g16_legacy/l502.exe)
 Integral symmetry usage will be decided dynamically.
 Closed shell SCF:
 Using DIIS extrapolation, IDIIS=  1040.
 NGot=   262144000 LenX=   262095960 LenY=   262073019
 Requested convergence on RMS density matrix=1.00D-08 within 128 cycles.
 Requested convergence on MAX density matrix=1.00D-06.
 Requested convergence on             energy=1.00D-06.
 No special actions if energy rises.
 Fock matrices will be formed incrementally for  20 cycles.
 Integral accuracy reduced to 1.0D-05 until final iterations.

 Cycle   1  Pass 0  IDiag  1:
 FoFJK:  IHMeth= 1 ICntrl=     500 DoSepK=F KAlg= 0 I1Cent=           0 FoldK=F
 IRaf= 970000000 NMat=       1 IRICut=       1 DoRegI=T DoRafI=F ISym2E= 0 IDoP0=0 IntGTp=1.
 FoFCou: FMM=F IPFlag=           0 FMFlag=      100000 FMFlg1=           0
         NFxFlg=           0 DoJE=T BraDBF=F KetDBF=F FulRan=T
         wScrn=  0.000000 ICntrl=       500 IOpCl=  0 I1Cent=           0 NGrid=           0
         NMat0=    1 NMatS0=      1 NMatT0=    0 NMatD0=    1 NMtDS0=    0 NMtDT0=    0
 Symmetry not used in FoFCou.
 E= -272.840515032056    
 DIIS: error= 3.07D-03 at cycle   1 NSaved=   1.
 NSaved= 1 IEnMin= 1 EnMin= -272.840515032056     IErMin= 1 ErrMin= 3.07D-03
 ErrMax= 3.07D-03  0.00D+00 EMaxC= 1.00D-01 BMatC= 3.34D-03 BMatP= 3.34D-03
 IDIUse=3 WtCom= 9.69D-01 WtEn= 3.07D-02
 Coeff-Com:  0.100D+01
 Coeff-En:   0.100D+01
 Coeff:      0.100D+01
 Gap=     1.645 Goal=   None    Shift=    0.000
 GapD=    1.645 DampG=2.000 DampE=1.000 DampFc=2.0000 IDamp=-1.
 RMSDP=8.18D-04 MaxDP=1.51D-02              OVMax= 2.03D-02

 Cycle   2  Pass 0  IDiag  1:
 RMSU=  8.14D-04    CP:  9.96D-01
 E= -272.845409869070     Delta-E=       -0.004894837014 Rises=F Damp=F
 DIIS: error= 1.35D-03 at cycle   2 NSaved=   2.
 NSaved= 2 IEnMin= 2 EnMin= -272.845409869070     IErMin= 2 ErrMin= 1.35D-03
 ErrMax= 1.35D-03  0.00D+00 EMaxC= 1.00D-01 BMatC= 8.56D-04 BMatP= 3.34D-03
 IDIUse=3 WtCom= 9.86D-01 WtEn= 1.35D-02
 Coeff-Com:  0.267D+00 0.733D+00
 Coeff-En:   0.000D+00 0.100D+01
 Coeff:      0.264D+00 0.736D+00
 Gap=     0.244 Goal=   None    Shift=    0.000
 RMSDP=3.65D-04 MaxDP=9.58D-03 DE=-4.89D-03 OVMax= 1.01D-02

 Cycle   3  Pass 0  IDiag  1:
 RMSU=  3.44D-04    CP:  9.97D-01  8.53D-01
 E= -272.845408422339     Delta-E=        0.000001446731 Rises=F Damp=F
 DIIS: error= 1.48D-03 at cycle   3 NSaved=   3.
 NSaved= 3 IEnMin= 2 EnMin= -272.845409869070     IErMin= 2 ErrMin= 1.35D-03
 ErrMax= 1.48D-03  0.00D+00 EMaxC= 1.00D-01 BMatC= 8.81D-04 BMatP= 8.56D-04
 IDIUse=3 WtCom= 9.85D-01 WtEn= 1.48D-02
 Coeff-Com:  0.188D-01 0.500D+00 0.481D+00
 Coeff-En:   0.000D+00 0.500D+00 0.500D+00
 Coeff:      0.186D-01 0.500D+00 0.481D+00
 Gap=     0.245 Goal=   None    Shift=    0.000
 RMSDP=2.00D-04 MaxDP=4.49D-03 DE= 1.45D-06 OVMax= 5.16D-03

 Cycle   4  Pass 0  IDiag  1:
 RMSU=  5.58D-05    CP:  9.96D-01  9.25D-01  4.69D-01
 E= -272.846208803697     Delta-E=       -0.000800381358 Rises=F Damp=F
 DIIS: error= 3.96D-04 at cycle   4 NSaved=   4.
 NSaved= 4 IEnMin= 4 EnMin= -272.846208803697     IErMin= 4 ErrMin= 3.96D-04
 ErrMax= 3.96D-04  0.00D+00 EMaxC= 1.00D-01 BMatC= 2.51D-05 BMatP= 8.56D-04
 IDIUse=3 WtCom= 9.96D-01 WtEn= 3.96D-03
 Coeff-Com:  0.362D-02 0.266D+00 0.277D+00 0.453D+00
 Coeff-En:   0.000D+00 0.000D+00 0.000D+00 0.100D+01
 Coeff:      0.361D-02 0.265D+00 0.276D+00 0.455D+00
 Gap=     0.243 Goal=   None    Shift=    0.000
 RMSDP=3.98D-05 MaxDP=1.26D-03 DE=-8.00D-04 OVMax= 1.25D-03

 Cycle   5  Pass 0  IDiag  1:
 RMSU=  1.90D-05    CP:  9.97D-01  9.20D-01  4.69D-01  3.81D-01
 E= -272.846225748731     Delta-E=       -0.000016945033 Rises=F Damp=F
 DIIS: error= 8.31D-05 at cycle   5 NSaved=   5.
 NSaved= 5 IEnMin= 5 EnMin= -272.846225748731     IErMin= 5 ErrMin= 8.31D-05
 ErrMax= 8.31D-05  0.00D+00 EMaxC= 1.00D-01 BMatC= 2.08D-06 BMatP= 2.51D-05
 IDIUse=1 WtCom= 1.00D+00 WtEn= 0.00D+00
 Coeff-Com:  0.288D-03 0.835D-01 0.932D-01 0.261D+00 0.562D+00
 Coeff:      0.288D-03 0.835D-01 0.932D-01 0.261D+00 0.562D+00
 Gap=     0.244 Goal=   None    Shift=    0.000
 RMSDP=1.08D-05 MaxDP=2.78D-04 DE=-1.69D-05 OVMax= 2.94D-04

 Cycle   6  Pass 0  IDiag  1:
 RMSU=  4.27D-06    CP:  9.97D-01  9.22D-01  4.77D-01  4.72D-01  5.91D-01
 E= -272.846227443714     Delta-E=       -0.000001694984 Rises=F Damp=F
 DIIS: error= 8.46D-06 at cycle   6 NSaved=   6.
 NSaved= 6 IEnMin= 6 EnMin= -272.846227443714     IErMin= 6 ErrMin= 8.46D-06
 ErrMax= 8.46D-06  0.00D+00 EMaxC= 1.00D-01 BMatC= 2.99D-08 BMatP= 2.08D-06
 IDIUse=1 WtCom= 1.00D+00 WtEn= 0.00D+00
 Coeff-Com: -0.754D-04 0.213D-01 0.249D-01 0.835D-01 0.216D+00 0.655D+00
 Coeff:     -0.754D-04 0.213D-01 0.249D-01 0.835D-01 0.216D+00 0.655D+00
 Gap=     0.244 Goal=   None    Shift=    0.000
 RMSDP=1.77D-06 MaxDP=3.76D-05 DE=-1.69D-06 OVMax= 4.24D-05

 Initial convergence to 1.0D-05 achieved.  Increase integral accuracy.
 Cycle   7  Pass 1  IDiag  1:
 E= -272.846232615632     Delta-E=       -0.000005171918 Rises=F Damp=F
 DIIS: error= 9.54D-06 at cycle   1 NSaved=   1.
 NSaved= 1 IEnMin= 1 EnMin= -272.846232615632     IErMin= 1 ErrMin= 9.54D-06
 ErrMax= 9.54D-06  0.00D+00 EMaxC= 1.00D-01 BMatC= 1.61D-08 BMatP= 1.61D-08
 IDIUse=1 WtCom= 1.00D+00 WtEn= 0.00D+00
 Coeff-Com:  0.100D+01
 Coeff:      0.100D+01
 Gap=     0.244 Goal=   None    Shift=    0.000
 RMSDP=1.77D-06 MaxDP=3.76D-05 DE=-5.17D-06 OVMax= 4.21D-05

 Cycle   8  Pass 1  IDiag  1:
 RMSU=  2.61D-06    CP:  1.00D+00
 E= -272.846232617264     Delta-E=       -0.000000001632 Rises=F Damp=F
 DIIS: error= 6.55D-06 at cycle   2 NSaved=   2.
 NSaved= 2 IEnMin= 2 EnMin= -272.846232617264     IErMin= 2 ErrMin= 6.55D-06
 ErrMax= 6.55D-06  0.00D+00 EMaxC= 1.00D-01 BMatC= 1.43D-08 BMatP= 1.61D-08
 IDIUse=1 WtCom= 1.00D+00 WtEn= 0.00D+00
 Coeff-Com:  0.482D+00 0.518D+00
 Coeff:      0.482D+00 0.518D+00
 Gap=     0.244 Goal=   None    Shift=    0.000
 RMSDP=9.79D-07 MaxDP=3.26D-05 DE=-1.63D-09 OVMax= 3.06D-05

 Cycle   9  Pass 1  IDiag  1:
 RMSU=  8.87D-07    CP:  1.00D+00  8.44D-01
 E= -272.846232629725     Delta-E=       -0.000000012461 Rises=F Damp=F
 DIIS: error= 2.35D-06 at cycle   3 NSaved=   3.
 NSaved= 3 IEnMin= 3 EnMin= -272.846232629725     IErMin= 3 ErrMin= 2.35D-06
 ErrMax= 2.35D-06  0.00D+00 EMaxC= 1.00D-01 BMatC= 1.81D-09 BMatP= 1.43D-08
 IDIUse=1 WtCom= 1.00D+00 WtEn= 0.00D+00
 Coeff-Com:  0.198D-01 0.262D+00 0.718D+00
 Coeff:      0.198D-01 0.262D+00 0.718D+00
 Gap=     0.244 Goal=   None    Shift=    0.000
 RMSDP=3.27D-07 MaxDP=7.09D-06 DE=-1.25D-08 OVMax= 8.19D-06

 Cycle  10  Pass 1  IDiag  1:
 RMSU=  1.70D-07    CP:  1.00D+00  8.81D-01  7.07D-01
 E= -272.846232631317     Delta-E=       -0.000000001592 Rises=F Damp=F
 DIIS: error= 8.68D-07 at cycle   4 NSaved=   4.
 NSaved= 4 IEnMin= 4 EnMin= -272.846232631317     IErMin= 4 ErrMin= 8.68D-07
 ErrMax= 8.68D-07  0.00D+00 EMaxC= 1.00D-01 BMatC= 1.99D-10 BMatP= 1.81D-09
 IDIUse=1 WtCom= 1.00D+00 WtEn= 0.00D+00
 Coeff-Com:  0.505D-03 0.154D+00 0.457D+00 0.389D+00
 Coeff:      0.505D-03 0.154D+00 0.457D+00 0.389D+00
 Gap=     0.244 Goal=   None    Shift=    0.000
 RMSDP=1.02D-07 MaxDP=2.94D-06 DE=-1.59D-09 OVMax= 3.15D-06

 Cycle  11  Pass 1  IDiag  1:
 RMSU=  3.46D-08    CP:  1.00D+00  8.84D-01  7.34D-01  4.56D-01
 E= -272.846232631472     Delta-E=       -0.000000000155 Rises=F Damp=F
 DIIS: error= 1.58D-07 at cycle   5 NSaved=   5.
 NSaved= 5 IEnMin= 5 EnMin= -272.846232631472     IErMin= 5 ErrMin= 1.58D-07
 ErrMax= 1.58D-07  0.00D+00 EMaxC= 1.00D-01 BMatC= 4.88D-12 BMatP= 1.99D-10
 IDIUse=1 WtCom= 1.00D+00 WtEn= 0.00D+00
 Coeff-Com: -0.798D-03 0.637D-01 0.194D+00 0.201D+00 0.541D+00
 Coeff:     -0.798D-03 0.637D-01 0.194D+00 0.201D+00 0.541D+00
 Gap=     0.244 Goal=   None    Shift=    0.000
 RMSDP=1.76D-08 MaxDP=4.18D-07 DE=-1.55D-10 OVMax= 4.54D-07

 Cycle  12  Pass 1  IDiag  1:
 RMSU=  9.36D-09    CP:  1.00D+00  8.84D-01  7.34D-01  4.46D-01  5.75D-01
 E= -272.846232631478     Delta-E=       -0.000000000006 Rises=F Damp=F
 DIIS: error= 3.46D-08 at cycle   6 NSaved=   6.
 NSaved= 6 IEnMin= 6 EnMin= -272.846232631478     IErMin= 6 ErrMin= 3.46D-08
 ErrMax= 3.46D-08  0.00D+00 EMaxC= 1.00D-01 BMatC= 3.82D-13 BMatP= 4.88D-12
 IDIUse=1 WtCom= 1.00D+00 WtEn= 0.00D+00
 Coeff-Com: -0.491D-03 0.229D-01 0.711D-01 0.792D-01 0.287D+00 0.540D+00
 Coeff:     -0.491D-03 0.229D-01 0.711D-01 0.792D-01 0.287D+00 0.540D+00
 Gap=     0.244 Goal=   None    Shift=    0.000
 RMSDP=4.64D-09 MaxDP=1.61D-07 DE=-6.14D-12 OVMax= 1.44D-07

 SCF Done:  E(RB-LYP) =  -272.846232631     A.U. after   12 cycles
            NFock= 12  Conv=0.46D-08     -V/T= 2.0090
 KE= 2.704132558687D+02 PE=-1.155455210705D+03 EE= 3.515679054223D+02
 Leave Link  502 at Wed Sep  7 18:07:46 2022, MaxMem=   262144000 cpu:              65.0 elap:               8.2
 (Enter /dragofs/sw/campus/0.2/software/gaussian/16.gaussian/gaussian/g16_legacy/l701.exe)
 ... and contract with generalized density number  0.
 Compute integral first derivatives.
 R6Disp: Adding Grimme-D3 dispersion energy 1st derivatives to the gradient.
 Leave Link  701 at Wed Sep  7 18:07:46 2022, MaxMem=   262144000 cpu:               0.7 elap:               0.1
 (Enter /dragofs/sw/campus/0.2/software/gaussian/16.gaussian/gaussian/g16_legacy/l702.exe)
 L702 exits ... SP integral derivatives will be done elsewhere.
 Leave Link  702 at Wed Sep  7 18:07:46 2022, MaxMem=   262144000 cpu:               0.1 elap:               0.0
 (Enter /dragofs/sw/campus/0.2/software/gaussian/16.gaussian/gaussian/g16_legacy/l703.exe)
 Integral derivatives from FoFJK, PRISM(SPDF).
 Compute integral first derivatives, UseDBF=F ICtDFT=           0.
 Calling FoFJK, ICntrl=      2527 FMM=F ISym2X=0 I1Cent= 0 IOpClX= 0 NMat=1 NMatS=1 NMatT=0.
 FoFJK:  IHMeth= 1 ICntrl=    2527 DoSepK=F KAlg= 0 I1Cent=           0 FoldK=F
 IRaf=         0 NMat=       1 IRICut=       1 DoRegI=T DoRafI=F ISym2E= 0 IDoP0=0 IntGTp=1.
 FoFCou: FMM=F IPFlag=           0 FMFlag=      100000 FMFlg1=         800
         NFxFlg=           0 DoJE=F BraDBF=F KetDBF=F FulRan=T
         wScrn=  0.000000 ICntrl=      2527 IOpCl=  0 I1Cent=           0 NGrid=           0
         NMat0=    1 NMatS0=      1 NMatT0=    0 NMatD0=    1 NMtDS0=    0 NMtDT0=    0
 Symmetry not used in FoFCou.
 Leave Link  703 at Wed Sep  7 18:07:48 2022, MaxMem=   262144000 cpu:              15.3 elap:               1.9
 (Enter /dragofs/sw/campus/0.2/software/gaussian/16.gaussian/gaussian/g16_legacy/l716.exe)
 Dipole        = 4.78054934D-02-5.65816566D-01-2.42728434D-01
 ***** Axes restored to original set *****
 -------------------------------------------------------------------
 Center     Atomic                   Forces (Hartrees/Bohr)
 Number     Number              X              Y              Z
 -------------------------------------------------------------------
      1        6          -0.004577296    0.000644341   -0.000593892
      2        1           0.007578104   -0.000697152    0.002713376
      3        1          -0.007133600    0.001626332    0.003228145
      4        1          -0.005084561   -0.005092796    0.002718022
[...]
 ! D29   D(10,8,11,14)         -54.3713         -DE/DX =    0.0                 !
 ! D30   D(10,8,11,15)          67.1503         -DE/DX =    0.0                 !
 ! D31   D(8,11,15,16)          64.6081         -DE/DX =    0.0                 !
 ! D32   D(8,11,15,17)         -56.1388         -DE/DX =    0.0                 !
 ! D33   D(8,11,15,18)        -175.1912         -DE/DX =    0.0                 !
 ! D34   D(13,11,15,16)        -58.5471         -DE/DX =    0.0                 !
 ! D35   D(13,11,15,17)       -179.294          -DE/DX =    0.0                 !
 ! D36   D(13,11,15,18)         61.6536         -DE/DX =    0.0                 !
 ! D37   D(14,11,15,16)       -175.1997         -DE/DX =    0.0                 !
 ! D38   D(14,11,15,17)         64.0535         -DE/DX =    0.0                 !
 ! D39   D(14,11,15,18)        -54.999          -DE/DX =    0.0                 !
 --------------------------------------------------------------------------------
 Lowest energy point so far.  Saving SCF results.
 Largest change from initial coordinates is atom    3       0.386 Angstoms.
 GradGradGradGradGradGradGradGradGradGradGradGradGradGradGradGradGradGrad

 Leave Link  103 at Wed Sep  7 18:09:29 2022, MaxMem=   262144000 cpu:               0.1 elap:               0.0
 (Enter /dragofs/sw/campus/0.2/software/gaussian/16.gaussian/gaussian/g16_legacy/l202.exe)
                          Input orientation:                          
 ---------------------------------------------------------------------
 Center     Atomic      Atomic             Coordinates (Angstroms)
 Number     Number       Type             X           Y           Z
 ---------------------------------------------------------------------
      1          6           0       14.736637    3.679502   10.555180
      2          1           0       15.639881    3.361556   11.099466
      3          1           0       14.096098    2.792324   10.427546
      4          1           0       14.193317    4.393132   11.197061
      5          6           0       15.102585    4.319074    9.199093
      6          1           0       15.599472    3.566600    8.557963
      7          1           0       15.836506    5.129131    9.346037
      8          6           0       13.903674    4.925035    8.429978
      9          1           0       13.475114    5.737357    9.044758
     10          8           0       14.362849    5.600060    7.231557
     11          6           0       12.760679    3.926547    8.105744
     12          1           0       14.859505    4.938356    6.710950
     13          1           0       12.308073    3.575626    9.049895
     14          1           0       11.978997    4.492978    7.572387
     15          6           0       13.188997    2.713985    7.251886
     16          1           0       13.908864    2.069559    7.781718
     17          1           0       13.656519    3.038282    6.306705
     18          1           0       12.320232    2.091895    6.986077
 ---------------------------------------------------------------------
                    Distance matrix (angstroms):
                    1          2          3          4          5
     1  C    0.000000
     2  H    1.101449   0.000000
     3  H    1.101665   1.777293   0.000000
     4  H    1.102939   1.779388   1.778818   0.000000
     5  C    1.543354   2.194754   2.202970   2.196390   0.000000
     6  H    2.178556   2.550082   2.520908   3.102461   1.106418
     7  H    2.184757   2.497498   3.107949   2.582257   1.102917
     8  C    2.600319   3.547541   2.928440   2.832590   1.547939
     9  H    2.847381   3.814771   3.312242   2.637265   2.164257
    10  O    3.856776   4.647841   4.262497   4.148570   2.461571
    11  C    3.156766   4.191824   2.908706   3.438952   2.614194
    12  H    4.046963   4.728040   4.359051   4.567961   2.575549
    13  H    2.859124   3.917590   2.389250   2.972000   2.895560
    14  H    4.142870   5.207925   3.940339   4.248699   3.526077
    15  C    3.773482   4.607609   3.303602   4.403704   3.166978
    16  H    3.311980   3.958931   2.749155   4.140589   2.914487
    17  H    4.430277   5.196998   4.151512   5.102877   3.478138
    18  H    4.593256   5.436183   3.935481   5.151362   4.195146
                    6          7          8          9         10
     6  H    0.000000
     7  H    1.765998   0.000000
     8  C    2.176570   2.148641   0.000000
     9  H    3.076045   2.457006   1.105209   0.000000
    10  O    2.724618   2.620012   1.450073   2.023517   0.000000
    11  C    2.897034   3.527781   1.551947   2.161295   2.476246
    12  H    2.416758   2.816844   1.966938   2.828710   0.977523
    13  H    3.327970   3.866641   2.179711   2.456642   3.409807
    14  H    3.864890   4.293122   2.150934   2.440230   2.650386
    15  C    2.871094   4.150627   2.605265   3.526618   3.115730
    16  H    2.387853   3.940035   2.928141   3.903351   3.601835
    17  H    3.020322   4.285035   2.851177   3.849006   2.813709
    18  H    3.924155   5.211372   3.552298   4.342962   4.066911
                   11         12         13         14         15
    11  C    0.000000
    12  H    2.715562   0.000000
    13  H    1.104273   3.719879   0.000000
    14  H    1.102878   3.039369   1.769987   0.000000
    15  C    1.543645   2.833908   2.179745   2.175232   0.000000
    16  H    2.207199   3.206283   2.537527   3.105023   1.101915
    17  H    2.197291   2.284922   3.103568   2.555812   1.103228
    18  H    2.193992   3.824387   2.541841   2.495075   1.101091
                   16         17         18
    16  H    0.000000
    17  H    1.782628   0.000000
    18  H    1.776878   1.772810   0.000000
 Stoichiometry    C5H12O
 Framework group  C1[X(C5H12O)]
 Deg. of freedom    48
 Full point group                 C1      NOp   1
 RotChk:  IX=0 Diff= 2.04D-16
 Largest Abelian subgroup         C1      NOp   1
 Largest concise Abelian subgroup C1      NOp   1
                         Standard orientation:                         
 ---------------------------------------------------------------------
 Center     Atomic      Atomic             Coordinates (Angstroms)
 Number     Number       Type             X           Y           Z
 ---------------------------------------------------------------------
      1          6           0        2.159619   -0.663055    0.072592
      2          1           0        3.057036   -0.729011   -0.562610
      3          1           0        1.705965   -1.666207    0.111957
      4          1           0        2.490384   -0.406720    1.093064
      5          6           0        1.170856    0.389487   -0.471874
      6          1           0        0.816981    0.080434   -1.473582
      7          1           0        1.683135    1.356031   -0.612548
      8          6           0       -0.053998    0.651604    0.437600
      9          1           0        0.311852    1.047009    1.402636
     10          8           0       -0.858447    1.732035   -0.099283
     11          6           0       -0.925102   -0.596734    0.739877
     12          1           0       -1.103167    1.472673   -1.009445
     13          1           0       -0.327727   -1.323413    1.318234
     14          1           0       -1.744927   -0.266145    1.399376
     15          6           0       -1.516487   -1.285804   -0.508436
     16          1           0       -0.732431   -1.708685   -1.157008
     17          1           0       -2.108668   -0.576586   -1.111300
     18          1           0       -2.190189   -2.108656   -0.223059
 ---------------------------------------------------------------------
 Rotational constants (GHZ):           3.8739641           2.7020945           1.9374825
 Leave Link  202 at Wed Sep  7 18:09:29 2022, MaxMem=   262144000 cpu:               0.0 elap:               0.0
 (Enter /dragofs/sw/campus/0.2/software/gaussian/16.gaussian/gaussian/g16_legacy/l601.exe)
 Copying SCF densities to generalized density rwf, IOpCl= 0 IROHF=0.

 **********************************************************************

            Population analysis using the SCF density.

 **********************************************************************

 Orbital symmetries:
       Occupied  (A) (A) (A) (A) (A) (A) (A) (A) (A) (A) (A) (A)
                 (A) (A) (A) (A) (A) (A) (A) (A) (A) (A) (A) (A)
                 (A)
       Virtual   (A) (A) (A) (A) (A) (A) (A) (A) (A) (A) (A) (A)
                 (A) (A) (A) (A) (A) (A) (A) (A) (A) (A) (A) (A)
                 (A) (A) (A) (A) (A) (A) (A) (A) (A) (A) (A) (A)
                 (A) (A) (A) (A) (A) (A) (A) (A) (A) (A) (A) (A)
                 (A) (A) (A) (A) (A) (A) (A) (A) (A) (A) (A) (A)
                 (A) (A) (A) (A) (A) (A) (A) (A) (A) (A) (A) (A)
                 (A) (A) (A) (A) (A) (A) (A) (A) (A) (A) (A) (A)
                 (A) (A) (A) (A) (A) (A) (A) (A) (A) (A) (A) (A)
                 (A) (A) (A) (A) (A) (A) (A) (A) (A) (A) (A) (A)
                 (A) (A) (A) (A) (A) (A) (A) (A) (A) (A) (A) (A)
                 (A) (A) (A) (A) (A)
 The electronic state is 1-A.
 Alpha  occ. eigenvalues --  -18.78208  -9.96418  -9.91958  -9.91745  -9.91724
 Alpha  occ. eigenvalues --   -9.91722  -0.90117  -0.70131  -0.66294  -0.59513
 Alpha  occ. eigenvalues --   -0.54872  -0.49655  -0.42209  -0.40537  -0.38584
 Alpha  occ. eigenvalues --   -0.36023  -0.35273  -0.33636  -0.31876  -0.31192
 Alpha  occ. eigenvalues --   -0.29293  -0.28683  -0.27811  -0.25402  -0.20064
 Alpha virt. eigenvalues --    0.04475   0.06477   0.09518   0.10829   0.12273
 Alpha virt. eigenvalues --    0.12485   0.12952   0.14763   0.15568   0.16868
 Alpha virt. eigenvalues --    0.17399   0.18556   0.19060   0.20781   0.21186
 Alpha virt. eigenvalues --    0.22156   0.26275   0.46235   0.48085   0.49484
 Alpha virt. eigenvalues --    0.49773   0.51671   0.52716   0.56824   0.57162
 Alpha virt. eigenvalues --    0.62207   0.62348   0.63096   0.66388   0.69231
 Alpha virt. eigenvalues --    0.74974   0.76827   0.77820   0.80173   0.81029
 Alpha virt. eigenvalues --    0.81246   0.82555   0.83200   0.86234   0.86766
 Alpha virt. eigenvalues --    0.88289   0.90559   0.91534   0.94763   0.97261
 Alpha virt. eigenvalues --    0.98996   1.01714   1.06726   1.13951   1.23795
 Alpha virt. eigenvalues --    1.27364   1.35628   1.39384   1.41256   1.46402
 Alpha virt. eigenvalues --    1.46623   1.53765   1.58211   1.61765   1.63561
 Alpha virt. eigenvalues --    1.67186   1.71649   1.74560   1.75806   1.77526
 Alpha virt. eigenvalues --    1.82757   1.85204   1.90409   1.96823   1.98869
 Alpha virt. eigenvalues --    1.99096   2.00417   2.01207   2.02231   2.02813
 Alpha virt. eigenvalues --    2.04998   2.08032   2.08397   2.12209   2.17715
 Alpha virt. eigenvalues --    2.18932   2.19804   2.22776   2.30577   2.30983
 Alpha virt. eigenvalues --    2.32059   2.35590   2.39240   2.41387   2.46564
 Alpha virt. eigenvalues --    2.50531   2.53961   2.57440   2.58830   2.62039
 Alpha virt. eigenvalues --    2.64330   2.65882   2.69530   2.70974   2.75589
 Alpha virt. eigenvalues --    2.77388   2.79310   2.80651   2.81709   2.83123
 Alpha virt. eigenvalues --    2.86124   2.96393   3.08227   3.11000   3.19425
 Alpha virt. eigenvalues --    3.23849   3.26255   3.30446   3.34353   3.36063
 Alpha virt. eigenvalues --    3.38273   3.43423   3.44333   3.46321   3.83918
 Alpha virt. eigenvalues --    4.18194   4.30688   4.47254   4.53158   4.59778
          Condensed to atoms (all electrons):
               1          2          3          4          5          6
     1  C    4.933595   0.366363   0.379481   0.381412   0.327681  -0.034738
     2  H    0.366363   0.630850  -0.032277  -0.032761  -0.018878  -0.002511
     3  H    0.379481  -0.032277   0.622341  -0.034824  -0.031916  -0.006374
     4  H    0.381412  -0.032761  -0.034824   0.625774  -0.036086   0.005779
     5  C    0.327681  -0.018878  -0.031916  -0.036086   4.976189   0.360309
     6  H   -0.034738  -0.002511  -0.006374   0.005779   0.360309   0.677438
     7  H   -0.031566  -0.004562   0.005303  -0.004198   0.363826  -0.042434
     8  C   -0.030875   0.003316  -0.005594  -0.004756   0.368721  -0.033862
     9  H   -0.003894  -0.000130  -0.000304   0.005975  -0.048125   0.006904
    10  O    0.003239  -0.000061   0.000002   0.000015  -0.038002  -0.002717
    11  C    0.002272   0.000053   0.002399  -0.001430  -0.052843  -0.012280
    12  H   -0.000008  -0.000004   0.000012   0.000031  -0.007706   0.007705
    13  H    0.000772  -0.000003   0.002567   0.000731  -0.002889   0.000253
    14  H   -0.000102  -0.000000  -0.000081  -0.000032   0.006327  -0.000022
    15  C   -0.001559  -0.000008   0.000483   0.000141  -0.009022   0.005224
    16  H    0.000207  -0.000039   0.001440  -0.000031   0.003335   0.002236
    17  H   -0.000005   0.000003  -0.000016  -0.000003  -0.000960   0.000525
    18  H    0.000013   0.000000  -0.000050   0.000000   0.000151  -0.000146
               7          8          9         10         11         12
     1  C   -0.031566  -0.030875  -0.003894   0.003239   0.002272  -0.000008
     2  H   -0.004562   0.003316  -0.000130  -0.000061   0.000053  -0.000004
     3  H    0.005303  -0.005594  -0.000304   0.000002   0.002399   0.000012
     4  H   -0.004198  -0.004756   0.005975   0.000015  -0.001430   0.000031
     5  C    0.363826   0.368721  -0.048125  -0.038002  -0.052843  -0.007706
     6  H   -0.042434  -0.033862   0.006904  -0.002717  -0.012280   0.007705
     7  H    0.652404  -0.030532  -0.007662   0.004210   0.006803  -0.000880
     8  C   -0.030532   4.712203   0.371399   0.250261   0.348016  -0.035548
     9  H   -0.007662   0.371399   0.688193  -0.041409  -0.052568   0.008838
    10  O    0.004210   0.250261  -0.041409   8.112875  -0.046769   0.268732
    11  C    0.006803   0.348016  -0.052568  -0.046769   4.981043  -0.007385
    12  H   -0.000880  -0.035548   0.008838   0.268732  -0.007385   0.474506
    13  H   -0.000119  -0.023433  -0.000476   0.003649   0.338246  -0.000066
    14  H   -0.000197  -0.029192  -0.005409   0.002039   0.365125  -0.000771
    15  C   -0.000027  -0.032744   0.005388  -0.005880   0.372211   0.004977
    16  H   -0.000102  -0.005220  -0.000000  -0.000079  -0.034264  -0.000121
    17  H   -0.000066  -0.003958   0.000190   0.006364  -0.040324   0.004714
    18  H   -0.000002   0.003939  -0.000162   0.000093  -0.024176  -0.000163
              13         14         15         16         17         18
     1  C    0.000772  -0.000102  -0.001559   0.000207  -0.000005   0.000013
     2  H   -0.000003  -0.000000  -0.000008  -0.000039   0.000003   0.000000
     3  H    0.002567  -0.000081   0.000483   0.001440  -0.000016  -0.000050
     4  H    0.000731  -0.000032   0.000141  -0.000031  -0.000003   0.000000
     5  C   -0.002889   0.006327  -0.009022   0.003335  -0.000960   0.000151
     6  H    0.000253  -0.000022   0.005224   0.002236   0.000525  -0.000146
     7  H   -0.000119  -0.000197  -0.000027  -0.000102  -0.000066  -0.000002
     8  C   -0.023433  -0.029192  -0.032744  -0.005220  -0.003958   0.003939
     9  H   -0.000476  -0.005409   0.005388  -0.000000   0.000190  -0.000162
    10  O    0.003649   0.002039  -0.005880  -0.000079   0.006364   0.000093
    11  C    0.338246   0.365125   0.372211  -0.034264  -0.040324  -0.024176
    12  H   -0.000066  -0.000771   0.004977  -0.000121   0.004714  -0.000163
    13  H    0.677409  -0.035585  -0.035861  -0.005741   0.006642  -0.002452
    14  H   -0.035585   0.651085  -0.039249   0.005555  -0.003843  -0.003980
    15  C   -0.035861  -0.039249   4.912872   0.379213   0.368164   0.375043
    16  H   -0.005741   0.005555   0.379213   0.624984  -0.035569  -0.032200
    17  H    0.006642  -0.003843   0.368164  -0.035569   0.648127  -0.032329
    18  H   -0.002452  -0.003980   0.375043  -0.032200  -0.032329   0.622474
 Mulliken charges:
               1
     1  C   -0.292289
     2  H    0.090649
     3  H    0.097406
     4  H    0.094263
     5  C   -0.160110
     6  H    0.068711
     7  H    0.089800
     8  C    0.177859
     9  H    0.073251
    10  O   -0.516561
    11  C   -0.144128
    12  H    0.283136
    13  H    0.076354
    14  H    0.088333
    15  C   -0.299366
    16  H    0.096397
    17  H    0.082347
    18  H    0.093948
 Sum of Mulliken charges =  -0.00000
 Mulliken charges with hydrogens summed into heavy atoms:
               1
     1  C   -0.009970
     5  C   -0.001598
     8  C    0.251109
    10  O   -0.233424
    11  C    0.020559
    15  C   -0.026675
 Electronic spatial extent (au):  <R**2>=            726.7815
 Charge=             -0.0000 electrons
 Dipole moment (field-independent basis, Debye):
    X=              0.4302    Y=             -1.3625    Z=             -0.7212  Tot=              1.6005
 Quadrupole moment (field-independent basis, Debye-Ang):
   XX=            -39.5638   YY=            -43.6353   ZZ=            -37.8266
   XY=              1.5029   XZ=              1.3419   YZ=             -1.3687
 Traceless Quadrupole moment (field-independent basis, Debye-Ang):
   XX=              0.7781   YY=             -3.2934   ZZ=              2.5153
   XY=              1.5029   XZ=              1.3419   YZ=             -1.3687
 Octapole moment (field-independent basis, Debye-Ang**2):
  XXX=             -3.7297  YYY=             -1.9490  ZZZ=             -1.5206  XYY=              1.5435
  XXY=              2.0619  XXZ=             -2.1084  XZZ=             -2.7891  YZZ=              5.9271
  YYZ=             -2.2072  XYZ=              3.0543
 Hexadecapole moment (field-independent basis, Debye-Ang**3):
 XXXX=           -510.9313 YYYY=           -329.9317 ZZZZ=           -136.5561 XXXY=             -3.5430
 XXXZ=             -0.4926 YYYX=              2.8993 YYYZ=             -5.6559 ZZZX=              3.4855
 ZZZY=             -3.1811 XXYY=           -138.8842 XXZZ=           -105.1964 YYZZ=            -71.4405
 XXYZ=             -3.9876 YYXZ=              3.2917 ZZXY=             -6.3469
 N-N= 2.589863192975D+02 E-N=-1.152028344569D+03  KE= 2.701772793467D+02
 No NMR shielding tensors so no spin-rotation constants.
 Leave Link  601 at Wed Sep  7 18:09:29 2022, MaxMem=   262144000 cpu:               0.6 elap:               0.1
 (Enter /dragofs/sw/campus/0.2/software/gaussian/16.gaussian/gaussian/g16_legacy/l9999.exe)
 1\1\GINC-DRAGO31010007\FOpt\RBLYP\6-31G(d,p)\C5H12O1\JRAMOS\07-Sep-202
 2\0\\#p opt blyp/6-31G** EmpiricalDispersion=GD3\\Conformer number 011
 . Energy MM = 0.000 kcal/mol\\0,1\C,14.736636607,3.6795024214,10.55517
 95485\H,15.6398813679,3.3615564923,11.0994663818\H,14.0960981439,2.792
 3236182,10.427545844\H,14.1933174016,4.3931319512,11.1970611586\C,15.1
 025849776,4.3190739258,9.1990929144\H,15.5994721736,3.5666003883,8.557
 9627956\H,15.8365055457,5.1291312895,9.3460368845\C,13.9036739388,4.92
 50348431,8.4299777515\H,13.4751137577,5.7373572981,9.044757631\O,14.36
 28490865,5.6000597662,7.2315574187\C,12.7606792745,3.9265474799,8.1057
 444984\H,14.8595047482,4.9383556224,6.7109498042\H,12.3080734519,3.575
 6264641,9.0498950153\H,11.9789966999,4.4929776438,7.5723871161\C,13.18
 8996557,2.7139850076,7.2518856511\H,13.9088644684,2.0695592651,7.78171
 7788\H,13.6565193978,3.038281597,6.3067052908\H,12.3202324019,2.091894
 9259,6.9860765075\\Version=EM64L-G16RevA.03\State=1-A\HF=-272.8577776\
 RMSD=2.667e-09\RMSF=1.944e-05\Dipole=0.0943967,-0.599375,0.1683388\Qua
 drupole=1.2062367,-2.2346212,1.0283845,-0.3141923,-0.7245793,1.9534688
 \PG=C01 [X(C5H12O1)]\\@


0EVERYBODY IS IGNORANT, ONLY ON DIFFERENT SUBJECTS.
0          WILL ROGERS
 Job cpu time:       0 days  0 hours 16 minutes  5.1 seconds.
 Elapsed time:       0 days  0 hours  2 minutes  3.6 seconds.
 File lengths (MBytes):  RWF=     17 Int=      0 D2E=      0 Chk=      3 Scr=      1
 Normal termination of Gaussian 16 at Wed Sep  7 18:09:29 2022.
