 Entering Gaussian System, Link 0=/opt/gaussian/g16_legacy/g16
 Input=02-IsoP_025_gaussian.com
 Output=02-IsoP_025_gaussian.log
 Initial command:
 /opt/gaussian/g16_legacy/l1.exe "/scratch-local/jramos/2661517/Gau-7171.inp" -scrdir="/scratch-local/jramos/2661517/"
 Entering Link 1 = /opt/gaussian/g16_legacy/l1.exe PID=      7172.
  
 Copyright (c) 1988,1990,1992,1993,1995,1998,2003,2009,2016,
            Gaussian, Inc.  All Rights Reserved.
  
 This is part of the Gaussian(R) 16 program.  It is based on
 the Gaussian(R) 09 system (copyright 2009, Gaussian, Inc.),
 the Gaussian(R) 03 system (copyright 2003, Gaussian, Inc.),
 the Gaussian(R) 98 system (copyright 1998, Gaussian, Inc.),
 the Gaussian(R) 94 system (copyright 1995, Gaussian, Inc.),
 the Gaussian 92(TM) system (copyright 1992, Gaussian, Inc.),
 the Gaussian 90(TM) system (copyright 1990, Gaussian, Inc.),
 the Gaussian 88(TM) system (copyright 1988, Gaussian, Inc.),
 the Gaussian 86(TM) system (copyright 1986, Carnegie Mellon
 University), and the Gaussian 82(TM) system (copyright 1983,
 Carnegie Mellon University). Gaussian is a federally registered
 trademark of Gaussian, Inc.
  
 This software contains proprietary and confidential information,
 including trade secrets, belonging to Gaussian, Inc.
  
 This software is provided under written license and may be
 used, copied, transmitted, or stored only in accord with that
 written license.
  
 The following legend is applicable only to US Government
 contracts under FAR:
  
                    RESTRICTED RIGHTS LEGEND
  
 Use, reproduction and disclosure by the US Government is
 subject to restrictions as set forth in subparagraphs (a)
 and (c) of the Commercial Computer Software - Restricted
 Rights clause in FAR 52.227-19.
  
 Gaussian, Inc.
 340 Quinnipiac St., Bldg. 40, Wallingford CT 06492
  
  
 ---------------------------------------------------------------
 Warning -- This program may not be used in any manner that
 competes with the business of Gaussian, Inc. or will provide
 assistance to any competitor of Gaussian, Inc.  The licensee
 of this program is prohibited from giving any competitor of
 Gaussian, Inc. access to this program.  By using this program,
 the user acknowledges that Gaussian, Inc. is engaged in the
 business of creating and licensing software in the field of
 computational chemistry and represents and warrants to the
 licensee that it is not a competitor of Gaussian, Inc. and that
 it will not use this program in any manner prohibited above.
 ---------------------------------------------------------------
  

 Cite this work as:
 Gaussian 16, Revision A.03,
 M. J. Frisch, G. W. Trucks, H. B. Schlegel, G. E. Scuseria, 
 M. A. Robb, J. R. Cheeseman, G. Scalmani, V. Barone, 
 G. A. Petersson, H. Nakatsuji, X. Li, M. Caricato, A. V. Marenich, 
 J. Bloino, B. G. Janesko, R. Gomperts, B. Mennucci, H. P. Hratchian, 
 J. V. Ortiz, A. F. Izmaylov, J. L. Sonnenberg, D. Williams-Young, 
 F. Ding, F. Lipparini, F. Egidi, J. Goings, B. Peng, A. Petrone, 
 T. Henderson, D. Ranasinghe, V. G. Zakrzewski, J. Gao, N. Rega, 
 G. Zheng, W. Liang, M. Hada, M. Ehara, K. Toyota, R. Fukuda, 
 J. Hasegawa, M. Ishida, T. Nakajima, Y. Honda, O. Kitao, H. Nakai, 
 T. Vreven, K. Throssell, J. A. Montgomery, Jr., J. E. Peralta, 
 F. Ogliaro, M. J. Bearpark, J. J. Heyd, E. N. Brothers, K. N. Kudin, 
 V. N. Staroverov, T. A. Keith, R. Kobayashi, J. Normand, 
 K. Raghavachari, A. P. Rendell, J. C. Burant, S. S. Iyengar, 
 J. Tomasi, M. Cossi, J. M. Millam, M. Klene, C. Adamo, R. Cammi, 
 J. W. Ochterski, R. L. Martin, K. Morokuma, O. Farkas, 
 J. B. Foresman, and D. J. Fox, Gaussian, Inc., Wallingford CT, 2016.
 
 ******************************************
 Gaussian 16:  EM64L-G16RevA.03 25-Dec-2016
                17-Sep-2021 
 ******************************************
 %chk=02-IsoP_025_gaussian.chk
 %nproc=1
 Will use up to    1 processors via shared memory.
 %mem=4000Mb
 ---------------------
 #p opt mp2/6-31g(d,p)
 ---------------------
 1/18=20,19=15,38=1/1,3;
 2/9=110,12=2,17=6,18=5,40=1/2;
 3/5=1,6=6,7=101,11=9,25=1,30=1,71=1/1,2,3;
 4//1;
 5/5=2,38=5/2;
 8/6=4,10=2/1;
 9/15=2,16=-3/6;
 10/5=1/2;
 6/7=2,8=2,9=2,10=2/1;
 7/12=2/1,2,3,16;
 1/18=20,19=15/3(2);
 2/9=110/2;
 99//99;
 2/9=110/2;
 3/5=1,6=6,7=101,11=9,25=1,30=1,71=1/1,2,3;
 4/5=5,16=3,69=1/1;
 5/5=2,38=5/2;
 8/6=4,10=2/1;
 9/15=2,16=-3/6;
 10/5=1/2;
 7/12=2/1,2,3,16;
 1/18=20,19=15/3(-8);
 2/9=110/2;
 6/7=2,8=2,9=2,10=2/1;
 99//99;
 Leave Link    1 at Fri Sep 17 20:09:26 2021, MaxMem=   524288000 cpu:               0.0 elap:               0.2
 (Enter /opt/gaussian/g16_legacy/l101.exe)
 -------------------------------------------------
 Conformer number 025. Energy MM = 26.862 kcal/mol
 -------------------------------------------------
 Symbolic Z-matrix:
 Charge =  0 Multiplicity = 1
 C                     2.1688    1.3269   -8.9323 
 H                     1.8786    0.2982   -9.1885 
 H                     2.042     1.9268   -9.8433 
 C                     3.6501    1.3119   -8.5709 
 C                     4.5423    0.7831   -9.6653 
 H                     5.4057    0.24     -9.2692 
 H                     4.0038    0.0752   -10.3045 
 H                     4.8966    1.6066   -10.293 
 C                     4.1293    1.723    -7.3763 
 H                     3.4408    2.0884   -6.6173 
 C                     5.5509    1.7644   -6.9185 
 H                     6.2669    1.4566   -7.681 
 H                     5.8006    2.7863   -6.6173 
 H                     5.6719    1.1139   -6.0471 
 C                    -2.4583    0.5968   -8.3533 
 H                    -2.7807    1.5336   -8.8184 
 H                    -2.6502   -0.215    -9.0597 
 H                    -3.0777    0.4406   -7.4639 
 C                    -1.004     0.6222   -7.97 
 C                    -0.4937   -0.6318   -7.3114 
 H                     0.2884   -0.4335   -6.5751 
 H                    -1.2982   -1.1469   -6.7763 
 H                    -0.0957   -1.315    -8.0681 
 C                    -0.2379    1.7009   -8.2247 
 H                    -0.6797    2.5619   -8.725 
 C                     1.2106    1.8575   -7.8562 
 H                     1.4049    2.9227   -7.6786 
 H                     1.3947    1.3579   -6.8983 
 
 ITRead=  0  0  0  0  0  0  0  0  0  0  0  0  0  0  0  0  0  0  0  0
 ITRead=  0  0  0  0  0  0  0  0
 MicOpt= -1 -1 -1 -1 -1 -1 -1 -1 -1 -1 -1 -1 -1 -1 -1 -1 -1 -1 -1 -1
 MicOpt= -1 -1 -1 -1 -1 -1 -1 -1
 NAtoms=     28 NQM=       28 NQMF=       0 NMMI=      0 NMMIF=      0
                NMic=       0 NMicF=      0.
                    Isotopes and Nuclear Properties:
 (Nuclear quadrupole moments (NQMom) in fm**2, nuclear magnetic moments (NMagM)
  in nuclear magnetons)

  Atom         1           2           3           4           5           6           7           8           9          10
 IAtWgt=          12           1           1          12          12           1           1           1          12           1
 AtmWgt=  12.0000000   1.0078250   1.0078250  12.0000000  12.0000000   1.0078250   1.0078250   1.0078250  12.0000000   1.0078250
 NucSpn=           0           1           1           0           0           1           1           1           0           1
 AtZEff=  -0.0000000  -0.0000000  -0.0000000  -0.0000000  -0.0000000  -0.0000000  -0.0000000  -0.0000000  -0.0000000  -0.0000000
 NQMom=    0.0000000   0.0000000   0.0000000   0.0000000   0.0000000   0.0000000   0.0000000   0.0000000   0.0000000   0.0000000
 NMagM=    0.0000000   2.7928460   2.7928460   0.0000000   0.0000000   2.7928460   2.7928460   2.7928460   0.0000000   2.7928460
 AtZNuc=   6.0000000   1.0000000   1.0000000   6.0000000   6.0000000   1.0000000   1.0000000   1.0000000   6.0000000   1.0000000

  Atom        11          12          13          14          15          16          17          18          19          20
 IAtWgt=          12           1           1           1          12           1           1           1          12          12
 AtmWgt=  12.0000000   1.0078250   1.0078250   1.0078250  12.0000000   1.0078250   1.0078250   1.0078250  12.0000000  12.0000000
 NucSpn=           0           1           1           1           0           1           1           1           0           0
 AtZEff=  -0.0000000  -0.0000000  -0.0000000  -0.0000000  -0.0000000  -0.0000000  -0.0000000  -0.0000000  -0.0000000  -0.0000000
 NQMom=    0.0000000   0.0000000   0.0000000   0.0000000   0.0000000   0.0000000   0.0000000   0.0000000   0.0000000   0.0000000
 NMagM=    0.0000000   2.7928460   2.7928460   2.7928460   0.0000000   2.7928460   2.7928460   2.7928460   0.0000000   0.0000000
 AtZNuc=   6.0000000   1.0000000   1.0000000   1.0000000   6.0000000   1.0000000   1.0000000   1.0000000   6.0000000   6.0000000

  Atom        21          22          23          24          25          26          27          28
 IAtWgt=           1           1           1          12           1          12           1           1
 AtmWgt=   1.0078250   1.0078250   1.0078250  12.0000000   1.0078250  12.0000000   1.0078250   1.0078250
 NucSpn=           1           1           1           0           1           0           1           1
 AtZEff=  -0.0000000  -0.0000000  -0.0000000  -0.0000000  -0.0000000  -0.0000000  -0.0000000  -0.0000000
 NQMom=    0.0000000   0.0000000   0.0000000   0.0000000   0.0000000   0.0000000   0.0000000   0.0000000
 NMagM=    2.7928460   2.7928460   2.7928460   0.0000000   2.7928460   0.0000000   2.7928460   2.7928460
 AtZNuc=   1.0000000   1.0000000   1.0000000   6.0000000   1.0000000   6.0000000   1.0000000   1.0000000
 Leave Link  101 at Fri Sep 17 20:09:26 2021, MaxMem=   524288000 cpu:               0.3 elap:               0.2
 (Enter /opt/gaussian/g16_legacy/l103.exe)

 GradGradGradGradGradGradGradGradGradGradGradGradGradGradGradGradGradGrad
 Berny optimization.
 Initialization pass.
                           ----------------------------
                           !    Initial Parameters    !
                           ! (Angstroms and Degrees)  !
 --------------------------                            --------------------------
 ! Name  Definition              Value          Derivative Info.                !
 --------------------------------------------------------------------------------
 ! R1    R(1,2)                  1.0991         estimate D2E/DX2                !
 ! R2    R(1,3)                  1.0981         estimate D2E/DX2                !
 ! R3    R(1,4)                  1.5248         estimate D2E/DX2                !
 ! R4    R(1,26)                 1.5355         estimate D2E/DX2                !
 ! R5    R(4,5)                  1.5078         estimate D2E/DX2                !
 ! R6    R(4,9)                  1.3512         estimate D2E/DX2                !
 ! R7    R(5,6)                  1.0942         estimate D2E/DX2                !
 ! R8    R(5,7)                  1.0953         estimate D2E/DX2                !
 ! R9    R(5,8)                  1.0944         estimate D2E/DX2                !
 ! R10   R(9,10)                 1.0879         estimate D2E/DX2                !
 ! R11   R(9,11)                 1.4941         estimate D2E/DX2                !
 ! R12   R(11,12)                1.0903         estimate D2E/DX2                !
 ! R13   R(11,13)                1.0942         estimate D2E/DX2                !
 ! R14   R(11,14)                1.0941         estimate D2E/DX2                !
 ! R15   R(15,16)                1.0945         estimate D2E/DX2                !
 ! R16   R(15,17)                1.0931         estimate D2E/DX2                !
 ! R17   R(15,18)                1.095          estimate D2E/DX2                !
 ! R18   R(15,19)                1.5042         estimate D2E/DX2                !
 ! R19   R(19,20)                1.5055         estimate D2E/DX2                !
 ! R20   R(19,24)                1.3474         estimate D2E/DX2                !
 ! R21   R(20,21)                1.0923         estimate D2E/DX2                !
 ! R22   R(20,22)                1.0949         estimate D2E/DX2                !
 ! R23   R(20,23)                1.0944         estimate D2E/DX2                !
 ! R24   R(24,25)                1.0894         estimate D2E/DX2                !
 ! R25   R(24,26)                1.5028         estimate D2E/DX2                !
 ! R26   R(26,27)                1.0972         estimate D2E/DX2                !
 ! R27   R(26,28)                1.0959         estimate D2E/DX2                !
 ! A1    A(2,1,3)              106.7041         estimate D2E/DX2                !
 ! A2    A(2,1,4)              107.6097         estimate D2E/DX2                !
 ! A3    A(2,1,26)             108.7848         estimate D2E/DX2                !
 ! A4    A(3,1,4)              108.3108         estimate D2E/DX2                !
 ! A5    A(3,1,26)             108.6972         estimate D2E/DX2                !
 ! A6    A(4,1,26)             116.3291         estimate D2E/DX2                !
 ! A7    A(1,4,5)              113.9703         estimate D2E/DX2                !
 ! A8    A(1,4,9)              123.4411         estimate D2E/DX2                !
 ! A9    A(5,4,9)              122.5864         estimate D2E/DX2                !
 ! A10   A(4,5,6)              112.2245         estimate D2E/DX2                !
 ! A11   A(4,5,7)              111.0594         estimate D2E/DX2                !
 ! A12   A(4,5,8)              110.1195         estimate D2E/DX2                !
 ! A13   A(6,5,7)              106.165          estimate D2E/DX2                !
 ! A14   A(6,5,8)              109.0053         estimate D2E/DX2                !
 ! A15   A(7,5,8)              108.1059         estimate D2E/DX2                !
 ! A16   A(4,9,10)             119.6396         estimate D2E/DX2                !
 ! A17   A(4,9,11)             128.0815         estimate D2E/DX2                !
 ! A18   A(10,9,11)            112.2764         estimate D2E/DX2                !
 ! A19   A(9,11,12)            113.7488         estimate D2E/DX2                !
 ! A20   A(9,11,13)            109.1079         estimate D2E/DX2                !
 ! A21   A(9,11,14)            109.438          estimate D2E/DX2                !
 ! A22   A(12,11,13)           107.8356         estimate D2E/DX2                !
 ! A23   A(12,11,14)           108.452          estimate D2E/DX2                !
 ! A24   A(13,11,14)           108.1057         estimate D2E/DX2                !
 ! A25   A(16,15,17)           108.0195         estimate D2E/DX2                !
 ! A26   A(16,15,18)           107.4953         estimate D2E/DX2                !
 ! A27   A(16,15,19)           112.2495         estimate D2E/DX2                !
 ! A28   A(17,15,18)           108.6416         estimate D2E/DX2                !
 ! A29   A(17,15,19)           110.3011         estimate D2E/DX2                !
 ! A30   A(18,15,19)           110.0187         estimate D2E/DX2                !
 ! A31   A(15,19,20)           115.1579         estimate D2E/DX2                !
 ! A32   A(15,19,24)           121.0033         estimate D2E/DX2                !
 ! A33   A(20,19,24)           123.8354         estimate D2E/DX2                !
 ! A34   A(19,20,21)           112.7277         estimate D2E/DX2                !
 ! A35   A(19,20,22)           110.8904         estimate D2E/DX2                !
 ! A36   A(19,20,23)           109.9231         estimate D2E/DX2                !
 ! A37   A(21,20,22)           106.3834         estimate D2E/DX2                !
 ! A38   A(21,20,23)           108.6031         estimate D2E/DX2                !
 ! A39   A(22,20,23)           108.145          estimate D2E/DX2                !
 ! A40   A(19,24,25)           119.273          estimate D2E/DX2                !
 ! A41   A(19,24,26)           125.8111         estimate D2E/DX2                !
 ! A42   A(25,24,26)           114.9063         estimate D2E/DX2                !
 ! A43   A(1,26,24)            113.1806         estimate D2E/DX2                !
 ! A44   A(1,26,27)            109.7794         estimate D2E/DX2                !
 ! A45   A(1,26,28)            110.4994         estimate D2E/DX2                !
 ! A46   A(24,26,27)           108.1514         estimate D2E/DX2                !
 ! A47   A(24,26,28)           109.1918         estimate D2E/DX2                !
 ! A48   A(27,26,28)           105.7437         estimate D2E/DX2                !
 ! D1    D(2,1,4,5)             57.7996         estimate D2E/DX2                !
 ! D2    D(2,1,4,9)           -121.685          estimate D2E/DX2                !
 ! D3    D(3,1,4,5)            -57.2045         estimate D2E/DX2                !
 ! D4    D(3,1,4,9)            123.3109         estimate D2E/DX2                !
 ! D5    D(26,1,4,5)          -179.9229         estimate D2E/DX2                !
 ! D6    D(26,1,4,9)             0.5925         estimate D2E/DX2                !
 ! D7    D(2,1,26,24)          -51.9908         estimate D2E/DX2                !
 ! D8    D(2,1,26,27)         -172.9297         estimate D2E/DX2                !
 ! D9    D(2,1,26,28)           70.8202         estimate D2E/DX2                !
 ! D10   D(3,1,26,24)           63.8343         estimate D2E/DX2                !
 ! D11   D(3,1,26,27)          -57.1046         estimate D2E/DX2                !
 ! D12   D(3,1,26,28)         -173.3547         estimate D2E/DX2                !
 ! D13   D(4,1,26,24)         -173.6494         estimate D2E/DX2                !
 ! D14   D(4,1,26,27)           65.4117         estimate D2E/DX2                !
 ! D15   D(4,1,26,28)          -50.8384         estimate D2E/DX2                !
 ! D16   D(1,4,5,6)           -146.2785         estimate D2E/DX2                !
 ! D17   D(1,4,5,7)            -27.619          estimate D2E/DX2                !
 ! D18   D(1,4,5,8)             92.0982         estimate D2E/DX2                !
 ! D19   D(9,4,5,6)             33.2111         estimate D2E/DX2                !
 ! D20   D(9,4,5,7)            151.8706         estimate D2E/DX2                !
 ! D21   D(9,4,5,8)            -88.4123         estimate D2E/DX2                !
 ! D22   D(1,4,9,10)            -0.0363         estimate D2E/DX2                !
 ! D23   D(1,4,9,11)          -179.4134         estimate D2E/DX2                !
 ! D24   D(5,4,9,10)          -179.4773         estimate D2E/DX2                !
 ! D25   D(5,4,9,11)             1.1455         estimate D2E/DX2                !
 ! D26   D(4,9,11,12)            2.6977         estimate D2E/DX2                !
 ! D27   D(4,9,11,13)          123.1326         estimate D2E/DX2                !
 ! D28   D(4,9,11,14)         -118.7663         estimate D2E/DX2                !
 ! D29   D(10,9,11,12)        -176.7173         estimate D2E/DX2                !
 ! D30   D(10,9,11,13)         -56.2823         estimate D2E/DX2                !
 ! D31   D(10,9,11,14)          61.8187         estimate D2E/DX2                !
 ! D32   D(16,15,19,20)        179.4436         estimate D2E/DX2                !
 ! D33   D(16,15,19,24)         -1.2015         estimate D2E/DX2                !
 ! D34   D(17,15,19,20)        -60.0455         estimate D2E/DX2                !
 ! D35   D(17,15,19,24)        119.3094         estimate D2E/DX2                !
 ! D36   D(18,15,19,20)         59.7903         estimate D2E/DX2                !
 ! D37   D(18,15,19,24)       -120.8548         estimate D2E/DX2                !
 ! D38   D(15,19,20,21)       -147.3399         estimate D2E/DX2                !
 ! D39   D(15,19,20,22)        -28.1833         estimate D2E/DX2                !
 ! D40   D(15,19,20,23)         91.3475         estimate D2E/DX2                !
 ! D41   D(24,19,20,21)         33.3258         estimate D2E/DX2                !
 ! D42   D(24,19,20,22)        152.4824         estimate D2E/DX2                !
 ! D43   D(24,19,20,23)        -87.9868         estimate D2E/DX2                !
 ! D44   D(15,19,24,25)         -0.6189         estimate D2E/DX2                !
 ! D45   D(15,19,24,26)        178.1964         estimate D2E/DX2                !
 ! D46   D(20,19,24,25)        178.6781         estimate D2E/DX2                !
 ! D47   D(20,19,24,26)         -2.5066         estimate D2E/DX2                !
 ! D48   D(19,24,26,1)          88.4882         estimate D2E/DX2                !
 ! D49   D(19,24,26,27)       -149.6563         estimate D2E/DX2                !
 ! D50   D(19,24,26,28)        -35.0449         estimate D2E/DX2                !
 ! D51   D(25,24,26,1)         -92.6511         estimate D2E/DX2                !
 ! D52   D(25,24,26,27)         29.2044         estimate D2E/DX2                !
 ! D53   D(25,24,26,28)        143.8158         estimate D2E/DX2                !
 --------------------------------------------------------------------------------
 Trust Radius=3.00D-01 FncErr=1.00D-07 GrdErr=1.00D-07 EigMax=2.50D+02 EigMin=1.00D-04
 Number of steps in this run=    138 maximum allowed number of steps=    168.
 GradGradGradGradGradGradGradGradGradGradGradGradGradGradGradGradGradGrad

 Leave Link  103 at Fri Sep 17 20:09:26 2021, MaxMem=   524288000 cpu:               0.0 elap:               0.0
 (Enter /opt/gaussian/g16_legacy/l202.exe)
                          Input orientation:                          
 ---------------------------------------------------------------------
 Center     Atomic      Atomic             Coordinates (Angstroms)
 Number     Number       Type             X           Y           Z
 ---------------------------------------------------------------------
      1          6           0        2.168800    1.326900   -8.932300
      2          1           0        1.878600    0.298200   -9.188500
      3          1           0        2.042000    1.926800   -9.843300
      4          6           0        3.650100    1.311900   -8.570900
      5          6           0        4.542300    0.783100   -9.665300
      6          1           0        5.405700    0.240000   -9.269200
      7          1           0        4.003800    0.075200  -10.304500
      8          1           0        4.896600    1.606600  -10.293000
      9          6           0        4.129300    1.723000   -7.376300
     10          1           0        3.440800    2.088400   -6.617300
     11          6           0        5.550900    1.764400   -6.918500
     12          1           0        6.266900    1.456600   -7.681000
     13          1           0        5.800600    2.786300   -6.617300
     14          1           0        5.671900    1.113900   -6.047100
     15          6           0       -2.458300    0.596800   -8.353300
     16          1           0       -2.780700    1.533600   -8.818400
     17          1           0       -2.650200   -0.215000   -9.059700
     18          1           0       -3.077700    0.440600   -7.463900
     19          6           0       -1.004000    0.622200   -7.970000
     20          6           0       -0.493700   -0.631800   -7.311400
     21          1           0        0.288400   -0.433500   -6.575100
     22          1           0       -1.298200   -1.146900   -6.776300
     23          1           0       -0.095700   -1.315000   -8.068100
     24          6           0       -0.237900    1.700900   -8.224700
     25          1           0       -0.679700    2.561900   -8.725000
     26          6           0        1.210600    1.857500   -7.856200
     27          1           0        1.404900    2.922700   -7.678600
     28          1           0        1.394700    1.357900   -6.898300
 ---------------------------------------------------------------------
                    Distance matrix (angstroms):
                    1          2          3          4          5
     1  C    0.000000
     2  H    1.099126   0.000000
     3  H    1.098125   1.762896   0.000000
     4  C    1.524823   2.132423   2.140815   0.000000
     5  C    2.542933   2.749139   2.755219   1.507767   0.000000
     6  H    3.431089   3.528503   3.806490   2.172262   1.094218
     7  H    2.610921   2.410738   2.736748   2.158680   1.095300
     8  H    3.061148   3.469893   2.907490   2.146215   1.094389
     9  C    2.534086   3.221766   3.237969   1.351187   2.508685
    10  H    2.749016   3.500908   3.519919   2.112655   3.493911
    11  C    3.960479   4.559433   4.570909   2.558950   3.086282
    12  H    4.286840   4.782429   4.769320   2.767761   2.713907
    13  H    4.547422   5.308841   5.027215   3.258076   3.858294
    14  H    4.543287   4.992283   5.314896   3.239822   3.804839
    15  C    4.719994   4.426672   4.923586   6.153964   7.124918
    16  H    4.955123   4.834487   4.946055   6.439379   7.409914
    17  H    5.061269   4.559604   5.217095   6.501087   7.286632
    18  H    5.519736   5.249708   5.837950   6.873711   7.939009
    19  C    3.389585   3.146284   3.806488   4.743144   5.801842
    20  C    3.681403   3.164840   4.403036   4.747145   5.736208
    21  H    3.491605   3.145470   4.396278   4.281433   5.396769
    22  H    4.773689   4.242532   5.478235   5.809644   6.795783
    23  H    3.585309   2.784883   4.269703   4.602655   5.335177
    24  C    2.536292   2.715888   2.805145   3.922718   5.076219
    25  H    3.111615   3.447328   3.010249   4.509259   5.596211
    26  C    1.535472   2.157003   2.155132   2.599930   3.940483
    27  H    2.168383   3.064668   2.466503   2.903756   4.285807
    28  H    2.176545   2.569463   3.068496   2.808298   4.230138
                    6          7          8          9         10
     6  H    0.000000
     7  H    1.750522   0.000000
     8  H    1.781837   1.772684   0.000000
     9  C    2.722417   3.362343   3.018184   0.000000
    10  H    3.782855   4.238560   3.982745   1.087948   0.000000
    11  C    2.805471   4.088020   3.440968   1.494069   2.155973
    12  H    2.178109   3.729965   2.953433   2.175579   3.085040
    13  H    3.697589   4.916706   3.964805   2.121304   2.460837
    14  H    3.349103   4.689020   4.344135   2.125415   2.500517
    15  C    7.925192   6.770375   7.673115   6.754208   6.327555
    16  H    8.300227   7.096821   7.817973   7.061418   6.622666
    17  H    8.071458   6.775652   7.860881   7.249228   6.954944
    18  H    8.675680   7.638728   8.541242   7.320729   6.776638
    19  C    6.551202   5.552221   6.417356   5.283466   4.871939
    20  C    6.276618   5.448486   6.554060   5.188586   4.833379
    21  H    5.822245   5.288799   6.262611   4.477156   4.037250
    22  H    7.285624   6.484823   7.637047   6.168799   5.740259
    23  H    5.841752   4.872375   6.197498   5.249634   5.118084
    24  C    5.922451   4.996047   5.536230   4.448900   4.033203
    25  H    6.536013   5.532962   5.870804   5.064506   4.652432
    26  C    4.712933   4.119798   4.425781   2.960946   2.561636
    27  H    5.072799   4.664535   4.556224   2.992160   2.442806
    28  H    4.791554   4.478272   4.883558   2.799968   2.190689
                   11         12         13         14         15
    11  C    0.000000
    12  H    1.090322   0.000000
    13  H    1.094235   1.765501   0.000000
    14  H    1.094134   1.772314   1.771613   0.000000
    15  C    8.220050   8.793200   8.718775   8.466765   0.000000
    16  H    8.548593   9.119138   8.947223   8.905206   1.094465
    17  H    8.704068   9.176586   9.294576   8.949809   1.093090
    18  H    8.746579   9.402177   9.221890   8.889103   1.095028
    19  C    6.736244   7.324325   7.267442   6.964693   1.504178
    20  C    6.514087   7.085459   7.196068   6.531504   2.540604
    21  H    5.713370   6.366942   6.383827   5.626305   3.430434
    22  H    7.443525   8.051548   8.117161   7.363779   2.621689
    23  H    6.533634   6.950848   7.327471   6.576413   3.052572
    24  C    5.934677   6.532053   6.342343   6.325523   2.483093
    25  H    6.536040   7.111039   6.818141   7.043485   2.676415
    26  C    4.441413   5.075193   4.844135   4.871240   3.911176
    27  H    4.371353   5.078238   4.524062   4.913333   4.559533
    28  H    4.176081   4.935655   4.640177   4.367896   4.188306
                   16         17         18         19         20
    16  H    0.000000
    17  H    1.769988   0.000000
    18  H    1.765652   1.777398   0.000000
    19  C    2.169584   2.144370   2.142276   0.000000
    20  C    3.491472   2.807270   2.801848   1.505548   0.000000
    21  H    4.280333   3.854394   3.589519   2.174982   1.092310
    22  H    3.681448   2.812518   2.481848   2.154342   1.094934
    23  H    3.985812   2.952751   3.512764   2.141816   1.094423
    24  C    2.616544   3.191722   3.198693   1.347359   2.518142
    25  H    2.341009   3.421413   3.441030   2.106569   3.497511
    26  C    4.118400   4.544166   4.533323   2.538379   3.065626
    27  H    4.554996   5.310031   5.128413   3.343653   4.046478
    28  H    4.599089   4.848389   4.600403   2.728288   2.774097
                   21         22         23         24         25
    21  H    0.000000
    22  H    1.751205   0.000000
    23  H    1.775845   1.772854   0.000000
    24  C    2.748424   3.366313   3.023309   0.000000
    25  H    3.812048   4.234994   3.975290   1.089407   0.000000
    26  C    2.782149   4.060379   3.437452   1.502820   2.196412
    27  H    3.705181   4.968152   4.512384   2.118918   2.360230
    28  H    2.130134   3.679758   3.276296   2.131283   3.014894
                   26         27         28
    26  C    0.000000
    27  H    1.097244   0.000000
    28  H    1.095931   1.748591   0.000000
 Stoichiometry    C10H18
 Framework group  C1[X(C10H18)]
 Deg. of freedom    78
 Full point group                 C1      NOp   1
 Largest Abelian subgroup         C1      NOp   1
 Largest concise Abelian subgroup C1      NOp   1
                         Standard orientation:                         
 ---------------------------------------------------------------------
 Center     Atomic      Atomic             Coordinates (Angstroms)
 Number     Number       Type             X           Y           Z
 ---------------------------------------------------------------------
      1          6           0       -0.482421    0.783295   -0.293712
      2          1           0       -0.041038    1.170406    0.635483
      3          1           0       -0.449298    1.602603   -1.024135
      4          6           0       -1.943816    0.454731   -0.008312
      5          6           0       -2.748344    1.626772    0.494101
      6          1           0       -3.519249    1.323569    1.209004
      7          1           0       -2.110607    2.345474    1.019876
      8          1           0       -3.223951    2.144188   -0.344807
      9          6           0       -2.477089   -0.775295   -0.176720
     10          1           0       -1.849988   -1.589252   -0.534277
     11          6           0       -3.887772   -1.208071    0.057632
     12          1           0       -4.550746   -0.397901    0.362414
     13          1           0       -4.288002   -1.639598   -0.864838
     14          1           0       -3.907616   -1.981434    0.831354
     15          6           0        4.203016    0.222347   -0.191929
     16          1           0        4.379635    0.550861   -1.220879
     17          1           0        4.513632    1.028054    0.478294
     18          1           0        4.840668   -0.649204   -0.010582
     19          6           0        2.762268   -0.133860    0.052847
     20          6           0        2.448083   -0.607833    1.446874
     21          1           0        1.646514   -1.349521    1.469817
     22          1           0        3.322090   -1.083428    1.903822
     23          1           0        2.156056    0.241303    2.072534
     24          6           0        1.841859   -0.012744   -0.923653
     25          1           0        2.147865    0.358649   -1.901015
     26          6           0        0.387045   -0.372082   -0.810249
     27          1           0        0.034809   -0.688022   -1.800227
     28          1           0        0.282257   -1.250312   -0.163104
 ---------------------------------------------------------------------
 Rotational constants (GHZ):           2.8323356           0.4780093           0.4636657
 Leave Link  202 at Fri Sep 17 20:09:26 2021, MaxMem=   524288000 cpu:               0.0 elap:               0.0
 (Enter /opt/gaussian/g16_legacy/l301.exe)
 Standard basis: 6-31G(d,p) (6D, 7F)
 Ernie: Thresh=  0.10000D-02 Tol=  0.10000D-05 Strict=F.
 There are   240 symmetry adapted cartesian basis functions of A   symmetry.
 There are   240 symmetry adapted basis functions of A   symmetry.
   240 basis functions,   406 primitive gaussians,   240 cartesian basis functions
    39 alpha electrons       39 beta electrons
       nuclear repulsion energy       511.4545366922 Hartrees.
 IExCor=    0 DFT=F Ex=HF Corr=None ExCW=0 ScaHFX=  1.000000
 ScaDFX=  1.000000  1.000000  1.000000  1.000000 ScalE2=  1.000000  1.000000
 IRadAn=      5 IRanWt=     -1 IRanGd=            0 ICorTp=0 IEmpDi=  4
 NAtoms=   28 NActive=   28 NUniq=   28 SFac= 1.00D+00 NAtFMM=   60 NAOKFM=F Big=F
 Integral buffers will be    131072 words long.
 Raffenetti 1 integral format.
 Two-electron integral symmetry is turned on.
 Leave Link  301 at Fri Sep 17 20:09:26 2021, MaxMem=   524288000 cpu:               0.1 elap:               0.1
 (Enter /opt/gaussian/g16_legacy/l302.exe)
 NPDir=0 NMtPBC=     1 NCelOv=     1 NCel=       1 NClECP=     1 NCelD=      1
         NCelK=      1 NCelE2=     1 NClLst=     1 CellRange=     0.0.
 One-electron integrals computed using PRISM.
 One-electron integral symmetry used in STVInt
 NBasis=   240 RedAO= T EigKep=  2.13D-03  NBF=   240
 NBsUse=   240 1.00D-06 EigRej= -1.00D+00 NBFU=   240
 Leave Link  302 at Fri Sep 17 20:09:27 2021, MaxMem=   524288000 cpu:               0.3 elap:               0.3
 (Enter /opt/gaussian/g16_legacy/l303.exe)
 DipDrv:  MaxL=1.
 Leave Link  303 at Fri Sep 17 20:09:27 2021, MaxMem=   524288000 cpu:               0.1 elap:               0.1
 (Enter /opt/gaussian/g16_legacy/l401.exe)
 ExpMin= 1.61D-01 ExpMax= 3.05D+03 ExpMxC= 4.57D+02 IAcc=3 IRadAn=         5 AccDes= 0.00D+00
 Harris functional with IExCor=  205 and IRadAn=       5 diagonalized for initial guess.
 HarFok:  IExCor=  205 AccDes= 0.00D+00 IRadAn=         5 IDoV= 1 UseB2=F ITyADJ=14
 ICtDFT=  3500011 ScaDFX=  1.000000  1.000000  1.000000  1.000000
 FoFCou: FMM=F IPFlag=           0 FMFlag=      100000 FMFlg1=           0
         NFxFlg=           0 DoJE=T BraDBF=F KetDBF=T FulRan=T
         wScrn=  0.000000 ICntrl=       500 IOpCl=  0 I1Cent=   200000004 NGrid=           0
         NMat0=    1 NMatS0=      1 NMatT0=    0 NMatD0=    1 NMtDS0=    0 NMtDT0=    0
 Petite list used in FoFCou.
 Harris En= -390.107612985812    
 JPrj=0 DoOrth=F DoCkMO=F.
 Leave Link  401 at Fri Sep 17 20:09:38 2021, MaxMem=   524288000 cpu:              10.8 elap:              11.1
 (Enter /opt/gaussian/g16_legacy/l502.exe)
 Keep R1 ints in memory in canonical form, NReq=425198025.
 FoFCou: FMM=F IPFlag=           0 FMFlag=           0 FMFlg1=           0
         NFxFlg=           0 DoJE=F BraDBF=F KetDBF=F FulRan=T
         wScrn=  0.000000 ICntrl=       600 IOpCl=  0 I1Cent=           0 NGrid=           0
         NMat0=    1 NMatS0=  28920 NMatT0=    0 NMatD0=    1 NMtDS0=    0 NMtDT0=    0
 Symmetry not used in FoFCou.
 Two-electron integral symmetry not used.
 Closed shell SCF:
 Using DIIS extrapolation, IDIIS=  1040.
 NGot=   524288000 LenX=   105970886 LenY=   105912845
 Requested convergence on RMS density matrix=1.00D-08 within 128 cycles.
 Requested convergence on MAX density matrix=1.00D-06.
 Requested convergence on             energy=1.00D-06.
 No special actions if energy rises.

 Cycle   1  Pass 1  IDiag  1:
 E= -388.529289449025    
 DIIS: error= 4.57D-02 at cycle   1 NSaved=   1.
 NSaved= 1 IEnMin= 1 EnMin= -388.529289449025     IErMin= 1 ErrMin= 4.57D-02
 ErrMax= 4.57D-02  0.00D+00 EMaxC= 1.00D-01 BMatC= 8.07D-01 BMatP= 8.07D-01
 IDIUse=3 WtCom= 5.43D-01 WtEn= 4.57D-01
 Coeff-Com:  0.100D+01
 Coeff-En:   0.100D+01
 Coeff:      0.100D+01
 Gap=     0.520 Goal=   None    Shift=    0.000
 GapD=    0.520 DampG=2.000 DampE=0.500 DampFc=1.0000 IDamp=-1.
 RMSDP=4.03D-03 MaxDP=1.15D-01              OVMax= 1.34D-01

 Cycle   2  Pass 1  IDiag  1:
 E= -389.070566336080     Delta-E=       -0.541276887054 Rises=F Damp=F
 DIIS: error= 1.19D-02 at cycle   2 NSaved=   2.
 NSaved= 2 IEnMin= 2 EnMin= -389.070566336080     IErMin= 2 ErrMin= 1.19D-02
 ErrMax= 1.19D-02  0.00D+00 EMaxC= 1.00D-01 BMatC= 8.58D-02 BMatP= 8.07D-01
 IDIUse=3 WtCom= 8.81D-01 WtEn= 1.19D-01
 Coeff-Com:  0.182D+00 0.818D+00
 Coeff-En:   0.000D+00 0.100D+01
 Coeff:      0.160D+00 0.840D+00
 Gap=     0.562 Goal=   None    Shift=    0.000
 RMSDP=1.60D-03 MaxDP=3.06D-02 DE=-5.41D-01 OVMax= 4.43D-02

 Cycle   3  Pass 1  IDiag  1:
 E= -389.147503116470     Delta-E=       -0.076936780390 Rises=F Damp=F
 DIIS: error= 2.79D-03 at cycle   3 NSaved=   3.
 NSaved= 3 IEnMin= 3 EnMin= -389.147503116470     IErMin= 3 ErrMin= 2.79D-03
 ErrMax= 2.79D-03  0.00D+00 EMaxC= 1.00D-01 BMatC= 2.72D-03 BMatP= 8.58D-02
 IDIUse=3 WtCom= 9.72D-01 WtEn= 2.79D-02
 Coeff-Com: -0.249D-01 0.944D-01 0.930D+00
 Coeff-En:   0.000D+00 0.000D+00 0.100D+01
 Coeff:     -0.242D-01 0.918D-01 0.932D+00
 Gap=     0.507 Goal=   None    Shift=    0.000
 RMSDP=2.41D-04 MaxDP=6.00D-03 DE=-7.69D-02 OVMax= 9.27D-03

 Cycle   4  Pass 1  IDiag  1:
 E= -389.150718997857     Delta-E=       -0.003215881388 Rises=F Damp=F
 DIIS: error= 4.24D-04 at cycle   4 NSaved=   4.
 NSaved= 4 IEnMin= 4 EnMin= -389.150718997857     IErMin= 4 ErrMin= 4.24D-04
 ErrMax= 4.24D-04  0.00D+00 EMaxC= 1.00D-01 BMatC= 7.06D-05 BMatP= 2.72D-03
 IDIUse=3 WtCom= 9.96D-01 WtEn= 4.24D-03
 Coeff-Com: -0.233D-02-0.892D-02 0.309D-01 0.980D+00
 Coeff-En:   0.000D+00 0.000D+00 0.000D+00 0.100D+01
 Coeff:     -0.232D-02-0.888D-02 0.307D-01 0.980D+00
 Gap=     0.508 Goal=   None    Shift=    0.000
 RMSDP=7.28D-05 MaxDP=1.81D-03 DE=-3.22D-03 OVMax= 3.25D-03

 Cycle   5  Pass 1  IDiag  1:
 E= -389.150824179818     Delta-E=       -0.000105181960 Rises=F Damp=F
 DIIS: error= 1.53D-04 at cycle   5 NSaved=   5.
 NSaved= 5 IEnMin= 5 EnMin= -389.150824179818     IErMin= 5 ErrMin= 1.53D-04
 ErrMax= 1.53D-04  0.00D+00 EMaxC= 1.00D-01 BMatC= 1.45D-05 BMatP= 7.06D-05
 IDIUse=3 WtCom= 9.98D-01 WtEn= 1.53D-03
 Coeff-Com:  0.239D-02-0.142D-01-0.102D+00 0.230D+00 0.883D+00
 Coeff-En:   0.000D+00 0.000D+00 0.000D+00 0.000D+00 0.100D+01
 Coeff:      0.239D-02-0.142D-01-0.102D+00 0.230D+00 0.883D+00
 Gap=     0.508 Goal=   None    Shift=    0.000
 RMSDP=2.62D-05 MaxDP=6.62D-04 DE=-1.05D-04 OVMax= 9.15D-04

 Cycle   6  Pass 1  IDiag  1:
 E= -389.150842589434     Delta-E=       -0.000018409617 Rises=F Damp=F
 DIIS: error= 2.94D-05 at cycle   6 NSaved=   6.
 NSaved= 6 IEnMin= 6 EnMin= -389.150842589434     IErMin= 6 ErrMin= 2.94D-05
 ErrMax= 2.94D-05  0.00D+00 EMaxC= 1.00D-01 BMatC= 5.07D-07 BMatP= 1.45D-05
 IDIUse=1 WtCom= 1.00D+00 WtEn= 0.00D+00
 Coeff-Com:  0.635D-03-0.267D-02-0.228D-01-0.655D-02 0.157D+00 0.874D+00
 Coeff:      0.635D-03-0.267D-02-0.228D-01-0.655D-02 0.157D+00 0.874D+00
 Gap=     0.508 Goal=   None    Shift=    0.000
 RMSDP=5.35D-06 MaxDP=1.85D-04 DE=-1.84D-05 OVMax= 3.70D-04

 Cycle   7  Pass 1  IDiag  1:
 E= -389.150843438110     Delta-E=       -0.000000848676 Rises=F Damp=F
 DIIS: error= 9.27D-06 at cycle   7 NSaved=   7.
 NSaved= 7 IEnMin= 7 EnMin= -389.150843438110     IErMin= 7 ErrMin= 9.27D-06
 ErrMax= 9.27D-06  0.00D+00 EMaxC= 1.00D-01 BMatC= 5.20D-08 BMatP= 5.07D-07
 IDIUse=1 WtCom= 1.00D+00 WtEn= 0.00D+00
 Coeff-Com: -0.728D-04 0.516D-03 0.386D-02-0.121D-01-0.501D-01 0.113D+00
 Coeff-Com:  0.945D+00
 Coeff:     -0.728D-04 0.516D-03 0.386D-02-0.121D-01-0.501D-01 0.113D+00
 Coeff:      0.945D+00
 Gap=     0.508 Goal=   None    Shift=    0.000
 RMSDP=1.74D-06 MaxDP=3.80D-05 DE=-8.49D-07 OVMax= 8.78D-05

 Cycle   8  Pass 1  IDiag  1:
 E= -389.150843530721     Delta-E=       -0.000000092611 Rises=F Damp=F
 DIIS: error= 5.14D-06 at cycle   8 NSaved=   8.
 NSaved= 8 IEnMin= 8 EnMin= -389.150843530721     IErMin= 8 ErrMin= 5.14D-06
 ErrMax= 5.14D-06  0.00D+00 EMaxC= 1.00D-01 BMatC= 6.03D-09 BMatP= 5.20D-08
 IDIUse=1 WtCom= 1.00D+00 WtEn= 0.00D+00
 Coeff-Com: -0.640D-04 0.256D-03 0.233D-02 0.317D-02-0.215D-01-0.882D-01
 Coeff-Com: -0.905D-01 0.119D+01
 Coeff:     -0.640D-04 0.256D-03 0.233D-02 0.317D-02-0.215D-01-0.882D-01
 Coeff:     -0.905D-01 0.119D+01
 Gap=     0.508 Goal=   None    Shift=    0.000
 RMSDP=8.34D-07 MaxDP=2.61D-05 DE=-9.26D-08 OVMax= 6.95D-05

 Cycle   9  Pass 1  IDiag  1:
 E= -389.150843550163     Delta-E=       -0.000000019442 Rises=F Damp=F
 DIIS: error= 1.80D-06 at cycle   9 NSaved=   9.
 NSaved= 9 IEnMin= 9 EnMin= -389.150843550163     IErMin= 9 ErrMin= 1.80D-06
 ErrMax= 1.80D-06  0.00D+00 EMaxC= 1.00D-01 BMatC= 9.20D-10 BMatP= 6.03D-09
 IDIUse=1 WtCom= 1.00D+00 WtEn= 0.00D+00
 Coeff-Com:  0.160D-04-0.974D-04-0.764D-03 0.189D-02 0.605D-02 0.400D-02
 Coeff-Com: -0.121D+00-0.148D+00 0.126D+01
 Coeff:      0.160D-04-0.974D-04-0.764D-03 0.189D-02 0.605D-02 0.400D-02
 Coeff:     -0.121D+00-0.148D+00 0.126D+01
 Gap=     0.508 Goal=   None    Shift=    0.000
 RMSDP=3.76D-07 MaxDP=1.03D-05 DE=-1.94D-08 OVMax= 3.03D-05

 Cycle  10  Pass 1  IDiag  1:
 E= -389.150843553138     Delta-E=       -0.000000002976 Rises=F Damp=F
 DIIS: error= 4.90D-07 at cycle  10 NSaved=  10.
 NSaved=10 IEnMin=10 EnMin= -389.150843553138     IErMin=10 ErrMin= 4.90D-07
 ErrMax= 4.90D-07  0.00D+00 EMaxC= 1.00D-01 BMatC= 6.59D-11 BMatP= 9.20D-10
 IDIUse=1 WtCom= 1.00D+00 WtEn= 0.00D+00
 Coeff-Com:  0.681D-05-0.293D-04-0.257D-03-0.170D-03 0.165D-02 0.115D-01
 Coeff-Com:  0.882D-02-0.126D+00-0.416D-03 0.110D+01
 Coeff:      0.681D-05-0.293D-04-0.257D-03-0.170D-03 0.165D-02 0.115D-01
 Coeff:      0.882D-02-0.126D+00-0.416D-03 0.110D+01
 Gap=     0.508 Goal=   None    Shift=    0.000
 RMSDP=9.93D-08 MaxDP=3.24D-06 DE=-2.98D-09 OVMax= 8.38D-06

 Cycle  11  Pass 1  IDiag  1:
 E= -389.150843553341     Delta-E=       -0.000000000202 Rises=F Damp=F
 DIIS: error= 1.31D-07 at cycle  11 NSaved=  11.
 NSaved=11 IEnMin=11 EnMin= -389.150843553341     IErMin=11 ErrMin= 1.31D-07
 ErrMax= 1.31D-07  0.00D+00 EMaxC= 1.00D-01 BMatC= 5.94D-12 BMatP= 6.59D-11
 IDIUse=1 WtCom= 1.00D+00 WtEn= 0.00D+00
 Coeff-Com: -0.914D-06 0.644D-05 0.504D-04-0.147D-03-0.541D-03 0.386D-03
 Coeff-Com:  0.102D-01 0.503D-02-0.114D+00 0.547D-01 0.104D+01
 Coeff:     -0.914D-06 0.644D-05 0.504D-04-0.147D-03-0.541D-03 0.386D-03
 Coeff:      0.102D-01 0.503D-02-0.114D+00 0.547D-01 0.104D+01
 Gap=     0.508 Goal=   None    Shift=    0.000
 RMSDP=2.74D-08 MaxDP=7.23D-07 DE=-2.02D-10 OVMax= 2.06D-06

 Cycle  12  Pass 1  IDiag  1:
 E= -389.150843553364     Delta-E=       -0.000000000023 Rises=F Damp=F
 DIIS: error= 3.76D-08 at cycle  12 NSaved=  12.
 NSaved=12 IEnMin=12 EnMin= -389.150843553364     IErMin=12 ErrMin= 3.76D-08
 ErrMax= 3.76D-08  0.00D+00 EMaxC= 1.00D-01 BMatC= 4.18D-13 BMatP= 5.94D-12
 IDIUse=1 WtCom= 1.00D+00 WtEn= 0.00D+00
 Coeff-Com: -0.693D-06 0.334D-05 0.285D-04 0.872D-05-0.233D-03-0.978D-03
 Coeff-Com:  0.150D-03 0.133D-01-0.892D-02-0.944D-01 0.948D-01 0.996D+00
 Coeff:     -0.693D-06 0.334D-05 0.285D-04 0.872D-05-0.233D-03-0.978D-03
 Coeff:      0.150D-03 0.133D-01-0.892D-02-0.944D-01 0.948D-01 0.996D+00
 Gap=     0.508 Goal=   None    Shift=    0.000
 RMSDP=6.31D-09 MaxDP=1.69D-07 DE=-2.27D-11 OVMax= 3.42D-07

 SCF Done:  E(RHF) =  -389.150843553     A.U. after   12 cycles
            NFock= 12  Conv=0.63D-08     -V/T= 2.0014
 KE= 3.886081565062D+02 PE=-1.927598168355D+03 EE= 6.383846316027D+02
 Leave Link  502 at Fri Sep 17 20:10:13 2021, MaxMem=   524288000 cpu:              34.3 elap:              34.7
 (Enter /opt/gaussian/g16_legacy/l801.exe)
 ExpMin= 1.61D-01 ExpMax= 3.05D+03 ExpMxC= 4.57D+02 IAcc=3 IRadAn=         5 AccDes= 0.00D+00
 HarFok:  IExCor=  205 AccDes= 0.00D+00 IRadAn=         5 IDoV=-2 UseB2=F ITyADJ=14
 ICtDFT= 12500011 ScaDFX=  1.000000  1.000000  1.000000  1.000000
 Largest valence mixing into a core orbital is  1.98D-04
 Largest core mixing into a valence orbital is  3.51D-05
 Range of M.O.s used for correlation:    11   240
 NBasis=   240 NAE=    39 NBE=    39 NFC=    10 NFV=     0
 NROrb=    230 NOA=    29 NOB=    29 NVA=   201 NVB=   201
 Leave Link  801 at Fri Sep 17 20:10:15 2021, MaxMem=   524288000 cpu:               1.7 elap:               1.9
 (Enter /opt/gaussian/g16_legacy/l906.exe)
 Frozen-core derivative calculation, NFC=  10 NFV=   0.
 FulOut=F Deriv=T AODrv=T NAtomX=    28
   MMem=          91  MDisk=          29 MDiskD=          29
  W3Min=     2246400 MinDsk=     2795480 NBas6D=         240
 NBas2D=       29244    NTT=       28920    LW2=     2040000
    MDV=   523632558 MDiskM=       30187 NBas2p=       23704
 Fully direct method using O(ONN) memory.
 IMap=   1   2   3   4   5   6   7   8   9  10  11  12  13  14  15  16  17  18  19  20
 IMap=  21  22  23  24  25  26  27  28  29  30  31  32  33  34  35  36  37  38  39
 JobTyp=1 Pass  1:  I=  11 to  39 NPSUse=  1 ParTrn=F ParDer=F DoDerP=T.
 Spin components of T(2) and E(2):
     alpha-alpha T2 =       0.5715761682D-01 E2=     -0.1638579935D+00
     alpha-beta  T2 =       0.3620391146D+00 E2=     -0.1089684502D+01
     beta-beta   T2 =       0.5715761682D-01 E2=     -0.1638579935D+00
 The integrals were generated   1 times.
 ANorm=    0.1215053229D+01
 E2 =    -0.1417400489D+01 EUMP2 =    -0.39056824404273D+03
 Leave Link  906 at Fri Sep 17 20:14:39 2021, MaxMem=   524288000 cpu:             264.2 elap:             264.4
 (Enter /opt/gaussian/g16_legacy/l1002.exe)
 Minotr:  Closed shell wavefunction.
          Computing MP2/KS-MP2 derivatives.
          Using Z-Vector for PSCF gradient.
          Skipping F1 and S1 gradient terms here.
          IDoAtm=1111111111111111111111111111
          Frozen-core window.
          Direct CPHF calculation.
          Differentiating once with respect to electric field.
                with respect to dipole field.
          Differentiating once with respect to nuclear coordinates.
          Requested convergence is 1.0D-10 RMS, and 1.0D-09 maximum.
          NewPWx=F KeepS1=T KeepF1=T KeepIn=T MapXYZ=F SortEE=F KeepMc=T.
 Keep R1 ints in memory in canonical form, NReq=425201067.
 FoFCou: FMM=F IPFlag=           0 FMFlag=           0 FMFlg1=           0
         NFxFlg=           0 DoJE=F BraDBF=F KetDBF=F FulRan=T
         wScrn=  0.000000 ICntrl=       600 IOpCl=  0 I1Cent=           0 NGrid=           0
         NMat0=    1 NMatS0=  28920 NMatT0=    0 NMatD0=    1 NMtDS0=    0 NMtDT0=    0
 Symmetry not used in FoFCou.
 Two-electron integral symmetry not used.
          MDV=     524288000 using IRadAn=       5.
          Solving linear equations separately, MaxMat=       0.
          There are     1 degrees of freedom in the 1st order CPHF.  IDoFFX=0 NUNeed=     1.
 LinEq1:  Iter=  0 NonCon=     1 RMS=2.55D-03 Max=3.91D-02 NDo=     1
 AX will form     1 AO Fock derivatives at one time.
 LinEq1:  Iter=  1 NonCon=     1 RMS=6.90D-04 Max=9.48D-03 NDo=     1
 LinEq1:  Iter=  2 NonCon=     1 RMS=1.64D-04 Max=4.20D-03 NDo=     1
 LinEq1:  Iter=  3 NonCon=     1 RMS=4.52D-05 Max=6.54D-04 NDo=     1
 LinEq1:  Iter=  4 NonCon=     1 RMS=2.17D-05 Max=8.78D-04 NDo=     1
 LinEq1:  Iter=  5 NonCon=     1 RMS=5.32D-06 Max=1.00D-04 NDo=     1
 LinEq1:  Iter=  6 NonCon=     1 RMS=1.46D-06 Max=2.09D-05 NDo=     1
 LinEq1:  Iter=  7 NonCon=     1 RMS=3.80D-07 Max=4.31D-06 NDo=     1
 LinEq1:  Iter=  8 NonCon=     1 RMS=8.97D-08 Max=8.57D-07 NDo=     1
 LinEq1:  Iter=  9 NonCon=     1 RMS=1.84D-08 Max=2.09D-07 NDo=     1
 LinEq1:  Iter= 10 NonCon=     1 RMS=5.11D-09 Max=8.96D-08 NDo=     1
 LinEq1:  Iter= 11 NonCon=     1 RMS=1.59D-09 Max=4.53D-08 NDo=     1
 LinEq1:  Iter= 12 NonCon=     1 RMS=4.72D-10 Max=7.14D-09 NDo=     1
 LinEq1:  Iter= 13 NonCon=     1 RMS=2.03D-10 Max=7.21D-09 NDo=     1
 LinEq1:  Iter= 14 NonCon=     0 RMS=5.88D-11 Max=5.86D-10 NDo=     1
 Linear equations converged to 1.000D-10 1.000D-09 after    14 iterations.
 End of Minotr F.D. properties file   721 does not exist.
 End of Minotr F.D. properties file   722 does not exist.
 End of Minotr F.D. properties file   788 does not exist.
 Leave Link 1002 at Fri Sep 17 20:15:13 2021, MaxMem=   524288000 cpu:              33.8 elap:              33.8
 (Enter /opt/gaussian/g16_legacy/l601.exe)
 Copying SCF densities to generalized density rwf, IOpCl= 0 IROHF=0.

 **********************************************************************

            Population analysis using the SCF density.

 **********************************************************************

 Orbital symmetries:
       Occupied  (A) (A) (A) (A) (A) (A) (A) (A) (A) (A) (A) (A)
                 (A) (A) (A) (A) (A) (A) (A) (A) (A) (A) (A) (A)
                 (A) (A) (A) (A) (A) (A) (A) (A) (A) (A) (A) (A)
                 (A) (A) (A)
       Virtual   (A) (A) (A) (A) (A) (A) (A) (A) (A) (A) (A) (A)
                 (A) (A) (A) (A) (A) (A) (A) (A) (A) (A) (A) (A)
                 (A) (A) (A) (A) (A) (A) (A) (A) (A) (A) (A) (A)
                 (A) (A) (A) (A) (A) (A) (A) (A) (A) (A) (A) (A)
                 (A) (A) (A) (A) (A) (A) (A) (A) (A) (A) (A) (A)
                 (A) (A) (A) (A) (A) (A) (A) (A) (A) (A) (A) (A)
                 (A) (A) (A) (A) (A) (A) (A) (A) (A) (A) (A) (A)
                 (A) (A) (A) (A) (A) (A) (A) (A) (A) (A) (A) (A)
                 (A) (A) (A) (A) (A) (A) (A) (A) (A) (A) (A) (A)
                 (A) (A) (A) (A) (A) (A) (A) (A) (A) (A) (A) (A)
                 (A) (A) (A) (A) (A) (A) (A) (A) (A) (A) (A) (A)
                 (A) (A) (A) (A) (A) (A) (A) (A) (A) (A) (A) (A)
                 (A) (A) (A) (A) (A) (A) (A) (A) (A) (A) (A) (A)
                 (A) (A) (A) (A) (A) (A) (A) (A) (A) (A) (A) (A)
                 (A) (A) (A) (A) (A) (A) (A) (A) (A) (A) (A) (A)
                 (A) (A) (A) (A) (A) (A) (A) (A) (A) (A) (A) (A)
                 (A) (A) (A) (A) (A) (A) (A) (A) (A)
 The electronic state is 1-A.
 Alpha  occ. eigenvalues --  -11.22889 -11.22741 -11.22140 -11.21736 -11.21581
 Alpha  occ. eigenvalues --  -11.21571 -11.21512 -11.21392 -11.21308 -11.21132
 Alpha  occ. eigenvalues --   -1.10409  -1.08201  -1.01782  -0.97711  -0.93615
 Alpha  occ. eigenvalues --   -0.91868  -0.86778  -0.82719  -0.70095  -0.68849
 Alpha  occ. eigenvalues --   -0.63695  -0.62832  -0.59683  -0.58944  -0.58613
 Alpha  occ. eigenvalues --   -0.56148  -0.55633  -0.54856  -0.53941  -0.52781
 Alpha  occ. eigenvalues --   -0.51671  -0.51167  -0.50039  -0.48477  -0.47297
 Alpha  occ. eigenvalues --   -0.46476  -0.44378  -0.32318  -0.32061
 Alpha virt. eigenvalues --    0.18754   0.19318   0.22993   0.24540   0.26241
 Alpha virt. eigenvalues --    0.26767   0.26978   0.29327   0.30189   0.30915
 Alpha virt. eigenvalues --    0.31915   0.32053   0.33311   0.33552   0.33836
 Alpha virt. eigenvalues --    0.35477   0.36322   0.36961   0.37549   0.39667
 Alpha virt. eigenvalues --    0.41129   0.41352   0.44100   0.45657   0.48047
 Alpha virt. eigenvalues --    0.51741   0.52640   0.60715   0.64631   0.69690
 Alpha virt. eigenvalues --    0.70986   0.72535   0.74197   0.75832   0.76047
 Alpha virt. eigenvalues --    0.78483   0.79945   0.80109   0.81566   0.83540
 Alpha virt. eigenvalues --    0.85206   0.86655   0.88643   0.90635   0.91743
 Alpha virt. eigenvalues --    0.92953   0.94671   0.96617   0.96802   0.99184
 Alpha virt. eigenvalues --    1.00224   1.01397   1.03101   1.03873   1.06785
 Alpha virt. eigenvalues --    1.07702   1.09030   1.11190   1.12280   1.12779
 Alpha virt. eigenvalues --    1.13514   1.13740   1.13824   1.15259   1.15749
 Alpha virt. eigenvalues --    1.16141   1.17120   1.17695   1.18773   1.19445
 Alpha virt. eigenvalues --    1.20042   1.21450   1.23520   1.25027   1.26655
 Alpha virt. eigenvalues --    1.31658   1.32154   1.38852   1.42092   1.43922
 Alpha virt. eigenvalues --    1.46845   1.49810   1.56549   1.56689   1.59416
 Alpha virt. eigenvalues --    1.62701   1.66929   1.68330   1.69565   1.71501
 Alpha virt. eigenvalues --    1.76784   1.81056   1.91336   1.94018   1.96427
 Alpha virt. eigenvalues --    1.99497   2.00994   2.02282   2.05590   2.08090
 Alpha virt. eigenvalues --    2.09211   2.10837   2.11095   2.12407   2.15050
 Alpha virt. eigenvalues --    2.18617   2.19948   2.21965   2.23585   2.27352
 Alpha virt. eigenvalues --    2.28127   2.31901   2.34200   2.35272   2.35664
 Alpha virt. eigenvalues --    2.36586   2.36875   2.39109   2.39758   2.40541
 Alpha virt. eigenvalues --    2.41063   2.41791   2.44032   2.44772   2.45194
 Alpha virt. eigenvalues --    2.45980   2.47243   2.49280   2.50852   2.52514
 Alpha virt. eigenvalues --    2.55914   2.56784   2.60963   2.62781   2.64912
 Alpha virt. eigenvalues --    2.66702   2.70273   2.70968   2.72753   2.75373
 Alpha virt. eigenvalues --    2.76078   2.79040   2.80525   2.83718   2.85895
 Alpha virt. eigenvalues --    2.88392   2.88964   2.90261   2.91639   2.94889
 Alpha virt. eigenvalues --    2.96871   3.01308   3.01438   3.02973   3.04209
 Alpha virt. eigenvalues --    3.06112   3.06904   3.10018   3.10940   3.15130
 Alpha virt. eigenvalues --    3.17977   3.19418   3.20207   3.20717   3.22210
 Alpha virt. eigenvalues --    3.24122   3.24826   3.25394   3.25737   3.37884
 Alpha virt. eigenvalues --    3.38399   3.45071   3.46646   3.55850   3.56444
 Alpha virt. eigenvalues --    3.59716   3.61347   3.66054   3.72986   3.77934
 Alpha virt. eigenvalues --    3.79492   3.79709   3.81420   3.81775   3.82624
 Alpha virt. eigenvalues --    3.82921   3.85891   3.86656   3.90440   3.92107
 Alpha virt. eigenvalues --    3.94909   4.58174   4.60906   4.75218   4.82781
 Alpha virt. eigenvalues --    4.87751   4.90985   4.92583   5.02090   5.11083
 Alpha virt. eigenvalues --    5.19091
          Condensed to atoms (all electrons):
               1          2          3          4          5          6
     1  C    4.941227   0.404597   0.405895   0.351204  -0.054499   0.003033
     2  H    0.404597   0.595858  -0.033782  -0.043624  -0.004745  -0.000053
     3  H    0.405895  -0.033782   0.597861  -0.047564  -0.000575   0.000020
     4  C    0.351204  -0.043624  -0.047564   4.949822   0.338590  -0.037474
     5  C   -0.054499  -0.004745  -0.000575   0.338590   4.923399   0.405221
     6  H    0.003033  -0.000053   0.000020  -0.037474   0.405221   0.569737
     7  H   -0.004575   0.002160  -0.000391  -0.043525   0.406314  -0.030495
     8  H    0.000551  -0.000006   0.000988  -0.040368   0.397215  -0.026336
     9  C   -0.042998   0.000356  -0.000477   0.696406  -0.053297  -0.002943
    10  H   -0.006055   0.000221   0.000070  -0.035596   0.003253   0.000037
    11  C    0.002882  -0.000094  -0.000072  -0.047649  -0.007189  -0.002164
    12  H    0.000078  -0.000001  -0.000005  -0.000571  -0.001422  -0.001260
    13  H   -0.000081  -0.000003   0.000015   0.000055   0.000168  -0.000081
    14  H   -0.000106   0.000016  -0.000004  -0.001021   0.000337   0.000283
    15  C   -0.000093  -0.000057   0.000002   0.000001  -0.000000   0.000000
    16  H   -0.000003  -0.000002   0.000001   0.000000  -0.000000   0.000000
    17  H    0.000022  -0.000004  -0.000002  -0.000000   0.000000  -0.000000
    18  H   -0.000004   0.000002   0.000000   0.000000  -0.000000   0.000000
    19  C   -0.004760   0.000650   0.000877   0.000125  -0.000004   0.000000
    20  C    0.000592  -0.000170  -0.000038  -0.000027   0.000001  -0.000000
    21  H   -0.000584   0.000039   0.000008   0.000079  -0.000002   0.000000
    22  H   -0.000019   0.000029  -0.000000   0.000001  -0.000000   0.000000
    23  H    0.000536  -0.000135  -0.000014  -0.000063   0.000002  -0.000000
    24  C   -0.054033  -0.001401  -0.001613   0.004522  -0.000087   0.000001
    25  H    0.001200   0.000188   0.000338  -0.000080   0.000002  -0.000000
    26  C    0.340891  -0.041198  -0.039478  -0.044276   0.003347  -0.000089
    27  H   -0.042808   0.004534  -0.004469  -0.000593  -0.000097   0.000001
    28  H   -0.042115  -0.002806   0.004637  -0.001148   0.000007  -0.000001
               7          8          9         10         11         12
     1  C   -0.004575   0.000551  -0.042998  -0.006055   0.002882   0.000078
     2  H    0.002160  -0.000006   0.000356   0.000221  -0.000094  -0.000001
     3  H   -0.000391   0.000988  -0.000477   0.000070  -0.000072  -0.000005
     4  C   -0.043525  -0.040368   0.696406  -0.035596  -0.047649  -0.000571
     5  C    0.406314   0.397215  -0.053297   0.003253  -0.007189  -0.001422
     6  H   -0.030495  -0.026336  -0.002943   0.000037  -0.002164  -0.001260
     7  H    0.583307  -0.030715   0.002812  -0.000098   0.000143   0.000017
     8  H   -0.030715   0.575189  -0.004036  -0.000138   0.000677  -0.000203
     9  C    0.002812  -0.004036   4.956104   0.406236   0.339107  -0.041778
    10  H   -0.000098  -0.000138   0.406236   0.558784  -0.045359   0.003508
    11  C    0.000143   0.000677   0.339107  -0.045359   4.900647   0.407563
    12  H    0.000017  -0.000203  -0.041778   0.003508   0.407563   0.573944
    13  H   -0.000012   0.000159  -0.044685  -0.002183   0.403619  -0.028690
    14  H    0.000014  -0.000071  -0.045174  -0.000921   0.401180  -0.027631
    15  C   -0.000000   0.000000   0.000000  -0.000000   0.000000   0.000000
    16  H   -0.000000   0.000000   0.000000   0.000000   0.000000  -0.000000
    17  H    0.000000  -0.000000   0.000000  -0.000000  -0.000000   0.000000
    18  H   -0.000000   0.000000  -0.000000   0.000000   0.000000  -0.000000
    19  C   -0.000002   0.000000   0.000002  -0.000006   0.000000  -0.000000
    20  C   -0.000000  -0.000000  -0.000007  -0.000002   0.000000   0.000000
    21  H   -0.000000   0.000000   0.000002  -0.000001  -0.000000  -0.000000
    22  H    0.000000   0.000000  -0.000000   0.000000   0.000000  -0.000000
    23  H    0.000001  -0.000000   0.000000  -0.000000  -0.000000   0.000000
    24  C   -0.000009   0.000001   0.000267   0.000128  -0.000001   0.000000
    25  H    0.000000  -0.000000  -0.000002   0.000000   0.000000  -0.000000
    26  C    0.000178  -0.000109  -0.008616  -0.001158   0.000048  -0.000001
    27  H    0.000001   0.000004   0.000135  -0.000009  -0.000040  -0.000001
    28  H   -0.000004   0.000003  -0.001089  -0.000968  -0.000033  -0.000003
              13         14         15         16         17         18
     1  C   -0.000081  -0.000106  -0.000093  -0.000003   0.000022  -0.000004
     2  H   -0.000003   0.000016  -0.000057  -0.000002  -0.000004   0.000002
     3  H    0.000015  -0.000004   0.000002   0.000001  -0.000002   0.000000
     4  C    0.000055  -0.001021   0.000001   0.000000  -0.000000   0.000000
     5  C    0.000168   0.000337  -0.000000  -0.000000   0.000000  -0.000000
     6  H   -0.000081   0.000283   0.000000   0.000000  -0.000000   0.000000
     7  H   -0.000012   0.000014  -0.000000  -0.000000   0.000000  -0.000000
     8  H    0.000159  -0.000071   0.000000   0.000000  -0.000000   0.000000
     9  C   -0.044685  -0.045174   0.000000   0.000000   0.000000  -0.000000
    10  H   -0.002183  -0.000921  -0.000000   0.000000  -0.000000   0.000000
    11  C    0.403619   0.401180   0.000000   0.000000  -0.000000   0.000000
    12  H   -0.028690  -0.027631   0.000000  -0.000000   0.000000  -0.000000
    13  H    0.585705  -0.033735  -0.000000   0.000000   0.000000   0.000000
    14  H   -0.033735   0.587774   0.000000  -0.000000   0.000000  -0.000000
    15  C   -0.000000   0.000000   4.893431   0.405950   0.399392   0.398397
    16  H    0.000000  -0.000000   0.405950   0.569728  -0.027569  -0.027948
    17  H    0.000000   0.000000   0.399392  -0.027569   0.594150  -0.034718
    18  H    0.000000  -0.000000   0.398397  -0.027948  -0.034718   0.592868
    19  C    0.000000  -0.000000   0.354143  -0.041680  -0.047191  -0.043321
    20  C   -0.000000   0.000000  -0.058962   0.003804   0.000005  -0.003334
    21  H    0.000000  -0.000000   0.003357  -0.000117  -0.000050   0.000015
    22  H   -0.000000   0.000000  -0.005371   0.000140  -0.000686   0.002498
    23  H   -0.000000   0.000000   0.000839  -0.000135   0.001230  -0.000128
    24  C   -0.000000  -0.000000  -0.045754  -0.002314  -0.000969  -0.000678
    25  H   -0.000000   0.000000  -0.006324   0.002254   0.000148   0.000197
    26  C   -0.000009   0.000012   0.003230   0.000136  -0.000083  -0.000127
    27  H   -0.000007   0.000005  -0.000104  -0.000009  -0.000001   0.000007
    28  H    0.000014  -0.000019   0.000067   0.000007  -0.000010   0.000019
              19         20         21         22         23         24
     1  C   -0.004760   0.000592  -0.000584  -0.000019   0.000536  -0.054033
     2  H    0.000650  -0.000170   0.000039   0.000029  -0.000135  -0.001401
     3  H    0.000877  -0.000038   0.000008  -0.000000  -0.000014  -0.001613
     4  C    0.000125  -0.000027   0.000079   0.000001  -0.000063   0.004522
     5  C   -0.000004   0.000001  -0.000002  -0.000000   0.000002  -0.000087
     6  H    0.000000  -0.000000   0.000000   0.000000  -0.000000   0.000001
     7  H   -0.000002  -0.000000  -0.000000   0.000000   0.000001  -0.000009
     8  H    0.000000  -0.000000   0.000000   0.000000  -0.000000   0.000001
     9  C    0.000002  -0.000007   0.000002  -0.000000   0.000000   0.000267
    10  H   -0.000006  -0.000002  -0.000001   0.000000  -0.000000   0.000128
    11  C    0.000000   0.000000  -0.000000   0.000000  -0.000000  -0.000001
    12  H   -0.000000   0.000000  -0.000000  -0.000000   0.000000   0.000000
    13  H    0.000000  -0.000000   0.000000  -0.000000  -0.000000  -0.000000
    14  H   -0.000000   0.000000  -0.000000   0.000000   0.000000  -0.000000
    15  C    0.354143  -0.058962   0.003357  -0.005371   0.000839  -0.045754
    16  H   -0.041680   0.003804  -0.000117   0.000140  -0.000135  -0.002314
    17  H   -0.047191   0.000005  -0.000050  -0.000686   0.001230  -0.000969
    18  H   -0.043321  -0.003334   0.000015   0.002498  -0.000128  -0.000678
    19  C    4.931598   0.341927  -0.037575  -0.042748  -0.041500   0.693331
    20  C    0.341927   4.921487   0.404053   0.404998   0.399464  -0.049641
    21  H   -0.037575   0.404053   0.564736  -0.029188  -0.026784  -0.003534
    22  H   -0.042748   0.404998  -0.029188   0.583147  -0.031003   0.002823
    23  H   -0.041500   0.399464  -0.026784  -0.031003   0.573154  -0.004318
    24  C    0.693331  -0.049641  -0.003534   0.002823  -0.004318   4.962265
    25  H   -0.036956   0.003293   0.000022  -0.000101  -0.000120   0.404737
    26  C   -0.053131  -0.009090  -0.001884   0.000092   0.000667   0.349894
    27  H    0.002254   0.000211   0.000097   0.000005  -0.000028  -0.040325
    28  H   -0.000959  -0.002072   0.000873   0.000046  -0.000413  -0.048584
              25         26         27         28
     1  C    0.001200   0.340891  -0.042808  -0.042115
     2  H    0.000188  -0.041198   0.004534  -0.002806
     3  H    0.000338  -0.039478  -0.004469   0.004637
     4  C   -0.000080  -0.044276  -0.000593  -0.001148
     5  C    0.000002   0.003347  -0.000097   0.000007
     6  H   -0.000000  -0.000089   0.000001  -0.000001
     7  H    0.000000   0.000178   0.000001  -0.000004
     8  H   -0.000000  -0.000109   0.000004   0.000003
     9  C   -0.000002  -0.008616   0.000135  -0.001089
    10  H    0.000000  -0.001158  -0.000009  -0.000968
    11  C    0.000000   0.000048  -0.000040  -0.000033
    12  H   -0.000000  -0.000001  -0.000001  -0.000003
    13  H   -0.000000  -0.000009  -0.000007   0.000014
    14  H    0.000000   0.000012   0.000005  -0.000019
    15  C   -0.006324   0.003230  -0.000104   0.000067
    16  H    0.002254   0.000136  -0.000009   0.000007
    17  H    0.000148  -0.000083  -0.000001  -0.000010
    18  H    0.000197  -0.000127   0.000007   0.000019
    19  C   -0.036956  -0.053131   0.002254  -0.000959
    20  C    0.003293  -0.009090   0.000211  -0.002072
    21  H    0.000022  -0.001884   0.000097   0.000873
    22  H   -0.000101   0.000092   0.000005   0.000046
    23  H   -0.000120   0.000667  -0.000028  -0.000413
    24  C    0.404737   0.349894  -0.040325  -0.048584
    25  H    0.554732  -0.040503  -0.004952   0.003369
    26  C   -0.040503   4.966297   0.412123   0.417093
    27  H   -0.004952   0.412123   0.587783  -0.032418
    28  H    0.003369   0.417093  -0.032418   0.586595
 Mulliken charges:
               1
     1  C   -0.199974
     2  H    0.119430
     3  H    0.117771
     4  C    0.002777
     5  C   -0.355939
     6  H    0.122562
     7  H    0.114878
     8  H    0.127197
     9  C   -0.156328
    10  H    0.120256
    11  C   -0.353264
    12  H    0.116455
    13  H    0.119751
    14  H    0.119062
    15  C   -0.342145
    16  H    0.117758
    17  H    0.116335
    18  H    0.116255
    19  C    0.024927
    20  C   -0.356491
    21  H    0.126439
    22  H    0.115340
    23  H    0.128746
    24  C   -0.164707
    25  H    0.118560
    26  C   -0.254258
    27  H    0.118697
    28  H    0.119912
 Sum of Mulliken charges =  -0.00000
 Mulliken charges with hydrogens summed into heavy atoms:
               1
     1  C    0.037226
     4  C    0.002777
     5  C    0.008698
     9  C   -0.036072
    11  C    0.002004
    15  C    0.008203
    19  C    0.024927
    20  C    0.014033
    24  C   -0.046147
    26  C   -0.015649
 Electronic spatial extent (au):  <R**2>=           2624.6930
 Charge=             -0.0000 electrons
 Dipole moment (field-independent basis, Debye):
    X=              0.0958    Y=              0.1428    Z=              0.2889  Tot=              0.3362
 Quadrupole moment (field-independent basis, Debye-Ang):
   XX=            -64.1021   YY=            -65.0689   ZZ=            -65.1205
   XY=             -0.0674   XZ=              0.5483   YZ=             -0.2140
 Traceless Quadrupole moment (field-independent basis, Debye-Ang):
   XX=              0.6618   YY=             -0.3051   ZZ=             -0.3567
   XY=             -0.0674   XZ=              0.5483   YZ=             -0.2140
 Octapole moment (field-independent basis, Debye-Ang**2):
  XXX=              1.9784  YYY=             -1.6447  ZZZ=             -2.3480  XYY=             -3.4917
  XXY=              0.5052  XXZ=              4.6086  XZZ=              3.0819  YZZ=              1.9446
  YYZ=              1.1271  XYZ=             -2.4237
 Hexadecapole moment (field-independent basis, Debye-Ang**3):
 XXXX=          -2941.0338 YYYY=           -408.6848 ZZZZ=           -303.5478 XXXY=            -10.9242
 XXXZ=              1.7618 YYYX=              3.1036 YYYZ=             -1.5853 ZZZX=             -5.9267
 ZZZY=             -0.4240 XXYY=           -560.8930 XXZZ=           -540.1608 YYZZ=           -115.5869
 XXYZ=             -4.0727 YYXZ=              6.9036 ZZXY=              4.5582
 N-N= 5.114545366922D+02 E-N=-1.927598169312D+03  KE= 3.886081565062D+02
 No NMR shielding tensors so no spin-rotation constants.
 Leave Link  601 at Fri Sep 17 20:15:13 2021, MaxMem=   524288000 cpu:               0.3 elap:               0.3
 (Enter /opt/gaussian/g16_legacy/l701.exe)
 ... and contract with generalized density number  2.
 Compute integral first derivatives.
 Leave Link  701 at Fri Sep 17 20:15:14 2021, MaxMem=   524288000 cpu:               0.3 elap:               0.3
 (Enter /opt/gaussian/g16_legacy/l702.exe)
 L702 exits ... SP integral derivatives will be done elsewhere.
 Leave Link  702 at Fri Sep 17 20:15:14 2021, MaxMem=   524288000 cpu:               0.1 elap:               0.1
 (Enter /opt/gaussian/g16_legacy/l703.exe)
 Integral derivatives from FoFJK, PRISM(SPDF).
 Compute integral first derivatives, UseDBF=F ICtDFT=           0.
 Calling FoFJK, ICntrl=  10002127 FMM=F ISym2X=0 I1Cent= 0 IOpClX= 0 NMat=1 NMatS=1 NMatT=0.
 FoFJK:  IHMeth= 1 ICntrl=10002127 DoSepK=F KAlg= 0 I1Cent=           0 FoldK=F
 IRaf=         0 NMat=       1 IRICut=       1 DoRegI=T DoRafI=F ISym2E= 0 IDoP0=0 IntGTp=1.
 FoFCou: FMM=F IPFlag=           0 FMFlag=      100000 FMFlg1=         800
         NFxFlg=           0 DoJE=F BraDBF=F KetDBF=F FulRan=T
         wScrn=  0.000000 ICntrl=  10002127 IOpCl=  0 I1Cent=           0 NGrid=           0
         NMat0=    1 NMatS0=      1 NMatT0=    0 NMatD0=    1 NMtDS0=    0 NMtDT0=    0
 Symmetry not used in FoFCou.
 Leave Link  703 at Fri Sep 17 20:15:48 2021, MaxMem=   524288000 cpu:              34.0 elap:              34.3
 (Enter /opt/gaussian/g16_legacy/l716.exe)
 Dipole        = 2.24135213D-03 3.77873943D-02 9.84852215D-02
 ***** Axes restored to original set *****
 -------------------------------------------------------------------
 Center     Atomic                   Forces (Hartrees/Bohr)
 Number     Number              X              Y              Z
 -------------------------------------------------------------------
      1        6           0.005540758    0.000530727    0.006775030
      2        1          -0.000335571    0.003298423   -0.000633814
      3        1          -0.000615419   -0.002822872    0.000390205
      4        6          -0.003589996   -0.001044549    0.006524928
      5        6           0.002236022   -0.002616093   -0.001182000
      6        1          -0.001490651    0.004467795   -0.001452264
      7        1           0.000065617    0.003939964    0.001445557
      8        1           0.000891940   -0.003416550   -0.000836767
      9        6          -0.008498738    0.000509081   -0.003347096
     10        1          -0.001934499   -0.000907366   -0.004519198
     11        6           0.002932030   -0.000879618   -0.001233871
     12        1          -0.001801411    0.000288793    0.001136495
     13        1           0.001510827   -0.002918913    0.000905609
     14        1           0.002392829    0.002465794   -0.000676278
     15        6          -0.000528866    0.003155317   -0.001821578
     16        1           0.002674250   -0.002697155    0.000862915
     17        1          -0.002362310   -0.000361051    0.002047091
     18        1           0.000314354   -0.002063650   -0.002896073
     19        6          -0.002428706    0.005728788    0.000205982
     20        6           0.000252243   -0.001043573    0.003013857
     21        1           0.000830793    0.000063783   -0.003891035
     22        1           0.001364067    0.001061388   -0.003463486
     23        1          -0.000401492   -0.000810248    0.003246349
     24        6           0.001477774    0.002455448    0.000544043
     25        1          -0.002247538   -0.003938819    0.000000204
     26        6           0.000116995    0.001882048    0.003804297
     27        1           0.001713218   -0.003210333   -0.001063633
     28        1           0.001921480   -0.001116559   -0.003885469
 -------------------------------------------------------------------
 Cartesian Forces:  Max     0.008498738 RMS     0.002658723
 Leave Link  716 at Fri Sep 17 20:15:48 2021, MaxMem=   524288000 cpu:               0.1 elap:               0.1
 (Enter /opt/gaussian/g16_legacy/l103.exe)

 GradGradGradGradGradGradGradGradGradGradGradGradGradGradGradGradGradGrad
 Berny optimization.
 FormGI is forming the generalized inverse of G from B-inverse, IUseBI=4.
 Internal  Forces:  Max     0.009191567 RMS     0.002244042
 Search for a local minimum.
 Step number   1 out of a maximum of  138
 All quantities printed in internal units (Hartrees-Bohrs-Radians)
 RMS Force = .22440D-02 SwitMx=.10000D-02 MixMth= 1
 Mixed Optimization -- RFO/linear search
 Second derivative matrix not updated -- first step.
 ITU=  0
     Eigenvalues ---    0.00297   0.00438   0.00663   0.00693   0.00711
     Eigenvalues ---    0.00729   0.00844   0.01169   0.01279   0.01591
     Eigenvalues ---    0.01658   0.02734   0.02785   0.03651   0.03984
     Eigenvalues ---    0.05275   0.05316   0.07030   0.07042   0.07060
     Eigenvalues ---    0.07123   0.07238   0.07281   0.07339   0.07588
     Eigenvalues ---    0.09570   0.09887   0.12940   0.13188   0.15998
     Eigenvalues ---    0.16000   0.16000   0.16000   0.16000   0.16000
     Eigenvalues ---    0.16000   0.16000   0.16000   0.16000   0.16000
     Eigenvalues ---    0.16000   0.16000   0.16000   0.21914   0.22000
     Eigenvalues ---    0.22001   0.22023   0.24998   0.24999   0.24999
     Eigenvalues ---    0.24999   0.28924   0.29907   0.31576   0.31802
     Eigenvalues ---    0.31943   0.32083   0.33008   0.33779   0.33890
     Eigenvalues ---    0.33989   0.34136   0.34207   0.34238   0.34249
     Eigenvalues ---    0.34302   0.34306   0.34310   0.34328   0.34330
     Eigenvalues ---    0.34339   0.34458   0.34547   0.34775   0.34881
     Eigenvalues ---    0.35051   0.54770   0.55587
 RFO step:  Lambda=-4.03413304D-03 EMin= 2.96718613D-03
 Linear search not attempted -- first point.
 Iteration  1 RMS(Cart)=  0.08787957 RMS(Int)=  0.00182800
 Iteration  2 RMS(Cart)=  0.00383437 RMS(Int)=  0.00016191
 Iteration  3 RMS(Cart)=  0.00000269 RMS(Int)=  0.00016190
 Iteration  4 RMS(Cart)=  0.00000000 RMS(Int)=  0.00016190
 ITry= 1 IFail=0 DXMaxC= 2.65D-01 DCOld= 1.00D+10 DXMaxT= 3.00D-01 DXLimC= 3.00D+00 Rises=F
 Variable       Old X    -DE/DX   Delta X   Delta X   Delta X     New X
                                 (Linear)    (Quad)   (Total)
    R1        2.07705  -0.00285   0.00000  -0.00834  -0.00834   2.06871
    R2        2.07516  -0.00179   0.00000  -0.00523  -0.00523   2.06992
    R3        2.88150  -0.00784   0.00000  -0.02588  -0.02588   2.85562
    R4        2.90162  -0.00430   0.00000  -0.01467  -0.01467   2.88695
    R5        2.84927   0.00164   0.00000   0.00514   0.00514   2.85441
    R6        2.55337  -0.00919   0.00000  -0.01666  -0.01666   2.53671
    R7        2.06777  -0.00392   0.00000  -0.01128  -0.01128   2.05649
    R8        2.06982  -0.00342   0.00000  -0.00989  -0.00989   2.05993
    R9        2.06810  -0.00180   0.00000  -0.00519  -0.00519   2.06290
   R10        2.05592  -0.00223   0.00000  -0.00630  -0.00630   2.04962
   R11        2.82338   0.00480   0.00000   0.01437   0.01437   2.83775
   R12        2.06041  -0.00206   0.00000  -0.00585  -0.00585   2.05456
   R13        2.06781  -0.00213   0.00000  -0.00614  -0.00614   2.06167
   R14        2.06761  -0.00174   0.00000  -0.00501  -0.00501   2.06261
   R15        2.06824  -0.00346   0.00000  -0.00998  -0.00998   2.05826
   R16        2.06564  -0.00064   0.00000  -0.00184  -0.00184   2.06380
   R17        2.06930  -0.00224   0.00000  -0.00645  -0.00645   2.06285
   R18        2.84249   0.00040   0.00000   0.00124   0.00124   2.84372
   R19        2.84507   0.00082   0.00000   0.00255   0.00255   2.84763
   R20        2.54614  -0.00278   0.00000  -0.00496  -0.00496   2.54118
   R21        2.06417  -0.00202   0.00000  -0.00577  -0.00577   2.05840
   R22        2.06913  -0.00319   0.00000  -0.00922  -0.00922   2.05991
   R23        2.06816  -0.00188   0.00000  -0.00543  -0.00543   2.06273
   R24        2.05868  -0.00220   0.00000  -0.00624  -0.00624   2.05244
   R25        2.83992   0.00138   0.00000   0.00426   0.00426   2.84418
   R26        2.07349  -0.00299   0.00000  -0.00868  -0.00868   2.06481
   R27        2.07101  -0.00256   0.00000  -0.00742  -0.00742   2.06359
    A1        1.86234  -0.00114   0.00000  -0.01970  -0.01969   1.84265
    A2        1.87814   0.00125   0.00000   0.01579   0.01575   1.89389
    A3        1.89865  -0.00048   0.00000  -0.00027  -0.00039   1.89826
    A4        1.89038  -0.00036   0.00000  -0.00318  -0.00315   1.88723
    A5        1.89712   0.00049   0.00000   0.00053   0.00053   1.89765
    A6        2.03033   0.00011   0.00000   0.00450   0.00445   2.03477
    A7        1.98916   0.00104   0.00000   0.00420   0.00381   1.99297
    A8        2.15445  -0.00281   0.00000  -0.01094  -0.01131   2.14314
    A9        2.13954   0.00178   0.00000   0.00715   0.00675   2.14629
   A10        1.95869  -0.00001   0.00000   0.00198   0.00199   1.96067
   A11        1.93835  -0.00226   0.00000  -0.01263  -0.01258   1.92577
   A12        1.92195   0.00415   0.00000   0.02210   0.02214   1.94408
   A13        1.85293   0.00228   0.00000   0.01985   0.01987   1.87280
   A14        1.90250  -0.00262   0.00000  -0.01796  -0.01797   1.88453
   A15        1.88680  -0.00174   0.00000  -0.01461  -0.01453   1.87227
   A16        2.08811  -0.00253   0.00000  -0.01874  -0.01875   2.06936
   A17        2.23544  -0.00406   0.00000  -0.01813  -0.01814   2.21731
   A18        1.95959   0.00659   0.00000   0.03683   0.03682   1.99641
   A19        1.98529  -0.00212   0.00000  -0.01309  -0.01303   1.97226
   A20        1.90429   0.00314   0.00000   0.01923   0.01915   1.92344
   A21        1.91005   0.00378   0.00000   0.02316   0.02308   1.93313
   A22        1.88209  -0.00070   0.00000  -0.00441  -0.00436   1.87773
   A23        1.89284  -0.00107   0.00000  -0.00671  -0.00665   1.88619
   A24        1.88680  -0.00326   0.00000  -0.01945  -0.01967   1.86713
   A25        1.88530   0.00013   0.00000   0.00236   0.00241   1.88770
   A26        1.87615   0.00119   0.00000   0.01142   0.01145   1.88760
   A27        1.95912  -0.00255   0.00000  -0.01259  -0.01255   1.94657
   A28        1.89615  -0.00333   0.00000  -0.02616  -0.02616   1.86999
   A29        1.92512   0.00276   0.00000   0.01467   0.01470   1.93981
   A30        1.92019   0.00165   0.00000   0.00930   0.00931   1.92950
   A31        2.00988   0.00164   0.00000   0.00634   0.00617   2.01606
   A32        2.11191   0.00099   0.00000   0.00379   0.00362   2.11552
   A33        2.16134  -0.00263   0.00000  -0.01048  -0.01064   2.15070
   A34        1.96747  -0.00128   0.00000  -0.00630  -0.00627   1.96120
   A35        1.93540  -0.00127   0.00000  -0.00545  -0.00542   1.92998
   A36        1.91852   0.00365   0.00000   0.01852   0.01856   1.93708
   A37        1.85674   0.00260   0.00000   0.02275   0.02276   1.87950
   A38        1.89548  -0.00206   0.00000  -0.01656  -0.01652   1.87896
   A39        1.88749  -0.00179   0.00000  -0.01382  -0.01379   1.87370
   A40        2.08171  -0.00378   0.00000  -0.02304  -0.02343   2.05828
   A41        2.19582  -0.00037   0.00000  -0.00148  -0.00188   2.19393
   A42        2.00549   0.00418   0.00000   0.02542   0.02499   2.03049
   A43        1.97537  -0.00311   0.00000  -0.01625  -0.01624   1.95914
   A44        1.91601  -0.00045   0.00000  -0.00989  -0.00981   1.90620
   A45        1.92858  -0.00188   0.00000  -0.02306  -0.02299   1.90559
   A46        1.88760   0.00210   0.00000   0.01767   0.01747   1.90507
   A47        1.90576   0.00313   0.00000   0.02211   0.02177   1.92753
   A48        1.84557   0.00056   0.00000   0.01230   0.01185   1.85743
    D1        1.00879  -0.00003   0.00000   0.01454   0.01435   1.02315
    D2       -2.12380  -0.00084   0.00000  -0.03633  -0.03626  -2.16006
    D3       -0.99841   0.00084   0.00000   0.03105   0.03093  -0.96747
    D4        2.15218   0.00003   0.00000  -0.01982  -0.01968   2.13250
    D5       -3.14025   0.00040   0.00000   0.02969   0.02960  -3.11064
    D6        0.01034  -0.00041   0.00000  -0.02118  -0.02101  -0.01067
    D7       -0.90741   0.00032   0.00000  -0.05755  -0.05761  -0.96502
    D8       -3.01819   0.00006   0.00000  -0.06212  -0.06214  -3.08033
    D9        1.23605   0.00075   0.00000  -0.05772  -0.05767   1.17838
   D10        1.11412  -0.00102   0.00000  -0.08079  -0.08083   1.03329
   D11       -0.99666  -0.00129   0.00000  -0.08536  -0.08537  -1.08203
   D12       -3.02561  -0.00060   0.00000  -0.08096  -0.08089  -3.10650
   D13       -3.03075  -0.00103   0.00000  -0.08135  -0.08140  -3.11215
   D14        1.14165  -0.00130   0.00000  -0.08592  -0.08593   1.05572
   D15       -0.88730  -0.00060   0.00000  -0.08152  -0.08146  -0.96876
[...]
                 (A) (A) (A) (A) (A) (A) (A) (A) (A) (A) (A) (A)
                 (A) (A) (A) (A) (A) (A) (A) (A) (A) (A) (A) (A)
                 (A) (A) (A) (A) (A) (A) (A) (A) (A) (A) (A) (A)
                 (A) (A) (A) (A) (A) (A) (A) (A) (A) (A) (A) (A)
                 (A) (A) (A) (A) (A) (A) (A) (A) (A) (A) (A) (A)
                 (A) (A) (A) (A) (A) (A) (A) (A) (A) (A) (A) (A)
                 (A) (A) (A) (A) (A) (A) (A) (A) (A) (A) (A) (A)
                 (A) (A) (A) (A) (A) (A) (A) (A) (A) (A) (A) (A)
                 (A) (A) (A) (A) (A) (A) (A) (A) (A) (A) (A) (A)
                 (A) (A) (A) (A) (A) (A) (A) (A) (A) (A) (A) (A)
                 (A) (A) (A) (A) (A) (A) (A) (A) (A) (A) (A) (A)
                 (A) (A) (A) (A) (A) (A) (A) (A) (A) (A) (A) (A)
                 (A) (A) (A) (A) (A) (A) (A) (A) (A) (A) (A) (A)
                 (A) (A) (A) (A) (A) (A) (A) (A) (A)
 The electronic state is 1-A.
 Alpha  occ. eigenvalues --  -11.22919 -11.22665 -11.21834 -11.21628 -11.21588
 Alpha  occ. eigenvalues --  -11.21461 -11.21437 -11.21421 -11.21351 -11.21312
 Alpha  occ. eigenvalues --   -1.10741  -1.08418  -1.02019  -0.97869  -0.93728
 Alpha  occ. eigenvalues --   -0.92029  -0.87200  -0.82983  -0.70311  -0.69056
 Alpha  occ. eigenvalues --   -0.63960  -0.63320  -0.60086  -0.59084  -0.58549
 Alpha  occ. eigenvalues --   -0.56272  -0.55702  -0.54671  -0.53189  -0.52798
 Alpha  occ. eigenvalues --   -0.52150  -0.51319  -0.50325  -0.48691  -0.47755
 Alpha  occ. eigenvalues --   -0.46336  -0.44918  -0.32558  -0.32297
 Alpha virt. eigenvalues --    0.18977   0.19591   0.23180   0.24499   0.26349
 Alpha virt. eigenvalues --    0.26856   0.27547   0.29410   0.30214   0.31203
 Alpha virt. eigenvalues --    0.32161   0.32416   0.33141   0.33783   0.34617
 Alpha virt. eigenvalues --    0.35169   0.36308   0.37038   0.37853   0.40432
 Alpha virt. eigenvalues --    0.40775   0.41062   0.43254   0.45811   0.48812
 Alpha virt. eigenvalues --    0.52338   0.53053   0.62054   0.64748   0.70041
 Alpha virt. eigenvalues --    0.71462   0.72562   0.73073   0.74842   0.76423
 Alpha virt. eigenvalues --    0.77324   0.79050   0.80502   0.81086   0.83301
 Alpha virt. eigenvalues --    0.83765   0.86587   0.86783   0.90976   0.92602
 Alpha virt. eigenvalues --    0.93951   0.94835   0.96869   0.98045   0.98848
 Alpha virt. eigenvalues --    1.00128   1.00764   1.02860   1.03415   1.07862
 Alpha virt. eigenvalues --    1.08632   1.09607   1.10009   1.11584   1.12019
 Alpha virt. eigenvalues --    1.13300   1.14672   1.15511   1.16077   1.17264
 Alpha virt. eigenvalues --    1.17356   1.17463   1.18586   1.19187   1.20278
 Alpha virt. eigenvalues --    1.21124   1.21786   1.23889   1.25285   1.27025
 Alpha virt. eigenvalues --    1.31028   1.34269   1.38607   1.42615   1.45550
 Alpha virt. eigenvalues --    1.47683   1.48136   1.55137   1.58134   1.59881
 Alpha virt. eigenvalues --    1.64689   1.67263   1.68482   1.69639   1.74005
 Alpha virt. eigenvalues --    1.76942   1.81989   1.89694   1.92185   1.98408
 Alpha virt. eigenvalues --    1.99745   2.01124   2.03284   2.05149   2.08089
 Alpha virt. eigenvalues --    2.08351   2.09858   2.10978   2.12106   2.15144
 Alpha virt. eigenvalues --    2.16650   2.18834   2.20493   2.22868   2.26766
 Alpha virt. eigenvalues --    2.28262   2.31146   2.35247   2.35597   2.35655
 Alpha virt. eigenvalues --    2.35777   2.35960   2.39966   2.40345   2.40678
 Alpha virt. eigenvalues --    2.42075   2.43382   2.44732   2.45275   2.46049
 Alpha virt. eigenvalues --    2.46542   2.47658   2.50590   2.51509   2.53403
 Alpha virt. eigenvalues --    2.54802   2.57691   2.62114   2.63362   2.65372
 Alpha virt. eigenvalues --    2.68562   2.69645   2.71656   2.73153   2.74224
 Alpha virt. eigenvalues --    2.75504   2.80068   2.80537   2.84414   2.84947
 Alpha virt. eigenvalues --    2.87370   2.87827   2.91430   2.93563   2.96511
 Alpha virt. eigenvalues --    2.97502   3.01860   3.03152   3.05474   3.05959
 Alpha virt. eigenvalues --    3.06727   3.07492   3.11126   3.13566   3.16823
 Alpha virt. eigenvalues --    3.17863   3.18685   3.20086   3.20941   3.23832
 Alpha virt. eigenvalues --    3.24434   3.25848   3.27068   3.28042   3.39374
 Alpha virt. eigenvalues --    3.40766   3.45073   3.46246   3.56248   3.57370
 Alpha virt. eigenvalues --    3.60659   3.62582   3.67769   3.74316   3.77229
 Alpha virt. eigenvalues --    3.79600   3.80411   3.82054   3.83424   3.84053
 Alpha virt. eigenvalues --    3.84712   3.87681   3.88453   3.91178   3.91469
 Alpha virt. eigenvalues --    3.95360   4.58222   4.60475   4.74858   4.82305
 Alpha virt. eigenvalues --    4.88748   4.91469   4.92458   5.02375   5.11076
 Alpha virt. eigenvalues --    5.19150
          Condensed to atoms (all electrons):
               1          2          3          4          5          6
     1  C    4.969860   0.401306   0.405772   0.352863  -0.063782   0.003808
     2  H    0.401306   0.599346  -0.037165  -0.043847  -0.003012  -0.000036
     3  H    0.405772  -0.037165   0.605588  -0.046714  -0.002936  -0.000020
     4  C    0.352863  -0.043847  -0.046714   4.922452   0.352256  -0.038175
     5  C   -0.063782  -0.003012  -0.002936   0.352256   4.903524   0.406787
     6  H    0.003808  -0.000036  -0.000020  -0.038175   0.406787   0.570706
     7  H   -0.002960   0.002576  -0.000351  -0.043746   0.401066  -0.027507
     8  H   -0.002995  -0.000256   0.002612  -0.043233   0.400375  -0.027298
     9  C   -0.044681  -0.000465   0.000050   0.702138  -0.042758  -0.002211
    10  H   -0.007238   0.000191   0.000164  -0.039755   0.003424   0.000047
    11  C    0.003096  -0.000089  -0.000088  -0.044791  -0.008655  -0.002550
    12  H    0.000068  -0.000003  -0.000003   0.000372  -0.002337  -0.001605
    13  H   -0.000093  -0.000004   0.000015  -0.000745   0.000277  -0.000002
    14  H   -0.000101   0.000016  -0.000004  -0.000782   0.000299   0.000002
    15  C   -0.000095  -0.000042  -0.000003   0.000001  -0.000000   0.000000
    16  H   -0.000003  -0.000003   0.000003   0.000000  -0.000000   0.000000
    17  H    0.000023  -0.000007  -0.000001  -0.000000   0.000000  -0.000000
    18  H   -0.000005   0.000002   0.000000   0.000000  -0.000000   0.000000
    19  C   -0.003905   0.000981   0.000827   0.000068  -0.000002   0.000000
    20  C    0.000515   0.000194  -0.000019  -0.000020   0.000000  -0.000000
    21  H   -0.000051   0.000204  -0.000015  -0.000002  -0.000001   0.000000
    22  H   -0.000037   0.000013  -0.000000   0.000001  -0.000000   0.000000
    23  H    0.000108  -0.000083  -0.000001  -0.000004   0.000000  -0.000000
    24  C   -0.061311  -0.000796  -0.002153   0.004678  -0.000101   0.000001
    25  H   -0.000789   0.000225   0.001129  -0.000088   0.000002  -0.000000
    26  C    0.343363  -0.038843  -0.041451  -0.042296   0.003154  -0.000084
    27  H   -0.048197   0.005093  -0.003752  -0.000139  -0.000058   0.000001
    28  H   -0.041970  -0.004482   0.004865  -0.001165  -0.000036   0.000001
               7          8          9         10         11         12
     1  C   -0.002960  -0.002995  -0.044681  -0.007238   0.003096   0.000068
     2  H    0.002576  -0.000256  -0.000465   0.000191  -0.000089  -0.000003
     3  H   -0.000351   0.002612   0.000050   0.000164  -0.000088  -0.000003
     4  C   -0.043746  -0.043233   0.702138  -0.039755  -0.044791   0.000372
     5  C    0.401066   0.400375  -0.042758   0.003424  -0.008655  -0.002337
     6  H   -0.027507  -0.027298  -0.002211   0.000047  -0.002550  -0.001605
     7  H    0.587554  -0.035921  -0.000170  -0.000122   0.000286  -0.000037
     8  H   -0.035921   0.587238  -0.000308  -0.000122   0.000309  -0.000042
     9  C   -0.000170  -0.000308   4.942105   0.408075   0.340081  -0.043931
    10  H   -0.000122  -0.000122   0.408075   0.556737  -0.041831   0.003333
    11  C    0.000286   0.000309   0.340081  -0.041831   4.893192   0.408509
    12  H   -0.000037  -0.000042  -0.043931   0.003333   0.408509   0.577546
    13  H   -0.000025   0.000052  -0.042692  -0.001217   0.402191  -0.028363
    14  H    0.000050  -0.000026  -0.042563  -0.001126   0.401722  -0.028313
    15  C    0.000000  -0.000000   0.000000  -0.000000   0.000000   0.000000
    16  H   -0.000000   0.000000   0.000000   0.000000   0.000000   0.000000
    17  H    0.000000  -0.000000   0.000000  -0.000000  -0.000000   0.000000
    18  H   -0.000000   0.000000  -0.000000   0.000000   0.000000  -0.000000
    19  C   -0.000001   0.000000  -0.000005  -0.000004   0.000000  -0.000000
    20  C   -0.000000  -0.000000   0.000001  -0.000002  -0.000000   0.000000
    21  H    0.000000  -0.000000  -0.000006  -0.000005  -0.000000   0.000000
    22  H   -0.000000  -0.000000  -0.000000   0.000000   0.000000  -0.000000
    23  H    0.000000  -0.000000   0.000000  -0.000000  -0.000000   0.000000
    24  C   -0.000005   0.000002   0.000309   0.000187  -0.000001   0.000000
    25  H    0.000000  -0.000001  -0.000002  -0.000000   0.000000  -0.000000
    26  C    0.000013  -0.000019  -0.009102  -0.001314   0.000045  -0.000000
    27  H    0.000004  -0.000005  -0.000963  -0.000689  -0.000044  -0.000002
    28  H   -0.000007   0.000004  -0.000419  -0.000912  -0.000030  -0.000002
              13         14         15         16         17         18
     1  C   -0.000093  -0.000101  -0.000095  -0.000003   0.000023  -0.000005
     2  H   -0.000004   0.000016  -0.000042  -0.000003  -0.000007   0.000002
     3  H    0.000015  -0.000004  -0.000003   0.000003  -0.000001   0.000000
     4  C   -0.000745  -0.000782   0.000001   0.000000  -0.000000   0.000000
     5  C    0.000277   0.000299  -0.000000  -0.000000   0.000000  -0.000000
     6  H   -0.000002   0.000002   0.000000   0.000000  -0.000000   0.000000
     7  H   -0.000025   0.000050   0.000000  -0.000000   0.000000  -0.000000
     8  H    0.000052  -0.000026  -0.000000   0.000000  -0.000000   0.000000
     9  C   -0.042692  -0.042563   0.000000   0.000000   0.000000  -0.000000
    10  H   -0.001217  -0.001126  -0.000000   0.000000  -0.000000   0.000000
    11  C    0.402191   0.401722   0.000000   0.000000  -0.000000   0.000000
    12  H   -0.028363  -0.028313   0.000000   0.000000   0.000000  -0.000000
    13  H    0.587091  -0.036103  -0.000000   0.000000   0.000000   0.000000
    14  H   -0.036103   0.587639   0.000000  -0.000000   0.000000  -0.000000
    15  C   -0.000000   0.000000   4.900757   0.406170   0.398124   0.398806
    16  H    0.000000  -0.000000   0.406170   0.566459  -0.026695  -0.026601
    17  H    0.000000   0.000000   0.398124  -0.026695   0.595052  -0.037887
    18  H    0.000000  -0.000000   0.398806  -0.026601  -0.037887   0.594239
    19  C    0.000000  -0.000000   0.353324  -0.041723  -0.043790  -0.044358
    20  C   -0.000000   0.000000  -0.065142   0.003786  -0.001946  -0.001227
    21  H   -0.000000   0.000000   0.003732  -0.000114  -0.000071  -0.000028
    22  H   -0.000000   0.000000  -0.002239  -0.000053  -0.000463   0.002784
    23  H   -0.000000   0.000000  -0.002639  -0.000030   0.002790  -0.000490
    24  C   -0.000000  -0.000000  -0.044430  -0.002554  -0.000535  -0.001225
    25  H   -0.000000   0.000000  -0.007031   0.002336   0.000192   0.000189
    26  C    0.000003   0.000002   0.003147   0.000154  -0.000080  -0.000122
    27  H   -0.000014   0.000009  -0.000096  -0.000010  -0.000002   0.000010
    28  H    0.000009  -0.000013   0.000073   0.000006  -0.000003   0.000003
              19         20         21         22         23         24
     1  C   -0.003905   0.000515  -0.000051  -0.000037   0.000108  -0.061311
     2  H    0.000981   0.000194   0.000204   0.000013  -0.000083  -0.000796
     3  H    0.000827  -0.000019  -0.000015  -0.000000  -0.000001  -0.002153
     4  C    0.000068  -0.000020  -0.000002   0.000001  -0.000004   0.004678
     5  C   -0.000002   0.000000  -0.000001  -0.000000   0.000000  -0.000101
     6  H    0.000000  -0.000000   0.000000   0.000000  -0.000000   0.000001
     7  H   -0.000001  -0.000000   0.000000  -0.000000   0.000000  -0.000005
     8  H    0.000000  -0.000000  -0.000000  -0.000000  -0.000000   0.000002
     9  C   -0.000005   0.000001  -0.000006  -0.000000   0.000000   0.000309
    10  H   -0.000004  -0.000002  -0.000005   0.000000  -0.000000   0.000187
    11  C    0.000000  -0.000000  -0.000000   0.000000  -0.000000  -0.000001
    12  H   -0.000000   0.000000   0.000000  -0.000000   0.000000   0.000000
    13  H    0.000000  -0.000000  -0.000000  -0.000000  -0.000000  -0.000000
    14  H   -0.000000   0.000000   0.000000   0.000000   0.000000  -0.000000
    15  C    0.353324  -0.065142   0.003732  -0.002239  -0.002639  -0.044430
    16  H   -0.041723   0.003786  -0.000114  -0.000053  -0.000030  -0.002554
    17  H   -0.043790  -0.001946  -0.000071  -0.000463   0.002790  -0.000535
    18  H   -0.044358  -0.001227  -0.000028   0.002784  -0.000490  -0.001225
    19  C    4.916526   0.350203  -0.037906  -0.043822  -0.043533   0.697671
    20  C    0.350203   4.905231   0.407410   0.399981   0.401029  -0.043314
    21  H   -0.037906   0.407410   0.566145  -0.026496  -0.027894  -0.002675
    22  H   -0.043822   0.399981  -0.026496   0.586556  -0.035976  -0.000416
    23  H   -0.043533   0.401029  -0.027894  -0.035976   0.587588  -0.000124
    24  C    0.697671  -0.043314  -0.002675  -0.000416  -0.000124   4.946758
    25  H   -0.038820   0.003521   0.000051  -0.000120  -0.000121   0.403092
    26  C   -0.049370  -0.008229  -0.002833   0.000202   0.000347   0.355780
    27  H    0.001116   0.000197   0.000086   0.000027  -0.000015  -0.041457
    28  H    0.000749  -0.002474  -0.001575   0.000013  -0.000052  -0.044282
              25         26         27         28
     1  C   -0.000789   0.343363  -0.048197  -0.041970
     2  H    0.000225  -0.038843   0.005093  -0.004482
     3  H    0.001129  -0.041451  -0.003752   0.004865
     4  C   -0.000088  -0.042296  -0.000139  -0.001165
     5  C    0.000002   0.003154  -0.000058  -0.000036
     6  H   -0.000000  -0.000084   0.000001   0.000001
     7  H    0.000000   0.000013   0.000004  -0.000007
     8  H   -0.000001  -0.000019  -0.000005   0.000004
     9  C   -0.000002  -0.009102  -0.000963  -0.000419
    10  H   -0.000000  -0.001314  -0.000689  -0.000912
    11  C    0.000000   0.000045  -0.000044  -0.000030
    12  H   -0.000000  -0.000000  -0.000002  -0.000002
    13  H   -0.000000   0.000003  -0.000014   0.000009
    14  H    0.000000   0.000002   0.000009  -0.000013
    15  C   -0.007031   0.003147  -0.000096   0.000073
    16  H    0.002336   0.000154  -0.000010   0.000006
    17  H    0.000192  -0.000080  -0.000002  -0.000003
    18  H    0.000189  -0.000122   0.000010   0.000003
    19  C   -0.038820  -0.049370   0.001116   0.000749
    20  C    0.003521  -0.008229   0.000197  -0.002474
    21  H    0.000051  -0.002833   0.000086  -0.001575
    22  H   -0.000120   0.000202   0.000027   0.000013
    23  H   -0.000121   0.000347  -0.000015  -0.000052
    24  C    0.403092   0.355780  -0.041457  -0.044282
    25  H    0.558504  -0.039579  -0.003177   0.003308
    26  C   -0.039579   4.950053   0.414871   0.416325
    27  H   -0.003177   0.414871   0.587471  -0.032544
    28  H    0.003308   0.416325  -0.032544   0.584149
 Mulliken charges:
               1
     1  C   -0.202568
     2  H    0.118985
     3  H    0.113649
     4  C    0.010672
     5  C   -0.347485
     6  H    0.118134
     7  H    0.119300
     8  H    0.119633
     9  C   -0.162483
    10  H    0.122177
    11  C   -0.351352
    12  H    0.114809
    13  H    0.119619
    14  H    0.119292
    15  C   -0.342415
    16  H    0.118871
    17  H    0.115301
    18  H    0.115910
    19  C    0.025775
    20  C   -0.349695
    21  H    0.122042
    22  H    0.120048
    23  H    0.119098
    24  C   -0.163098
    25  H    0.117181
    26  C   -0.254138
    27  H    0.122277
    28  H    0.120459
 Sum of Mulliken charges =  -0.00000
 Mulliken charges with hydrogens summed into heavy atoms:
               1
     1  C    0.030067
     4  C    0.010672
     5  C    0.009581
     9  C   -0.040305
    11  C    0.002369
    15  C    0.007667
    19  C    0.025775
    20  C    0.011493
    24  C   -0.045917
    26  C   -0.011401
 Electronic spatial extent (au):  <R**2>=           2701.2840
 Charge=             -0.0000 electrons
 Dipole moment (field-independent basis, Debye):
    X=              0.1356    Y=              0.1080    Z=              0.2640  Tot=              0.3158
 Quadrupole moment (field-independent basis, Debye-Ang):
   XX=            -63.5782   YY=            -64.7772   ZZ=            -65.7456
   XY=             -0.0905   XZ=              0.6118   YZ=             -0.3813
 Traceless Quadrupole moment (field-independent basis, Debye-Ang):
   XX=              1.1222   YY=             -0.0769   ZZ=             -1.0453
   XY=             -0.0905   XZ=              0.6118   YZ=             -0.3813
 Octapole moment (field-independent basis, Debye-Ang**2):
  XXX=              1.9745  YYY=             -1.4896  ZZZ=             -0.0337  XYY=             -2.2714
  XXY=             -0.4449  XXZ=              4.8940  XZZ=              2.4342  YZZ=              2.4790
  YYZ=             -0.6895  XYZ=             -3.3686
 Hexadecapole moment (field-independent basis, Debye-Ang**3):
 XXXX=          -3032.5371 YYYY=           -437.9334 ZZZZ=           -262.1510 XXXY=             -9.6485
 XXXZ=              2.9560 YYYX=              0.2471 YYYZ=             -4.5752 ZZZX=              1.7586
 ZZZY=              1.1549 XXYY=           -581.6531 XXZZ=           -561.3242 YYZZ=           -114.6489
 XXYZ=              0.5064 YYXZ=              1.6608 ZZXY=              8.3690
 N-N= 5.096704944938D+02 E-N=-1.924074185041D+03  KE= 3.887401243006D+02
 No NMR shielding tensors so no spin-rotation constants.
 Leave Link  601 at Fri Sep 17 21:58:52 2021, MaxMem=   524288000 cpu:               0.4 elap:               0.6
 (Enter /opt/gaussian/g16_legacy/l9999.exe)
 1\1\GINC-TRUENO90\FOpt\RMP2-FC\6-31G(d,p)\C10H18\JRAMOS\17-Sep-2021\0\
 \#p opt mp2/6-31g(d,p)\\Conformer number 025. Energy MM = 26.862 kcal/
 mol\\0,1\C,2.2398108269,1.2569124779,-8.8701929089\H,2.0061036081,0.23
 71281589,-9.1969844006\H,2.0285184851,1.8894040511,-9.7406162141\C,3.7
 186281756,1.3404314727,-8.5684869644\C,4.5811636736,0.9729765544,-9.74
 62387924\H,5.6450321863,1.0115757629,-9.5293980651\H,4.3438077256,-0.0
 368595815,-10.0873846517\H,4.3834554666,1.644544661,-10.5844116285\C,4
 .1881352,1.7050633249,-7.3612656841\H,3.4662506249,1.9464063374,-6.589
 3993054\C,5.6187476423,1.8268408165,-6.9287204204\H,6.3245120328,1.586
 2062382,-7.7191666963\H,5.831317918,2.8425774351,-6.5904640587\H,5.822
 5950042,1.1633991826,-6.0862755694\C,-2.4379489412,0.6646734373,-8.528
 3434046\H,-2.5840875779,1.5707520215,-9.1143779299\H,-2.6461119173,-0.
 1952249283,-9.16899697\H,-3.1817813321,0.6506605451,-7.7284476921\C,-1
 .0453496093,0.5889438106,-7.9651149214\C,-0.769774505,-0.6367130326,-7
 .1389899263\H,0.2524348586,-0.6825582082,-6.7727439815\H,-1.4427429065
 ,-0.6773816078,-6.2796232917\H,-0.9563736643,-1.5368228648,-7.72858293
 88\C,-0.1513368617,1.566209313,-8.2056086686\H,-0.4728805725,2.3923064
 602,-8.835243003\C,1.2743910828,1.6326941309,-7.7437603946\H,1.4930075
 375,2.6496390781,-7.4075203992\H,1.4412758388,0.9794149528,-6.88714111
 81\\Version=EM64L-G16RevA.03\State=1-A\HF=-389.1560472\MP2=-390.572203
 8\RMSD=8.714e-09\RMSF=1.326e-06\Dipole=-0.011011,-0.0930256,-0.0269625
 \PG=C01 [X(C10H18)]\\@


 BRING ME INTO THE COMPANY OF THOSE WHO SEEK TRUTH,
 AND DELIVER ME FROM THOSE WHO HAVE FOUND IT.
 Job cpu time:       0 days  1 hours 49 minutes 18.4 seconds.
 Elapsed time:       0 days  1 hours 49 minutes 22.3 seconds.
 File lengths (MBytes):  RWF=     32 Int=      0 D2E=      0 Chk=      7 Scr=      1
 Normal termination of Gaussian 16 at Fri Sep 17 21:58:52 2021.
