 Entering Gaussian System, Link 0=/opt/gaussian/g16_legacy/g16
 Input=02-IsoP_005_gaussian.com
 Output=02-IsoP_005_gaussian.log
 Initial command:
 /opt/gaussian/g16_legacy/l1.exe "/scratch-local/jramos/2661504/Gau-13989.inp" -scrdir="/scratch-local/jramos/2661504/"
 Entering Link 1 = /opt/gaussian/g16_legacy/l1.exe PID=     13993.
  
 Copyright (c) 1988,1990,1992,1993,1995,1998,2003,2009,2016,
            Gaussian, Inc.  All Rights Reserved.
  
 This is part of the Gaussian(R) 16 program.  It is based on
 the Gaussian(R) 09 system (copyright 2009, Gaussian, Inc.),
 the Gaussian(R) 03 system (copyright 2003, Gaussian, Inc.),
 the Gaussian(R) 98 system (copyright 1998, Gaussian, Inc.),
 the Gaussian(R) 94 system (copyright 1995, Gaussian, Inc.),
 the Gaussian 92(TM) system (copyright 1992, Gaussian, Inc.),
 the Gaussian 90(TM) system (copyright 1990, Gaussian, Inc.),
 the Gaussian 88(TM) system (copyright 1988, Gaussian, Inc.),
 the Gaussian 86(TM) system (copyright 1986, Carnegie Mellon
 University), and the Gaussian 82(TM) system (copyright 1983,
 Carnegie Mellon University). Gaussian is a federally registered
 trademark of Gaussian, Inc.
  
 This software contains proprietary and confidential information,
 including trade secrets, belonging to Gaussian, Inc.
  
 This software is provided under written license and may be
 used, copied, transmitted, or stored only in accord with that
 written license.
  
 The following legend is applicable only to US Government
 contracts under FAR:
  
                    RESTRICTED RIGHTS LEGEND
  
 Use, reproduction and disclosure by the US Government is
 subject to restrictions as set forth in subparagraphs (a)
 and (c) of the Commercial Computer Software - Restricted
 Rights clause in FAR 52.227-19.
  
 Gaussian, Inc.
 340 Quinnipiac St., Bldg. 40, Wallingford CT 06492
  
  
 ---------------------------------------------------------------
 Warning -- This program may not be used in any manner that
 competes with the business of Gaussian, Inc. or will provide
 assistance to any competitor of Gaussian, Inc.  The licensee
 of this program is prohibited from giving any competitor of
 Gaussian, Inc. access to this program.  By using this program,
 the user acknowledges that Gaussian, Inc. is engaged in the
 business of creating and licensing software in the field of
 computational chemistry and represents and warrants to the
 licensee that it is not a competitor of Gaussian, Inc. and that
 it will not use this program in any manner prohibited above.
 ---------------------------------------------------------------
  

 Cite this work as:
 Gaussian 16, Revision A.03,
 M. J. Frisch, G. W. Trucks, H. B. Schlegel, G. E. Scuseria, 
 M. A. Robb, J. R. Cheeseman, G. Scalmani, V. Barone, 
 G. A. Petersson, H. Nakatsuji, X. Li, M. Caricato, A. V. Marenich, 
 J. Bloino, B. G. Janesko, R. Gomperts, B. Mennucci, H. P. Hratchian, 
 J. V. Ortiz, A. F. Izmaylov, J. L. Sonnenberg, D. Williams-Young, 
 F. Ding, F. Lipparini, F. Egidi, J. Goings, B. Peng, A. Petrone, 
 T. Henderson, D. Ranasinghe, V. G. Zakrzewski, J. Gao, N. Rega, 
 G. Zheng, W. Liang, M. Hada, M. Ehara, K. Toyota, R. Fukuda, 
 J. Hasegawa, M. Ishida, T. Nakajima, Y. Honda, O. Kitao, H. Nakai, 
 T. Vreven, K. Throssell, J. A. Montgomery, Jr., J. E. Peralta, 
 F. Ogliaro, M. J. Bearpark, J. J. Heyd, E. N. Brothers, K. N. Kudin, 
 V. N. Staroverov, T. A. Keith, R. Kobayashi, J. Normand, 
 K. Raghavachari, A. P. Rendell, J. C. Burant, S. S. Iyengar, 
 J. Tomasi, M. Cossi, J. M. Millam, M. Klene, C. Adamo, R. Cammi, 
 J. W. Ochterski, R. L. Martin, K. Morokuma, O. Farkas, 
 J. B. Foresman, and D. J. Fox, Gaussian, Inc., Wallingford CT, 2016.
 
 ******************************************
 Gaussian 16:  EM64L-G16RevA.03 25-Dec-2016
                17-Sep-2021 
 ******************************************
 %chk=02-IsoP_005_gaussian.chk
 %nproc=1
 Will use up to    1 processors via shared memory.
 %mem=4000Mb
 ---------------------
 #p opt mp2/6-31g(d,p)
 ---------------------
 1/18=20,19=15,38=1/1,3;
 2/9=110,12=2,17=6,18=5,40=1/2;
 3/5=1,6=6,7=101,11=9,25=1,30=1,71=1/1,2,3;
 4//1;
 5/5=2,38=5/2;
 8/6=4,10=2/1;
 9/15=2,16=-3/6;
 10/5=1/2;
 6/7=2,8=2,9=2,10=2/1;
 7/12=2/1,2,3,16;
 1/18=20,19=15/3(2);
 2/9=110/2;
 99//99;
 2/9=110/2;
 3/5=1,6=6,7=101,11=9,25=1,30=1,71=1/1,2,3;
 4/5=5,16=3,69=1/1;
 5/5=2,38=5/2;
 8/6=4,10=2/1;
 9/15=2,16=-3/6;
 10/5=1/2;
 7/12=2/1,2,3,16;
 1/18=20,19=15/3(-8);
 2/9=110/2;
 6/7=2,8=2,9=2,10=2/1;
 99//99;
 Leave Link    1 at Fri Sep 17 20:09:25 2021, MaxMem=   524288000 cpu:               0.0 elap:               0.2
 (Enter /opt/gaussian/g16_legacy/l101.exe)
 -------------------------------------------------
 Conformer number 005. Energy MM = 25.430 kcal/mol
 -------------------------------------------------
 Symbolic Z-matrix:
 Charge =  0 Multiplicity = 1
 C                     2.1612    1.33     -8.9633 
 H                     1.8542    0.3127   -9.2452 
 H                     2.016     1.9468   -9.8605 
 C                     3.6327    1.3456   -8.5902 
 C                     4.2061    2.6973   -8.2619 
 H                     5.2558    2.7858   -8.5561 
 H                     3.6686    3.4879   -8.7958 
 H                     4.1205    2.8908   -7.1872 
 C                     4.3502    0.2052   -8.5739 
 H                     3.8559   -0.7287   -8.8401 
 C                     5.7895    0.0456   -8.1954 
 H                     6.2585    0.9746   -7.8635 
 H                     5.8739   -0.6749   -7.3761 
 H                     6.3566   -0.3386   -9.0481 
 C                    -2.4228    0.6149   -8.3394 
 H                    -2.7295    1.5517   -8.8155 
 H                    -2.6078   -0.1982   -9.0494 
 H                    -3.0614    0.4653   -7.462 
 C                    -0.9749    0.6276   -7.933 
 C                    -0.4806   -0.6404   -7.293 
 H                     0.3181   -0.4623   -6.568 
 H                    -1.2876   -1.1427   -6.7499 
 H                    -0.1083   -1.3262   -8.0616 
 C                    -0.1973    1.7029   -8.1664 
 H                    -0.6327    2.5718   -8.6584 
 C                     1.263     1.8366   -7.8291 
 H                     1.4652    2.897    -7.6316 
 H                     1.499     1.3144   -6.8926 
 
 ITRead=  0  0  0  0  0  0  0  0  0  0  0  0  0  0  0  0  0  0  0  0
 ITRead=  0  0  0  0  0  0  0  0
 MicOpt= -1 -1 -1 -1 -1 -1 -1 -1 -1 -1 -1 -1 -1 -1 -1 -1 -1 -1 -1 -1
 MicOpt= -1 -1 -1 -1 -1 -1 -1 -1
 NAtoms=     28 NQM=       28 NQMF=       0 NMMI=      0 NMMIF=      0
                NMic=       0 NMicF=      0.
                    Isotopes and Nuclear Properties:
 (Nuclear quadrupole moments (NQMom) in fm**2, nuclear magnetic moments (NMagM)
  in nuclear magnetons)

  Atom         1           2           3           4           5           6           7           8           9          10
 IAtWgt=          12           1           1          12          12           1           1           1          12           1
 AtmWgt=  12.0000000   1.0078250   1.0078250  12.0000000  12.0000000   1.0078250   1.0078250   1.0078250  12.0000000   1.0078250
 NucSpn=           0           1           1           0           0           1           1           1           0           1
 AtZEff=  -0.0000000  -0.0000000  -0.0000000  -0.0000000  -0.0000000  -0.0000000  -0.0000000  -0.0000000  -0.0000000  -0.0000000
 NQMom=    0.0000000   0.0000000   0.0000000   0.0000000   0.0000000   0.0000000   0.0000000   0.0000000   0.0000000   0.0000000
 NMagM=    0.0000000   2.7928460   2.7928460   0.0000000   0.0000000   2.7928460   2.7928460   2.7928460   0.0000000   2.7928460
 AtZNuc=   6.0000000   1.0000000   1.0000000   6.0000000   6.0000000   1.0000000   1.0000000   1.0000000   6.0000000   1.0000000

  Atom        11          12          13          14          15          16          17          18          19          20
 IAtWgt=          12           1           1           1          12           1           1           1          12          12
 AtmWgt=  12.0000000   1.0078250   1.0078250   1.0078250  12.0000000   1.0078250   1.0078250   1.0078250  12.0000000  12.0000000
 NucSpn=           0           1           1           1           0           1           1           1           0           0
 AtZEff=  -0.0000000  -0.0000000  -0.0000000  -0.0000000  -0.0000000  -0.0000000  -0.0000000  -0.0000000  -0.0000000  -0.0000000
 NQMom=    0.0000000   0.0000000   0.0000000   0.0000000   0.0000000   0.0000000   0.0000000   0.0000000   0.0000000   0.0000000
 NMagM=    0.0000000   2.7928460   2.7928460   2.7928460   0.0000000   2.7928460   2.7928460   2.7928460   0.0000000   0.0000000
 AtZNuc=   6.0000000   1.0000000   1.0000000   1.0000000   6.0000000   1.0000000   1.0000000   1.0000000   6.0000000   6.0000000

  Atom        21          22          23          24          25          26          27          28
 IAtWgt=           1           1           1          12           1          12           1           1
 AtmWgt=   1.0078250   1.0078250   1.0078250  12.0000000   1.0078250  12.0000000   1.0078250   1.0078250
 NucSpn=           1           1           1           0           1           0           1           1
 AtZEff=  -0.0000000  -0.0000000  -0.0000000  -0.0000000  -0.0000000  -0.0000000  -0.0000000  -0.0000000
 NQMom=    0.0000000   0.0000000   0.0000000   0.0000000   0.0000000   0.0000000   0.0000000   0.0000000
 NMagM=    2.7928460   2.7928460   2.7928460   0.0000000   2.7928460   0.0000000   2.7928460   2.7928460
 AtZNuc=   1.0000000   1.0000000   1.0000000   6.0000000   1.0000000   6.0000000   1.0000000   1.0000000
 Leave Link  101 at Fri Sep 17 20:09:25 2021, MaxMem=   524288000 cpu:               0.1 elap:               0.2
 (Enter /opt/gaussian/g16_legacy/l103.exe)

 GradGradGradGradGradGradGradGradGradGradGradGradGradGradGradGradGradGrad
 Berny optimization.
 Initialization pass.
                           ----------------------------
                           !    Initial Parameters    !
                           ! (Angstroms and Degrees)  !
 --------------------------                            --------------------------
 ! Name  Definition              Value          Derivative Info.                !
 --------------------------------------------------------------------------------
 ! R1    R(1,2)                  1.0994         estimate D2E/DX2                !
 ! R2    R(1,3)                  1.0984         estimate D2E/DX2                !
 ! R3    R(1,4)                  1.5181         estimate D2E/DX2                !
 ! R4    R(1,26)                 1.5329         estimate D2E/DX2                !
 ! R5    R(4,5)                  1.5045         estimate D2E/DX2                !
 ! R6    R(4,9)                  1.3474         estimate D2E/DX2                !
 ! R7    R(5,6)                  1.0937         estimate D2E/DX2                !
 ! R8    R(5,7)                  1.095          estimate D2E/DX2                !
 ! R9    R(5,8)                  1.0953         estimate D2E/DX2                !
 ! R10   R(9,10)                 1.0897         estimate D2E/DX2                !
 ! R11   R(9,11)                 1.4968         estimate D2E/DX2                !
 ! R12   R(11,12)                1.0923         estimate D2E/DX2                !
 ! R13   R(11,13)                1.0943         estimate D2E/DX2                !
 ! R14   R(11,14)                1.0938         estimate D2E/DX2                !
 ! R15   R(15,16)                1.0947         estimate D2E/DX2                !
 ! R16   R(15,17)                1.0952         estimate D2E/DX2                !
 ! R17   R(15,18)                1.0955         estimate D2E/DX2                !
 ! R18   R(15,19)                1.5039         estimate D2E/DX2                !
 ! R19   R(19,20)                1.5039         estimate D2E/DX2                !
 ! R20   R(19,24)                1.3474         estimate D2E/DX2                !
 ! R21   R(20,21)                1.0933         estimate D2E/DX2                !
 ! R22   R(20,22)                1.0948         estimate D2E/DX2                !
 ! R23   R(20,23)                1.0953         estimate D2E/DX2                !
 ! R24   R(24,25)                1.0893         estimate D2E/DX2                !
 ! R25   R(24,26)                1.5047         estimate D2E/DX2                !
 ! R26   R(26,27)                1.0974         estimate D2E/DX2                !
 ! R27   R(26,28)                1.0979         estimate D2E/DX2                !
 ! A1    A(2,1,3)              105.8582         estimate D2E/DX2                !
 ! A2    A(2,1,4)              110.0718         estimate D2E/DX2                !
 ! A3    A(2,1,26)             109.3848         estimate D2E/DX2                !
 ! A4    A(3,1,4)              108.8507         estimate D2E/DX2                !
 ! A5    A(3,1,26)             109.9579         estimate D2E/DX2                !
 ! A6    A(4,1,26)             112.5015         estimate D2E/DX2                !
 ! A7    A(1,4,5)              115.6111         estimate D2E/DX2                !
 ! A8    A(1,4,9)              120.6911         estimate D2E/DX2                !
 ! A9    A(5,4,9)              123.6962         estimate D2E/DX2                !
 ! A10   A(4,5,6)              112.3193         estimate D2E/DX2                !
 ! A11   A(4,5,7)              110.8054         estimate D2E/DX2                !
 ! A12   A(4,5,8)              110.0612         estimate D2E/DX2                !
 ! A13   A(6,5,7)              106.3517         estimate D2E/DX2                !
 ! A14   A(6,5,8)              108.9431         estimate D2E/DX2                !
 ! A15   A(7,5,8)              108.2093         estimate D2E/DX2                !
 ! A16   A(4,9,10)             118.7415         estimate D2E/DX2                !
 ! A17   A(4,9,11)             127.2542         estimate D2E/DX2                !
 ! A18   A(10,9,11)            113.9914         estimate D2E/DX2                !
 ! A19   A(9,11,12)            113.5173         estimate D2E/DX2                !
 ! A20   A(9,11,13)            109.4935         estimate D2E/DX2                !
 ! A21   A(9,11,14)            109.8093         estimate D2E/DX2                !
 ! A22   A(12,11,13)           107.4193         estimate D2E/DX2                !
 ! A23   A(12,11,14)           108.2407         estimate D2E/DX2                !
 ! A24   A(13,11,14)           108.2052         estimate D2E/DX2                !
 ! A25   A(16,15,17)           107.8224         estimate D2E/DX2                !
 ! A26   A(16,15,18)           107.571          estimate D2E/DX2                !
 ! A27   A(16,15,19)           112.3362         estimate D2E/DX2                !
 ! A28   A(17,15,18)           108.6255         estimate D2E/DX2                !
 ! A29   A(17,15,19)           110.1259         estimate D2E/DX2                !
 ! A30   A(18,15,19)           110.2403         estimate D2E/DX2                !
 ! A31   A(15,19,20)           115.1072         estimate D2E/DX2                !
 ! A32   A(15,19,24)           121.0349         estimate D2E/DX2                !
 ! A33   A(20,19,24)           123.8426         estimate D2E/DX2                !
 ! A34   A(19,20,21)           112.6418         estimate D2E/DX2                !
 ! A35   A(19,20,22)           110.835          estimate D2E/DX2                !
 ! A36   A(19,20,23)           109.9383         estimate D2E/DX2                !
 ! A37   A(21,20,22)           106.5164         estimate D2E/DX2                !
 ! A38   A(21,20,23)           108.6038         estimate D2E/DX2                !
 ! A39   A(22,20,23)           108.1435         estimate D2E/DX2                !
 ! A40   A(19,24,25)           118.9566         estimate D2E/DX2                !
 ! A41   A(19,24,26)           126.3116         estimate D2E/DX2                !
 ! A42   A(25,24,26)           114.7256         estimate D2E/DX2                !
 ! A43   A(1,26,24)            111.9273         estimate D2E/DX2                !
 ! A44   A(1,26,27)            110.1531         estimate D2E/DX2                !
 ! A45   A(1,26,28)            110.3639         estimate D2E/DX2                !
 ! A46   A(24,26,27)           107.7589         estimate D2E/DX2                !
 ! A47   A(24,26,28)           110.9501         estimate D2E/DX2                !
 ! A48   A(27,26,28)           105.4542         estimate D2E/DX2                !
 ! D1    D(2,1,4,5)            176.4656         estimate D2E/DX2                !
 ! D2    D(2,1,4,9)             -3.0795         estimate D2E/DX2                !
 ! D3    D(3,1,4,5)             60.8605         estimate D2E/DX2                !
 ! D4    D(3,1,4,9)           -118.6846         estimate D2E/DX2                !
 ! D5    D(26,1,4,5)           -61.2683         estimate D2E/DX2                !
 ! D6    D(26,1,4,9)           119.1867         estimate D2E/DX2                !
 ! D7    D(2,1,26,24)          -52.339          estimate D2E/DX2                !
 ! D8    D(2,1,26,27)         -172.2053         estimate D2E/DX2                !
 ! D9    D(2,1,26,28)           71.755          estimate D2E/DX2                !
 ! D10   D(3,1,26,24)           63.5074         estimate D2E/DX2                !
 ! D11   D(3,1,26,27)          -56.3589         estimate D2E/DX2                !
 ! D12   D(3,1,26,28)         -172.3985         estimate D2E/DX2                !
 ! D13   D(4,1,26,24)         -174.9925         estimate D2E/DX2                !
 ! D14   D(4,1,26,27)           65.1412         estimate D2E/DX2                !
 ! D15   D(4,1,26,28)          -50.8984         estimate D2E/DX2                !
 ! D16   D(1,4,5,6)           -147.1525         estimate D2E/DX2                !
 ! D17   D(1,4,5,7)            -28.3658         estimate D2E/DX2                !
 ! D18   D(1,4,5,8)             91.2801         estimate D2E/DX2                !
 ! D19   D(9,4,5,6)             32.3773         estimate D2E/DX2                !
 ! D20   D(9,4,5,7)            151.164          estimate D2E/DX2                !
 ! D21   D(9,4,5,8)            -89.1902         estimate D2E/DX2                !
 ! D22   D(1,4,9,10)             0.3969         estimate D2E/DX2                !
 ! D23   D(1,4,9,11)          -178.2082         estimate D2E/DX2                !
 ! D24   D(5,4,9,10)          -179.1099         estimate D2E/DX2                !
 ! D25   D(5,4,9,11)             2.285          estimate D2E/DX2                !
 ! D26   D(4,9,11,12)            2.6754         estimate D2E/DX2                !
 ! D27   D(4,9,11,13)          122.7004         estimate D2E/DX2                !
 ! D28   D(4,9,11,14)         -118.629          estimate D2E/DX2                !
 ! D29   D(10,9,11,12)        -175.9859         estimate D2E/DX2                !
 ! D30   D(10,9,11,13)         -55.9609         estimate D2E/DX2                !
 ! D31   D(10,9,11,14)          62.7097         estimate D2E/DX2                !
 ! D32   D(16,15,19,20)       -178.9878         estimate D2E/DX2                !
 ! D33   D(16,15,19,24)         -0.3589         estimate D2E/DX2                !
 ! D34   D(17,15,19,20)        -58.7905         estimate D2E/DX2                !
 ! D35   D(17,15,19,24)        119.8384         estimate D2E/DX2                !
 ! D36   D(18,15,19,20)         61.0549         estimate D2E/DX2                !
 ! D37   D(18,15,19,24)       -120.3162         estimate D2E/DX2                !
 ! D38   D(15,19,20,21)       -149.5659         estimate D2E/DX2                !
 ! D39   D(15,19,20,22)        -30.3356         estimate D2E/DX2                !
 ! D40   D(15,19,20,23)         89.1681         estimate D2E/DX2                !
 ! D41   D(24,19,20,21)         31.8486         estimate D2E/DX2                !
 ! D42   D(24,19,20,22)        151.0789         estimate D2E/DX2                !
 ! D43   D(24,19,20,23)        -89.4174         estimate D2E/DX2                !
 ! D44   D(15,19,24,25)         -0.0473         estimate D2E/DX2                !
 ! D45   D(15,19,24,26)       -179.0956         estimate D2E/DX2                !
 ! D46   D(20,19,24,25)        178.4578         estimate D2E/DX2                !
 ! D47   D(20,19,24,26)         -0.5905         estimate D2E/DX2                !
 ! D48   D(19,24,26,1)          88.5778         estimate D2E/DX2                !
 ! D49   D(19,24,26,27)       -150.1632         estimate D2E/DX2                !
 ! D50   D(19,24,26,28)        -35.1877         estimate D2E/DX2                !
 ! D51   D(25,24,26,1)         -90.5055         estimate D2E/DX2                !
 ! D52   D(25,24,26,27)         30.7535         estimate D2E/DX2                !
 ! D53   D(25,24,26,28)        145.729          estimate D2E/DX2                !
 --------------------------------------------------------------------------------
 Trust Radius=3.00D-01 FncErr=1.00D-07 GrdErr=1.00D-07 EigMax=2.50D+02 EigMin=1.00D-04
 Number of steps in this run=    138 maximum allowed number of steps=    168.
 GradGradGradGradGradGradGradGradGradGradGradGradGradGradGradGradGradGrad

 Leave Link  103 at Fri Sep 17 20:09:25 2021, MaxMem=   524288000 cpu:               0.0 elap:               0.2
 (Enter /opt/gaussian/g16_legacy/l202.exe)
                          Input orientation:                          
 ---------------------------------------------------------------------
 Center     Atomic      Atomic             Coordinates (Angstroms)
 Number     Number       Type             X           Y           Z
 ---------------------------------------------------------------------
      1          6           0        2.161200    1.330000   -8.963300
      2          1           0        1.854200    0.312700   -9.245200
      3          1           0        2.016000    1.946800   -9.860500
      4          6           0        3.632700    1.345600   -8.590200
      5          6           0        4.206100    2.697300   -8.261900
      6          1           0        5.255800    2.785800   -8.556100
      7          1           0        3.668600    3.487900   -8.795800
      8          1           0        4.120500    2.890800   -7.187200
      9          6           0        4.350200    0.205200   -8.573900
     10          1           0        3.855900   -0.728700   -8.840100
     11          6           0        5.789500    0.045600   -8.195400
     12          1           0        6.258500    0.974600   -7.863500
     13          1           0        5.873900   -0.674900   -7.376100
     14          1           0        6.356600   -0.338600   -9.048100
     15          6           0       -2.422800    0.614900   -8.339400
     16          1           0       -2.729500    1.551700   -8.815500
     17          1           0       -2.607800   -0.198200   -9.049400
     18          1           0       -3.061400    0.465300   -7.462000
     19          6           0       -0.974900    0.627600   -7.933000
     20          6           0       -0.480600   -0.640400   -7.293000
     21          1           0        0.318100   -0.462300   -6.568000
     22          1           0       -1.287600   -1.142700   -6.749900
     23          1           0       -0.108300   -1.326200   -8.061600
     24          6           0       -0.197300    1.702900   -8.166400
     25          1           0       -0.632700    2.571800   -8.658400
     26          6           0        1.263000    1.836600   -7.829100
     27          1           0        1.465200    2.897000   -7.631600
     28          1           0        1.499000    1.314400   -6.892600
 ---------------------------------------------------------------------
                    Distance matrix (angstroms):
                    1          2          3          4          5
     1  C    0.000000
     2  H    1.099371   0.000000
     3  H    1.098405   1.753584   0.000000
     4  C    1.518143   2.158465   2.142154   0.000000
     5  C    2.557946   3.490649   2.813416   1.504547   0.000000
     6  H    3.444084   4.261686   3.591891   2.170206   1.093735
     7  H    2.637583   3.684549   2.497932   2.152443   1.094990
     8  H    3.070747   4.002259   3.530806   2.143362   1.095331
     9  C    2.491692   2.586932   3.183866   1.347436   2.515685
    10  H    2.669350   2.292471   3.403638   2.101187   3.492053
    11  C    3.924782   4.081667   4.541632   2.549049   3.089189
    12  H    4.257198   4.663160   4.788736   2.749647   2.709015
    13  H    4.508100   4.541682   5.284784   3.252605   3.864962
    14  H    4.515839   4.553531   4.972309   3.235094   3.802558
    15  C    4.681204   4.382297   4.877566   6.104581   6.948720
    16  H    4.897953   4.767606   4.875233   6.369523   7.051342
    17  H    5.008610   4.495420   5.161244   6.445000   7.445355
    18  H    5.502468   5.231273   5.807550   6.845344   7.644490
    19  C    3.374908   3.134460   3.794869   4.709290   5.588792
    20  C    3.694792   3.189165   4.417994   4.748280   5.834738
    21  H    3.513804   3.182393   4.418957   4.283033   5.288564
    22  H    4.786189   4.267976   5.489500   5.812718   6.871134
    23  H    3.608198   2.817500   4.296652   4.627420   5.902772
    24  C    2.517266   2.702798   2.797885   3.869906   4.515294
    25  H    3.072606   3.410651   2.975110   4.438677   4.856640
    26  C    1.532911   2.162667   2.169272   2.536894   3.096766
    27  H    2.171020   3.071422   2.484805   2.832633   2.819520
    28  H    2.174063   2.581530   3.078254   2.726810   3.334034
                    6          7          8          9         10
     6  H    0.000000
     7  H    1.752029   0.000000
     8  H    1.781521   1.774355   0.000000
     9  C    2.734945   3.360050   3.031196   0.000000
    10  H    3.793690   4.220990   3.987840   1.089662   0.000000
    11  C    2.814895   4.087557   3.449231   1.496769   2.180364
    12  H    2.183013   3.727391   2.949618   2.176753   3.102816
    13  H    3.708220   4.920142   3.977978   2.128606   2.493695
    14  H    3.348985   4.683065   4.346506   2.132188   2.539477
    15  C    7.982522   6.750377   7.022967   6.789431   6.440344
    16  H    8.084263   6.684680   7.167081   7.210658   6.969098
    17  H    8.425189   7.283189   7.634116   6.985885   6.488810
    18  H    8.703884   7.497202   7.585397   7.499052   7.153589
    19  C    6.623270   5.521579   5.625068   5.380136   5.098922
    20  C    6.800041   6.042940   5.800921   5.068764   4.605057
    21  H    6.235670   5.638530   5.107341   4.552694   4.213008
    22  H    7.842930   7.084637   6.760762   6.076891   5.567398
    23  H    6.776920   6.162758   6.035761   4.741926   4.083865
    24  C    5.573225   4.304364   4.584031   4.805093   4.774409
    25  H    5.893275   4.399920   4.985890   5.516994   5.574392
    26  C    4.167969   3.073794   3.112664   3.570294   3.784972
    27  H    3.903295   2.561151   2.692238   4.056716   4.507951
    28  H    4.364149   3.612954   3.073124   3.490908   3.677226
                   11         12         13         14         15
    11  C    0.000000
    12  H    1.092318   0.000000
    13  H    1.094302   1.762477   0.000000
    14  H    1.093759   1.771269   1.772479   0.000000
    15  C    8.233268   8.701772   8.451435   8.859418   0.000000
    16  H    8.673305   9.056682   9.002672   9.283563   1.094683
    17  H    8.444134   9.021812   8.658315   8.965499   1.095197
    18  H    8.891145   9.342437   9.008164   9.584398   1.095455
    19  C    6.794460   7.242052   6.993762   7.478495   1.503907
    20  C    6.371740   6.953356   6.355137   7.065321   2.538281
    21  H    5.730847   6.247508   5.618286   6.529141   3.436677
    22  H    7.320305   7.916229   7.204030   8.022599   2.627612
    23  H    6.056714   6.772671   6.056469   6.613884   3.033472
    24  C    6.212025   6.503808   6.567951   6.920890   2.483249
    25  H    6.916698   7.118395   7.383847   7.581069   2.671269
    26  C    4.881707   5.069443   5.270032   5.671174   3.916386
    27  H    5.210367   5.169635   5.679823   6.033355   4.563497
    28  H    4.659993   4.869389   4.830200   5.565507   4.238283
                   16         17         18         19         20
    16  H    0.000000
    17  H    1.769653   0.000000
    18  H    1.767027   1.779276   0.000000
    19  C    2.170573   2.143515   2.145149   0.000000
    20  C    3.490109   2.793826   2.812768   1.503914   0.000000
    21  H    4.288976   3.845515   3.616725   2.173236   1.093282
    22  H    3.688573   2.814731   2.497822   2.152085   1.094766
    23  H    3.965017   2.914727   3.505680   2.141230   1.095297
    24  C    2.618440   3.194430   3.198578   1.347371   2.516772
    25  H    2.337061   3.424442   3.430350   2.103145   3.493663
    26  C    4.122403   4.540114   4.551446   2.545717   3.076211
    27  H    4.561465   5.308460   5.141210   3.345909   4.051418
    28  H    4.651244   4.879093   4.673589   2.770254   2.810761
                   21         22         23         24         25
    21  H    0.000000
    22  H    1.753369   0.000000
    23  H    1.777352   1.773408   0.000000
    24  C    2.740184   3.360456   3.032219   0.000000
    25  H    3.805201   4.227148   3.978136   1.089323   0.000000
    26  C    2.787140   4.067734   3.455116   1.504700   2.195891
    27  H    3.705669   4.967341   4.527275   2.115607   2.358232
    28  H    2.157905   3.717908   3.304957   2.156602   3.040271
                   26         27         28
    26  C    0.000000
    27  H    1.097424   0.000000
    28  H    1.097917   1.746965   0.000000
 Stoichiometry    C10H18
 Framework group  C1[X(C10H18)]
 Deg. of freedom    78
 Full point group                 C1      NOp   1
 Largest Abelian subgroup         C1      NOp   1
 Largest concise Abelian subgroup C1      NOp   1
                         Standard orientation:                         
 ---------------------------------------------------------------------
 Center     Atomic      Atomic             Coordinates (Angstroms)
 Number     Number       Type             X           Y           Z
 ---------------------------------------------------------------------
      1          6           0       -0.487379   -0.450452   -0.673461
      2          1           0       -0.124779    0.481200   -1.130804
      3          1           0       -0.441364   -1.210947   -1.464677
      4          6           0       -1.931120   -0.287289   -0.233293
      5          6           0       -2.580434   -1.519045    0.336646
      6          1           0       -3.649527   -1.567295    0.110884
      7          1           0       -2.134709   -2.425079   -0.086952
      8          1           0       -2.444864   -1.546689    1.423203
      9          6           0       -2.561666    0.895862   -0.368011
     10          1           0       -2.017712    1.732698   -0.805257
     11          6           0       -3.960308    1.229675    0.047549
     12          1           0       -4.474781    0.405982    0.547555
     13          1           0       -3.942931    2.074976    0.742286
     14          1           0       -4.548092    1.519179   -0.828240
     15          6           0        4.165567   -0.020723   -0.392202
     16          1           0        4.374366   -1.042747   -0.724168
     17          1           0        4.366231    0.652277   -1.232596
     18          1           0        4.864767    0.213174    0.418002
     19          6           0        2.747526    0.148634    0.079196
     20          6           0        2.385826    1.537724    0.527928
     21          1           0        1.621187    1.541871    1.309321
     22          1           0        3.258253    2.052229    0.943462
     23          1           0        2.018912    2.121484   -0.323114
     24          6           0        1.881328   -0.883235    0.060401
     25          1           0        2.222232   -1.851409   -0.304357
     26          6           0        0.438018   -0.842859    0.483896
     27          1           0        0.171566   -1.838772    0.860061
     28          1           0        0.297093   -0.161874    1.333496
 ---------------------------------------------------------------------
 Rotational constants (GHZ):           2.8087906           0.5009487           0.4497229
 Leave Link  202 at Fri Sep 17 20:09:25 2021, MaxMem=   524288000 cpu:               0.0 elap:               0.3
 (Enter /opt/gaussian/g16_legacy/l301.exe)
 Standard basis: 6-31G(d,p) (6D, 7F)
 Ernie: Thresh=  0.10000D-02 Tol=  0.10000D-05 Strict=F.
 There are   240 symmetry adapted cartesian basis functions of A   symmetry.
 There are   240 symmetry adapted basis functions of A   symmetry.
   240 basis functions,   406 primitive gaussians,   240 cartesian basis functions
    39 alpha electrons       39 beta electrons
       nuclear repulsion energy       512.4644535509 Hartrees.
 IExCor=    0 DFT=F Ex=HF Corr=None ExCW=0 ScaHFX=  1.000000
 ScaDFX=  1.000000  1.000000  1.000000  1.000000 ScalE2=  1.000000  1.000000
 IRadAn=      5 IRanWt=     -1 IRanGd=            0 ICorTp=0 IEmpDi=  4
 NAtoms=   28 NActive=   28 NUniq=   28 SFac= 1.00D+00 NAtFMM=   60 NAOKFM=F Big=F
 Integral buffers will be    131072 words long.
 Raffenetti 1 integral format.
 Two-electron integral symmetry is turned on.
 Leave Link  301 at Fri Sep 17 20:09:26 2021, MaxMem=   524288000 cpu:               0.1 elap:               0.1
 (Enter /opt/gaussian/g16_legacy/l302.exe)
 NPDir=0 NMtPBC=     1 NCelOv=     1 NCel=       1 NClECP=     1 NCelD=      1
         NCelK=      1 NCelE2=     1 NClLst=     1 CellRange=     0.0.
 One-electron integrals computed using PRISM.
 One-electron integral symmetry used in STVInt
 NBasis=   240 RedAO= T EigKep=  2.26D-03  NBF=   240
 NBsUse=   240 1.00D-06 EigRej= -1.00D+00 NBFU=   240
 Leave Link  302 at Fri Sep 17 20:09:26 2021, MaxMem=   524288000 cpu:               0.2 elap:               0.4
 (Enter /opt/gaussian/g16_legacy/l303.exe)
 DipDrv:  MaxL=1.
 Leave Link  303 at Fri Sep 17 20:09:26 2021, MaxMem=   524288000 cpu:               0.0 elap:               0.2
 (Enter /opt/gaussian/g16_legacy/l401.exe)
 ExpMin= 1.61D-01 ExpMax= 3.05D+03 ExpMxC= 4.57D+02 IAcc=3 IRadAn=         5 AccDes= 0.00D+00
 Harris functional with IExCor=  205 and IRadAn=       5 diagonalized for initial guess.
 HarFok:  IExCor=  205 AccDes= 0.00D+00 IRadAn=         5 IDoV= 1 UseB2=F ITyADJ=14
 ICtDFT=  3500011 ScaDFX=  1.000000  1.000000  1.000000  1.000000
 FoFCou: FMM=F IPFlag=           0 FMFlag=      100000 FMFlg1=           0
         NFxFlg=           0 DoJE=T BraDBF=F KetDBF=T FulRan=T
         wScrn=  0.000000 ICntrl=       500 IOpCl=  0 I1Cent=   200000004 NGrid=           0
         NMat0=    1 NMatS0=      1 NMatT0=    0 NMatD0=    1 NMtDS0=    0 NMtDT0=    0
 Petite list used in FoFCou.
 Harris En= -390.109470934059    
 JPrj=0 DoOrth=F DoCkMO=F.
 Leave Link  401 at Fri Sep 17 20:09:33 2021, MaxMem=   524288000 cpu:               6.1 elap:               6.5
 (Enter /opt/gaussian/g16_legacy/l502.exe)
 Keep R1 ints in memory in canonical form, NReq=425198025.
 FoFCou: FMM=F IPFlag=           0 FMFlag=           0 FMFlg1=           0
         NFxFlg=           0 DoJE=F BraDBF=F KetDBF=F FulRan=T
         wScrn=  0.000000 ICntrl=       600 IOpCl=  0 I1Cent=           0 NGrid=           0
         NMat0=    1 NMatS0=  28920 NMatT0=    0 NMatD0=    1 NMtDS0=    0 NMtDT0=    0
 Symmetry not used in FoFCou.
 Two-electron integral symmetry not used.
 Closed shell SCF:
 Using DIIS extrapolation, IDIIS=  1040.
 NGot=   524288000 LenX=   105970886 LenY=   105912845
 Requested convergence on RMS density matrix=1.00D-08 within 128 cycles.
 Requested convergence on MAX density matrix=1.00D-06.
 Requested convergence on             energy=1.00D-06.
 No special actions if energy rises.

 Cycle   1  Pass 1  IDiag  1:
 E= -388.529492359734    
 DIIS: error= 5.14D-02 at cycle   1 NSaved=   1.
 NSaved= 1 IEnMin= 1 EnMin= -388.529492359734     IErMin= 1 ErrMin= 5.14D-02
 ErrMax= 5.14D-02  0.00D+00 EMaxC= 1.00D-01 BMatC= 8.09D-01 BMatP= 8.09D-01
 IDIUse=3 WtCom= 4.86D-01 WtEn= 5.14D-01
 Coeff-Com:  0.100D+01
 Coeff-En:   0.100D+01
 Coeff:      0.100D+01
 Gap=     0.507 Goal=   None    Shift=    0.000
 GapD=    0.507 DampG=2.000 DampE=0.500 DampFc=1.0000 IDamp=-1.
 RMSDP=4.01D-03 MaxDP=1.15D-01              OVMax= 1.32D-01

 Cycle   2  Pass 1  IDiag  1:
 E= -389.070765834490     Delta-E=       -0.541273474756 Rises=F Damp=F
 DIIS: error= 1.03D-02 at cycle   2 NSaved=   2.
 NSaved= 2 IEnMin= 2 EnMin= -389.070765834490     IErMin= 2 ErrMin= 1.03D-02
 ErrMax= 1.03D-02  0.00D+00 EMaxC= 1.00D-01 BMatC= 8.76D-02 BMatP= 8.09D-01
 IDIUse=3 WtCom= 8.97D-01 WtEn= 1.03D-01
 Coeff-Com:  0.184D+00 0.816D+00
 Coeff-En:   0.000D+00 0.100D+01
 Coeff:      0.165D+00 0.835D+00
 Gap=     0.554 Goal=   None    Shift=    0.000
 RMSDP=1.62D-03 MaxDP=3.00D-02 DE=-5.41D-01 OVMax= 4.46D-02

 Cycle   3  Pass 1  IDiag  1:
 E= -389.149477990750     Delta-E=       -0.078712156260 Rises=F Damp=F
 DIIS: error= 2.41D-03 at cycle   3 NSaved=   3.
 NSaved= 3 IEnMin= 3 EnMin= -389.149477990750     IErMin= 3 ErrMin= 2.41D-03
 ErrMax= 2.41D-03  0.00D+00 EMaxC= 1.00D-01 BMatC= 2.84D-03 BMatP= 8.76D-02
 IDIUse=3 WtCom= 9.76D-01 WtEn= 2.41D-02
 Coeff-Com: -0.244D-01 0.959D-01 0.928D+00
 Coeff-En:   0.000D+00 0.000D+00 0.100D+01
 Coeff:     -0.238D-01 0.936D-01 0.930D+00
 Gap=     0.499 Goal=   None    Shift=    0.000
 RMSDP=2.46D-04 MaxDP=6.67D-03 DE=-7.87D-02 OVMax= 9.33D-03

 Cycle   4  Pass 1  IDiag  1:
 E= -389.152775712855     Delta-E=       -0.003297722105 Rises=F Damp=F
 DIIS: error= 4.61D-04 at cycle   4 NSaved=   4.
 NSaved= 4 IEnMin= 4 EnMin= -389.152775712855     IErMin= 4 ErrMin= 4.61D-04
 ErrMax= 4.61D-04  0.00D+00 EMaxC= 1.00D-01 BMatC= 9.18D-05 BMatP= 2.84D-03
 IDIUse=3 WtCom= 9.95D-01 WtEn= 4.61D-03
 Coeff-Com: -0.420D-02-0.249D-02 0.942D-01 0.912D+00
 Coeff-En:   0.000D+00 0.000D+00 0.000D+00 0.100D+01
 Coeff:     -0.418D-02-0.248D-02 0.938D-01 0.913D+00
 Gap=     0.499 Goal=   None    Shift=    0.000
 RMSDP=7.21D-05 MaxDP=1.58D-03 DE=-3.30D-03 OVMax= 3.33D-03

 Cycle   5  Pass 1  IDiag  1:
 E= -389.152897969126     Delta-E=       -0.000122256271 Rises=F Damp=F
 DIIS: error= 1.38D-04 at cycle   5 NSaved=   5.
 NSaved= 5 IEnMin= 5 EnMin= -389.152897969126     IErMin= 5 ErrMin= 1.38D-04
 ErrMax= 1.38D-04  0.00D+00 EMaxC= 1.00D-01 BMatC= 1.73D-05 BMatP= 9.18D-05
 IDIUse=3 WtCom= 9.99D-01 WtEn= 1.38D-03
 Coeff-Com:  0.227D-02-0.139D-01-0.994D-01 0.196D+00 0.915D+00
 Coeff-En:   0.000D+00 0.000D+00 0.000D+00 0.000D+00 0.100D+01
 Coeff:      0.226D-02-0.139D-01-0.993D-01 0.196D+00 0.915D+00
 Gap=     0.499 Goal=   None    Shift=    0.000
 RMSDP=2.99D-05 MaxDP=6.16D-04 DE=-1.22D-04 OVMax= 9.12D-04

 Cycle   6  Pass 1  IDiag  1:
 E= -389.152920551740     Delta-E=       -0.000022582615 Rises=F Damp=F
 DIIS: error= 3.36D-05 at cycle   6 NSaved=   6.
 NSaved= 6 IEnMin= 6 EnMin= -389.152920551740     IErMin= 6 ErrMin= 3.36D-05
 ErrMax= 3.36D-05  0.00D+00 EMaxC= 1.00D-01 BMatC= 5.75D-07 BMatP= 1.73D-05
 IDIUse=1 WtCom= 1.00D+00 WtEn= 0.00D+00
 Coeff-Com:  0.695D-03-0.289D-02-0.252D-01-0.988D-02 0.156D+00 0.882D+00
 Coeff:      0.695D-03-0.289D-02-0.252D-01-0.988D-02 0.156D+00 0.882D+00
 Gap=     0.500 Goal=   None    Shift=    0.000
 RMSDP=5.81D-06 MaxDP=1.40D-04 DE=-2.26D-05 OVMax= 3.31D-04

 Cycle   7  Pass 1  IDiag  1:
 E= -389.152921495121     Delta-E=       -0.000000943381 Rises=F Damp=F
 DIIS: error= 7.88D-06 at cycle   7 NSaved=   7.
 NSaved= 7 IEnMin= 7 EnMin= -389.152921495121     IErMin= 7 ErrMin= 7.88D-06
 ErrMax= 7.88D-06  0.00D+00 EMaxC= 1.00D-01 BMatC= 4.98D-08 BMatP= 5.75D-07
 IDIUse=1 WtCom= 1.00D+00 WtEn= 0.00D+00
 Coeff-Com: -0.326D-04 0.340D-03 0.234D-02-0.890D-02-0.420D-01 0.120D+00
 Coeff-Com:  0.928D+00
 Coeff:     -0.326D-04 0.340D-03 0.234D-02-0.890D-02-0.420D-01 0.120D+00
 Coeff:      0.928D+00
 Gap=     0.500 Goal=   None    Shift=    0.000
 RMSDP=1.65D-06 MaxDP=4.28D-05 DE=-9.43D-07 OVMax= 8.65D-05

 Cycle   8  Pass 1  IDiag  1:
 E= -389.152921582216     Delta-E=       -0.000000087094 Rises=F Damp=F
 DIIS: error= 3.47D-06 at cycle   8 NSaved=   8.
 NSaved= 8 IEnMin= 8 EnMin= -389.152921582216     IErMin= 8 ErrMin= 3.47D-06
 ErrMax= 3.47D-06  0.00D+00 EMaxC= 1.00D-01 BMatC= 6.01D-09 BMatP= 4.98D-08
 IDIUse=1 WtCom= 1.00D+00 WtEn= 0.00D+00
 Coeff-Com: -0.671D-04 0.262D-03 0.243D-02 0.371D-02-0.197D-01-0.890D-01
 Coeff-Com: -0.887D-01 0.119D+01
 Coeff:     -0.671D-04 0.262D-03 0.243D-02 0.371D-02-0.197D-01-0.890D-01
 Coeff:     -0.887D-01 0.119D+01
 Gap=     0.500 Goal=   None    Shift=    0.000
 RMSDP=8.10D-07 MaxDP=2.56D-05 DE=-8.71D-08 OVMax= 6.15D-05

 Cycle   9  Pass 1  IDiag  1:
 E= -389.152921599923     Delta-E=       -0.000000017708 Rises=F Damp=F
 DIIS: error= 1.42D-06 at cycle   9 NSaved=   9.
 NSaved= 9 IEnMin= 9 EnMin= -389.152921599923     IErMin= 9 ErrMin= 1.42D-06
 ErrMax= 1.42D-06  0.00D+00 EMaxC= 1.00D-01 BMatC= 8.37D-10 BMatP= 6.01D-09
 IDIUse=1 WtCom= 1.00D+00 WtEn= 0.00D+00
 Coeff-Com:  0.936D-05-0.624D-04-0.487D-03 0.134D-02 0.352D-02 0.354D-02
 Coeff-Com: -0.865D-01-0.147D+00 0.123D+01
 Coeff:      0.936D-05-0.624D-04-0.487D-03 0.134D-02 0.352D-02 0.354D-02
 Coeff:     -0.865D-01-0.147D+00 0.123D+01
 Gap=     0.500 Goal=   None    Shift=    0.000
 RMSDP=3.22D-07 MaxDP=1.28D-05 DE=-1.77D-08 OVMax= 2.94D-05

 Cycle  10  Pass 1  IDiag  1:
 E= -389.152921602664     Delta-E=       -0.000000002740 Rises=F Damp=F
 DIIS: error= 5.32D-07 at cycle  10 NSaved=  10.
 NSaved=10 IEnMin=10 EnMin= -389.152921602664     IErMin=10 ErrMin= 5.32D-07
 ErrMax= 5.32D-07  0.00D+00 EMaxC= 1.00D-01 BMatC= 1.41D-10 BMatP= 8.37D-10
 IDIUse=1 WtCom= 1.00D+00 WtEn= 0.00D+00
 Coeff-Com:  0.115D-04-0.512D-04-0.454D-03-0.154D-03 0.285D-02 0.159D-01
 Coeff-Com: -0.108D-02-0.224D+00 0.211D+00 0.996D+00
 Coeff:      0.115D-04-0.512D-04-0.454D-03-0.154D-03 0.285D-02 0.159D-01
 Coeff:     -0.108D-02-0.224D+00 0.211D+00 0.996D+00
 Gap=     0.500 Goal=   None    Shift=    0.000
 RMSDP=1.28D-07 MaxDP=3.10D-06 DE=-2.74D-09 OVMax= 1.01D-05

 Cycle  11  Pass 1  IDiag  1:
 E= -389.152921603013     Delta-E=       -0.000000000350 Rises=F Damp=F
 DIIS: error= 1.88D-07 at cycle  11 NSaved=  11.
 NSaved=11 IEnMin=11 EnMin= -389.152921603013     IErMin=11 ErrMin= 1.88D-07
 ErrMax= 1.88D-07  0.00D+00 EMaxC= 1.00D-01 BMatC= 9.76D-12 BMatP= 1.41D-10
 IDIUse=1 WtCom= 1.00D+00 WtEn= 0.00D+00
 Coeff-Com:  0.454D-06 0.317D-06-0.194D-05-0.128D-03-0.266D-03 0.215D-02
 Coeff-Com:  0.106D-01-0.101D-01-0.105D+00 0.124D+00 0.978D+00
 Coeff:      0.454D-06 0.317D-06-0.194D-05-0.128D-03-0.266D-03 0.215D-02
 Coeff:      0.106D-01-0.101D-01-0.105D+00 0.124D+00 0.978D+00
 Gap=     0.500 Goal=   None    Shift=    0.000
 RMSDP=2.94D-08 MaxDP=1.18D-06 DE=-3.50D-10 OVMax= 2.62D-06

 Cycle  12  Pass 1  IDiag  1:
 E= -389.152921603027     Delta-E=       -0.000000000013 Rises=F Damp=F
 DIIS: error= 3.69D-08 at cycle  12 NSaved=  12.
 NSaved=12 IEnMin=12 EnMin= -389.152921603027     IErMin=12 ErrMin= 3.69D-08
 ErrMax= 3.69D-08  0.00D+00 EMaxC= 1.00D-01 BMatC= 1.13D-12 BMatP= 9.76D-12
 IDIUse=1 WtCom= 1.00D+00 WtEn= 0.00D+00
 Coeff-Com: -0.114D-05 0.553D-05 0.484D-04 0.496D-05-0.377D-03-0.139D-02
 Coeff-Com:  0.142D-02 0.220D-01-0.387D-01-0.100D+00 0.120D+00 0.997D+00
 Coeff:     -0.114D-05 0.553D-05 0.484D-04 0.496D-05-0.377D-03-0.139D-02
 Coeff:      0.142D-02 0.220D-01-0.387D-01-0.100D+00 0.120D+00 0.997D+00
 Gap=     0.500 Goal=   None    Shift=    0.000
 RMSDP=1.12D-08 MaxDP=2.71D-07 DE=-1.34D-11 OVMax= 7.85D-07

 Cycle  13  Pass 1  IDiag  1:
 E= -389.152921603027     Delta-E=        0.000000000000 Rises=F Damp=F
 DIIS: error= 9.89D-09 at cycle  13 NSaved=  13.
 NSaved=13 IEnMin=12 EnMin= -389.152921603027     IErMin=13 ErrMin= 9.89D-09
 ErrMax= 9.89D-09  0.00D+00 EMaxC= 1.00D-01 BMatC= 5.21D-14 BMatP= 1.13D-12
 IDIUse=1 WtCom= 1.00D+00 WtEn= 0.00D+00
 Coeff-Com: -0.117D-06 0.416D-06 0.382D-05 0.121D-04-0.160D-04-0.259D-03
 Coeff-Com: -0.731D-03 0.266D-02 0.519D-02-0.165D-01-0.642D-01 0.887D-01
 Coeff-Com:  0.985D+00
 Coeff:     -0.117D-06 0.416D-06 0.382D-05 0.121D-04-0.160D-04-0.259D-03
 Coeff:     -0.731D-03 0.266D-02 0.519D-02-0.165D-01-0.642D-01 0.887D-01
 Coeff:      0.985D+00
 Gap=     0.500 Goal=   None    Shift=    0.000
 RMSDP=2.13D-09 MaxDP=6.28D-08 DE= 0.00D+00 OVMax= 1.07D-07

 SCF Done:  E(RHF) =  -389.152921603     A.U. after   13 cycles
            NFock= 13  Conv=0.21D-08     -V/T= 2.0013
 KE= 3.886305703193D+02 PE=-1.929632313855D+03 EE= 6.393843683816D+02
 Leave Link  502 at Fri Sep 17 20:09:56 2021, MaxMem=   524288000 cpu:              23.0 elap:              23.3
 (Enter /opt/gaussian/g16_legacy/l801.exe)
 ExpMin= 1.61D-01 ExpMax= 3.05D+03 ExpMxC= 4.57D+02 IAcc=3 IRadAn=         5 AccDes= 0.00D+00
 HarFok:  IExCor=  205 AccDes= 0.00D+00 IRadAn=         5 IDoV=-2 UseB2=F ITyADJ=14
 ICtDFT= 12500011 ScaDFX=  1.000000  1.000000  1.000000  1.000000
 Largest valence mixing into a core orbital is  1.98D-04
 Largest core mixing into a valence orbital is  3.51D-05
 Range of M.O.s used for correlation:    11   240
 NBasis=   240 NAE=    39 NBE=    39 NFC=    10 NFV=     0
 NROrb=    230 NOA=    29 NOB=    29 NVA=   201 NVB=   201
 Leave Link  801 at Fri Sep 17 20:09:57 2021, MaxMem=   524288000 cpu:               0.9 elap:               1.1
 (Enter /opt/gaussian/g16_legacy/l906.exe)
 Frozen-core derivative calculation, NFC=  10 NFV=   0.
 FulOut=F Deriv=T AODrv=T NAtomX=    28
   MMem=          90  MDisk=          29 MDiskD=          29
  W3Min=     2246400 MinDsk=     2795480 NBas6D=         240
 NBas2D=       29244    NTT=       28920    LW2=     2040000
    MDV=   523631348 MDiskM=       30186 NBas2p=       23740
 Fully direct method using O(ONN) memory.
 IMap=   1   2   3   4   5   6   7   8   9  10  11  12  13  14  15  16  17  18  19  20
 IMap=  21  22  23  24  25  26  27  28  29  30  31  32  33  34  35  36  37  38  39
 JobTyp=1 Pass  1:  I=  11 to  39 NPSUse=  1 ParTrn=F ParDer=F DoDerP=T.
 Spin components of T(2) and E(2):
     alpha-alpha T2 =       0.5714693691D-01 E2=     -0.1638519013D+00
     alpha-beta  T2 =       0.3619412205D+00 E2=     -0.1089616268D+01
     beta-beta   T2 =       0.5714693691D-01 E2=     -0.1638519013D+00
 The integrals were generated   1 times.
 ANorm=    0.1215004154D+01
 E2 =    -0.1417320071D+01 EUMP2 =    -0.39057024167402D+03
 Leave Link  906 at Fri Sep 17 20:12:41 2021, MaxMem=   524288000 cpu:             163.2 elap:             163.5
 (Enter /opt/gaussian/g16_legacy/l1002.exe)
 Minotr:  Closed shell wavefunction.
          Computing MP2/KS-MP2 derivatives.
          Using Z-Vector for PSCF gradient.
          Skipping F1 and S1 gradient terms here.
          IDoAtm=1111111111111111111111111111
          Frozen-core window.
          Direct CPHF calculation.
          Differentiating once with respect to electric field.
                with respect to dipole field.
          Differentiating once with respect to nuclear coordinates.
          Requested convergence is 1.0D-10 RMS, and 1.0D-09 maximum.
          NewPWx=F KeepS1=T KeepF1=T KeepIn=T MapXYZ=F SortEE=F KeepMc=T.
 Keep R1 ints in memory in canonical form, NReq=425201067.
 FoFCou: FMM=F IPFlag=           0 FMFlag=           0 FMFlg1=           0
         NFxFlg=           0 DoJE=F BraDBF=F KetDBF=F FulRan=T
         wScrn=  0.000000 ICntrl=       600 IOpCl=  0 I1Cent=           0 NGrid=           0
         NMat0=    1 NMatS0=  28920 NMatT0=    0 NMatD0=    1 NMtDS0=    0 NMtDT0=    0
 Symmetry not used in FoFCou.
 Two-electron integral symmetry not used.
          MDV=     524288000 using IRadAn=       5.
          Solving linear equations separately, MaxMat=       0.
          There are     1 degrees of freedom in the 1st order CPHF.  IDoFFX=0 NUNeed=     1.
 LinEq1:  Iter=  0 NonCon=     1 RMS=2.55D-03 Max=4.51D-02 NDo=     1
 AX will form     1 AO Fock derivatives at one time.
 LinEq1:  Iter=  1 NonCon=     1 RMS=6.94D-04 Max=1.01D-02 NDo=     1
 LinEq1:  Iter=  2 NonCon=     1 RMS=1.66D-04 Max=4.62D-03 NDo=     1
 LinEq1:  Iter=  3 NonCon=     1 RMS=4.52D-05 Max=5.61D-04 NDo=     1
 LinEq1:  Iter=  4 NonCon=     1 RMS=2.13D-05 Max=9.09D-04 NDo=     1
 LinEq1:  Iter=  5 NonCon=     1 RMS=5.28D-06 Max=8.52D-05 NDo=     1
 LinEq1:  Iter=  6 NonCon=     1 RMS=1.51D-06 Max=2.30D-05 NDo=     1
 LinEq1:  Iter=  7 NonCon=     1 RMS=3.98D-07 Max=3.80D-06 NDo=     1
 LinEq1:  Iter=  8 NonCon=     1 RMS=9.65D-08 Max=1.81D-06 NDo=     1
 LinEq1:  Iter=  9 NonCon=     1 RMS=2.27D-08 Max=5.85D-07 NDo=     1
 LinEq1:  Iter= 10 NonCon=     1 RMS=6.95D-09 Max=1.69D-07 NDo=     1
 LinEq1:  Iter= 11 NonCon=     1 RMS=2.42D-09 Max=8.81D-08 NDo=     1
 LinEq1:  Iter= 12 NonCon=     1 RMS=7.90D-10 Max=1.15D-08 NDo=     1
 LinEq1:  Iter= 13 NonCon=     1 RMS=2.90D-10 Max=7.19D-09 NDo=     1
 LinEq1:  Iter= 14 NonCon=     0 RMS=7.48D-11 Max=9.23D-10 NDo=     1
 Linear equations converged to 1.000D-10 1.000D-09 after    14 iterations.
 End of Minotr F.D. properties file   721 does not exist.
 End of Minotr F.D. properties file   722 does not exist.
 End of Minotr F.D. properties file   788 does not exist.
 Leave Link 1002 at Fri Sep 17 20:13:03 2021, MaxMem=   524288000 cpu:              22.1 elap:              22.4
 (Enter /opt/gaussian/g16_legacy/l601.exe)
 Copying SCF densities to generalized density rwf, IOpCl= 0 IROHF=0.

 **********************************************************************

            Population analysis using the SCF density.

 **********************************************************************

 Orbital symmetries:
       Occupied  (A) (A) (A) (A) (A) (A) (A) (A) (A) (A) (A) (A)
                 (A) (A) (A) (A) (A) (A) (A) (A) (A) (A) (A) (A)
                 (A) (A) (A) (A) (A) (A) (A) (A) (A) (A) (A) (A)
                 (A) (A) (A)
       Virtual   (A) (A) (A) (A) (A) (A) (A) (A) (A) (A) (A) (A)
                 (A) (A) (A) (A) (A) (A) (A) (A) (A) (A) (A) (A)
                 (A) (A) (A) (A) (A) (A) (A) (A) (A) (A) (A) (A)
                 (A) (A) (A) (A) (A) (A) (A) (A) (A) (A) (A) (A)
                 (A) (A) (A) (A) (A) (A) (A) (A) (A) (A) (A) (A)
                 (A) (A) (A) (A) (A) (A) (A) (A) (A) (A) (A) (A)
                 (A) (A) (A) (A) (A) (A) (A) (A) (A) (A) (A) (A)
                 (A) (A) (A) (A) (A) (A) (A) (A) (A) (A) (A) (A)
                 (A) (A) (A) (A) (A) (A) (A) (A) (A) (A) (A) (A)
                 (A) (A) (A) (A) (A) (A) (A) (A) (A) (A) (A) (A)
                 (A) (A) (A) (A) (A) (A) (A) (A) (A) (A) (A) (A)
                 (A) (A) (A) (A) (A) (A) (A) (A) (A) (A) (A) (A)
                 (A) (A) (A) (A) (A) (A) (A) (A) (A) (A) (A) (A)
                 (A) (A) (A) (A) (A) (A) (A) (A) (A) (A) (A) (A)
                 (A) (A) (A) (A) (A) (A) (A) (A) (A) (A) (A) (A)
                 (A) (A) (A) (A) (A) (A) (A) (A) (A) (A) (A) (A)
                 (A) (A) (A) (A) (A) (A) (A) (A) (A)
 The electronic state is 1-A.
 Alpha  occ. eigenvalues --  -11.22888 -11.22479 -11.21844 -11.21758 -11.21732
 Alpha  occ. eigenvalues --  -11.21621 -11.21610 -11.21435 -11.21368 -11.21174
 Alpha  occ. eigenvalues --   -1.10553  -1.08283  -1.02005  -0.97234  -0.93592
 Alpha  occ. eigenvalues --   -0.92161  -0.87509  -0.81521  -0.70179  -0.69548
 Alpha  occ. eigenvalues --   -0.64056  -0.62770  -0.59060  -0.58822  -0.58212
 Alpha  occ. eigenvalues --   -0.57202  -0.55325  -0.54530  -0.53855  -0.52497
 Alpha  occ. eigenvalues --   -0.51354  -0.51095  -0.50708  -0.49246  -0.47592
 Alpha  occ. eigenvalues --   -0.46177  -0.44076  -0.33138  -0.31440
 Alpha virt. eigenvalues --    0.18520   0.19471   0.22609   0.24372   0.26037
 Alpha virt. eigenvalues --    0.26950   0.27219   0.29185   0.29694   0.31196
 Alpha virt. eigenvalues --    0.31703   0.32844   0.32975   0.33468   0.33544
 Alpha virt. eigenvalues --    0.34733   0.35992   0.37093   0.38433   0.40528
 Alpha virt. eigenvalues --    0.40768   0.41539   0.44072   0.45029   0.45995
 Alpha virt. eigenvalues --    0.51844   0.53637   0.61744   0.62124   0.69387
 Alpha virt. eigenvalues --    0.70446   0.73030   0.73804   0.75596   0.76794
 Alpha virt. eigenvalues --    0.76999   0.79142   0.80485   0.81138   0.83825
 Alpha virt. eigenvalues --    0.85668   0.86046   0.87506   0.90084   0.91917
 Alpha virt. eigenvalues --    0.93074   0.93566   0.96607   0.98230   0.98992
 Alpha virt. eigenvalues --    1.00693   1.00713   1.03149   1.03753   1.06228
 Alpha virt. eigenvalues --    1.07532   1.08369   1.09752   1.11902   1.12865
 Alpha virt. eigenvalues --    1.13000   1.13743   1.14352   1.14712   1.15439
 Alpha virt. eigenvalues --    1.15800   1.16467   1.16765   1.17888   1.19738
 Alpha virt. eigenvalues --    1.20661   1.22599   1.23633   1.24167   1.26388
 Alpha virt. eigenvalues --    1.28770   1.39958   1.41445   1.44027   1.45852
 Alpha virt. eigenvalues --    1.47878   1.52846   1.54974   1.56202   1.58109
 Alpha virt. eigenvalues --    1.61919   1.64992   1.66953   1.69317   1.71284
 Alpha virt. eigenvalues --    1.72902   1.80601   1.90783   1.92220   1.95627
 Alpha virt. eigenvalues --    1.99214   2.00848   2.02444   2.05392   2.08046
 Alpha virt. eigenvalues --    2.08376   2.09284   2.11913   2.13200   2.14206
 Alpha virt. eigenvalues --    2.15820   2.18020   2.21043   2.24809   2.27801
 Alpha virt. eigenvalues --    2.29012   2.30864   2.32615   2.35231   2.35695
 Alpha virt. eigenvalues --    2.36237   2.36617   2.39063   2.40238   2.40350
 Alpha virt. eigenvalues --    2.41081   2.42104   2.44113   2.44605   2.45368
 Alpha virt. eigenvalues --    2.46968   2.49018   2.50276   2.50561   2.55167
 Alpha virt. eigenvalues --    2.56379   2.58444   2.62581   2.63663   2.63848
 Alpha virt. eigenvalues --    2.65709   2.68701   2.69782   2.71173   2.74199
 Alpha virt. eigenvalues --    2.76606   2.77004   2.79093   2.82878   2.86225
 Alpha virt. eigenvalues --    2.87749   2.89352   2.89952   2.91497   2.95638
 Alpha virt. eigenvalues --    2.96029   3.00284   3.01101   3.02441   3.04867
 Alpha virt. eigenvalues --    3.05831   3.07560   3.09565   3.11939   3.13610
 Alpha virt. eigenvalues --    3.18080   3.19221   3.20084   3.20401   3.21891
 Alpha virt. eigenvalues --    3.22527   3.23971   3.25153   3.26946   3.38056
 Alpha virt. eigenvalues --    3.39082   3.44065   3.46184   3.55541   3.56291
 Alpha virt. eigenvalues --    3.60246   3.62289   3.64953   3.72059   3.78547
 Alpha virt. eigenvalues --    3.79344   3.79999   3.81389   3.81765   3.82973
 Alpha virt. eigenvalues --    3.83165   3.85634   3.86609   3.90327   3.91485
 Alpha virt. eigenvalues --    3.95787   4.59294   4.62361   4.74937   4.84426
 Alpha virt. eigenvalues --    4.88541   4.91215   4.92699   5.04120   5.10275
 Alpha virt. eigenvalues --    5.17012
          Condensed to atoms (all electrons):
               1          2          3          4          5          6
     1  C    4.958914   0.415420   0.404853   0.353966  -0.052600   0.002920
     2  H    0.415420   0.576022  -0.027877  -0.048020   0.003639  -0.000093
     3  H    0.404853  -0.027877   0.600872  -0.044511  -0.002245  -0.000037
     4  C    0.353966  -0.048020  -0.044511   4.955934   0.331883  -0.036696
     5  C   -0.052600   0.003639  -0.002245   0.331883   4.921797   0.407011
     6  H    0.002920  -0.000093  -0.000037  -0.036696   0.407011   0.565516
     7  H   -0.003873   0.000142   0.002186  -0.043465   0.405446  -0.029566
     8  H    0.000023  -0.000140  -0.000035  -0.040907   0.399035  -0.026635
     9  C   -0.039412  -0.001806  -0.000754   0.699290  -0.050947  -0.003792
    10  H   -0.006271   0.002242   0.000245  -0.036437   0.003372   0.000024
    11  C    0.003134   0.000182  -0.000127  -0.051129  -0.007000  -0.001932
    12  H    0.000112   0.000004  -0.000000  -0.000611  -0.001661  -0.001148
    13  H   -0.000085  -0.000009  -0.000003   0.000079   0.000175  -0.000091
    14  H   -0.000122  -0.000006   0.000019  -0.000830   0.000327   0.000290
    15  C   -0.000096  -0.000068   0.000003   0.000002  -0.000000  -0.000000
    16  H   -0.000003  -0.000002   0.000001   0.000000  -0.000000   0.000000
    17  H    0.000027  -0.000004  -0.000002  -0.000000   0.000000  -0.000000
    18  H   -0.000005   0.000002   0.000000   0.000000  -0.000000   0.000000
    19  C   -0.005404   0.001199   0.000778   0.000101  -0.000002   0.000000
    20  C    0.000659  -0.000245  -0.000034  -0.000033   0.000000   0.000000
    21  H   -0.000483  -0.000022   0.000008   0.000072  -0.000001   0.000000
    22  H   -0.000022   0.000029  -0.000000   0.000001   0.000000   0.000000
    23  H    0.000597  -0.000175  -0.000012  -0.000055   0.000000  -0.000000
    24  C   -0.057956  -0.002602  -0.000962   0.005744  -0.000242   0.000002
    25  H    0.001310   0.000181   0.000443  -0.000133   0.000008  -0.000000
    26  C    0.329586  -0.040781  -0.048143  -0.063402  -0.002765   0.000112
    27  H   -0.041815   0.004132  -0.003336  -0.002280   0.000087   0.000052
    28  H   -0.042865  -0.001214   0.004553   0.000577   0.000041  -0.000023
               7          8          9         10         11         12
     1  C   -0.003873   0.000023  -0.039412  -0.006271   0.003134   0.000112
     2  H    0.000142  -0.000140  -0.001806   0.002242   0.000182   0.000004
     3  H    0.002186  -0.000035  -0.000754   0.000245  -0.000127  -0.000000
     4  C   -0.043465  -0.040907   0.699290  -0.036437  -0.051129  -0.000611
     5  C    0.405446   0.399035  -0.050947   0.003372  -0.007000  -0.001661
     6  H   -0.029566  -0.026635  -0.003792   0.000024  -0.001932  -0.001148
     7  H    0.582701  -0.031065   0.002801  -0.000101   0.000142   0.000024
     8  H   -0.031065   0.574640  -0.003935  -0.000129   0.000650  -0.000188
     9  C    0.002801  -0.003935   4.944044   0.404361   0.339728  -0.041745
    10  H   -0.000101  -0.000129   0.404361   0.559722  -0.043617   0.003323
    11  C    0.000142   0.000650   0.339728  -0.043617   4.904389   0.407975
    12  H    0.000024  -0.000188  -0.041745   0.003323   0.407975   0.574289
    13  H   -0.000012   0.000154  -0.043500  -0.001912   0.402593  -0.029159
    14  H    0.000015  -0.000071  -0.044128  -0.000770   0.400046  -0.027866
    15  C   -0.000000   0.000000  -0.000000  -0.000000   0.000000   0.000000
    16  H   -0.000000   0.000000  -0.000000  -0.000000  -0.000000   0.000000
    17  H    0.000000  -0.000000   0.000000   0.000000  -0.000000  -0.000000
    18  H   -0.000000   0.000000  -0.000000  -0.000000   0.000000  -0.000000
    19  C    0.000000  -0.000000  -0.000005  -0.000008   0.000000  -0.000000
    20  C   -0.000000  -0.000000  -0.000005   0.000011   0.000000   0.000000
    21  H   -0.000000  -0.000000   0.000015   0.000003   0.000000   0.000000
    22  H    0.000000  -0.000000   0.000000  -0.000000  -0.000000   0.000000
    23  H    0.000000  -0.000000   0.000005   0.000037  -0.000000   0.000000
    24  C   -0.000061  -0.000005  -0.000035  -0.000015   0.000001   0.000000
    25  H    0.000000   0.000001  -0.000001   0.000000  -0.000000  -0.000000
    26  C   -0.002275   0.001223  -0.003486   0.000181  -0.000076  -0.000003
    27  H    0.000520  -0.000971   0.000207  -0.000009   0.000003  -0.000000
    28  H    0.000169   0.000087   0.001038   0.000061  -0.000045  -0.000000
              13         14         15         16         17         18
     1  C   -0.000085  -0.000122  -0.000096  -0.000003   0.000027  -0.000005
     2  H   -0.000009  -0.000006  -0.000068  -0.000002  -0.000004   0.000002
     3  H   -0.000003   0.000019   0.000003   0.000001  -0.000002   0.000000
     4  C    0.000079  -0.000830   0.000002   0.000000  -0.000000   0.000000
     5  C    0.000175   0.000327  -0.000000  -0.000000   0.000000  -0.000000
     6  H   -0.000091   0.000290  -0.000000   0.000000  -0.000000   0.000000
     7  H   -0.000012   0.000015  -0.000000  -0.000000   0.000000  -0.000000
     8  H    0.000154  -0.000071   0.000000   0.000000  -0.000000   0.000000
     9  C   -0.043500  -0.044128  -0.000000  -0.000000   0.000000  -0.000000
    10  H   -0.001912  -0.000770  -0.000000  -0.000000   0.000000  -0.000000
    11  C    0.402593   0.400046   0.000000  -0.000000  -0.000000   0.000000
    12  H   -0.029159  -0.027866   0.000000   0.000000  -0.000000  -0.000000
    13  H    0.585964  -0.033441  -0.000000  -0.000000   0.000000  -0.000000
    14  H   -0.033441   0.586982   0.000000   0.000000  -0.000000   0.000000
    15  C   -0.000000   0.000000   4.895657   0.405741   0.399946   0.397384
    16  H   -0.000000   0.000000   0.405741   0.569821  -0.027763  -0.027782
    17  H    0.000000  -0.000000   0.399946  -0.027763   0.594563  -0.034662
    18  H   -0.000000   0.000000   0.397384  -0.027782  -0.034662   0.592731
    19  C   -0.000000   0.000000   0.353881  -0.041540  -0.047653  -0.042781
    20  C    0.000000  -0.000000  -0.059672   0.003799  -0.000153  -0.003100
    21  H   -0.000000   0.000000   0.003417  -0.000116  -0.000036  -0.000013
    22  H   -0.000000   0.000000  -0.005373   0.000131  -0.000722   0.002556
    23  H    0.000000  -0.000000   0.000726  -0.000136   0.001368  -0.000149
    24  C   -0.000000   0.000000  -0.045730  -0.002260  -0.001009  -0.000689
    25  H    0.000000  -0.000000  -0.006491   0.002276   0.000145   0.000207
    26  C    0.000018  -0.000004   0.003315   0.000136  -0.000076  -0.000139
    27  H   -0.000000   0.000000  -0.000105  -0.000010  -0.000001   0.000007
    28  H   -0.000004   0.000001   0.000053   0.000006  -0.000010   0.000016
              19         20         21         22         23         24
     1  C   -0.005404   0.000659  -0.000483  -0.000022   0.000597  -0.057956
     2  H    0.001199  -0.000245  -0.000022   0.000029  -0.000175  -0.002602
     3  H    0.000778  -0.000034   0.000008  -0.000000  -0.000012  -0.000962
     4  C    0.000101  -0.000033   0.000072   0.000001  -0.000055   0.005744
     5  C   -0.000002   0.000000  -0.000001   0.000000   0.000000  -0.000242
     6  H    0.000000   0.000000   0.000000   0.000000  -0.000000   0.000002
     7  H    0.000000  -0.000000  -0.000000   0.000000   0.000000  -0.000061
     8  H   -0.000000  -0.000000  -0.000000  -0.000000  -0.000000  -0.000005
     9  C   -0.000005  -0.000005   0.000015   0.000000   0.000005  -0.000035
    10  H   -0.000008   0.000011   0.000003  -0.000000   0.000037  -0.000015
    11  C    0.000000   0.000000   0.000000  -0.000000  -0.000000   0.000001
    12  H   -0.000000   0.000000   0.000000   0.000000   0.000000   0.000000
    13  H   -0.000000   0.000000  -0.000000  -0.000000   0.000000  -0.000000
    14  H    0.000000  -0.000000   0.000000   0.000000  -0.000000   0.000000
    15  C    0.353881  -0.059672   0.003417  -0.005373   0.000726  -0.045730
    16  H   -0.041540   0.003799  -0.000116   0.000131  -0.000136  -0.002260
    17  H   -0.047653  -0.000153  -0.000036  -0.000722   0.001368  -0.001009
    18  H   -0.042781  -0.003100  -0.000013   0.002556  -0.000149  -0.000689
    19  C    4.925490   0.342435  -0.037561  -0.043004  -0.041553   0.697779
    20  C    0.342435   4.920402   0.404392   0.405117   0.398638  -0.049495
    21  H   -0.037561   0.404392   0.564218  -0.029214  -0.026542  -0.003484
    22  H   -0.043004   0.405117  -0.029214   0.583593  -0.031305   0.002805
    23  H   -0.041553   0.398638  -0.026542  -0.031305   0.575169  -0.004408
    24  C    0.697779  -0.049495  -0.003484   0.002805  -0.004408   4.957653
    25  H   -0.036602   0.003371   0.000029  -0.000104  -0.000125   0.404505
    26  C   -0.052976  -0.008946  -0.001675   0.000051   0.000735   0.348016
    27  H    0.002153   0.000203   0.000074   0.000005  -0.000027  -0.041028
    28  H   -0.000561  -0.001943   0.001018   0.000056  -0.000403  -0.043987
              25         26         27         28
     1  C    0.001310   0.329586  -0.041815  -0.042865
     2  H    0.000181  -0.040781   0.004132  -0.001214
     3  H    0.000443  -0.048143  -0.003336   0.004553
     4  C   -0.000133  -0.063402  -0.002280   0.000577
     5  C    0.000008  -0.002765   0.000087   0.000041
     6  H   -0.000000   0.000112   0.000052  -0.000023
     7  H    0.000000  -0.002275   0.000520   0.000169
     8  H    0.000001   0.001223  -0.000971   0.000087
     9  C   -0.000001  -0.003486   0.000207   0.001038
    10  H    0.000000   0.000181  -0.000009   0.000061
    11  C   -0.000000  -0.000076   0.000003  -0.000045
    12  H   -0.000000  -0.000003  -0.000000  -0.000000
    13  H    0.000000   0.000018  -0.000000  -0.000004
    14  H   -0.000000  -0.000004   0.000000   0.000001
    15  C   -0.006491   0.003315  -0.000105   0.000053
    16  H    0.002276   0.000136  -0.000010   0.000006
    17  H    0.000145  -0.000076  -0.000001  -0.000010
    18  H    0.000207  -0.000139   0.000007   0.000016
    19  C   -0.036602  -0.052976   0.002153  -0.000561
    20  C    0.003371  -0.008946   0.000203  -0.001943
    21  H    0.000029  -0.001675   0.000074   0.001018
    22  H   -0.000104   0.000051   0.000005   0.000056
    23  H   -0.000125   0.000735  -0.000027  -0.000403
    24  C    0.404505   0.348016  -0.041028  -0.043987
    25  H    0.556209  -0.041009  -0.004907   0.003177
    26  C   -0.041009   5.008151   0.410307   0.410038
    27  H   -0.004907   0.410307   0.591606  -0.030102
    28  H    0.003177   0.410038  -0.030102   0.577178
 Mulliken charges:
               1
     1  C   -0.220509
     2  H    0.119872
     3  H    0.114118
     4  C    0.020862
     5  C   -0.355359
     6  H    0.124087
     7  H    0.116271
     8  H    0.128269
     9  C   -0.157940
    10  H    0.115686
    11  C   -0.354917
    12  H    0.116654
    13  H    0.119234
    14  H    0.119559
    15  C   -0.342589
    16  H    0.117702
    17  H    0.116043
    18  H    0.116414
    19  C    0.025834
    20  C   -0.355401
    21  H    0.125903
    22  H    0.115402
    23  H    0.127616
    24  C   -0.162537
    25  H    0.117511
    26  C   -0.246111
    27  H    0.115234
    28  H    0.123091
 Sum of Mulliken charges =  -0.00000
 Mulliken charges with hydrogens summed into heavy atoms:
               1
     1  C    0.013481
     4  C    0.020862
     5  C    0.013268
     9  C   -0.042253
    11  C    0.000530
    15  C    0.007570
    19  C    0.025834
    20  C    0.013520
    24  C   -0.045025
    26  C   -0.007787
 Electronic spatial extent (au):  <R**2>=           2608.7263
 Charge=             -0.0000 electrons
 Dipole moment (field-independent basis, Debye):
    X=              0.0801    Y=              0.0704    Z=              0.1079  Tot=              0.1517
 Quadrupole moment (field-independent basis, Debye-Ang):
   XX=            -64.3040   YY=            -63.3112   ZZ=            -66.9256
   XY=              1.2196   XZ=             -1.0907   YZ=              0.1434
 Traceless Quadrupole moment (field-independent basis, Debye-Ang):
   XX=              0.5429   YY=              1.5357   ZZ=             -2.0786
   XY=              1.2196   XZ=             -1.0907   YZ=              0.1434
 Octapole moment (field-independent basis, Debye-Ang**2):
  XXX=              0.8777  YYY=             -1.5327  ZZZ=              1.9588  XYY=              0.2081
  XXY=              2.4340  XXZ=              1.0333  XZZ=              0.1813  YZZ=              1.7325
  YYZ=             -2.5250  XYZ=              2.7433
 Hexadecapole moment (field-independent basis, Debye-Ang**3):
 XXXX=          -2909.0873 YYYY=           -528.4400 ZZZZ=           -185.5342 XXXY=             15.2091
 XXXZ=             -0.1525 YYYX=             -8.5645 YYYZ=              2.0675 ZZZX=             -4.8922
 ZZZY=             -0.1881 XXYY=           -569.9760 XXZZ=           -527.5533 YYZZ=           -117.0794
 XXYZ=              3.4901 YYXZ=             -1.6626 ZZXY=              3.1408
 N-N= 5.124644535509D+02 E-N=-1.929632313589D+03  KE= 3.886305703193D+02
 No NMR shielding tensors so no spin-rotation constants.
 Leave Link  601 at Fri Sep 17 20:13:04 2021, MaxMem=   524288000 cpu:               0.2 elap:               0.4
 (Enter /opt/gaussian/g16_legacy/l701.exe)
 ... and contract with generalized density number  2.
 Compute integral first derivatives.
 Leave Link  701 at Fri Sep 17 20:13:04 2021, MaxMem=   524288000 cpu:               0.2 elap:               0.3
 (Enter /opt/gaussian/g16_legacy/l702.exe)
 L702 exits ... SP integral derivatives will be done elsewhere.
 Leave Link  702 at Fri Sep 17 20:13:04 2021, MaxMem=   524288000 cpu:               0.0 elap:               0.0
 (Enter /opt/gaussian/g16_legacy/l703.exe)
 Integral derivatives from FoFJK, PRISM(SPDF).
 Compute integral first derivatives, UseDBF=F ICtDFT=           0.
 Calling FoFJK, ICntrl=  10002127 FMM=F ISym2X=0 I1Cent= 0 IOpClX= 0 NMat=1 NMatS=1 NMatT=0.
 FoFJK:  IHMeth= 1 ICntrl=10002127 DoSepK=F KAlg= 0 I1Cent=           0 FoldK=F
 IRaf=         0 NMat=       1 IRICut=       1 DoRegI=T DoRafI=F ISym2E= 0 IDoP0=0 IntGTp=1.
 FoFCou: FMM=F IPFlag=           0 FMFlag=      100000 FMFlg1=         800
         NFxFlg=           0 DoJE=F BraDBF=F KetDBF=F FulRan=T
         wScrn=  0.000000 ICntrl=  10002127 IOpCl=  0 I1Cent=           0 NGrid=           0
         NMat0=    1 NMatS0=      1 NMatT0=    0 NMatD0=    1 NMtDS0=    0 NMtDT0=    0
 Symmetry not used in FoFCou.
 Leave Link  703 at Fri Sep 17 20:13:25 2021, MaxMem=   524288000 cpu:              19.9 elap:              20.0
 (Enter /opt/gaussian/g16_legacy/l716.exe)
 Dipole        =-9.05716689D-03 3.95034376D-02 4.10386833D-02
 ***** Axes restored to original set *****
 -------------------------------------------------------------------
 Center     Atomic                   Forces (Hartrees/Bohr)
 Number     Number              X              Y              Z
 -------------------------------------------------------------------
      1        6           0.008828010   -0.005373671   -0.001540100
      2        1           0.001679506    0.003425514    0.002945407
      3        1          -0.001724318    0.000665355    0.002977903
      4        6          -0.004803153   -0.004660171   -0.007930643
      5        6           0.002166870    0.002956511    0.000523654
      6        1          -0.002695255   -0.001389626    0.003521049
      7        1          -0.000139466   -0.002593685    0.002665895
      8        1           0.001579297    0.002997189   -0.003037109
      9        6          -0.002789231    0.000758347    0.001954186
     10        1          -0.001554721    0.003303094    0.000220961
     11        6           0.001966641    0.001293585    0.000573496
     12        1          -0.002458277   -0.002179848   -0.001612558
     13        1           0.001879508    0.000520627   -0.002553092
     14        1           0.001206511   -0.000636710    0.002970571
     15        6          -0.001203900    0.002490194   -0.002326868
     16        1           0.002694474   -0.002643351    0.001296583
     17        1          -0.002077469    0.000577981    0.002966047
     18        1           0.000548764   -0.002060481   -0.003074238
     19        6          -0.001575465    0.005797055   -0.000317631
     20        6           0.001416047   -0.001504354    0.003576339
     21        1           0.000089447   -0.000179312   -0.004344369
     22        1           0.001340868    0.000870543   -0.003265834
     23        1          -0.000632554   -0.000520276    0.003491779
     24        6           0.001140234    0.002091490    0.001952775
     25        1          -0.001888671   -0.003449553   -0.000018398
     26        6          -0.005265440    0.004072378    0.004793388
     27        1           0.001709510   -0.003115711   -0.001426237
     28        1           0.000562230   -0.001513115   -0.004982955
 -------------------------------------------------------------------
 Cartesian Forces:  Max     0.008828010 RMS     0.002839107
 Leave Link  716 at Fri Sep 17 20:13:25 2021, MaxMem=   524288000 cpu:               0.0 elap:               0.2
 (Enter /opt/gaussian/g16_legacy/l103.exe)

 GradGradGradGradGradGradGradGradGradGradGradGradGradGradGradGradGradGrad
 Berny optimization.
 FormGI is forming the generalized inverse of G from B-inverse, IUseBI=4.
 Internal  Forces:  Max     0.006128594 RMS     0.001946993
 Search for a local minimum.
 Step number   1 out of a maximum of  138
 All quantities printed in internal units (Hartrees-Bohrs-Radians)
 RMS Force = .19470D-02 SwitMx=.10000D-02 MixMth= 1
 Mixed Optimization -- RFO/linear search
 Second derivative matrix not updated -- first step.
 ITU=  0
     Eigenvalues ---    0.00331   0.00526   0.00704   0.00706   0.00714
     Eigenvalues ---    0.00714   0.00809   0.01214   0.01290   0.01574
     Eigenvalues ---    0.01639   0.02784   0.02785   0.04019   0.04089
     Eigenvalues ---    0.05355   0.05367   0.07035   0.07053   0.07083
     Eigenvalues ---    0.07117   0.07291   0.07300   0.07332   0.07493
     Eigenvalues ---    0.09355   0.09371   0.12821   0.12839   0.15998
     Eigenvalues ---    0.15999   0.16000   0.16000   0.16000   0.16000
     Eigenvalues ---    0.16000   0.16000   0.16000   0.16000   0.16000
     Eigenvalues ---    0.16000   0.16000   0.16000   0.21874   0.21905
     Eigenvalues ---    0.22000   0.22001   0.24991   0.24995   0.24999
     Eigenvalues ---    0.24999   0.29156   0.30546   0.31889   0.31905
     Eigenvalues ---    0.31970   0.31971   0.32719   0.33752   0.33859
     Eigenvalues ---    0.33914   0.33969   0.34190   0.34204   0.34208
     Eigenvalues ---    0.34219   0.34242   0.34268   0.34277   0.34320
     Eigenvalues ---    0.34382   0.34385   0.34436   0.34546   0.34852
     Eigenvalues ---    0.34891   0.55570   0.55585
 RFO step:  Lambda=-3.18397177D-03 EMin= 3.30596770D-03
 Linear search not attempted -- first point.
 Iteration  1 RMS(Cart)=  0.04392912 RMS(Int)=  0.00090256
 Iteration  2 RMS(Cart)=  0.00124408 RMS(Int)=  0.00008799
 Iteration  3 RMS(Cart)=  0.00000070 RMS(Int)=  0.00008799
 ITry= 1 IFail=0 DXMaxC= 1.51D-01 DCOld= 1.00D+10 DXMaxT= 3.00D-01 DXLimC= 3.00D+00 Rises=F
 Variable       Old X    -DE/DX   Delta X   Delta X   Delta X     New X
                                 (Linear)    (Quad)   (Total)
    R1        2.07751  -0.00439   0.00000  -0.01290  -0.01290   2.06461
    R2        2.07568  -0.00183   0.00000  -0.00536  -0.00536   2.07033
    R3        2.86888  -0.00613   0.00000  -0.01986  -0.01986   2.84902
    R4        2.89678   0.00090   0.00000   0.00305   0.00305   2.89984
    R5        2.84318   0.00292   0.00000   0.00906   0.00906   2.85224
    R6        2.54629  -0.00350   0.00000  -0.00627  -0.00627   2.54002
    R7        2.06686  -0.00365   0.00000  -0.01051  -0.01051   2.05635
    R8        2.06923  -0.00310   0.00000  -0.00898  -0.00898   2.06025
    R9        2.06988  -0.00257   0.00000  -0.00746  -0.00746   2.06242
   R10        2.05916  -0.00218   0.00000  -0.00620  -0.00620   2.05297
   R11        2.82848   0.00244   0.00000   0.00740   0.00740   2.83588
   R12        2.06418  -0.00340   0.00000  -0.00975  -0.00975   2.05443
   R13        2.06793  -0.00211   0.00000  -0.00609  -0.00609   2.06184
   R14        2.06691  -0.00147   0.00000  -0.00423  -0.00423   2.06268
   R15        2.06865  -0.00358   0.00000  -0.01035  -0.01035   2.05830
   R16        2.06962  -0.00200   0.00000  -0.00579  -0.00579   2.06383
   R17        2.07011  -0.00250   0.00000  -0.00725  -0.00725   2.06286
   R18        2.84197   0.00036   0.00000   0.00111   0.00111   2.84308
   R19        2.84199   0.00162   0.00000   0.00502   0.00502   2.84701
   R20        2.54616  -0.00295   0.00000  -0.00528  -0.00528   2.54089
   R21        2.06600  -0.00284   0.00000  -0.00819  -0.00819   2.05782
   R22        2.06881  -0.00301   0.00000  -0.00870  -0.00870   2.06011
   R23        2.06981  -0.00234   0.00000  -0.00678  -0.00678   2.06303
   R24        2.05852  -0.00199   0.00000  -0.00565  -0.00565   2.05287
   R25        2.84347   0.00003   0.00000   0.00009   0.00009   2.84356
   R26        2.07383  -0.00295   0.00000  -0.00861  -0.00861   2.06522
   R27        2.07476  -0.00341   0.00000  -0.00996  -0.00996   2.06480
    A1        1.84757   0.00147   0.00000   0.01549   0.01538   1.86296
    A2        1.92112  -0.00085   0.00000  -0.00377  -0.00377   1.91735
    A3        1.90912  -0.00096   0.00000  -0.00876  -0.00878   1.90035
    A4        1.89980   0.00083   0.00000   0.01078   0.01081   1.91061
    A5        1.91913  -0.00267   0.00000  -0.02041  -0.02044   1.89869
    A6        1.96352   0.00212   0.00000   0.00713   0.00716   1.97069
    A7        2.01779   0.00097   0.00000   0.00390   0.00361   2.02141
    A8        2.10646  -0.00117   0.00000  -0.00451  -0.00479   2.10166
    A9        2.15891   0.00021   0.00000   0.00093   0.00064   2.15955
   A10        1.96034  -0.00069   0.00000  -0.00291  -0.00290   1.95744
   A11        1.93392  -0.00162   0.00000  -0.00882  -0.00878   1.92514
   A12        1.92093   0.00505   0.00000   0.02854   0.02858   1.94951
   A13        1.85619   0.00203   0.00000   0.01693   0.01694   1.87313
   A14        1.90142  -0.00276   0.00000  -0.01885  -0.01884   1.88258
   A15        1.88861  -0.00226   0.00000  -0.01641  -0.01635   1.87226
   A16        2.07243  -0.00298   0.00000  -0.01826  -0.01828   2.05415
   A17        2.22100  -0.00009   0.00000  -0.00033  -0.00035   2.22065
   A18        1.98952   0.00307   0.00000   0.01883   0.01881   2.00833
   A19        1.98125  -0.00283   0.00000  -0.01691  -0.01684   1.96441
   A20        1.91102   0.00252   0.00000   0.01542   0.01538   1.92640
   A21        1.91653   0.00359   0.00000   0.02161   0.02159   1.93812
   A22        1.87482   0.00021   0.00000   0.00203   0.00209   1.87691
   A23        1.88916  -0.00051   0.00000  -0.00309  -0.00301   1.88615
   A24        1.88854  -0.00317   0.00000  -0.02029  -0.02043   1.86811
   A25        1.88186   0.00041   0.00000   0.00504   0.00508   1.88693
   A26        1.87747   0.00117   0.00000   0.01066   0.01069   1.88816
   A27        1.96064  -0.00267   0.00000  -0.01320  -0.01316   1.94748
   A28        1.89587  -0.00330   0.00000  -0.02640  -0.02639   1.86948
   A29        1.92206   0.00268   0.00000   0.01463   0.01466   1.93672
   A30        1.92406   0.00157   0.00000   0.00830   0.00832   1.93237
   A31        2.00900   0.00165   0.00000   0.00642   0.00637   2.01537
   A32        2.11246   0.00095   0.00000   0.00361   0.00356   2.11601
   A33        2.16146  -0.00261   0.00000  -0.01045  -0.01050   2.15096
   A34        1.96597  -0.00110   0.00000  -0.00515  -0.00513   1.96084
   A35        1.93444  -0.00102   0.00000  -0.00405  -0.00403   1.93041
   A36        1.91878   0.00347   0.00000   0.01748   0.01751   1.93630
   A37        1.85906   0.00236   0.00000   0.02146   0.02146   1.88053
   A38        1.89549  -0.00201   0.00000  -0.01616  -0.01612   1.87937
   A39        1.88746  -0.00185   0.00000  -0.01449  -0.01446   1.87300
   A40        2.07619  -0.00249   0.00000  -0.01688  -0.01701   2.05917
   A41        2.20455  -0.00177   0.00000  -0.00804  -0.00818   2.19637
   A42        2.00234   0.00426   0.00000   0.02450   0.02434   2.02668
   A43        1.95350   0.00170   0.00000   0.00541   0.00537   1.95887
   A44        1.92253  -0.00175   0.00000  -0.01019  -0.01033   1.91220
   A45        1.92621  -0.00303   0.00000  -0.03205  -0.03215   1.89407
   A46        1.88075   0.00110   0.00000   0.02135   0.02133   1.90208
   A47        1.93645   0.00050   0.00000   0.00168   0.00152   1.93797
   A48        1.84052   0.00153   0.00000   0.01553   0.01522   1.85574
    D1        3.07990   0.00074   0.00000  -0.00354  -0.00355   3.07636
    D2       -0.05375   0.00008   0.00000  -0.04658  -0.04655  -0.10029
    D3        1.06222  -0.00102   0.00000  -0.02617  -0.02619   1.03603
    D4       -2.07144  -0.00168   0.00000  -0.06920  -0.06919  -2.14062
    D5       -1.06933   0.00037   0.00000  -0.01257  -0.01260  -1.08193
[...]
                 (A) (A) (A) (A) (A) (A) (A) (A) (A) (A) (A) (A)
                 (A) (A) (A) (A) (A) (A) (A) (A) (A) (A) (A) (A)
                 (A) (A) (A) (A) (A) (A) (A) (A) (A) (A) (A) (A)
                 (A) (A) (A) (A) (A) (A) (A) (A) (A) (A) (A) (A)
                 (A) (A) (A) (A) (A) (A) (A) (A) (A) (A) (A) (A)
                 (A) (A) (A) (A) (A) (A) (A) (A) (A) (A) (A) (A)
                 (A) (A) (A) (A) (A) (A) (A) (A) (A) (A) (A) (A)
                 (A) (A) (A) (A) (A) (A) (A) (A) (A) (A) (A) (A)
                 (A) (A) (A) (A) (A) (A) (A) (A) (A) (A) (A) (A)
                 (A) (A) (A) (A) (A) (A) (A) (A) (A) (A) (A) (A)
                 (A) (A) (A) (A) (A) (A) (A) (A) (A) (A) (A) (A)
                 (A) (A) (A) (A) (A) (A) (A) (A) (A)
 The electronic state is 1-A.
 Alpha  occ. eigenvalues --  -11.22919 -11.22524 -11.21711 -11.21626 -11.21570
 Alpha  occ. eigenvalues --  -11.21559 -11.21513 -11.21455 -11.21402 -11.21298
 Alpha  occ. eigenvalues --   -1.10712  -1.08439  -1.02116  -0.97412  -0.93716
 Alpha  occ. eigenvalues --   -0.92410  -0.87777  -0.81712  -0.70460  -0.69696
 Alpha  occ. eigenvalues --   -0.64283  -0.63079  -0.59595  -0.58686  -0.58536
 Alpha  occ. eigenvalues --   -0.56929  -0.55095  -0.54874  -0.53177  -0.52751
 Alpha  occ. eigenvalues --   -0.51785  -0.51129  -0.50641  -0.49305  -0.47959
 Alpha  occ. eigenvalues --   -0.46341  -0.44583  -0.33431  -0.31446
 Alpha virt. eigenvalues --    0.18430   0.19806   0.22980   0.24450   0.26532
 Alpha virt. eigenvalues --    0.26923   0.27865   0.28938   0.30367   0.30755
 Alpha virt. eigenvalues --    0.31383   0.32418   0.33233   0.33547   0.34254
 Alpha virt. eigenvalues --    0.35158   0.36557   0.37269   0.39458   0.40455
 Alpha virt. eigenvalues --    0.40964   0.41221   0.43374   0.45137   0.46015
 Alpha virt. eigenvalues --    0.51705   0.53976   0.61426   0.63261   0.69549
 Alpha virt. eigenvalues --    0.70314   0.72643   0.74364   0.75419   0.76004
 Alpha virt. eigenvalues --    0.76705   0.79259   0.79786   0.81056   0.83234
 Alpha virt. eigenvalues --    0.83663   0.86107   0.86958   0.89760   0.91483
 Alpha virt. eigenvalues --    0.92982   0.95842   0.97292   0.98167   0.99164
 Alpha virt. eigenvalues --    1.00336   1.01334   1.02593   1.03563   1.06171
 Alpha virt. eigenvalues --    1.07935   1.08692   1.09875   1.12094   1.12363
 Alpha virt. eigenvalues --    1.12799   1.13719   1.15071   1.15405   1.15907
 Alpha virt. eigenvalues --    1.16702   1.17165   1.18345   1.19116   1.21281
 Alpha virt. eigenvalues --    1.21575   1.22269   1.23290   1.25416   1.26015
 Alpha virt. eigenvalues --    1.27736   1.40328   1.41437   1.45092   1.45475
 Alpha virt. eigenvalues --    1.48277   1.50135   1.55118   1.57543   1.58264
 Alpha virt. eigenvalues --    1.62783   1.65296   1.66671   1.70803   1.71734
 Alpha virt. eigenvalues --    1.74455   1.78831   1.90792   1.91748   1.96721
 Alpha virt. eigenvalues --    1.99424   2.00996   2.02388   2.06227   2.07919
 Alpha virt. eigenvalues --    2.08298   2.09422   2.10016   2.12601   2.14712
 Alpha virt. eigenvalues --    2.15054   2.16244   2.20419   2.23167   2.26762
 Alpha virt. eigenvalues --    2.29406   2.30321   2.31916   2.35425   2.35743
 Alpha virt. eigenvalues --    2.35907   2.36759   2.38592   2.40305   2.41095
 Alpha virt. eigenvalues --    2.42819   2.43841   2.44277   2.44975   2.45976
 Alpha virt. eigenvalues --    2.48194   2.49765   2.50423   2.51455   2.55699
 Alpha virt. eigenvalues --    2.56872   2.59085   2.62401   2.63240   2.65642
 Alpha virt. eigenvalues --    2.66756   2.68853   2.69736   2.70733   2.74860
 Alpha virt. eigenvalues --    2.76042   2.77546   2.80885   2.83058   2.84036
 Alpha virt. eigenvalues --    2.85494   2.89108   2.90665   2.93108   2.96179
 Alpha virt. eigenvalues --    2.97208   3.01026   3.01642   3.03339   3.05318
 Alpha virt. eigenvalues --    3.06667   3.08277   3.11713   3.13094   3.14954
 Alpha virt. eigenvalues --    3.17808   3.19099   3.19614   3.20910   3.22176
 Alpha virt. eigenvalues --    3.23972   3.24524   3.27508   3.28240   3.39543
 Alpha virt. eigenvalues --    3.40256   3.44787   3.45714   3.56212   3.57270
 Alpha virt. eigenvalues --    3.61586   3.63338   3.65750   3.74105   3.78513
 Alpha virt. eigenvalues --    3.79732   3.80790   3.82170   3.83480   3.84029
 Alpha virt. eigenvalues --    3.84543   3.86463   3.88023   3.90708   3.92025
 Alpha virt. eigenvalues --    3.96723   4.58867   4.62029   4.74190   4.83744
 Alpha virt. eigenvalues --    4.89802   4.91252   4.92627   5.05539   5.10472
 Alpha virt. eigenvalues --    5.16508
          Condensed to atoms (all electrons):
               1          2          3          4          5          6
     1  C    4.978125   0.412958   0.405158   0.356490  -0.058480   0.003390
     2  H    0.412958   0.574326  -0.026782  -0.046927   0.003627  -0.000095
     3  H    0.405158  -0.026782   0.603713  -0.044487  -0.003428  -0.000072
     4  C    0.356490  -0.046927  -0.044487   4.939494   0.341405  -0.037462
     5  C   -0.058480   0.003627  -0.003428   0.341405   4.908256   0.407673
     6  H    0.003390  -0.000095  -0.000072  -0.037462   0.407673   0.568019
     7  H   -0.004027   0.000059   0.003260  -0.044064   0.401447  -0.027664
     8  H   -0.001140  -0.000108  -0.000091  -0.040636   0.401485  -0.027791
     9  C   -0.042012  -0.002369   0.000392   0.700366  -0.045083  -0.003038
    10  H   -0.007113   0.002237   0.000238  -0.040169   0.003560   0.000035
    11  C    0.003168   0.000203  -0.000115  -0.047928  -0.007867  -0.002315
    12  H    0.000099   0.000005   0.000001  -0.000134  -0.002091  -0.001262
    13  H   -0.000088  -0.000012  -0.000003  -0.000073   0.000213  -0.000066
    14  H   -0.000113  -0.000005   0.000015  -0.001024   0.000313   0.000110
    15  C   -0.000092  -0.000046   0.000000   0.000002  -0.000000  -0.000000
    16  H   -0.000004  -0.000002   0.000002   0.000000  -0.000000  -0.000000
    17  H    0.000023  -0.000007  -0.000002  -0.000000   0.000000  -0.000000
    18  H   -0.000005   0.000002   0.000000   0.000000  -0.000000   0.000000
    19  C   -0.004107   0.001436   0.000667   0.000044  -0.000001   0.000000
    20  C    0.000567   0.000164  -0.000024  -0.000030   0.000000   0.000000
    21  H   -0.000010   0.000105  -0.000010   0.000001   0.000000   0.000000
    22  H   -0.000038   0.000013   0.000000   0.000001  -0.000000   0.000000
    23  H    0.000105  -0.000088  -0.000001  -0.000004   0.000000  -0.000000
    24  C   -0.060555  -0.001015  -0.001458   0.005613  -0.000200   0.000002
    25  H   -0.000308   0.000177   0.001113  -0.000136   0.000007  -0.000000
    26  C    0.331273  -0.040788  -0.051739  -0.062498  -0.000718   0.000072
    27  H   -0.045633   0.004447  -0.002334  -0.002384  -0.000610   0.000039
    28  H   -0.043831  -0.002514   0.004995   0.001114   0.000075  -0.000024
               7          8          9         10         11         12
     1  C   -0.004027  -0.001140  -0.042012  -0.007113   0.003168   0.000099
     2  H    0.000059  -0.000108  -0.002369   0.002237   0.000203   0.000005
     3  H    0.003260  -0.000091   0.000392   0.000238  -0.000115   0.000001
     4  C   -0.044064  -0.040636   0.700366  -0.040169  -0.047928  -0.000134
     5  C    0.401447   0.401485  -0.045083   0.003560  -0.007867  -0.002091
     6  H   -0.027664  -0.027791  -0.003038   0.000035  -0.002315  -0.001262
     7  H    0.588041  -0.035092   0.001814  -0.000112   0.000171   0.000010
     8  H   -0.035092   0.581009  -0.002514  -0.000126   0.000478  -0.000119
     9  C    0.001814  -0.002514   4.936364   0.405694   0.340191  -0.043570
    10  H   -0.000112  -0.000126   0.405694   0.560709  -0.041923   0.003340
    11  C    0.000171   0.000478   0.340191  -0.041923   4.897826   0.408424
    12  H    0.000010  -0.000119  -0.043570   0.003340   0.408424   0.576156
    13  H   -0.000017   0.000088  -0.042131  -0.001482   0.402073  -0.028782
    14  H    0.000028  -0.000040  -0.042075  -0.000913   0.401100  -0.027821
    15  C   -0.000000   0.000000   0.000000  -0.000000   0.000000   0.000000
    16  H   -0.000000   0.000000  -0.000000  -0.000000   0.000000   0.000000
    17  H   -0.000000  -0.000000   0.000000   0.000000  -0.000000  -0.000000
    18  H    0.000000   0.000000  -0.000000  -0.000000   0.000000  -0.000000
    19  C    0.000001  -0.000001   0.000000  -0.000004  -0.000000  -0.000000
    20  C   -0.000000   0.000000  -0.000004   0.000000   0.000000  -0.000000
    21  H   -0.000000  -0.000001   0.000008   0.000018   0.000000   0.000000
    22  H    0.000000   0.000000   0.000000  -0.000000   0.000000   0.000000
    23  H   -0.000000   0.000000  -0.000000   0.000001  -0.000000  -0.000000
    24  C   -0.000037  -0.000012  -0.000014  -0.000020   0.000001   0.000000
    25  H   -0.000003   0.000006  -0.000001   0.000000  -0.000000  -0.000000
    26  C   -0.001035   0.001060  -0.004810   0.000241  -0.000080  -0.000004
    27  H    0.000466  -0.001761   0.000333  -0.000011   0.000003  -0.000000
    28  H    0.000095   0.000046   0.001716   0.000087  -0.000046   0.000001
              13         14         15         16         17         18
     1  C   -0.000088  -0.000113  -0.000092  -0.000004   0.000023  -0.000005
     2  H   -0.000012  -0.000005  -0.000046  -0.000002  -0.000007   0.000002
     3  H   -0.000003   0.000015   0.000000   0.000002  -0.000002   0.000000
     4  C   -0.000073  -0.001024   0.000002   0.000000  -0.000000   0.000000
     5  C    0.000213   0.000313  -0.000000  -0.000000   0.000000  -0.000000
     6  H   -0.000066   0.000110  -0.000000  -0.000000  -0.000000   0.000000
     7  H   -0.000017   0.000028  -0.000000  -0.000000  -0.000000   0.000000
     8  H    0.000088  -0.000040   0.000000   0.000000  -0.000000   0.000000
     9  C   -0.042131  -0.042075   0.000000  -0.000000   0.000000  -0.000000
    10  H   -0.001482  -0.000913  -0.000000  -0.000000   0.000000  -0.000000
    11  C    0.402073   0.401100   0.000000   0.000000  -0.000000   0.000000
    12  H   -0.028782  -0.027821   0.000000   0.000000  -0.000000  -0.000000
    13  H    0.586046  -0.035777  -0.000000  -0.000000   0.000000  -0.000000
    14  H   -0.035777   0.585762   0.000000  -0.000000  -0.000000   0.000000
    15  C   -0.000000   0.000000   4.901214   0.406136   0.398171   0.398640
    16  H   -0.000000  -0.000000   0.406136   0.566561  -0.026687  -0.026614
    17  H    0.000000  -0.000000   0.398171  -0.026687   0.594864  -0.037892
    18  H   -0.000000   0.000000   0.398640  -0.026614  -0.037892   0.594378
    19  C   -0.000000   0.000000   0.353595  -0.041717  -0.043874  -0.044236
    20  C    0.000000  -0.000000  -0.065283   0.003787  -0.001955  -0.001207
    21  H   -0.000000  -0.000000   0.003740  -0.000114  -0.000068  -0.000031
    22  H   -0.000000   0.000000  -0.002238  -0.000053  -0.000462   0.002780
    23  H    0.000000  -0.000000  -0.002653  -0.000029   0.002801  -0.000494
    24  C   -0.000000   0.000000  -0.044609  -0.002562  -0.000493  -0.001265
    25  H    0.000000  -0.000000  -0.007128   0.002350   0.000196   0.000189
    26  C    0.000021  -0.000004   0.003217   0.000153  -0.000076  -0.000129
    27  H   -0.000000   0.000000  -0.000098  -0.000010  -0.000002   0.000011
    28  H   -0.000007   0.000001   0.000073   0.000007  -0.000004   0.000005
              19         20         21         22         23         24
     1  C   -0.004107   0.000567  -0.000010  -0.000038   0.000105  -0.060555
     2  H    0.001436   0.000164   0.000105   0.000013  -0.000088  -0.001015
     3  H    0.000667  -0.000024  -0.000010   0.000000  -0.000001  -0.001458
     4  C    0.000044  -0.000030   0.000001   0.000001  -0.000004   0.005613
     5  C   -0.000001   0.000000   0.000000  -0.000000   0.000000  -0.000200
     6  H    0.000000   0.000000   0.000000   0.000000  -0.000000   0.000002
     7  H    0.000001  -0.000000  -0.000000   0.000000  -0.000000  -0.000037
     8  H   -0.000001   0.000000  -0.000001   0.000000   0.000000  -0.000012
     9  C    0.000000  -0.000004   0.000008   0.000000  -0.000000  -0.000014
    10  H   -0.000004   0.000000   0.000018  -0.000000   0.000001  -0.000020
    11  C   -0.000000   0.000000   0.000000   0.000000  -0.000000   0.000001
    12  H   -0.000000  -0.000000   0.000000   0.000000  -0.000000   0.000000
    13  H   -0.000000   0.000000  -0.000000  -0.000000   0.000000  -0.000000
    14  H    0.000000  -0.000000  -0.000000   0.000000  -0.000000   0.000000
    15  C    0.353595  -0.065283   0.003740  -0.002238  -0.002653  -0.044609
    16  H   -0.041717   0.003787  -0.000114  -0.000053  -0.000029  -0.002562
    17  H   -0.043874  -0.001955  -0.000068  -0.000462   0.002801  -0.000493
    18  H   -0.044236  -0.001207  -0.000031   0.002780  -0.000494  -0.001265
    19  C    4.911983   0.350278  -0.037744  -0.043789  -0.043581   0.701045
    20  C    0.350278   4.905350   0.407415   0.400138   0.400856  -0.043276
    21  H   -0.037744   0.407415   0.565827  -0.026561  -0.027854  -0.002857
    22  H   -0.043789   0.400138  -0.026561   0.586455  -0.036016  -0.000438
    23  H   -0.043581   0.400856  -0.027854  -0.036016   0.588065  -0.000111
    24  C    0.701045  -0.043276  -0.002857  -0.000438  -0.000111   4.947546
    25  H   -0.038250   0.003553   0.000052  -0.000122  -0.000121   0.402919
    26  C   -0.049119  -0.008321  -0.002641   0.000163   0.000371   0.347381
    27  H    0.001120   0.000195   0.000058   0.000027  -0.000015  -0.041941
    28  H    0.000862  -0.002776  -0.001368   0.000056  -0.000064  -0.043934
              25         26         27         28
     1  C   -0.000308   0.331273  -0.045633  -0.043831
     2  H    0.000177  -0.040788   0.004447  -0.002514
     3  H    0.001113  -0.051739  -0.002334   0.004995
     4  C   -0.000136  -0.062498  -0.002384   0.001114
     5  C    0.000007  -0.000718  -0.000610   0.000075
     6  H   -0.000000   0.000072   0.000039  -0.000024
     7  H   -0.000003  -0.001035   0.000466   0.000095
     8  H    0.000006   0.001060  -0.001761   0.000046
     9  C   -0.000001  -0.004810   0.000333   0.001716
    10  H    0.000000   0.000241  -0.000011   0.000087
    11  C   -0.000000  -0.000080   0.000003  -0.000046
    12  H   -0.000000  -0.000004  -0.000000   0.000001
    13  H    0.000000   0.000021  -0.000000  -0.000007
    14  H   -0.000000  -0.000004   0.000000   0.000001
    15  C   -0.007128   0.003217  -0.000098   0.000073
    16  H    0.002350   0.000153  -0.000010   0.000007
    17  H    0.000196  -0.000076  -0.000002  -0.000004
    18  H    0.000189  -0.000129   0.000011   0.000005
    19  C   -0.038250  -0.049119   0.001120   0.000862
    20  C    0.003553  -0.008321   0.000195  -0.002776
    21  H    0.000052  -0.002641   0.000058  -0.001368
    22  H   -0.000122   0.000163   0.000027   0.000056
    23  H   -0.000121   0.000371  -0.000015  -0.000064
    24  C    0.402919   0.347381  -0.041941  -0.043934
    25  H    0.559701  -0.040132  -0.003178   0.003225
    26  C   -0.040132   4.998775   0.411895   0.410713
    27  H   -0.003178   0.411895   0.591365  -0.029248
    28  H    0.003225   0.410713  -0.029248   0.579039
 Mulliken charges:
               1
     1  C   -0.223801
     2  H    0.120998
     3  H    0.110988
     4  C    0.023428
     5  C   -0.349583
     6  H    0.120448
     7  H    0.116660
     8  H    0.125259
     9  C   -0.159257
    10  H    0.115713
    11  C   -0.353362
    12  H    0.115747
    13  H    0.119998
    14  H    0.120442
    15  C   -0.342639
    16  H    0.118796
    17  H    0.115469
    18  H    0.115869
    19  C    0.025393
    20  C   -0.349428
    21  H    0.122035
    22  H    0.120082
    23  H    0.118832
    24  C   -0.159711
    25  H    0.115892
    26  C   -0.243239
    27  H    0.117266
    28  H    0.121707
 Sum of Mulliken charges =  -0.00000
 Mulliken charges with hydrogens summed into heavy atoms:
               1
     1  C    0.008185
     4  C    0.023428
     5  C    0.012784
     9  C   -0.043545
    11  C    0.002824
    15  C    0.007494
    19  C    0.025393
    20  C    0.011520
    24  C   -0.043819
    26  C   -0.004266
 Electronic spatial extent (au):  <R**2>=           2683.1454
 Charge=             -0.0000 electrons
 Dipole moment (field-independent basis, Debye):
    X=              0.0903    Y=              0.0785    Z=              0.1306  Tot=              0.1771
 Quadrupole moment (field-independent basis, Debye-Ang):
   XX=            -63.7663   YY=            -63.3634   ZZ=            -67.0603
   XY=              1.0233   XZ=             -1.2582   YZ=              0.0090
 Traceless Quadrupole moment (field-independent basis, Debye-Ang):
   XX=              0.9637   YY=              1.3666   ZZ=             -2.3303
   XY=              1.0233   XZ=             -1.2582   YZ=              0.0090
 Octapole moment (field-independent basis, Debye-Ang**2):
  XXX=              1.1006  YYY=             -1.1176  ZZZ=              1.6584  XYY=             -0.4018
  XXY=              4.0414  XXZ=              1.6948  XZZ=              0.8950  YZZ=              1.3821
  YYZ=             -2.4826  XYZ=              3.0343
 Hexadecapole moment (field-independent basis, Debye-Ang**3):
 XXXX=          -3006.7026 YYYY=           -509.2950 ZZZZ=           -197.3269 XXXY=             12.2050
 XXXZ=             -5.1347 YYYX=             -7.9562 YYYZ=              1.9884 ZZZX=             -2.9108
 ZZZY=             -1.1072 XXYY=           -586.0292 XXZZ=           -546.4869 YYZZ=           -114.4433
 XXYZ=             -0.5397 YYXZ=             -3.8580 ZZXY=              2.9747
 N-N= 5.101740537875D+02 E-N=-1.925092794383D+03  KE= 3.887438649294D+02
 No NMR shielding tensors so no spin-rotation constants.
 Leave Link  601 at Fri Sep 17 21:06:45 2021, MaxMem=   524288000 cpu:               0.1 elap:               0.2
 (Enter /opt/gaussian/g16_legacy/l9999.exe)
 1\1\GINC-TRUENO92\FOpt\RMP2-FC\6-31G(d,p)\C10H18\JRAMOS\17-Sep-2021\0\
 \#p opt mp2/6-31g(d,p)\\Conformer number 005. Energy MM = 25.430 kcal/
 mol\\0,1\C,2.2254516781,1.3245818186,-8.9651130593\H,1.9767524889,0.32
 49815959,-9.3290437183\H,2.0079260636,2.0222614538,-9.7815828636\C,3.6
 887725417,1.3936427634,-8.6116492509\C,4.2038203644,2.7604753055,-8.24
 53651153\H,5.2893650359,2.8168122223,-8.260738818\H,3.8217138337,3.504
 1240459,-8.9471836516\H,3.8693507845,3.058796518,-7.2500493935\C,4.433
 6468567,0.2718939471,-8.6082282462\H,3.9374973325,-0.651079831,-8.8961
 269133\C,5.8826135902,0.1293479818,-8.2539273115\H,6.3342528401,1.0694
 757466,-7.9479022475\H,6.0070995315,-0.5792501295,-7.4331120243\H,6.45
 31152731,-0.2606153822,-9.0988729937\C,-2.4337041437,0.6676877344,-8.4
 215215302\H,-2.6205660447,1.5968201928,-8.9577725141\H,-2.6621003318,-
 0.1656638174,-9.0897892945\H,-3.1367652169,0.6063377838,-7.5876930209\
 C,-1.0140679989,0.5879085046,-7.9311595464\C,-0.6816963494,-0.66923529
 13,-7.1764357129\H,0.3584969521,-0.7162182569,-6.8651885076\H,-1.30903
 66068,-0.7580575477,-6.2866989946\H,-0.887416094,-1.544695015,-7.79605
 95101\C,-0.1456726925,1.5888238154,-8.1692527155\H,-0.5083262073,2.436
 8607656,-8.745184328\C,1.30059107,1.652951055,-7.7788183544\H,1.524670
 3333,2.6573738837,-7.410733182\H,1.5263151156,0.9661581368,-6.96199718
 17\\Version=EM64L-G16RevA.03\State=1-A\HF=-389.1569427\MP2=-390.573261
 8\RMSD=4.227e-09\RMSF=7.883e-07\Dipole=0.0048009,-0.0311698,0.0576678\
 PG=C01 [X(C10H18)]\\@


 A CHEMICAL PHYSICIST MAKES PRECISE MEASUREMENTS ON IMPURE COMPOUNDS.
 A THEORETICAL PHYSICAL CHEMIST MAKES IMPRECISE
     MEASUREMENTS ON PURE COMPOUNDS.
 AN EXPERIMENTAL PHYSICAL CHEMIST MAKES IMPRECISE
     MEASUREMENTS ON IMPURE COMPOUNDS.
 Job cpu time:       0 days  0 hours 57 minutes 14.5 seconds.
 Elapsed time:       0 days  0 hours 57 minutes 18.1 seconds.
 File lengths (MBytes):  RWF=     32 Int=      0 D2E=      0 Chk=      7 Scr=      1
 Normal termination of Gaussian 16 at Fri Sep 17 21:06:45 2021.
