 Entering Gaussian System, Link 0=/opt/gaussian/g16_legacy/g16
 Input=02-IsoP_036_gaussian.com
 Output=02-IsoP_036_gaussian.log
 Initial command:
 /opt/gaussian/g16_legacy/l1.exe "/scratch-local/jramos/2661526/Gau-12062.inp" -scrdir="/scratch-local/jramos/2661526/"
 Entering Link 1 = /opt/gaussian/g16_legacy/l1.exe PID=     12075.
  
 Copyright (c) 1988,1990,1992,1993,1995,1998,2003,2009,2016,
            Gaussian, Inc.  All Rights Reserved.
  
 This is part of the Gaussian(R) 16 program.  It is based on
 the Gaussian(R) 09 system (copyright 2009, Gaussian, Inc.),
 the Gaussian(R) 03 system (copyright 2003, Gaussian, Inc.),
 the Gaussian(R) 98 system (copyright 1998, Gaussian, Inc.),
 the Gaussian(R) 94 system (copyright 1995, Gaussian, Inc.),
 the Gaussian 92(TM) system (copyright 1992, Gaussian, Inc.),
 the Gaussian 90(TM) system (copyright 1990, Gaussian, Inc.),
 the Gaussian 88(TM) system (copyright 1988, Gaussian, Inc.),
 the Gaussian 86(TM) system (copyright 1986, Carnegie Mellon
 University), and the Gaussian 82(TM) system (copyright 1983,
 Carnegie Mellon University). Gaussian is a federally registered
 trademark of Gaussian, Inc.
  
 This software contains proprietary and confidential information,
 including trade secrets, belonging to Gaussian, Inc.
  
 This software is provided under written license and may be
 used, copied, transmitted, or stored only in accord with that
 written license.
  
 The following legend is applicable only to US Government
 contracts under FAR:
  
                    RESTRICTED RIGHTS LEGEND
  
 Use, reproduction and disclosure by the US Government is
 subject to restrictions as set forth in subparagraphs (a)
 and (c) of the Commercial Computer Software - Restricted
 Rights clause in FAR 52.227-19.
  
 Gaussian, Inc.
 340 Quinnipiac St., Bldg. 40, Wallingford CT 06492
  
  
 ---------------------------------------------------------------
 Warning -- This program may not be used in any manner that
 competes with the business of Gaussian, Inc. or will provide
 assistance to any competitor of Gaussian, Inc.  The licensee
 of this program is prohibited from giving any competitor of
 Gaussian, Inc. access to this program.  By using this program,
 the user acknowledges that Gaussian, Inc. is engaged in the
 business of creating and licensing software in the field of
 computational chemistry and represents and warrants to the
 licensee that it is not a competitor of Gaussian, Inc. and that
 it will not use this program in any manner prohibited above.
 ---------------------------------------------------------------
  

 Cite this work as:
 Gaussian 16, Revision A.03,
 M. J. Frisch, G. W. Trucks, H. B. Schlegel, G. E. Scuseria, 
 M. A. Robb, J. R. Cheeseman, G. Scalmani, V. Barone, 
 G. A. Petersson, H. Nakatsuji, X. Li, M. Caricato, A. V. Marenich, 
 J. Bloino, B. G. Janesko, R. Gomperts, B. Mennucci, H. P. Hratchian, 
 J. V. Ortiz, A. F. Izmaylov, J. L. Sonnenberg, D. Williams-Young, 
 F. Ding, F. Lipparini, F. Egidi, J. Goings, B. Peng, A. Petrone, 
 T. Henderson, D. Ranasinghe, V. G. Zakrzewski, J. Gao, N. Rega, 
 G. Zheng, W. Liang, M. Hada, M. Ehara, K. Toyota, R. Fukuda, 
 J. Hasegawa, M. Ishida, T. Nakajima, Y. Honda, O. Kitao, H. Nakai, 
 T. Vreven, K. Throssell, J. A. Montgomery, Jr., J. E. Peralta, 
 F. Ogliaro, M. J. Bearpark, J. J. Heyd, E. N. Brothers, K. N. Kudin, 
 V. N. Staroverov, T. A. Keith, R. Kobayashi, J. Normand, 
 K. Raghavachari, A. P. Rendell, J. C. Burant, S. S. Iyengar, 
 J. Tomasi, M. Cossi, J. M. Millam, M. Klene, C. Adamo, R. Cammi, 
 J. W. Ochterski, R. L. Martin, K. Morokuma, O. Farkas, 
 J. B. Foresman, and D. J. Fox, Gaussian, Inc., Wallingford CT, 2016.
 
 ******************************************
 Gaussian 16:  EM64L-G16RevA.03 25-Dec-2016
                17-Sep-2021 
 ******************************************
 %chk=02-IsoP_036_gaussian.chk
 %nproc=1
 Will use up to    1 processors via shared memory.
 %mem=4000Mb
 ---------------------
 #p opt mp2/6-31g(d,p)
 ---------------------
 1/18=20,19=15,38=1/1,3;
 2/9=110,12=2,17=6,18=5,40=1/2;
 3/5=1,6=6,7=101,11=9,25=1,30=1,71=1/1,2,3;
 4//1;
 5/5=2,38=5/2;
 8/6=4,10=2/1;
 9/15=2,16=-3/6;
 10/5=1/2;
 6/7=2,8=2,9=2,10=2/1;
 7/12=2/1,2,3,16;
 1/18=20,19=15/3(2);
 2/9=110/2;
 99//99;
 2/9=110/2;
 3/5=1,6=6,7=101,11=9,25=1,30=1,71=1/1,2,3;
 4/5=5,16=3,69=1/1;
 5/5=2,38=5/2;
 8/6=4,10=2/1;
 9/15=2,16=-3/6;
 10/5=1/2;
 7/12=2/1,2,3,16;
 1/18=20,19=15/3(-8);
 2/9=110/2;
 6/7=2,8=2,9=2,10=2/1;
 99//99;
 Leave Link    1 at Fri Sep 17 20:09:28 2021, MaxMem=   524288000 cpu:               0.0 elap:               0.4
 (Enter /opt/gaussian/g16_legacy/l101.exe)
 -------------------------------------------------
 Conformer number 036. Energy MM = 25.902 kcal/mol
 -------------------------------------------------
 Symbolic Z-matrix:
 Charge =  0 Multiplicity = 1
 C                     2.1473    1.1736   -9.0074 
 H                     1.8248    0.1341   -9.1552 
 H                     1.8964    1.6919   -9.9404 
 C                     3.6516    1.2307   -8.7904 
 C                     4.3058    2.5412   -9.1336 
 H                     5.3862    2.4501   -9.2741 
 H                     3.9055    2.9348   -10.0738 
 H                     4.1212    3.2789   -8.3478 
 C                     4.2995    0.1614   -8.2879 
 H                     3.7216   -0.7376   -8.0742 
 C                     5.7306    0.0675   -7.8667 
 H                     6.2788    1.0062   -7.9659 
 H                     5.7742   -0.223    -6.8114 
 H                     6.2452   -0.7003   -8.452 
 C                     2.4638    0.3547   -4.3768 
 H                     1.7774   -0.496    -4.451 
 H                     3.4822   -0.0433   -4.3352 
 H                     2.2536    0.8705   -3.4334 
 C                     2.3297    1.3021   -5.5378 
 C                     3.2351    2.502    -5.4655 
 H                     2.9508    3.2983   -6.1562 
 H                     3.2111    2.9368   -4.461 
 H                     4.2658    2.2076   -5.6858 
 C                     1.5012    1.0228   -6.5645 
 H                     0.9107    0.1077   -6.5205 
 C                     1.3442    1.7957   -7.8507 
 H                     0.2795    1.7872   -8.1175 
 H                     1.6067    2.8507   -7.73 
 
 ITRead=  0  0  0  0  0  0  0  0  0  0  0  0  0  0  0  0  0  0  0  0
 ITRead=  0  0  0  0  0  0  0  0
 MicOpt= -1 -1 -1 -1 -1 -1 -1 -1 -1 -1 -1 -1 -1 -1 -1 -1 -1 -1 -1 -1
 MicOpt= -1 -1 -1 -1 -1 -1 -1 -1
 NAtoms=     28 NQM=       28 NQMF=       0 NMMI=      0 NMMIF=      0
                NMic=       0 NMicF=      0.
                    Isotopes and Nuclear Properties:
 (Nuclear quadrupole moments (NQMom) in fm**2, nuclear magnetic moments (NMagM)
  in nuclear magnetons)

  Atom         1           2           3           4           5           6           7           8           9          10
 IAtWgt=          12           1           1          12          12           1           1           1          12           1
 AtmWgt=  12.0000000   1.0078250   1.0078250  12.0000000  12.0000000   1.0078250   1.0078250   1.0078250  12.0000000   1.0078250
 NucSpn=           0           1           1           0           0           1           1           1           0           1
 AtZEff=  -0.0000000  -0.0000000  -0.0000000  -0.0000000  -0.0000000  -0.0000000  -0.0000000  -0.0000000  -0.0000000  -0.0000000
 NQMom=    0.0000000   0.0000000   0.0000000   0.0000000   0.0000000   0.0000000   0.0000000   0.0000000   0.0000000   0.0000000
 NMagM=    0.0000000   2.7928460   2.7928460   0.0000000   0.0000000   2.7928460   2.7928460   2.7928460   0.0000000   2.7928460
 AtZNuc=   6.0000000   1.0000000   1.0000000   6.0000000   6.0000000   1.0000000   1.0000000   1.0000000   6.0000000   1.0000000

  Atom        11          12          13          14          15          16          17          18          19          20
 IAtWgt=          12           1           1           1          12           1           1           1          12          12
 AtmWgt=  12.0000000   1.0078250   1.0078250   1.0078250  12.0000000   1.0078250   1.0078250   1.0078250  12.0000000  12.0000000
 NucSpn=           0           1           1           1           0           1           1           1           0           0
 AtZEff=  -0.0000000  -0.0000000  -0.0000000  -0.0000000  -0.0000000  -0.0000000  -0.0000000  -0.0000000  -0.0000000  -0.0000000
 NQMom=    0.0000000   0.0000000   0.0000000   0.0000000   0.0000000   0.0000000   0.0000000   0.0000000   0.0000000   0.0000000
 NMagM=    0.0000000   2.7928460   2.7928460   2.7928460   0.0000000   2.7928460   2.7928460   2.7928460   0.0000000   0.0000000
 AtZNuc=   6.0000000   1.0000000   1.0000000   1.0000000   6.0000000   1.0000000   1.0000000   1.0000000   6.0000000   6.0000000

  Atom        21          22          23          24          25          26          27          28
 IAtWgt=           1           1           1          12           1          12           1           1
 AtmWgt=   1.0078250   1.0078250   1.0078250  12.0000000   1.0078250  12.0000000   1.0078250   1.0078250
 NucSpn=           1           1           1           0           1           0           1           1
 AtZEff=  -0.0000000  -0.0000000  -0.0000000  -0.0000000  -0.0000000  -0.0000000  -0.0000000  -0.0000000
 NQMom=    0.0000000   0.0000000   0.0000000   0.0000000   0.0000000   0.0000000   0.0000000   0.0000000
 NMagM=    2.7928460   2.7928460   2.7928460   0.0000000   2.7928460   0.0000000   2.7928460   2.7928460
 AtZNuc=   1.0000000   1.0000000   1.0000000   6.0000000   1.0000000   6.0000000   1.0000000   1.0000000
 Leave Link  101 at Fri Sep 17 20:09:28 2021, MaxMem=   524288000 cpu:               0.3 elap:               0.4
 (Enter /opt/gaussian/g16_legacy/l103.exe)

 GradGradGradGradGradGradGradGradGradGradGradGradGradGradGradGradGradGrad
 Berny optimization.
 Initialization pass.
                           ----------------------------
                           !    Initial Parameters    !
                           ! (Angstroms and Degrees)  !
 --------------------------                            --------------------------
 ! Name  Definition              Value          Derivative Info.                !
 --------------------------------------------------------------------------------
 ! R1    R(1,2)                  1.0984         estimate D2E/DX2                !
 ! R2    R(1,3)                  1.0964         estimate D2E/DX2                !
 ! R3    R(1,4)                  1.5209         estimate D2E/DX2                !
 ! R4    R(1,26)                 1.5395         estimate D2E/DX2                !
 ! R5    R(4,5)                  1.5044         estimate D2E/DX2                !
 ! R6    R(4,9)                  1.3475         estimate D2E/DX2                !
 ! R7    R(5,6)                  1.0933         estimate D2E/DX2                !
 ! R8    R(5,7)                  1.0951         estimate D2E/DX2                !
 ! R9    R(5,8)                  1.0935         estimate D2E/DX2                !
 ! R10   R(9,10)                 1.0899         estimate D2E/DX2                !
 ! R11   R(9,11)                 1.4947         estimate D2E/DX2                !
 ! R12   R(11,12)                1.0916         estimate D2E/DX2                !
 ! R13   R(11,13)                1.0954         estimate D2E/DX2                !
 ! R14   R(11,14)                1.094          estimate D2E/DX2                !
 ! R15   R(15,16)                1.0956         estimate D2E/DX2                !
 ! R16   R(15,17)                1.0942         estimate D2E/DX2                !
 ! R17   R(15,18)                1.0956         estimate D2E/DX2                !
 ! R18   R(15,19)                1.5045         estimate D2E/DX2                !
 ! R19   R(19,20)                1.5049         estimate D2E/DX2                !
 ! R20   R(19,24)                1.3485         estimate D2E/DX2                !
 ! R21   R(20,21)                1.0918         estimate D2E/DX2                !
 ! R22   R(20,22)                1.0948         estimate D2E/DX2                !
 ! R23   R(20,23)                1.0943         estimate D2E/DX2                !
 ! R24   R(24,25)                1.09           estimate D2E/DX2                !
 ! R25   R(24,26)                1.5088         estimate D2E/DX2                !
 ! R26   R(26,27)                1.0977         estimate D2E/DX2                !
 ! R27   R(26,28)                1.0938         estimate D2E/DX2                !
 ! A1    A(2,1,3)              105.4082         estimate D2E/DX2                !
 ! A2    A(2,1,4)              110.19           estimate D2E/DX2                !
 ! A3    A(2,1,26)             109.2917         estimate D2E/DX2                !
 ! A4    A(3,1,4)              109.2689         estimate D2E/DX2                !
 ! A5    A(3,1,26)             109.2069         estimate D2E/DX2                !
 ! A6    A(4,1,26)             113.1785         estimate D2E/DX2                !
 ! A7    A(1,4,5)              115.484          estimate D2E/DX2                !
 ! A8    A(1,4,9)              119.9324         estimate D2E/DX2                !
 ! A9    A(5,4,9)              124.5599         estimate D2E/DX2                !
 ! A10   A(4,5,6)              112.7345         estimate D2E/DX2                !
 ! A11   A(4,5,7)              110.4885         estimate D2E/DX2                !
 ! A12   A(4,5,8)              110.5072         estimate D2E/DX2                !
 ! A13   A(6,5,7)              106.3111         estimate D2E/DX2                !
 ! A14   A(6,5,8)              108.384          estimate D2E/DX2                !
 ! A15   A(7,5,8)              108.2277         estimate D2E/DX2                !
 ! A16   A(4,9,10)             118.2126         estimate D2E/DX2                !
 ! A17   A(4,9,11)             127.9728         estimate D2E/DX2                !
 ! A18   A(10,9,11)            113.6153         estimate D2E/DX2                !
 ! A19   A(9,11,12)            113.6531         estimate D2E/DX2                !
 ! A20   A(9,11,13)            109.0402         estimate D2E/DX2                !
 ! A21   A(9,11,14)            110.1009         estimate D2E/DX2                !
 ! A22   A(12,11,13)           107.1945         estimate D2E/DX2                !
 ! A23   A(12,11,14)           108.583          estimate D2E/DX2                !
 ! A24   A(13,11,14)           108.093          estimate D2E/DX2                !
 ! A25   A(16,15,17)           107.6529         estimate D2E/DX2                !
 ! A26   A(16,15,18)           107.6791         estimate D2E/DX2                !
 ! A27   A(16,15,19)           112.3864         estimate D2E/DX2                !
 ! A28   A(17,15,18)           108.4869         estimate D2E/DX2                !
 ! A29   A(17,15,19)           109.9591         estimate D2E/DX2                !
 ! A30   A(18,15,19)           110.5447         estimate D2E/DX2                !
 ! A31   A(15,19,20)           114.2922         estimate D2E/DX2                !
 ! A32   A(15,19,24)           120.7881         estimate D2E/DX2                !
 ! A33   A(20,19,24)           124.8439         estimate D2E/DX2                !
 ! A34   A(19,20,21)           113.2334         estimate D2E/DX2                !
 ! A35   A(19,20,22)           110.337          estimate D2E/DX2                !
 ! A36   A(19,20,23)           110.0282         estimate D2E/DX2                !
 ! A37   A(21,20,22)           106.5633         estimate D2E/DX2                !
 ! A38   A(21,20,23)           108.3076         estimate D2E/DX2                !
 ! A39   A(22,20,23)           108.1912         estimate D2E/DX2                !
 ! A40   A(19,24,25)           118.424          estimate D2E/DX2                !
 ! A41   A(19,24,26)           127.3638         estimate D2E/DX2                !
 ! A42   A(25,24,26)           114.0873         estimate D2E/DX2                !
 ! A43   A(1,26,24)            112.2864         estimate D2E/DX2                !
 ! A44   A(1,26,27)            108.6784         estimate D2E/DX2                !
 ! A45   A(1,26,28)            110.3326         estimate D2E/DX2                !
 ! A46   A(24,26,27)           107.7088         estimate D2E/DX2                !
 ! A47   A(24,26,28)           112.0271         estimate D2E/DX2                !
 ! A48   A(27,26,28)           105.4896         estimate D2E/DX2                !
 ! D1    D(2,1,4,5)            155.8227         estimate D2E/DX2                !
 ! D2    D(2,1,4,9)            -25.8654         estimate D2E/DX2                !
 ! D3    D(3,1,4,5)             40.454          estimate D2E/DX2                !
 ! D4    D(3,1,4,9)           -141.2341         estimate D2E/DX2                !
 ! D5    D(26,1,4,5)           -81.4691         estimate D2E/DX2                !
 ! D6    D(26,1,4,9)            96.8428         estimate D2E/DX2                !
 ! D7    D(2,1,26,24)           57.8417         estimate D2E/DX2                !
 ! D8    D(2,1,26,27)          -61.208          estimate D2E/DX2                !
 ! D9    D(2,1,26,28)         -176.4167         estimate D2E/DX2                !
 ! D10   D(3,1,26,24)          172.6785         estimate D2E/DX2                !
 ! D11   D(3,1,26,27)           53.6288         estimate D2E/DX2                !
 ! D12   D(3,1,26,28)          -61.5798         estimate D2E/DX2                !
 ! D13   D(4,1,26,24)          -65.3637         estimate D2E/DX2                !
 ! D14   D(4,1,26,27)          175.5866         estimate D2E/DX2                !
 ! D15   D(4,1,26,28)           60.3779         estimate D2E/DX2                !
 ! D16   D(1,4,5,6)           -161.5217         estimate D2E/DX2                !
 ! D17   D(1,4,5,7)            -42.7289         estimate D2E/DX2                !
 ! D18   D(1,4,5,8)             77.0245         estimate D2E/DX2                !
 ! D19   D(9,4,5,6)             20.2548         estimate D2E/DX2                !
 ! D20   D(9,4,5,7)            139.0476         estimate D2E/DX2                !
 ! D21   D(9,4,5,8)           -101.1991         estimate D2E/DX2                !
 ! D22   D(1,4,9,10)             1.708          estimate D2E/DX2                !
 ! D23   D(1,4,9,11)          -172.8028         estimate D2E/DX2                !
 ! D24   D(5,4,9,10)           179.8576         estimate D2E/DX2                !
 ! D25   D(5,4,9,11)             5.3468         estimate D2E/DX2                !
 ! D26   D(4,9,11,12)            1.8797         estimate D2E/DX2                !
 ! D27   D(4,9,11,13)          121.3889         estimate D2E/DX2                !
 ! D28   D(4,9,11,14)         -120.1772         estimate D2E/DX2                !
 ! D29   D(10,9,11,12)        -172.8417         estimate D2E/DX2                !
 ! D30   D(10,9,11,13)         -53.3324         estimate D2E/DX2                !
 ! D31   D(10,9,11,14)          65.1015         estimate D2E/DX2                !
 ! D32   D(16,15,19,20)        178.8581         estimate D2E/DX2                !
 ! D33   D(16,15,19,24)         -4.1593         estimate D2E/DX2                !
 ! D34   D(17,15,19,20)        -61.2406         estimate D2E/DX2                !
 ! D35   D(17,15,19,24)        115.742          estimate D2E/DX2                !
 ! D36   D(18,15,19,20)         58.5194         estimate D2E/DX2                !
 ! D37   D(18,15,19,24)       -124.4981         estimate D2E/DX2                !
 ! D38   D(15,19,20,21)       -164.845          estimate D2E/DX2                !
 ! D39   D(15,19,20,22)        -45.5063         estimate D2E/DX2                !
 ! D40   D(15,19,20,23)         73.8005         estimate D2E/DX2                !
 ! D41   D(24,19,20,21)         18.3136         estimate D2E/DX2                !
 ! D42   D(24,19,20,22)        137.6523         estimate D2E/DX2                !
 ! D43   D(24,19,20,23)       -103.0409         estimate D2E/DX2                !
 ! D44   D(15,19,24,25)          1.6398         estimate D2E/DX2                !
 ! D45   D(15,19,24,26)       -174.0381         estimate D2E/DX2                !
 ! D46   D(20,19,24,25)        178.2883         estimate D2E/DX2                !
 ! D47   D(20,19,24,26)          2.6105         estimate D2E/DX2                !
 ! D48   D(19,24,26,1)          98.2159         estimate D2E/DX2                !
 ! D49   D(19,24,26,27)       -142.1673         estimate D2E/DX2                !
 ! D50   D(19,24,26,28)        -26.5977         estimate D2E/DX2                !
 ! D51   D(25,24,26,1)         -77.6208         estimate D2E/DX2                !
 ! D52   D(25,24,26,27)         41.996          estimate D2E/DX2                !
 ! D53   D(25,24,26,28)        157.5657         estimate D2E/DX2                !
 --------------------------------------------------------------------------------
 Trust Radius=3.00D-01 FncErr=1.00D-07 GrdErr=1.00D-07 EigMax=2.50D+02 EigMin=1.00D-04
 Number of steps in this run=    138 maximum allowed number of steps=    168.
 GradGradGradGradGradGradGradGradGradGradGradGradGradGradGradGradGradGrad

 Leave Link  103 at Fri Sep 17 20:09:28 2021, MaxMem=   524288000 cpu:               0.0 elap:               0.1
 (Enter /opt/gaussian/g16_legacy/l202.exe)
                          Input orientation:                          
 ---------------------------------------------------------------------
 Center     Atomic      Atomic             Coordinates (Angstroms)
 Number     Number       Type             X           Y           Z
 ---------------------------------------------------------------------
      1          6           0        2.147300    1.173600   -9.007400
      2          1           0        1.824800    0.134100   -9.155200
      3          1           0        1.896400    1.691900   -9.940400
      4          6           0        3.651600    1.230700   -8.790400
      5          6           0        4.305800    2.541200   -9.133600
      6          1           0        5.386200    2.450100   -9.274100
      7          1           0        3.905500    2.934800  -10.073800
      8          1           0        4.121200    3.278900   -8.347800
      9          6           0        4.299500    0.161400   -8.287900
     10          1           0        3.721600   -0.737600   -8.074200
     11          6           0        5.730600    0.067500   -7.866700
     12          1           0        6.278800    1.006200   -7.965900
     13          1           0        5.774200   -0.223000   -6.811400
     14          1           0        6.245200   -0.700300   -8.452000
     15          6           0        2.463800    0.354700   -4.376800
     16          1           0        1.777400   -0.496000   -4.451000
     17          1           0        3.482200   -0.043300   -4.335200
     18          1           0        2.253600    0.870500   -3.433400
     19          6           0        2.329700    1.302100   -5.537800
     20          6           0        3.235100    2.502000   -5.465500
     21          1           0        2.950800    3.298300   -6.156200
     22          1           0        3.211100    2.936800   -4.461000
     23          1           0        4.265800    2.207600   -5.685800
     24          6           0        1.501200    1.022800   -6.564500
     25          1           0        0.910700    0.107700   -6.520500
     26          6           0        1.344200    1.795700   -7.850700
     27          1           0        0.279500    1.787200   -8.117500
     28          1           0        1.606700    2.850700   -7.730000
 ---------------------------------------------------------------------
                    Distance matrix (angstroms):
                    1          2          3          4          5
     1  C    0.000000
     2  H    1.098368   0.000000
     3  H    1.096392   1.745969   0.000000
     4  C    1.520943   2.161668   2.148472   0.000000
     5  C    2.558394   3.456871   2.679075   1.504385   0.000000
     6  H    3.491569   4.249890   3.632840   2.174796   1.093299
     7  H    2.707453   3.607916   2.366237   2.148380   1.095051
     8  H    2.960345   3.976822   3.163017   2.147450   1.093508
     9  C    2.484793   2.622422   3.293642   1.347473   2.525608
    10  H    2.646123   2.350802   3.566024   2.095721   3.494874
    11  C    3.919782   4.113386   4.651881   2.555092   3.123185
    12  H    4.264040   4.691813   4.855334   2.762676   2.759072
    13  H    4.464002   4.606374   5.338054   3.245784   3.897385
    14  H    4.540127   4.553092   5.181700   3.251159   3.838382
    15  C    4.713091   4.825981   5.750104   4.653827   5.549855
    16  H    4.866741   4.746448   5.910548   5.032346   6.127327
    17  H    5.009217   5.100083   6.078153   4.636872   5.512041
    18  H    5.583247   5.784907   6.568359   5.548117   6.284508
    19  C    3.476767   3.834675   4.441011   3.511684   4.286038
    20  C    3.936116   4.605408   4.740581   3.583941   3.821373
    21  H    3.645450   4.502670   4.244108   3.421272   3.357698
    22  H    4.991022   5.640254   5.770792   4.674240   4.815398
    23  H    4.073110   4.721718   4.897104   3.312117   3.464132
    24  C    2.531392   2.757940   3.464185   3.101947   4.095314
    25  H    2.974894   2.788892   3.895768   3.731770   4.927161
    26  C    1.539459   2.166474   2.163919   2.554673   3.312503
    27  H    2.158032   2.489480   2.438527   3.483324   4.220434
    28  H    2.176388   3.075496   2.512491   2.816108   3.057944
                    6          7          8          9         10
     6  H    0.000000
     7  H    1.751264   0.000000
     8  H    1.773462   1.773135   0.000000
     9  C    2.718760   3.322111   3.123169   0.000000
    10  H    3.791053   4.185540   4.045591   1.089879   0.000000
    11  C    2.788578   4.052615   3.624185   1.494749   2.174241
    12  H    2.143121   3.714202   3.156937   2.176005   3.097069
    13  H    3.655256   4.909887   4.166082   2.121923   2.464273
    14  H    3.367306   4.617183   4.511792   2.134292   2.551996
    15  C    6.075744   6.418039   5.202573   4.324796   4.055360
    16  H    6.705612   6.922072   5.910019   4.638423   4.118964
    17  H    5.851068   6.479181   5.248456   4.041500   3.810444
    18  H    6.813376   7.147379   5.782702   5.315515   5.126211
    19  C    4.961858   5.071898   3.874701   3.569924   3.539927
    20  C    4.374398   4.676877   3.113904   3.818023   4.187721
    21  H    4.046223   4.048601   2.484617   4.025330   4.534462
    22  H    5.304137   5.655592   4.006561   4.851044   5.178517
    23  H    3.766962   4.462419   2.873123   3.310437   3.830772
    24  C    4.946953   4.663860   3.890314   3.397440   3.210666
    25  H    5.753195   5.439417   4.868557   3.822375   3.321095
    26  C    4.334982   3.577706   3.187275   3.405272   3.481320
    27  H    5.277835   4.276911   4.127574   4.339661   4.269021
    28  H    4.102359   3.284045   2.624451   3.846396   4.179375
                   11         12         13         14         15
    11  C    0.000000
    12  H    1.091568   0.000000
    13  H    1.095422   1.760234   0.000000
    14  H    1.094032   1.774701   1.772350   0.000000
    15  C    4.788932   5.278287   4.149670   5.658557   0.000000
    16  H    5.254743   5.905398   4.649777   6.000915   1.095601
    17  H    4.187967   4.701532   3.378923   5.001386   1.094200
    18  H    5.691088   6.063349   5.000125   6.602017   1.095553
    19  C    4.302805   4.645279   3.976502   5.275728   1.504483
    20  C    4.233211   4.213494   3.960316   5.313625   2.528056
    21  H    4.592512   4.427677   4.560749   5.666795   3.473934
    22  H    5.116596   5.042055   4.698744   6.193734   2.689384
    23  H    3.388509   3.270227   3.074095   4.475016   2.897227
    24  C    4.527267   4.978921   4.457747   5.388624   2.481731
    25  H    5.004529   5.631428   4.883402   5.730658   2.658680
    26  C    4.714598   4.998686   4.977971   5.532755   3.924024
    27  H    5.721430   6.051822   5.994875   6.472181   4.562462
    28  H    4.977092   5.028553   5.259231   5.886133   4.267152
                   16         17         18         19         20
    16  H    0.000000
    17  H    1.767679   0.000000
    18  H    1.769067   1.777001   0.000000
    19  C    2.172403   2.141169   2.149551   0.000000
    20  C    3.484552   2.795924   2.784702   1.504904   0.000000
    21  H    4.322185   3.842488   3.714019   2.180137   1.091781
    22  H    3.720176   2.995049   2.498472   2.146767   1.094828
    23  H    3.876380   2.739471   3.303043   2.142503   1.094324
    24  C    2.617236   3.167129   3.223831   1.348530   2.530265
    25  H    2.323457   3.378010   3.451873   2.099012   3.499790
    26  C    4.122804   4.506851   4.603862   2.562100   3.124667
    27  H    4.571644   5.283352   5.165095   3.330690   4.034800
    28  H    4.688430   4.839153   4.774981   2.779682   2.810914
                   21         22         23         24         25
    21  H    0.000000
    22  H    1.752753   0.000000
    23  H    1.772041   1.773206   0.000000
    24  C    2.728727   3.318413   3.133509   0.000000
    25  H    3.804557   4.187742   4.045121   1.089970   0.000000
    26  C    2.776743   4.034537   3.659536   1.508752   2.192418
    27  H    3.642247   4.825542   4.688335   2.118648   2.401987
    28  H    2.117498   3.642509   3.415135   2.170424   3.077557
                   26         27         28
    26  C    0.000000
    27  H    1.097652   0.000000
    28  H    1.093846   1.744319   0.000000
 Stoichiometry    C10H18
 Framework group  C1[X(C10H18)]
 Deg. of freedom    78
 Full point group                 C1      NOp   1
 Largest Abelian subgroup         C1      NOp   1
 Largest concise Abelian subgroup C1      NOp   1
                         Standard orientation:                         
 ---------------------------------------------------------------------
 Center     Atomic      Atomic             Coordinates (Angstroms)
 Number     Number       Type             X           Y           Z
 ---------------------------------------------------------------------
      1          6           0       -1.020159   -1.588072   -0.711608
      2          1           0       -0.966084   -1.538280   -1.807513
      3          1           0       -1.718498   -2.404043   -0.491179
      4          6           0       -1.576339   -0.286989   -0.153830
      5          6           0       -2.227082   -0.388361    1.198735
      6          1           0       -2.881136    0.459945    1.417582
      7          1           0       -2.855063   -1.283637    1.255815
      8          1           0       -1.469365   -0.451377    1.984645
      9          6           0       -1.436079    0.857710   -0.850732
     10          1           0       -0.944742    0.812377   -1.822519
     11          6           0       -1.775262    2.246875   -0.415475
     12          1           0       -2.153299    2.305470    0.606864
     13          1           0       -0.873252    2.866592   -0.463205
     14          1           0       -2.521167    2.680157   -1.088378
     15          6           0        2.865801    1.066809   -0.458344
     16          1           0        3.159493    0.785121   -1.475565
     17          1           0        2.407470    2.059145   -0.508087
     18          1           0        3.778068    1.135326    0.144410
     19          6           0        1.902049    0.086011    0.152136
     20          6           0        1.490698    0.417616    1.561237
     21          1           0        1.013251   -0.417083    2.078255
     22          1           0        2.365836    0.694816    2.157844
     23          1           0        0.796381    1.263470    1.559761
     24          6           0        1.425501   -0.951357   -0.565710
     25          1           0        1.775948   -1.077983   -1.590009
     26          6           0        0.368145   -1.943890   -0.149524
     27          1           0        0.662696   -2.927711   -0.537051
     28          1           0        0.319828   -2.060419    0.937023
 ---------------------------------------------------------------------
 Rotational constants (GHZ):           1.5168999           0.9354519           0.7603383
 Leave Link  202 at Fri Sep 17 20:09:28 2021, MaxMem=   524288000 cpu:               0.1 elap:               0.2
 (Enter /opt/gaussian/g16_legacy/l301.exe)
 Standard basis: 6-31G(d,p) (6D, 7F)
 Ernie: Thresh=  0.10000D-02 Tol=  0.10000D-05 Strict=F.
 There are   240 symmetry adapted cartesian basis functions of A   symmetry.
 There are   240 symmetry adapted basis functions of A   symmetry.
   240 basis functions,   406 primitive gaussians,   240 cartesian basis functions
    39 alpha electrons       39 beta electrons
       nuclear repulsion energy       542.8721530420 Hartrees.
 IExCor=    0 DFT=F Ex=HF Corr=None ExCW=0 ScaHFX=  1.000000
 ScaDFX=  1.000000  1.000000  1.000000  1.000000 ScalE2=  1.000000  1.000000
 IRadAn=      5 IRanWt=     -1 IRanGd=            0 ICorTp=0 IEmpDi=  4
 NAtoms=   28 NActive=   28 NUniq=   28 SFac= 1.00D+00 NAtFMM=   60 NAOKFM=F Big=F
 Integral buffers will be    131072 words long.
 Raffenetti 1 integral format.
 Two-electron integral symmetry is turned on.
 Leave Link  301 at Fri Sep 17 20:09:29 2021, MaxMem=   524288000 cpu:               0.1 elap:               0.3
 (Enter /opt/gaussian/g16_legacy/l302.exe)
 NPDir=0 NMtPBC=     1 NCelOv=     1 NCel=       1 NClECP=     1 NCelD=      1
         NCelK=      1 NCelE2=     1 NClLst=     1 CellRange=     0.0.
 One-electron integrals computed using PRISM.
 One-electron integral symmetry used in STVInt
 NBasis=   240 RedAO= T EigKep=  2.36D-03  NBF=   240
 NBsUse=   240 1.00D-06 EigRej= -1.00D+00 NBFU=   240
 Leave Link  302 at Fri Sep 17 20:09:30 2021, MaxMem=   524288000 cpu:               0.3 elap:               0.7
 (Enter /opt/gaussian/g16_legacy/l303.exe)
 DipDrv:  MaxL=1.
 Leave Link  303 at Fri Sep 17 20:09:30 2021, MaxMem=   524288000 cpu:               0.1 elap:               0.3
 (Enter /opt/gaussian/g16_legacy/l401.exe)
 ExpMin= 1.61D-01 ExpMax= 3.05D+03 ExpMxC= 4.57D+02 IAcc=3 IRadAn=         5 AccDes= 0.00D+00
 Harris functional with IExCor=  205 and IRadAn=       5 diagonalized for initial guess.
 HarFok:  IExCor=  205 AccDes= 0.00D+00 IRadAn=         5 IDoV= 1 UseB2=F ITyADJ=14
 ICtDFT=  3500011 ScaDFX=  1.000000  1.000000  1.000000  1.000000
 FoFCou: FMM=F IPFlag=           0 FMFlag=      100000 FMFlg1=           0
         NFxFlg=           0 DoJE=T BraDBF=F KetDBF=T FulRan=T
         wScrn=  0.000000 ICntrl=       500 IOpCl=  0 I1Cent=   200000004 NGrid=           0
         NMat0=    1 NMatS0=      1 NMatT0=    0 NMatD0=    1 NMtDS0=    0 NMtDT0=    0
 Petite list used in FoFCou.
 Harris En= -390.109124576219    
 JPrj=0 DoOrth=F DoCkMO=F.
 Leave Link  401 at Fri Sep 17 20:09:42 2021, MaxMem=   524288000 cpu:              12.0 elap:              12.4
 (Enter /opt/gaussian/g16_legacy/l502.exe)
 Keep R1 ints in memory in canonical form, NReq=425198025.
 FoFCou: FMM=F IPFlag=           0 FMFlag=           0 FMFlg1=           0
         NFxFlg=           0 DoJE=F BraDBF=F KetDBF=F FulRan=T
         wScrn=  0.000000 ICntrl=       600 IOpCl=  0 I1Cent=           0 NGrid=           0
         NMat0=    1 NMatS0=  28920 NMatT0=    0 NMatD0=    1 NMtDS0=    0 NMtDT0=    0
 Symmetry not used in FoFCou.
 Two-electron integral symmetry not used.
 Closed shell SCF:
 Using DIIS extrapolation, IDIIS=  1040.
 NGot=   524288000 LenX=   105970886 LenY=   105912845
 Requested convergence on RMS density matrix=1.00D-08 within 128 cycles.
 Requested convergence on MAX density matrix=1.00D-06.
 Requested convergence on             energy=1.00D-06.
 No special actions if energy rises.

 Cycle   1  Pass 1  IDiag  1:
 E= -388.526280308098    
 DIIS: error= 4.47D-02 at cycle   1 NSaved=   1.
 NSaved= 1 IEnMin= 1 EnMin= -388.526280308098     IErMin= 1 ErrMin= 4.47D-02
 ErrMax= 4.47D-02  0.00D+00 EMaxC= 1.00D-01 BMatC= 8.12D-01 BMatP= 8.12D-01
 IDIUse=3 WtCom= 5.53D-01 WtEn= 4.47D-01
 Coeff-Com:  0.100D+01
 Coeff-En:   0.100D+01
 Coeff:      0.100D+01
 Gap=     0.510 Goal=   None    Shift=    0.000
 GapD=    0.510 DampG=2.000 DampE=0.500 DampFc=1.0000 IDamp=-1.
 RMSDP=4.07D-03 MaxDP=1.15D-01              OVMax= 1.38D-01

 Cycle   2  Pass 1  IDiag  1:
 E= -389.059950375177     Delta-E=       -0.533670067079 Rises=F Damp=F
 DIIS: error= 1.26D-02 at cycle   2 NSaved=   2.
 NSaved= 2 IEnMin= 2 EnMin= -389.059950375177     IErMin= 2 ErrMin= 1.26D-02
 ErrMax= 1.26D-02  0.00D+00 EMaxC= 1.00D-01 BMatC= 9.61D-02 BMatP= 8.12D-01
 IDIUse=3 WtCom= 8.74D-01 WtEn= 1.26D-01
 Coeff-Com:  0.194D+00 0.806D+00
 Coeff-En:   0.000D+00 0.100D+01
 Coeff:      0.169D+00 0.831D+00
 Gap=     0.549 Goal=   None    Shift=    0.000
 RMSDP=1.87D-03 MaxDP=3.24D-02 DE=-5.34D-01 OVMax= 4.86D-02

 Cycle   3  Pass 1  IDiag  1:
 E= -389.146395587387     Delta-E=       -0.086445212209 Rises=F Damp=F
 DIIS: error= 2.61D-03 at cycle   3 NSaved=   3.
 NSaved= 3 IEnMin= 3 EnMin= -389.146395587387     IErMin= 3 ErrMin= 2.61D-03
 ErrMax= 2.61D-03  0.00D+00 EMaxC= 1.00D-01 BMatC= 4.05D-03 BMatP= 9.61D-02
 IDIUse=3 WtCom= 9.74D-01 WtEn= 2.61D-02
 Coeff-Com: -0.227D-01 0.119D+00 0.903D+00
 Coeff-En:   0.000D+00 0.000D+00 0.100D+01
 Coeff:     -0.221D-01 0.116D+00 0.906D+00
 Gap=     0.500 Goal=   None    Shift=    0.000
 RMSDP=3.01D-04 MaxDP=6.34D-03 DE=-8.64D-02 OVMax= 1.09D-02

 Cycle   4  Pass 1  IDiag  1:
 E= -389.150861068866     Delta-E=       -0.004465481479 Rises=F Damp=F
 DIIS: error= 6.31D-04 at cycle   4 NSaved=   4.
 NSaved= 4 IEnMin= 4 EnMin= -389.150861068866     IErMin= 4 ErrMin= 6.31D-04
 ErrMax= 6.31D-04  0.00D+00 EMaxC= 1.00D-01 BMatC= 1.51D-04 BMatP= 4.05D-03
 IDIUse=3 WtCom= 9.94D-01 WtEn= 6.31D-03
 Coeff-Com: -0.665D-02 0.577D-02 0.161D+00 0.840D+00
 Coeff-En:   0.000D+00 0.000D+00 0.000D+00 0.100D+01
 Coeff:     -0.661D-02 0.574D-02 0.160D+00 0.841D+00
 Gap=     0.500 Goal=   None    Shift=    0.000
 RMSDP=8.97D-05 MaxDP=2.27D-03 DE=-4.47D-03 OVMax= 3.61D-03

 Cycle   5  Pass 1  IDiag  1:
 E= -389.151042445893     Delta-E=       -0.000181377028 Rises=F Damp=F
 DIIS: error= 1.77D-04 at cycle   5 NSaved=   5.
 NSaved= 5 IEnMin= 5 EnMin= -389.151042445893     IErMin= 5 ErrMin= 1.77D-04
 ErrMax= 1.77D-04  0.00D+00 EMaxC= 1.00D-01 BMatC= 1.86D-05 BMatP= 1.51D-04
 IDIUse=3 WtCom= 9.98D-01 WtEn= 1.77D-03
 Coeff-Com:  0.172D-02-0.133D-01-0.787D-01 0.109D+00 0.981D+00
 Coeff-En:   0.000D+00 0.000D+00 0.000D+00 0.000D+00 0.100D+01
 Coeff:      0.171D-02-0.133D-01-0.786D-01 0.109D+00 0.981D+00
 Gap=     0.500 Goal=   None    Shift=    0.000
 RMSDP=3.40D-05 MaxDP=7.03D-04 DE=-1.81D-04 OVMax= 1.22D-03

 Cycle   6  Pass 1  IDiag  1:
 E= -389.151068451168     Delta-E=       -0.000026005275 Rises=F Damp=F
 DIIS: error= 7.76D-05 at cycle   6 NSaved=   6.
 NSaved= 6 IEnMin= 6 EnMin= -389.151068451168     IErMin= 6 ErrMin= 7.76D-05
 ErrMax= 7.76D-05  0.00D+00 EMaxC= 1.00D-01 BMatC= 1.13D-06 BMatP= 1.86D-05
 IDIUse=1 WtCom= 1.00D+00 WtEn= 0.00D+00
 Coeff-Com:  0.883D-03-0.397D-02-0.306D-01-0.294D-01 0.218D+00 0.845D+00
 Coeff:      0.883D-03-0.397D-02-0.306D-01-0.294D-01 0.218D+00 0.845D+00
 Gap=     0.500 Goal=   None    Shift=    0.000
 RMSDP=7.65D-06 MaxDP=2.47D-04 DE=-2.60D-05 OVMax= 4.74D-04

 Cycle   7  Pass 1  IDiag  1:
 E= -389.151070174030     Delta-E=       -0.000001722861 Rises=F Damp=F
 DIIS: error= 1.42D-05 at cycle   7 NSaved=   7.
 NSaved= 7 IEnMin= 7 EnMin= -389.151070174030     IErMin= 7 ErrMin= 1.42D-05
 ErrMax= 1.42D-05  0.00D+00 EMaxC= 1.00D-01 BMatC= 7.15D-08 BMatP= 1.13D-06
 IDIUse=1 WtCom= 1.00D+00 WtEn= 0.00D+00
 Coeff-Com:  0.129D-04 0.168D-03 0.709D-03-0.652D-02-0.378D-01 0.113D+00
 Coeff-Com:  0.930D+00
 Coeff:      0.129D-04 0.168D-03 0.709D-03-0.652D-02-0.378D-01 0.113D+00
 Coeff:      0.930D+00
 Gap=     0.500 Goal=   None    Shift=    0.000
 RMSDP=2.02D-06 MaxDP=6.32D-05 DE=-1.72D-06 OVMax= 1.09D-04

 Cycle   8  Pass 1  IDiag  1:
 E= -389.151070300906     Delta-E=       -0.000000126876 Rises=F Damp=F
 DIIS: error= 4.91D-06 at cycle   8 NSaved=   8.
 NSaved= 8 IEnMin= 8 EnMin= -389.151070300906     IErMin= 8 ErrMin= 4.91D-06
 ErrMax= 4.91D-06  0.00D+00 EMaxC= 1.00D-01 BMatC= 9.01D-09 BMatP= 7.15D-08
 IDIUse=1 WtCom= 1.00D+00 WtEn= 0.00D+00
 Coeff-Com: -0.837D-04 0.368D-03 0.297D-02 0.479D-02-0.262D-01-0.719D-01
 Coeff-Com: -0.693D-01 0.116D+01
 Coeff:     -0.837D-04 0.368D-03 0.297D-02 0.479D-02-0.262D-01-0.719D-01
 Coeff:     -0.693D-01 0.116D+01
 Gap=     0.500 Goal=   None    Shift=    0.000
 RMSDP=9.58D-07 MaxDP=2.60D-05 DE=-1.27D-07 OVMax= 7.44D-05

 Cycle   9  Pass 1  IDiag  1:
 E= -389.151070326991     Delta-E=       -0.000000026085 Rises=F Damp=F
 DIIS: error= 2.52D-06 at cycle   9 NSaved=   9.
 NSaved= 9 IEnMin= 9 EnMin= -389.151070326991     IErMin= 9 ErrMin= 2.52D-06
 ErrMax= 2.52D-06  0.00D+00 EMaxC= 1.00D-01 BMatC= 1.44D-09 BMatP= 9.01D-09
 IDIUse=1 WtCom= 1.00D+00 WtEn= 0.00D+00
 Coeff-Com: -0.250D-05-0.213D-04-0.869D-04 0.151D-02 0.234D-02-0.617D-02
 Coeff-Com: -0.124D+00-0.131D-01 0.114D+01
 Coeff:     -0.250D-05-0.213D-04-0.869D-04 0.151D-02 0.234D-02-0.617D-02
 Coeff:     -0.124D+00-0.131D-01 0.114D+01
 Gap=     0.500 Goal=   None    Shift=    0.000
 RMSDP=4.09D-07 MaxDP=1.12D-05 DE=-2.61D-08 OVMax= 3.87D-05

 Cycle  10  Pass 1  IDiag  1:
 E= -389.151070331732     Delta-E=       -0.000000004741 Rises=F Damp=F
 DIIS: error= 7.84D-07 at cycle  10 NSaved=  10.
 NSaved=10 IEnMin=10 EnMin= -389.151070331732     IErMin=10 ErrMin= 7.84D-07
 ErrMax= 7.84D-07  0.00D+00 EMaxC= 1.00D-01 BMatC= 2.79D-10 BMatP= 1.44D-09
 IDIUse=1 WtCom= 1.00D+00 WtEn= 0.00D+00
 Coeff-Com:  0.128D-04-0.634D-04-0.498D-03-0.409D-03 0.380D-02 0.135D-01
 Coeff-Com: -0.724D-02-0.214D+00 0.165D+00 0.104D+01
 Coeff:      0.128D-04-0.634D-04-0.498D-03-0.409D-03 0.380D-02 0.135D-01
 Coeff:     -0.724D-02-0.214D+00 0.165D+00 0.104D+01
 Gap=     0.500 Goal=   None    Shift=    0.000
 RMSDP=1.84D-07 MaxDP=4.31D-06 DE=-4.74D-09 OVMax= 1.38D-05

 Cycle  11  Pass 1  IDiag  1:
 E= -389.151070332435     Delta-E=       -0.000000000703 Rises=F Damp=F
 DIIS: error= 2.82D-07 at cycle  11 NSaved=  11.
 NSaved=11 IEnMin=11 EnMin= -389.151070332435     IErMin=11 ErrMin= 2.82D-07
 ErrMax= 2.82D-07  0.00D+00 EMaxC= 1.00D-01 BMatC= 1.87D-11 BMatP= 2.79D-10
 IDIUse=1 WtCom= 1.00D+00 WtEn= 0.00D+00
 Coeff-Com:  0.272D-05-0.900D-05-0.796D-04-0.237D-03 0.138D-03 0.398D-02
 Coeff-Com:  0.161D-01-0.341D-01-0.110D+00 0.175D+00 0.950D+00
 Coeff:      0.272D-05-0.900D-05-0.796D-04-0.237D-03 0.138D-03 0.398D-02
 Coeff:      0.161D-01-0.341D-01-0.110D+00 0.175D+00 0.950D+00
 Gap=     0.500 Goal=   None    Shift=    0.000
 RMSDP=4.11D-08 MaxDP=9.22D-07 DE=-7.03D-10 OVMax= 4.00D-06

 Cycle  12  Pass 1  IDiag  1:
 E= -389.151070332482     Delta-E=       -0.000000000047 Rises=F Damp=F
 DIIS: error= 4.10D-08 at cycle  12 NSaved=  12.
 NSaved=12 IEnMin=12 EnMin= -389.151070332482     IErMin=12 ErrMin= 4.10D-08
 ErrMax= 4.10D-08  0.00D+00 EMaxC= 1.00D-01 BMatC= 1.31D-12 BMatP= 1.87D-11
 IDIUse=1 WtCom= 1.00D+00 WtEn= 0.00D+00
 Coeff-Com: -0.115D-05 0.565D-05 0.451D-04 0.537D-04-0.352D-03-0.130D-02
 Coeff-Com: -0.643D-03 0.189D-01-0.601D-02-0.109D+00-0.602D-01 0.116D+01
 Coeff:     -0.115D-05 0.565D-05 0.451D-04 0.537D-04-0.352D-03-0.130D-02
 Coeff:     -0.643D-03 0.189D-01-0.601D-02-0.109D+00-0.602D-01 0.116D+01
 Gap=     0.500 Goal=   None    Shift=    0.000
 RMSDP=1.41D-08 MaxDP=3.29D-07 DE=-4.68D-11 OVMax= 9.60D-07

 Cycle  13  Pass 1  IDiag  1:
 E= -389.151070332485     Delta-E=       -0.000000000004 Rises=F Damp=F
 DIIS: error= 7.39D-09 at cycle  13 NSaved=  13.
 NSaved=13 IEnMin=13 EnMin= -389.151070332485     IErMin=13 ErrMin= 7.39D-09
 ErrMax= 7.39D-09  0.00D+00 EMaxC= 1.00D-01 BMatC= 5.32D-14 BMatP= 1.31D-12
 IDIUse=1 WtCom= 1.00D+00 WtEn= 0.00D+00
 Coeff-Com: -0.257D-06 0.108D-05 0.883D-05 0.191D-04-0.480D-04-0.334D-03
 Coeff-Com: -0.876D-03 0.381D-02 0.566D-02-0.204D-01-0.525D-01 0.132D+00
 Coeff-Com:  0.932D+00
 Coeff:     -0.257D-06 0.108D-05 0.883D-05 0.191D-04-0.480D-04-0.334D-03
 Coeff:     -0.876D-03 0.381D-02 0.566D-02-0.204D-01-0.525D-01 0.132D+00
 Coeff:      0.932D+00
 Gap=     0.500 Goal=   None    Shift=    0.000
 RMSDP=1.87D-09 MaxDP=5.35D-08 DE=-3.64D-12 OVMax= 7.66D-08

 SCF Done:  E(RHF) =  -389.151070332     A.U. after   13 cycles
            NFock= 13  Conv=0.19D-08     -V/T= 2.0014
 KE= 3.886163193138D+02 PE=-1.990493011877D+03 EE= 6.698534691885D+02
 Leave Link  502 at Fri Sep 17 20:10:23 2021, MaxMem=   524288000 cpu:              40.7 elap:              40.7
 (Enter /opt/gaussian/g16_legacy/l801.exe)
 ExpMin= 1.61D-01 ExpMax= 3.05D+03 ExpMxC= 4.57D+02 IAcc=3 IRadAn=         5 AccDes= 0.00D+00
 HarFok:  IExCor=  205 AccDes= 0.00D+00 IRadAn=         5 IDoV=-2 UseB2=F ITyADJ=14
 ICtDFT= 12500011 ScaDFX=  1.000000  1.000000  1.000000  1.000000
 Largest valence mixing into a core orbital is  1.98D-04
 Largest core mixing into a valence orbital is  3.59D-05
 Range of M.O.s used for correlation:    11   240
 NBasis=   240 NAE=    39 NBE=    39 NFC=    10 NFV=     0
 NROrb=    230 NOA=    29 NOB=    29 NVA=   201 NVB=   201
 Leave Link  801 at Fri Sep 17 20:10:25 2021, MaxMem=   524288000 cpu:               1.6 elap:               1.6
 (Enter /opt/gaussian/g16_legacy/l906.exe)
 Frozen-core derivative calculation, NFC=  10 NFV=   0.
 FulOut=F Deriv=T AODrv=T NAtomX=    28
   MMem=          82  MDisk=          29 MDiskD=          29
  W3Min=     2246400 MinDsk=     2795480 NBas6D=         240
 NBas2D=       29244    NTT=       28920    LW2=     2040000
    MDV=   523610905 MDiskM=       30185 NBas2p=       26284
 Fully direct method using O(ONN) memory.
 IMap=   1   2   3   4   5   6   7   8   9  10  11  12  13  14  15  16  17  18  19  20
 IMap=  21  22  23  24  25  26  27  28  29  30  31  32  33  34  35  36  37  38  39
 JobTyp=1 Pass  1:  I=  11 to  39 NPSUse=  1 ParTrn=F ParDer=F DoDerP=T.
 Spin components of T(2) and E(2):
     alpha-alpha T2 =       0.5767289479D-01 E2=     -0.1647686176D+00
     alpha-beta  T2 =       0.3633600470D+00 E2=     -0.1091876054D+01
     beta-beta   T2 =       0.5767289479D-01 E2=     -0.1647686176D+00
 The integrals were generated   1 times.
 ANorm=    0.1216020492D+01
 E2 =    -0.1421413290D+01 EUMP2 =    -0.39057248362207D+03
 Leave Link  906 at Fri Sep 17 20:15:34 2021, MaxMem=   524288000 cpu:             309.4 elap:             309.4
 (Enter /opt/gaussian/g16_legacy/l1002.exe)
 Minotr:  Closed shell wavefunction.
          Computing MP2/KS-MP2 derivatives.
          Using Z-Vector for PSCF gradient.
          Skipping F1 and S1 gradient terms here.
          IDoAtm=1111111111111111111111111111
          Frozen-core window.
          Direct CPHF calculation.
          Differentiating once with respect to electric field.
                with respect to dipole field.
          Differentiating once with respect to nuclear coordinates.
          Requested convergence is 1.0D-10 RMS, and 1.0D-09 maximum.
          NewPWx=F KeepS1=T KeepF1=T KeepIn=T MapXYZ=F SortEE=F KeepMc=T.
 Keep R1 ints in memory in canonical form, NReq=425201067.
 FoFCou: FMM=F IPFlag=           0 FMFlag=           0 FMFlg1=           0
         NFxFlg=           0 DoJE=F BraDBF=F KetDBF=F FulRan=T
         wScrn=  0.000000 ICntrl=       600 IOpCl=  0 I1Cent=           0 NGrid=           0
         NMat0=    1 NMatS0=  28920 NMatT0=    0 NMatD0=    1 NMtDS0=    0 NMtDT0=    0
 Symmetry not used in FoFCou.
 Two-electron integral symmetry not used.
          MDV=     524288000 using IRadAn=       5.
          Solving linear equations separately, MaxMat=       0.
          There are     1 degrees of freedom in the 1st order CPHF.  IDoFFX=0 NUNeed=     1.
 LinEq1:  Iter=  0 NonCon=     1 RMS=2.54D-03 Max=3.16D-02 NDo=     1
 AX will form     1 AO Fock derivatives at one time.
 LinEq1:  Iter=  1 NonCon=     1 RMS=6.95D-04 Max=7.71D-03 NDo=     1
 LinEq1:  Iter=  2 NonCon=     1 RMS=1.76D-04 Max=3.86D-03 NDo=     1
 LinEq1:  Iter=  3 NonCon=     1 RMS=4.78D-05 Max=7.05D-04 NDo=     1
 LinEq1:  Iter=  4 NonCon=     1 RMS=2.09D-05 Max=9.06D-04 NDo=     1
 LinEq1:  Iter=  5 NonCon=     1 RMS=6.31D-06 Max=1.13D-04 NDo=     1
 LinEq1:  Iter=  6 NonCon=     1 RMS=1.99D-06 Max=3.82D-05 NDo=     1
 LinEq1:  Iter=  7 NonCon=     1 RMS=5.09D-07 Max=8.66D-06 NDo=     1
 LinEq1:  Iter=  8 NonCon=     1 RMS=1.44D-07 Max=3.22D-06 NDo=     1
 LinEq1:  Iter=  9 NonCon=     1 RMS=4.32D-08 Max=9.90D-07 NDo=     1
 LinEq1:  Iter= 10 NonCon=     1 RMS=1.74D-08 Max=5.01D-07 NDo=     1
 LinEq1:  Iter= 11 NonCon=     1 RMS=4.55D-09 Max=7.56D-08 NDo=     1
 LinEq1:  Iter= 12 NonCon=     1 RMS=1.19D-09 Max=2.39D-08 NDo=     1
 LinEq1:  Iter= 13 NonCon=     1 RMS=3.18D-10 Max=3.32D-09 NDo=     1
 LinEq1:  Iter= 14 NonCon=     1 RMS=9.05D-11 Max=1.41D-09 NDo=     1
 LinEq1:  Iter= 15 NonCon=     0 RMS=2.15D-11 Max=3.07D-10 NDo=     1
 Linear equations converged to 1.000D-10 1.000D-09 after    15 iterations.
 End of Minotr F.D. properties file   721 does not exist.
 End of Minotr F.D. properties file   722 does not exist.
 End of Minotr F.D. properties file   788 does not exist.
 Leave Link 1002 at Fri Sep 17 20:16:11 2021, MaxMem=   524288000 cpu:              36.6 elap:              36.6
 (Enter /opt/gaussian/g16_legacy/l601.exe)
 Copying SCF densities to generalized density rwf, IOpCl= 0 IROHF=0.

 **********************************************************************

            Population analysis using the SCF density.

 **********************************************************************

 Orbital symmetries:
       Occupied  (A) (A) (A) (A) (A) (A) (A) (A) (A) (A) (A) (A)
                 (A) (A) (A) (A) (A) (A) (A) (A) (A) (A) (A) (A)
                 (A) (A) (A) (A) (A) (A) (A) (A) (A) (A) (A) (A)
                 (A) (A) (A)
       Virtual   (A) (A) (A) (A) (A) (A) (A) (A) (A) (A) (A) (A)
                 (A) (A) (A) (A) (A) (A) (A) (A) (A) (A) (A) (A)
                 (A) (A) (A) (A) (A) (A) (A) (A) (A) (A) (A) (A)
                 (A) (A) (A) (A) (A) (A) (A) (A) (A) (A) (A) (A)
                 (A) (A) (A) (A) (A) (A) (A) (A) (A) (A) (A) (A)
                 (A) (A) (A) (A) (A) (A) (A) (A) (A) (A) (A) (A)
                 (A) (A) (A) (A) (A) (A) (A) (A) (A) (A) (A) (A)
                 (A) (A) (A) (A) (A) (A) (A) (A) (A) (A) (A) (A)
                 (A) (A) (A) (A) (A) (A) (A) (A) (A) (A) (A) (A)
                 (A) (A) (A) (A) (A) (A) (A) (A) (A) (A) (A) (A)
                 (A) (A) (A) (A) (A) (A) (A) (A) (A) (A) (A) (A)
                 (A) (A) (A) (A) (A) (A) (A) (A) (A) (A) (A) (A)
                 (A) (A) (A) (A) (A) (A) (A) (A) (A) (A) (A) (A)
                 (A) (A) (A) (A) (A) (A) (A) (A) (A) (A) (A) (A)
                 (A) (A) (A) (A) (A) (A) (A) (A) (A) (A) (A) (A)
                 (A) (A) (A) (A) (A) (A) (A) (A) (A) (A) (A) (A)
                 (A) (A) (A) (A) (A) (A) (A) (A) (A)
 The electronic state is 1-A.
 Alpha  occ. eigenvalues --  -11.22757 -11.22300 -11.21939 -11.21867 -11.21544
 Alpha  occ. eigenvalues --  -11.21517 -11.21493 -11.21481 -11.21366 -11.21089
 Alpha  occ. eigenvalues --   -1.10521  -1.07774  -1.01960  -0.97377  -0.93389
 Alpha  occ. eigenvalues --   -0.91868  -0.87806  -0.81416  -0.69964  -0.69682
 Alpha  occ. eigenvalues --   -0.64030  -0.61145  -0.60906  -0.59101  -0.57447
 Alpha  occ. eigenvalues --   -0.56478  -0.55419  -0.54467  -0.53372  -0.53288
 Alpha  occ. eigenvalues --   -0.52202  -0.50700  -0.49709  -0.48986  -0.48304
 Alpha  occ. eigenvalues --   -0.44918  -0.44755  -0.32454  -0.31697
 Alpha virt. eigenvalues --    0.18324   0.19064   0.21715   0.24561   0.26014
 Alpha virt. eigenvalues --    0.27190   0.28519   0.28988   0.29648   0.30245
 Alpha virt. eigenvalues --    0.30965   0.32603   0.33930   0.34192   0.35218
 Alpha virt. eigenvalues --    0.36090   0.36577   0.38118   0.38975   0.40096
 Alpha virt. eigenvalues --    0.41274   0.42635   0.43100   0.43413   0.46137
 Alpha virt. eigenvalues --    0.51473   0.52123   0.61475   0.62521   0.67956
 Alpha virt. eigenvalues --    0.70448   0.71222   0.73048   0.74174   0.76655
 Alpha virt. eigenvalues --    0.77248   0.79212   0.81536   0.81855   0.83057
 Alpha virt. eigenvalues --    0.85533   0.86582   0.87465   0.90018   0.92201
 Alpha virt. eigenvalues --    0.93253   0.96029   0.97566   0.98041   1.00883
 Alpha virt. eigenvalues --    1.01524   1.02292   1.03032   1.04763   1.06798
 Alpha virt. eigenvalues --    1.08446   1.10218   1.11119   1.11529   1.12160
 Alpha virt. eigenvalues --    1.13577   1.14464   1.14820   1.15160   1.16169
 Alpha virt. eigenvalues --    1.17796   1.18047   1.18994   1.19753   1.20648
 Alpha virt. eigenvalues --    1.22302   1.24122   1.25895   1.26360   1.27131
 Alpha virt. eigenvalues --    1.29191   1.30548   1.40579   1.42220   1.45985
 Alpha virt. eigenvalues --    1.46906   1.47665   1.56017   1.56935   1.58831
 Alpha virt. eigenvalues --    1.62898   1.66710   1.68614   1.70438   1.73495
 Alpha virt. eigenvalues --    1.75501   1.77314   1.90403   1.93173   1.95721
 Alpha virt. eigenvalues --    1.98786   2.00118   2.03068   2.06900   2.08245
 Alpha virt. eigenvalues --    2.08496   2.10342   2.12583   2.14179   2.14971
 Alpha virt. eigenvalues --    2.16830   2.18693   2.20845   2.26868   2.28791
 Alpha virt. eigenvalues --    2.29781   2.30921   2.32572   2.34794   2.35365
 Alpha virt. eigenvalues --    2.35637   2.36309   2.37666   2.40169   2.41528
 Alpha virt. eigenvalues --    2.42366   2.43758   2.43854   2.44607   2.46072
 Alpha virt. eigenvalues --    2.46595   2.48983   2.50911   2.52040   2.54039
 Alpha virt. eigenvalues --    2.57409   2.58052   2.59446   2.62314   2.63958
 Alpha virt. eigenvalues --    2.66016   2.69051   2.70197   2.71930   2.74719
 Alpha virt. eigenvalues --    2.76230   2.77645   2.80254   2.83532   2.85080
 Alpha virt. eigenvalues --    2.86179   2.87386   2.91209   2.92362   2.94172
 Alpha virt. eigenvalues --    2.97108   2.98041   2.99435   3.01844   3.03584
 Alpha virt. eigenvalues --    3.05286   3.07101   3.10789   3.12346   3.13296
 Alpha virt. eigenvalues --    3.17115   3.18054   3.18968   3.19658   3.21892
 Alpha virt. eigenvalues --    3.24062   3.24824   3.26223   3.27168   3.38861
 Alpha virt. eigenvalues --    3.39328   3.43700   3.44877   3.55483   3.57174
 Alpha virt. eigenvalues --    3.61685   3.61877   3.66841   3.70019   3.79110
 Alpha virt. eigenvalues --    3.79489   3.81340   3.81956   3.82917   3.83339
 Alpha virt. eigenvalues --    3.85315   3.86483   3.87292   3.90414   3.91735
 Alpha virt. eigenvalues --    3.93611   4.56522   4.66139   4.75081   4.83373
 Alpha virt. eigenvalues --    4.90521   4.93508   4.95747   5.10033   5.11577
 Alpha virt. eigenvalues --    5.15566
          Condensed to atoms (all electrons):
               1          2          3          4          5          6
     1  C    4.983201   0.413335   0.409486   0.356887  -0.059288   0.003375
     2  H    0.413335   0.581282  -0.030647  -0.043819   0.003575  -0.000110
     3  H    0.409486  -0.030647   0.602753  -0.044596  -0.005475   0.000013
     4  C    0.356887  -0.043819  -0.044596   4.959058   0.345688  -0.038189
     5  C   -0.059288   0.003575  -0.005475   0.345688   4.905818   0.407576
     6  H    0.003375  -0.000110   0.000013  -0.038189   0.407576   0.569093
     7  H   -0.005721   0.000080   0.002842  -0.041966   0.403165  -0.029885
     8  H    0.000377  -0.000100  -0.000101  -0.045472   0.398022  -0.026788
     9  C   -0.046700  -0.002867   0.002690   0.694824  -0.046298  -0.002877
    10  H   -0.006432   0.002116   0.000187  -0.037469   0.003406   0.000049
    11  C    0.003091   0.000122  -0.000109  -0.048450  -0.007472  -0.001998
    12  H    0.000096   0.000003   0.000001  -0.000211  -0.001562  -0.000866
    13  H   -0.000103  -0.000014  -0.000002  -0.000244   0.000177  -0.000057
    14  H   -0.000111   0.000004   0.000008  -0.000811   0.000306   0.000121
    15  C   -0.000092  -0.000003   0.000002  -0.000094  -0.000001  -0.000000
    16  H   -0.000005   0.000002   0.000000  -0.000002   0.000000  -0.000000
    17  H    0.000036  -0.000001  -0.000000   0.000039   0.000000   0.000000
    18  H   -0.000006   0.000000   0.000000  -0.000000  -0.000000   0.000000
    19  C   -0.003035   0.000488  -0.000095  -0.001604   0.000137   0.000002
    20  C    0.000357  -0.000006   0.000011   0.000124  -0.000882   0.000016
    21  H   -0.000223  -0.000002   0.000016  -0.000362  -0.000585   0.000004
    22  H   -0.000037   0.000000   0.000001   0.000076   0.000008  -0.000000
    23  H    0.000285   0.000001  -0.000005   0.000923  -0.000041   0.000003
    24  C   -0.067547  -0.003711   0.005380  -0.002381  -0.000035  -0.000009
    25  H    0.000208   0.001505  -0.000106   0.000180   0.000004   0.000000
    26  C    0.328815  -0.039673  -0.045606  -0.065175   0.001887  -0.000050
    27  H   -0.044975  -0.002962  -0.003001   0.005403  -0.000177   0.000002
    28  H   -0.038675   0.004163  -0.002466  -0.004490   0.000830  -0.000015
               7          8          9         10         11         12
     1  C   -0.005721   0.000377  -0.046700  -0.006432   0.003091   0.000096
     2  H    0.000080  -0.000100  -0.002867   0.002116   0.000122   0.000003
     3  H    0.002842  -0.000101   0.002690   0.000187  -0.000109   0.000001
     4  C   -0.041966  -0.045472   0.694824  -0.037469  -0.048450  -0.000211
     5  C    0.403165   0.398022  -0.046298   0.003406  -0.007472  -0.001562
     6  H   -0.029885  -0.026788  -0.002877   0.000049  -0.001998  -0.000866
     7  H    0.586970  -0.033548   0.002055  -0.000100   0.000145  -0.000002
     8  H   -0.033548   0.589431  -0.003084  -0.000144   0.000570  -0.000129
     9  C    0.002055  -0.003084   4.927294   0.405392   0.340137  -0.042031
    10  H   -0.000100  -0.000144   0.405392   0.558206  -0.044155   0.003392
    11  C    0.000145   0.000570   0.340137  -0.044155   4.905119   0.407217
    12  H   -0.000002  -0.000129  -0.042031   0.003392   0.407217   0.575691
    13  H   -0.000015   0.000118  -0.044570  -0.002514   0.402797  -0.029668
    14  H    0.000026  -0.000056  -0.043725  -0.000500   0.399437  -0.027348
    15  C   -0.000000   0.000003  -0.000074   0.000036  -0.000038   0.000001
    16  H   -0.000000  -0.000000  -0.000006   0.000007   0.000000  -0.000000
    17  H    0.000000  -0.000002   0.000067  -0.000027   0.000014  -0.000001
    18  H   -0.000000   0.000000   0.000002   0.000001   0.000000  -0.000000
    19  C   -0.000013   0.000256  -0.000477   0.000187   0.000000  -0.000019
    20  C    0.000028  -0.000709  -0.000122   0.000004  -0.000063  -0.000003
    21  H    0.000012   0.000319  -0.000001   0.000002  -0.000000   0.000000
    22  H   -0.000000  -0.000009   0.000058   0.000001  -0.000005  -0.000000
    23  H    0.000015  -0.000482   0.000211  -0.000026   0.000049   0.000148
    24  C    0.000017   0.000050   0.001639   0.001050  -0.000121  -0.000001
    25  H    0.000000  -0.000004   0.000055   0.000139  -0.000002  -0.000000
    26  C   -0.000316   0.001076  -0.007052  -0.000037  -0.000062  -0.000005
    27  H   -0.000016   0.000003   0.000016  -0.000012   0.000002   0.000000
    28  H    0.000215  -0.000795   0.000409   0.000015   0.000003  -0.000000
              13         14         15         16         17         18
     1  C   -0.000103  -0.000111  -0.000092  -0.000005   0.000036  -0.000006
     2  H   -0.000014   0.000004  -0.000003   0.000002  -0.000001   0.000000
     3  H   -0.000002   0.000008   0.000002   0.000000  -0.000000   0.000000
     4  C   -0.000244  -0.000811  -0.000094  -0.000002   0.000039  -0.000000
     5  C    0.000177   0.000306  -0.000001   0.000000   0.000000  -0.000000
     6  H   -0.000057   0.000121  -0.000000  -0.000000   0.000000   0.000000
     7  H   -0.000015   0.000026  -0.000000  -0.000000   0.000000  -0.000000
     8  H    0.000118  -0.000056   0.000003  -0.000000  -0.000002   0.000000
     9  C   -0.044570  -0.043725  -0.000074  -0.000006   0.000067   0.000002
    10  H   -0.002514  -0.000500   0.000036   0.000007  -0.000027   0.000001
    11  C    0.402797   0.399437  -0.000038   0.000000   0.000014   0.000000
    12  H   -0.029668  -0.027348   0.000001  -0.000000  -0.000001  -0.000000
    13  H    0.589471  -0.033810   0.000033  -0.000001   0.000208  -0.000000
    14  H   -0.033810   0.587017   0.000000  -0.000000   0.000000  -0.000000
    15  C    0.000033   0.000000   4.903613   0.404847   0.399544   0.396230
    16  H   -0.000001  -0.000000   0.404847   0.570154  -0.027504  -0.027677
    17  H    0.000208   0.000000   0.399544  -0.027504   0.594610  -0.035396
    18  H   -0.000000  -0.000000   0.396230  -0.027677  -0.035396   0.596542
    19  C    0.000088  -0.000002   0.354123  -0.040436  -0.046789  -0.043471
    20  C   -0.000011   0.000004  -0.064829   0.003765  -0.000529  -0.002916
    21  H    0.000002  -0.000000   0.003665  -0.000112  -0.000033  -0.000050
    22  H   -0.000005   0.000000  -0.005075   0.000047  -0.000564   0.003044
    23  H   -0.000077   0.000011  -0.000239  -0.000093   0.002102  -0.000324
    24  C    0.000027  -0.000001  -0.044300  -0.002385  -0.002210   0.000207
    25  H   -0.000001   0.000000  -0.006636   0.002296   0.000140   0.000216
    26  C    0.000036  -0.000007   0.003256   0.000127  -0.000088  -0.000126
    27  H   -0.000000   0.000000  -0.000107  -0.000008  -0.000002   0.000008
    28  H   -0.000000   0.000000   0.000051   0.000006  -0.000007   0.000008
              19         20         21         22         23         24
     1  C   -0.003035   0.000357  -0.000223  -0.000037   0.000285  -0.067547
     2  H    0.000488  -0.000006  -0.000002   0.000000   0.000001  -0.003711
     3  H   -0.000095   0.000011   0.000016   0.000001  -0.000005   0.005380
     4  C   -0.001604   0.000124  -0.000362   0.000076   0.000923  -0.002381
     5  C    0.000137  -0.000882  -0.000585   0.000008  -0.000041  -0.000035
     6  H    0.000002   0.000016   0.000004  -0.000000   0.000003  -0.000009
     7  H   -0.000013   0.000028   0.000012  -0.000000   0.000015   0.000017
     8  H    0.000256  -0.000709   0.000319  -0.000009  -0.000482   0.000050
     9  C   -0.000477  -0.000122  -0.000001   0.000058   0.000211   0.001639
    10  H    0.000187   0.000004   0.000002   0.000001  -0.000026   0.001050
    11  C    0.000000  -0.000063  -0.000000  -0.000005   0.000049  -0.000121
    12  H   -0.000019  -0.000003   0.000000  -0.000000   0.000148  -0.000001
    13  H    0.000088  -0.000011   0.000002  -0.000005  -0.000077   0.000027
    14  H   -0.000002   0.000004  -0.000000   0.000000   0.000011  -0.000001
    15  C    0.354123  -0.064829   0.003665  -0.005075  -0.000239  -0.044300
    16  H   -0.040436   0.003765  -0.000112   0.000047  -0.000093  -0.002385
    17  H   -0.046789  -0.000529  -0.000033  -0.000564   0.002102  -0.002210
    18  H   -0.043471  -0.002916  -0.000050   0.003044  -0.000324   0.000207
    19  C    4.904427   0.349550  -0.036905  -0.043682  -0.042530   0.694967
    20  C    0.349550   4.909458   0.405349   0.401080   0.398493  -0.043139
    21  H   -0.036905   0.405349   0.574891  -0.030083  -0.026991  -0.002793
    22  H   -0.043682   0.401080  -0.030083   0.593682  -0.033055   0.001945
    23  H   -0.042530   0.398493  -0.026991  -0.033055   0.575430  -0.003047
    24  C    0.694967  -0.043139  -0.002793   0.001945  -0.003047   4.959704
    25  H   -0.036828   0.003428   0.000044  -0.000105  -0.000135   0.403381
    26  C   -0.047628  -0.008466  -0.001670   0.000071   0.000539   0.346942
    27  H    0.001518   0.000221   0.000044   0.000012  -0.000023  -0.044330
    28  H    0.000594  -0.001944  -0.000425   0.000083  -0.000243  -0.044920
              25         26         27         28
     1  C    0.000208   0.328815  -0.044975  -0.038675
     2  H    0.001505  -0.039673  -0.002962   0.004163
     3  H   -0.000106  -0.045606  -0.003001  -0.002466
     4  C    0.000180  -0.065175   0.005403  -0.004490
     5  C    0.000004   0.001887  -0.000177   0.000830
     6  H    0.000000  -0.000050   0.000002  -0.000015
     7  H    0.000000  -0.000316  -0.000016   0.000215
     8  H   -0.000004   0.001076   0.000003  -0.000795
     9  C    0.000055  -0.007052   0.000016   0.000409
    10  H    0.000139  -0.000037  -0.000012   0.000015
    11  C   -0.000002  -0.000062   0.000002   0.000003
    12  H   -0.000000  -0.000005   0.000000  -0.000000
    13  H   -0.000001   0.000036  -0.000000  -0.000000
    14  H    0.000000  -0.000007   0.000000   0.000000
    15  C   -0.006636   0.003256  -0.000107   0.000051
    16  H    0.002296   0.000127  -0.000008   0.000006
    17  H    0.000140  -0.000088  -0.000002  -0.000007
    18  H    0.000216  -0.000126   0.000008   0.000008
    19  C   -0.036828  -0.047628   0.001518   0.000594
    20  C    0.003428  -0.008466   0.000221  -0.001944
    21  H    0.000044  -0.001670   0.000044  -0.000425
    22  H   -0.000105   0.000071   0.000012   0.000083
    23  H   -0.000135   0.000539  -0.000023  -0.000243
    24  C    0.403381   0.346942  -0.044330  -0.044920
    25  H    0.561462  -0.042813  -0.003833   0.003399
    26  C   -0.042813   4.990374   0.412500   0.412468
    27  H   -0.003833   0.412500   0.594137  -0.029974
    28  H    0.003399   0.412468  -0.029974   0.586666
 Mulliken charges:
               1
     1  C   -0.226601
     2  H    0.117240
     3  H    0.108820
     4  C    0.012133
     5  C   -0.348783
     6  H    0.120592
     7  H    0.116011
     8  H    0.121196
     9  C   -0.134964
    10  H    0.117228
    11  C   -0.356228
    12  H    0.115298
    13  H    0.118135
    14  H    0.119436
    15  C   -0.343917
    16  H    0.116978
    17  H    0.116392
    18  H    0.113708
    19  C    0.037177
    20  C   -0.348269
    21  H    0.115887
    22  H    0.112514
    23  H    0.129106
    24  C   -0.154379
    25  H    0.114007
    26  C   -0.239318
    27  H    0.115556
    28  H    0.115044
 Sum of Mulliken charges =  -0.00000
 Mulliken charges with hydrogens summed into heavy atoms:
               1
     1  C   -0.000541
     4  C    0.012133
     5  C    0.009016
     9  C   -0.017736
    11  C   -0.003358
    15  C    0.003160
    19  C    0.037177
    20  C    0.009237
    24  C   -0.040372
    26  C   -0.008718
 Electronic spatial extent (au):  <R**2>=           1809.0996
 Charge=             -0.0000 electrons
 Dipole moment (field-independent basis, Debye):
    X=             -0.0189    Y=              0.2069    Z=              0.2647  Tot=              0.3365
 Quadrupole moment (field-independent basis, Debye-Ang):
   XX=            -67.1756   YY=            -64.5079   ZZ=            -64.1402
   XY=              1.1337   XZ=             -1.2362   YZ=              0.2075
 Traceless Quadrupole moment (field-independent basis, Debye-Ang):
   XX=             -1.9010   YY=              0.7667   ZZ=              1.1344
   XY=              1.1337   XZ=             -1.2362   YZ=              0.2075
 Octapole moment (field-independent basis, Debye-Ang**2):
  XXX=              0.9078  YYY=             -0.4385  ZZZ=             -2.7626  XYY=             -3.5514
  XXY=              4.2302  XXZ=              3.6485  XZZ=              2.7926  YZZ=             -0.6510
  YYZ=             -1.1539  XYZ=              1.6389
 Hexadecapole moment (field-independent basis, Debye-Ang**3):
 XXXX=          -1368.0599 YYYY=           -774.1153 ZZZZ=           -403.2185 XXXY=              9.7136
 XXXZ=             -6.4082 YYYX=              3.3098 YYYZ=              0.7514 ZZZX=             -2.5886
 ZZZY=             -0.0075 XXYY=           -355.7646 XXZZ=           -290.1260 YYZZ=           -194.8773
 XXYZ=              2.6345 YYXZ=             -1.5252 ZZXY=             -4.4948
 N-N= 5.428721530420D+02 E-N=-1.990493011256D+03  KE= 3.886163193138D+02
 No NMR shielding tensors so no spin-rotation constants.
 Leave Link  601 at Fri Sep 17 20:16:11 2021, MaxMem=   524288000 cpu:               0.3 elap:               0.3
 (Enter /opt/gaussian/g16_legacy/l701.exe)
 ... and contract with generalized density number  2.
 Compute integral first derivatives.
 Leave Link  701 at Fri Sep 17 20:16:11 2021, MaxMem=   524288000 cpu:               0.3 elap:               0.3
 (Enter /opt/gaussian/g16_legacy/l702.exe)
 L702 exits ... SP integral derivatives will be done elsewhere.
 Leave Link  702 at Fri Sep 17 20:16:12 2021, MaxMem=   524288000 cpu:               0.0 elap:               0.1
 (Enter /opt/gaussian/g16_legacy/l703.exe)
 Integral derivatives from FoFJK, PRISM(SPDF).
 Compute integral first derivatives, UseDBF=F ICtDFT=           0.
 Calling FoFJK, ICntrl=  10002127 FMM=F ISym2X=0 I1Cent= 0 IOpClX= 0 NMat=1 NMatS=1 NMatT=0.
 FoFJK:  IHMeth= 1 ICntrl=10002127 DoSepK=F KAlg= 0 I1Cent=           0 FoldK=F
 IRaf=         0 NMat=       1 IRICut=       1 DoRegI=T DoRafI=F ISym2E= 0 IDoP0=0 IntGTp=1.
 FoFCou: FMM=F IPFlag=           0 FMFlag=      100000 FMFlg1=         800
         NFxFlg=           0 DoJE=F BraDBF=F KetDBF=F FulRan=T
         wScrn=  0.000000 ICntrl=  10002127 IOpCl=  0 I1Cent=           0 NGrid=           0
         NMat0=    1 NMatS0=      1 NMatT0=    0 NMatD0=    1 NMtDS0=    0 NMtDT0=    0
 Symmetry not used in FoFCou.
 Leave Link  703 at Fri Sep 17 20:16:52 2021, MaxMem=   524288000 cpu:              40.9 elap:              40.8
 (Enter /opt/gaussian/g16_legacy/l716.exe)
 Dipole        =-1.38176849D-02 8.87777684D-02 9.05885119D-02
 ***** Axes restored to original set *****
 -------------------------------------------------------------------
 Center     Atomic                   Forces (Hartrees/Bohr)
 Number     Number              X              Y              Z
 -------------------------------------------------------------------
      1        6           0.006160081   -0.003957578   -0.004881796
      2        1           0.001927616    0.002402054    0.003554317
      3        1          -0.000070372    0.000849648    0.001763278
      4        6          -0.007756138   -0.004354785   -0.003478153
      5        6           0.003732351    0.000945129   -0.000888700
      6        1          -0.003102483   -0.000058915    0.002945382
      7        1          -0.000885317   -0.000494054    0.003540720
      8        1           0.000726389    0.001245005   -0.002617138
      9        6          -0.003994441    0.001719391    0.004717370
     10        1          -0.001032452    0.002883910   -0.002513775
     11        6           0.003166588    0.000497398   -0.000567996
     12        1          -0.002010732   -0.002112164   -0.001210822
     13        1           0.001517713   -0.000803166   -0.002938934
     14        1           0.001573900    0.001018964    0.002988789
     15        6          -0.004256428   -0.002271355    0.001095377
     16        1           0.002184477    0.003668879   -0.001370763
     17        1          -0.000807443    0.001467898    0.002421979
     18        1           0.002838781   -0.001898965   -0.001162779
     19        6          -0.002189140   -0.002819138   -0.002472110
     20        6          -0.001970194    0.003328183   -0.000752301
     21        1           0.000906522   -0.003488280   -0.000400311
     22        1           0.001503839   -0.002369391   -0.001266644
     23        1          -0.001049680    0.001389819    0.001132655
     24        6           0.002254142    0.003428729   -0.004784354
     25        1           0.002207432    0.000956557    0.001757135
     26        6          -0.006382645    0.000770296    0.006527458
     27        1           0.002550345    0.000186529   -0.001405597
     28        1           0.002257288   -0.002130599    0.000267712
 -------------------------------------------------------------------
 Cartesian Forces:  Max     0.007756138 RMS     0.002740472
 Leave Link  716 at Fri Sep 17 20:16:52 2021, MaxMem=   524288000 cpu:               0.1 elap:               0.1
 (Enter /opt/gaussian/g16_legacy/l103.exe)

 GradGradGradGradGradGradGradGradGradGradGradGradGradGradGradGradGradGrad
 Berny optimization.
 FormGI is forming the generalized inverse of G from B-inverse, IUseBI=4.
 Internal  Forces:  Max     0.007961421 RMS     0.001877518
 Search for a local minimum.
 Step number   1 out of a maximum of  138
 All quantities printed in internal units (Hartrees-Bohrs-Radians)
 RMS Force = .18775D-02 SwitMx=.10000D-02 MixMth= 1
 Mixed Optimization -- RFO/linear search
 Second derivative matrix not updated -- first step.
 ITU=  0
     Eigenvalues ---    0.00244   0.00489   0.00650   0.00701   0.00707
     Eigenvalues ---    0.00708   0.00835   0.01206   0.01290   0.01544
     Eigenvalues ---    0.01663   0.02770   0.02784   0.03885   0.03975
     Eigenvalues ---    0.05310   0.05391   0.06984   0.07019   0.07026
     Eigenvalues ---    0.07094   0.07278   0.07321   0.07325   0.07538
     Eigenvalues ---    0.09345   0.09425   0.12854   0.12907   0.15965
     Eigenvalues ---    0.15977   0.16000   0.16000   0.16000   0.16000
     Eigenvalues ---    0.16000   0.16000   0.16000   0.16000   0.16000
     Eigenvalues ---    0.16000   0.16000   0.16000   0.21890   0.21904
     Eigenvalues ---    0.22007   0.22012   0.24956   0.24978   0.24987
     Eigenvalues ---    0.24993   0.28567   0.30276   0.31476   0.31868
     Eigenvalues ---    0.31911   0.31922   0.32935   0.33863   0.33943
     Eigenvalues ---    0.34084   0.34173   0.34179   0.34194   0.34235
     Eigenvalues ---    0.34261   0.34318   0.34332   0.34351   0.34372
     Eigenvalues ---    0.34410   0.34434   0.34608   0.34632   0.34816
     Eigenvalues ---    0.34827   0.55335   0.55563
 RFO step:  Lambda=-3.13977416D-03 EMin= 2.43985341D-03
 Linear search not attempted -- first point.
 Iteration  1 RMS(Cart)=  0.07135816 RMS(Int)=  0.00129730
 Iteration  2 RMS(Cart)=  0.00203980 RMS(Int)=  0.00015755
 Iteration  3 RMS(Cart)=  0.00000159 RMS(Int)=  0.00015754
 Iteration  4 RMS(Cart)=  0.00000000 RMS(Int)=  0.00015754
 ITry= 1 IFail=0 DXMaxC= 2.37D-01 DCOld= 1.00D+10 DXMaxT= 3.00D-01 DXLimC= 3.00D+00 Rises=F
 Variable       Old X    -DE/DX   Delta X   Delta X   Delta X     New X
                                 (Linear)    (Quad)   (Total)
    R1        2.07561  -0.00332   0.00000  -0.00971  -0.00971   2.06591
    R2        2.07188  -0.00108   0.00000  -0.00315  -0.00315   2.06873
    R3        2.87417  -0.00796   0.00000  -0.02603  -0.02603   2.84814
    R4        2.90916  -0.00025   0.00000  -0.00085  -0.00085   2.90830
    R5        2.84288   0.00095   0.00000   0.00295   0.00295   2.84583
    R6        2.54635  -0.00274   0.00000  -0.00490  -0.00490   2.54145
    R7        2.06604  -0.00344   0.00000  -0.00990  -0.00990   2.05614
    R8        2.06935  -0.00289   0.00000  -0.00838  -0.00838   2.06097
    R9        2.06643  -0.00116   0.00000  -0.00335  -0.00335   2.06308
   R10        2.05957  -0.00232   0.00000  -0.00661  -0.00661   2.05296
   R11        2.82467   0.00367   0.00000   0.01103   0.01103   2.83570
   R12        2.06277  -0.00272   0.00000  -0.00777  -0.00777   2.05499
   R13        2.07005  -0.00256   0.00000  -0.00741  -0.00741   2.06263
   R14        2.06742  -0.00157   0.00000  -0.00454  -0.00454   2.06288
   R15        2.07039  -0.00412   0.00000  -0.01196  -0.01196   2.05843
   R16        2.06774  -0.00119   0.00000  -0.00344  -0.00344   2.06429
   R17        2.07030  -0.00244   0.00000  -0.00707  -0.00707   2.06322
   R18        2.84306   0.00015   0.00000   0.00046   0.00046   2.84352
   R19        2.84386  -0.00134   0.00000  -0.00416  -0.00416   2.83970
   R20        2.54835  -0.00448   0.00000  -0.00804  -0.00804   2.54031
   R21        2.06317  -0.00253   0.00000  -0.00724  -0.00724   2.05593
   R22        2.06892  -0.00214   0.00000  -0.00618  -0.00618   2.06275
   R23        2.06797  -0.00159   0.00000  -0.00459  -0.00459   2.06338
   R24        2.05974  -0.00193   0.00000  -0.00549  -0.00549   2.05426
   R25        2.85113  -0.00549   0.00000  -0.01727  -0.01727   2.83386
   R26        2.07426  -0.00213   0.00000  -0.00623  -0.00623   2.06803
   R27        2.06707  -0.00148   0.00000  -0.00428  -0.00428   2.06279
    A1        1.83972   0.00119   0.00000   0.02557   0.02557   1.86529
    A2        1.92318   0.00039   0.00000  -0.00344  -0.00363   1.91955
    A3        1.90750   0.00006   0.00000  -0.00579  -0.00591   1.90159
    A4        1.90710   0.00119   0.00000   0.00723   0.00715   1.91426
    A5        1.90602  -0.00034   0.00000  -0.00472  -0.00470   1.90132
    A6        1.97534  -0.00225   0.00000  -0.01588  -0.01600   1.95934
    A7        2.01558   0.00110   0.00000   0.00415   0.00403   2.01960
    A8        2.09322   0.00019   0.00000   0.00052   0.00039   2.09361
    A9        2.17398  -0.00131   0.00000  -0.00544  -0.00556   2.16842
   A10        1.96759  -0.00124   0.00000  -0.00518  -0.00517   1.96242
   A11        1.92839  -0.00118   0.00000  -0.00671  -0.00668   1.92171
   A12        1.92871   0.00346   0.00000   0.01829   0.01832   1.94704
   A13        1.85548   0.00227   0.00000   0.01952   0.01952   1.87500
   A14        1.89166  -0.00140   0.00000  -0.00943  -0.00941   1.88225
   A15        1.88893  -0.00205   0.00000  -0.01735  -0.01731   1.87162
   A16        2.06320  -0.00256   0.00000  -0.01462  -0.01532   2.04788
   A17        2.23355  -0.00114   0.00000  -0.00397  -0.00466   2.22888
   A18        1.98296   0.00380   0.00000   0.02397   0.02328   2.00625
   A19        1.98362  -0.00267   0.00000  -0.01615  -0.01607   1.96755
   A20        1.90311   0.00208   0.00000   0.01361   0.01356   1.91667
   A21        1.92162   0.00406   0.00000   0.02383   0.02380   1.94542
   A22        1.87090   0.00057   0.00000   0.00552   0.00558   1.87648
   A23        1.89513  -0.00113   0.00000  -0.00838  -0.00829   1.88684
   A24        1.88658  -0.00311   0.00000  -0.01960  -0.01974   1.86684
   A25        1.87890   0.00082   0.00000   0.00703   0.00706   1.88596
   A26        1.87935   0.00092   0.00000   0.00922   0.00925   1.88861
   A27        1.96151  -0.00267   0.00000  -0.01347  -0.01343   1.94808
   A28        1.89345  -0.00299   0.00000  -0.02409  -0.02408   1.86937
   A29        1.91915   0.00172   0.00000   0.00865   0.00867   1.92782
   A30        1.92937   0.00209   0.00000   0.01184   0.01186   1.94123
   A31        1.99478   0.00186   0.00000   0.00755   0.00752   2.00229
   A32        2.10815   0.00089   0.00000   0.00376   0.00373   2.11188
   A33        2.17894  -0.00274   0.00000  -0.01059  -0.01063   2.16831
   A34        1.97630  -0.00183   0.00000  -0.00920  -0.00920   1.96709
   A35        1.92574  -0.00010   0.00000   0.00142   0.00142   1.92716
   A36        1.92035   0.00142   0.00000   0.00466   0.00466   1.92501
   A37        1.85988   0.00232   0.00000   0.02172   0.02173   1.88161
   A38        1.89032  -0.00041   0.00000  -0.00604  -0.00605   1.88428
   A39        1.88829  -0.00141   0.00000  -0.01267  -0.01267   1.87562
   A40        2.06689  -0.00214   0.00000  -0.01319  -0.01321   2.05368
   A41        2.22292  -0.00038   0.00000  -0.00158  -0.00159   2.22132
   A42        1.99120   0.00254   0.00000   0.01545   0.01543   2.00663
   A43        1.95977  -0.00207   0.00000  -0.01318  -0.01339   1.94638
   A44        1.89680  -0.00039   0.00000   0.00088   0.00098   1.89777
   A45        1.92567  -0.00035   0.00000  -0.01544  -0.01574   1.90993
   A46        1.87987   0.00216   0.00000   0.02494   0.02498   1.90486
   A47        1.95524   0.00025   0.00000  -0.00933  -0.00974   1.94550
   A48        1.84114   0.00062   0.00000   0.01550   0.01553   1.85667
    D1        2.71962   0.00175   0.00000   0.07463   0.07466   2.79428
    D2       -0.45144   0.00131   0.00000   0.04683   0.04678  -0.40466
    D3        0.70606  -0.00058   0.00000   0.04163   0.04163   0.74769
[...]
                 (A) (A) (A) (A) (A) (A) (A) (A) (A) (A) (A) (A)
                 (A) (A) (A) (A) (A) (A) (A) (A) (A) (A) (A) (A)
                 (A) (A) (A) (A) (A) (A) (A) (A) (A) (A) (A) (A)
                 (A) (A) (A) (A) (A) (A) (A) (A) (A) (A) (A) (A)
                 (A) (A) (A) (A) (A) (A) (A) (A) (A) (A) (A) (A)
                 (A) (A) (A) (A) (A) (A) (A) (A) (A) (A) (A) (A)
                 (A) (A) (A) (A) (A) (A) (A) (A) (A) (A) (A) (A)
                 (A) (A) (A) (A) (A) (A) (A) (A) (A) (A) (A) (A)
                 (A) (A) (A) (A) (A) (A) (A) (A) (A) (A) (A) (A)
                 (A) (A) (A) (A) (A) (A) (A) (A) (A) (A) (A) (A)
                 (A) (A) (A) (A) (A) (A) (A) (A) (A) (A) (A) (A)
                 (A) (A) (A) (A) (A) (A) (A) (A) (A) (A) (A) (A)
                 (A) (A) (A) (A) (A) (A) (A) (A) (A) (A) (A) (A)
                 (A) (A) (A) (A) (A) (A) (A) (A) (A) (A) (A) (A)
                 (A) (A) (A) (A) (A) (A) (A) (A) (A)
 The electronic state is 1-A.
 Alpha  occ. eigenvalues --  -11.22626 -11.22229 -11.21802 -11.21706 -11.21514
 Alpha  occ. eigenvalues --  -11.21420 -11.21336 -11.21298 -11.21196 -11.20891
 Alpha  occ. eigenvalues --   -1.10824  -1.07879  -1.01979  -0.97445  -0.93451
 Alpha  occ. eigenvalues --   -0.92061  -0.87983  -0.81604  -0.70067  -0.69690
 Alpha  occ. eigenvalues --   -0.64338  -0.61481  -0.61144  -0.58909  -0.57496
 Alpha  occ. eigenvalues --   -0.56690  -0.55228  -0.54097  -0.53583  -0.52879
 Alpha  occ. eigenvalues --   -0.52490  -0.50693  -0.50022  -0.49312  -0.48324
 Alpha  occ. eigenvalues --   -0.45208  -0.44966  -0.32245  -0.31883
 Alpha virt. eigenvalues --    0.18612   0.19273   0.22030   0.24539   0.26232
 Alpha virt. eigenvalues --    0.27090   0.28545   0.29151   0.30256   0.30285
 Alpha virt. eigenvalues --    0.31371   0.33022   0.33347   0.34445   0.34975
 Alpha virt. eigenvalues --    0.36753   0.36980   0.39418   0.39625   0.40410
 Alpha virt. eigenvalues --    0.41012   0.41850   0.43452   0.43893   0.45949
 Alpha virt. eigenvalues --    0.51939   0.52396   0.62152   0.63361   0.66272
 Alpha virt. eigenvalues --    0.70362   0.71017   0.73832   0.74153   0.75723
 Alpha virt. eigenvalues --    0.77241   0.79748   0.81779   0.83046   0.83224
 Alpha virt. eigenvalues --    0.86799   0.87279   0.88482   0.89326   0.92442
 Alpha virt. eigenvalues --    0.93105   0.95083   0.96962   0.97845   1.00091
 Alpha virt. eigenvalues --    1.01724   1.02655   1.03595   1.05412   1.07040
 Alpha virt. eigenvalues --    1.08625   1.10128   1.11255   1.11574   1.12671
 Alpha virt. eigenvalues --    1.13459   1.14788   1.15282   1.15989   1.16370
 Alpha virt. eigenvalues --    1.18089   1.18178   1.19461   1.20070   1.21340
 Alpha virt. eigenvalues --    1.22708   1.23769   1.26050   1.26761   1.27592
 Alpha virt. eigenvalues --    1.29174   1.32369   1.41598   1.41867   1.46466
 Alpha virt. eigenvalues --    1.47482   1.51113   1.55581   1.58368   1.60173
 Alpha virt. eigenvalues --    1.62895   1.67050   1.68060   1.70642   1.73942
 Alpha virt. eigenvalues --    1.75586   1.78621   1.90872   1.92152   1.96366
 Alpha virt. eigenvalues --    1.99266   2.01833   2.04279   2.07383   2.07637
 Alpha virt. eigenvalues --    2.08994   2.09389   2.11965   2.14687   2.15763
 Alpha virt. eigenvalues --    2.17550   2.17904   2.20620   2.27076   2.28635
 Alpha virt. eigenvalues --    2.30243   2.31719   2.33738   2.35249   2.35740
 Alpha virt. eigenvalues --    2.36009   2.36254   2.38239   2.40360   2.42222
 Alpha virt. eigenvalues --    2.43674   2.44009   2.44301   2.45321   2.46829
 Alpha virt. eigenvalues --    2.47548   2.49460   2.51047   2.53026   2.54248
 Alpha virt. eigenvalues --    2.58122   2.59510   2.60631   2.63703   2.65131
 Alpha virt. eigenvalues --    2.67757   2.69814   2.71374   2.72929   2.73187
 Alpha virt. eigenvalues --    2.76088   2.77694   2.80114   2.82626   2.84597
 Alpha virt. eigenvalues --    2.86566   2.87822   2.91249   2.92696   2.95179
 Alpha virt. eigenvalues --    2.97564   2.98941   3.00436   3.02037   3.04231
 Alpha virt. eigenvalues --    3.06302   3.07812   3.11829   3.13811   3.14438
 Alpha virt. eigenvalues --    3.18294   3.19049   3.19846   3.20144   3.21526
 Alpha virt. eigenvalues --    3.25074   3.25633   3.26828   3.28366   3.39401
 Alpha virt. eigenvalues --    3.40358   3.44698   3.46273   3.56437   3.57875
 Alpha virt. eigenvalues --    3.62976   3.63425   3.68131   3.70775   3.79655
 Alpha virt. eigenvalues --    3.80894   3.82195   3.82856   3.83928   3.84609
 Alpha virt. eigenvalues --    3.85167   3.86776   3.88290   3.90851   3.92171
 Alpha virt. eigenvalues --    3.95183   4.57234   4.66518   4.74749   4.84000
 Alpha virt. eigenvalues --    4.90734   4.94578   4.95463   5.11732   5.12351
 Alpha virt. eigenvalues --    5.16026
          Condensed to atoms (all electrons):
               1          2          3          4          5          6
     1  C    4.992474   0.414165   0.412122   0.354202  -0.060209   0.003846
     2  H    0.414165   0.578183  -0.028595  -0.044418   0.003660  -0.000110
     3  H    0.412122  -0.028595   0.598764  -0.047493  -0.003573   0.000058
     4  C    0.354202  -0.044418  -0.047493   4.952389   0.349348  -0.038920
     5  C   -0.060209   0.003660  -0.003573   0.349348   4.896475   0.407172
     6  H    0.003846  -0.000110   0.000058  -0.038920   0.407172   0.572209
     7  H   -0.002765  -0.000081   0.002380  -0.041284   0.399968  -0.027232
     8  H   -0.002990   0.000015  -0.000600  -0.045408   0.402489  -0.028696
     9  C   -0.048529  -0.003083   0.002166   0.699300  -0.043707  -0.002861
    10  H   -0.007166   0.002274   0.000147  -0.039211   0.003577   0.000037
    11  C    0.003110   0.000128  -0.000101  -0.046625  -0.008125  -0.002157
    12  H    0.000087   0.000006  -0.000001   0.000277  -0.002074  -0.001307
    13  H   -0.000097  -0.000012  -0.000002  -0.000839   0.000295   0.000048
    14  H   -0.000103   0.000003   0.000009  -0.000609   0.000232  -0.000055
    15  C   -0.000098  -0.000008   0.000002  -0.000083   0.000000   0.000000
    16  H   -0.000003   0.000003   0.000000  -0.000002   0.000000  -0.000000
    17  H    0.000031  -0.000000  -0.000000   0.000028   0.000000  -0.000000
    18  H   -0.000007   0.000000   0.000000  -0.000000  -0.000000   0.000000
    19  C   -0.003224   0.000672  -0.000098  -0.001570   0.000128   0.000005
    20  C    0.000322  -0.000006   0.000007   0.000484  -0.000595   0.000042
    21  H   -0.000328  -0.000008   0.000020  -0.001253  -0.000660   0.000017
    22  H   -0.000053   0.000000   0.000001   0.000142  -0.000010  -0.000001
    23  H    0.000213   0.000001  -0.000004   0.000467   0.000125   0.000004
    24  C   -0.068424  -0.004513   0.005499  -0.002931   0.000168  -0.000007
    25  H   -0.000024   0.001503  -0.000095   0.000213  -0.000003   0.000000
    26  C    0.327498  -0.040893  -0.045705  -0.062581  -0.001396  -0.000081
    27  H   -0.044284  -0.001871  -0.003659   0.005350  -0.000086   0.000003
    28  H   -0.040984   0.004275  -0.001520  -0.004968  -0.000133  -0.000070
               7          8          9         10         11         12
     1  C   -0.002765  -0.002990  -0.048529  -0.007166   0.003110   0.000087
     2  H   -0.000081   0.000015  -0.003083   0.002274   0.000128   0.000006
     3  H    0.002380  -0.000600   0.002166   0.000147  -0.000101  -0.000001
     4  C   -0.041284  -0.045408   0.699300  -0.039211  -0.046625   0.000277
     5  C    0.399968   0.402489  -0.043707   0.003577  -0.008125  -0.002074
     6  H   -0.027232  -0.028696  -0.002861   0.000037  -0.002157  -0.001307
     7  H    0.583767  -0.036288  -0.001106  -0.000117   0.000349  -0.000056
     8  H   -0.036288   0.599869   0.000783  -0.000122   0.000209  -0.000032
     9  C   -0.001106   0.000783   4.921099   0.405486   0.342152  -0.043779
    10  H   -0.000117  -0.000122   0.405486   0.556594  -0.041804   0.003334
    11  C    0.000349   0.000209   0.342152  -0.041804   4.897377   0.407860
    12  H   -0.000056  -0.000032  -0.043779   0.003334   0.407860   0.577663
    13  H   -0.000033   0.000043  -0.043139  -0.001332   0.400417  -0.028520
    14  H    0.000067  -0.000021  -0.041669  -0.001158   0.401665  -0.028315
    15  C    0.000000   0.000000  -0.000060   0.000035  -0.000020   0.000000
    16  H   -0.000000   0.000000  -0.000004   0.000004   0.000000  -0.000000
    17  H    0.000000  -0.000000   0.000047  -0.000025   0.000006  -0.000000
    18  H   -0.000000   0.000000   0.000002   0.000002   0.000000  -0.000000
    19  C   -0.000008   0.000172  -0.000683   0.000409   0.000024  -0.000009
    20  C    0.000028  -0.000649   0.000056  -0.000013  -0.000099   0.000001
    21  H    0.000020  -0.000089  -0.000181   0.000003   0.000021  -0.000002
    22  H    0.000000  -0.000009   0.000120   0.000002  -0.000007  -0.000000
    23  H    0.000003  -0.000071  -0.000480  -0.000063   0.000162   0.000032
    24  C    0.000002   0.000011   0.001403   0.001322  -0.000079  -0.000001
    25  H    0.000000  -0.000003   0.000064   0.000103  -0.000001  -0.000000
    26  C   -0.000090   0.001123  -0.005348   0.000050  -0.000086  -0.000003
    27  H   -0.000003  -0.000039  -0.000017  -0.000011   0.000002   0.000000
    28  H    0.000067  -0.000340   0.000574   0.000035   0.000001   0.000001
              13         14         15         16         17         18
     1  C   -0.000097  -0.000103  -0.000098  -0.000003   0.000031  -0.000007
     2  H   -0.000012   0.000003  -0.000008   0.000003  -0.000000   0.000000
     3  H   -0.000002   0.000009   0.000002   0.000000  -0.000000   0.000000
     4  C   -0.000839  -0.000609  -0.000083  -0.000002   0.000028  -0.000000
     5  C    0.000295   0.000232   0.000000   0.000000   0.000000  -0.000000
     6  H    0.000048  -0.000055   0.000000  -0.000000  -0.000000   0.000000
     7  H   -0.000033   0.000067   0.000000  -0.000000   0.000000  -0.000000
     8  H    0.000043  -0.000021   0.000000   0.000000  -0.000000   0.000000
     9  C   -0.043139  -0.041669  -0.000060  -0.000004   0.000047   0.000002
    10  H   -0.001332  -0.001158   0.000035   0.000004  -0.000025   0.000002
    11  C    0.400417   0.401665  -0.000020   0.000000   0.000006   0.000000
    12  H   -0.028520  -0.028315   0.000000  -0.000000  -0.000000  -0.000000
    13  H    0.592061  -0.036349   0.000015  -0.000001   0.000088  -0.000000
    14  H   -0.036349   0.586341  -0.000000  -0.000000   0.000000  -0.000000
    15  C    0.000015  -0.000000   4.902397   0.405660   0.398424   0.397440
    16  H   -0.000001  -0.000000   0.405660   0.568269  -0.026922  -0.026635
    17  H    0.000088   0.000000   0.398424  -0.026922   0.597501  -0.038239
    18  H   -0.000000  -0.000000   0.397440  -0.026635  -0.038239   0.595688
    19  C    0.000079  -0.000004   0.354843  -0.041541  -0.044818  -0.043336
    20  C   -0.000118   0.000008  -0.065315   0.003809  -0.001622  -0.001494
    21  H    0.000006  -0.000000   0.003829  -0.000116  -0.000056  -0.000049
    22  H   -0.000010   0.000000  -0.003239  -0.000024  -0.000496   0.002857
    23  H    0.000144   0.000008  -0.001895  -0.000054   0.002633  -0.000429
    24  C    0.000019  -0.000002  -0.043758  -0.002588  -0.000938  -0.001022
    25  H   -0.000000   0.000000  -0.007232   0.002422   0.000167   0.000214
    26  C    0.000032  -0.000006   0.003273   0.000137  -0.000082  -0.000127
    27  H   -0.000000   0.000000  -0.000100  -0.000009  -0.000002   0.000009
    28  H   -0.000000   0.000000   0.000042   0.000007  -0.000005   0.000008
              19         20         21         22         23         24
     1  C   -0.003224   0.000322  -0.000328  -0.000053   0.000213  -0.068424
     2  H    0.000672  -0.000006  -0.000008   0.000000   0.000001  -0.004513
     3  H   -0.000098   0.000007   0.000020   0.000001  -0.000004   0.005499
     4  C   -0.001570   0.000484  -0.001253   0.000142   0.000467  -0.002931
     5  C    0.000128  -0.000595  -0.000660  -0.000010   0.000125   0.000168
     6  H    0.000005   0.000042   0.000017  -0.000001   0.000004  -0.000007
     7  H   -0.000008   0.000028   0.000020   0.000000   0.000003   0.000002
     8  H    0.000172  -0.000649  -0.000089  -0.000009  -0.000071   0.000011
     9  C   -0.000683   0.000056  -0.000181   0.000120  -0.000480   0.001403
    10  H    0.000409  -0.000013   0.000003   0.000002  -0.000063   0.001322
    11  C    0.000024  -0.000099   0.000021  -0.000007   0.000162  -0.000079
    12  H   -0.000009   0.000001  -0.000002  -0.000000   0.000032  -0.000001
    13  H    0.000079  -0.000118   0.000006  -0.000010   0.000144   0.000019
    14  H   -0.000004   0.000008  -0.000000   0.000000   0.000008  -0.000002
    15  C    0.354843  -0.065315   0.003829  -0.003239  -0.001895  -0.043758
    16  H   -0.041541   0.003809  -0.000116  -0.000024  -0.000054  -0.002588
    17  H   -0.044818  -0.001622  -0.000056  -0.000496   0.002633  -0.000938
    18  H   -0.043336  -0.001494  -0.000049   0.002857  -0.000429  -0.001022
    19  C    4.896839   0.353295  -0.037629  -0.044319  -0.042515   0.697241
    20  C    0.353295   4.896460   0.407710   0.398591   0.400364  -0.043504
    21  H   -0.037629   0.407710   0.574844  -0.027804  -0.027855  -0.003118
    22  H   -0.044319   0.398591  -0.027804   0.596721  -0.035821   0.000549
    23  H   -0.042515   0.400364  -0.027855  -0.035821   0.583510  -0.001049
    24  C    0.697241  -0.043504  -0.003118   0.000549  -0.001049   4.963607
    25  H   -0.038661   0.003604   0.000042  -0.000120  -0.000129   0.404576
    26  C   -0.048730  -0.007939  -0.001883   0.000111   0.000382   0.345435
    27  H    0.001731   0.000193   0.000057   0.000018  -0.000015  -0.042370
    28  H    0.000370  -0.002206  -0.001649   0.000121  -0.000129  -0.045997
              25         26         27         28
     1  C   -0.000024   0.327498  -0.044284  -0.040984
     2  H    0.001503  -0.040893  -0.001871   0.004275
     3  H   -0.000095  -0.045705  -0.003659  -0.001520
     4  C    0.000213  -0.062581   0.005350  -0.004968
     5  C   -0.000003  -0.001396  -0.000086  -0.000133
     6  H    0.000000  -0.000081   0.000003  -0.000070
     7  H    0.000000  -0.000090  -0.000003   0.000067
     8  H   -0.000003   0.001123  -0.000039  -0.000340
     9  C    0.000064  -0.005348  -0.000017   0.000574
    10  H    0.000103   0.000050  -0.000011   0.000035
    11  C   -0.000001  -0.000086   0.000002   0.000001
    12  H   -0.000000  -0.000003   0.000000   0.000001
    13  H   -0.000000   0.000032  -0.000000  -0.000000
    14  H    0.000000  -0.000006   0.000000   0.000000
    15  C   -0.007232   0.003273  -0.000100   0.000042
    16  H    0.002422   0.000137  -0.000009   0.000007
    17  H    0.000167  -0.000082  -0.000002  -0.000005
    18  H    0.000214  -0.000127   0.000009   0.000008
    19  C   -0.038661  -0.048730   0.001731   0.000370
    20  C    0.003604  -0.007939   0.000193  -0.002206
    21  H    0.000042  -0.001883   0.000057  -0.001649
    22  H   -0.000120   0.000111   0.000018   0.000121
    23  H   -0.000129   0.000382  -0.000015  -0.000129
    24  C    0.404576   0.345435  -0.042370  -0.045997
    25  H    0.562521  -0.041750  -0.003783   0.003400
    26  C   -0.041750   4.990249   0.413752   0.414874
    27  H   -0.003783   0.413752   0.586646  -0.029278
    28  H    0.003400   0.414874  -0.029278   0.589371
 Mulliken charges:
               1
     1  C   -0.228781
     2  H    0.118712
     3  H    0.110271
     4  C    0.015995
     5  C   -0.343069
     6  H    0.118055
     7  H    0.122412
     8  H    0.110640
     9  C   -0.138606
    10  H    0.117608
    11  C   -0.354378
    12  H    0.114839
    13  H    0.117204
    14  H    0.119959
    15  C   -0.344150
    16  H    0.117587
    17  H    0.114280
    18  H    0.115118
    19  C    0.041337
    20  C   -0.341414
    21  H    0.116110
    22  H    0.112679
    23  H    0.122462
    24  C   -0.159531
    25  H    0.112973
    26  C   -0.240217
    27  H    0.117767
    28  H    0.114136
 Sum of Mulliken charges =  -0.00000
 Mulliken charges with hydrogens summed into heavy atoms:
               1
     1  C    0.000202
     4  C    0.015995
     5  C    0.008038
     9  C   -0.020998
    11  C   -0.002376
    15  C    0.002834
    19  C    0.041337
    20  C    0.009838
    24  C   -0.046558
    26  C   -0.008314
 Electronic spatial extent (au):  <R**2>=           1811.5369
 Charge=              0.0000 electrons
 Dipole moment (field-independent basis, Debye):
    X=             -0.0951    Y=              0.1725    Z=              0.2137  Tot=              0.2906
 Quadrupole moment (field-independent basis, Debye-Ang):
   XX=            -66.7205   YY=            -64.1857   ZZ=            -64.4608
   XY=              1.1310   XZ=             -1.4477   YZ=              0.3370
 Traceless Quadrupole moment (field-independent basis, Debye-Ang):
   XX=             -1.5982   YY=              0.9366   ZZ=              0.6615
   XY=              1.1310   XZ=             -1.4477   YZ=              0.3370
 Octapole moment (field-independent basis, Debye-Ang**2):
  XXX=              0.3555  YYY=              0.2594  ZZZ=             -2.2803  XYY=             -3.0759
  XXY=              3.6050  XXZ=              2.8339  XZZ=              2.4842  YZZ=             -0.4035
  YYZ=             -1.3902  XYZ=              2.1448
 Hexadecapole moment (field-independent basis, Debye-Ang**3):
 XXXX=          -1391.2372 YYYY=           -764.9949 ZZZZ=           -382.6039 XXXY=             11.2069
 XXXZ=             -6.7555 YYYX=              2.1051 YYYZ=              1.3582 ZZZX=             -3.0318
 ZZZY=             -0.4870 XXYY=           -359.4925 XXZZ=           -291.0549 YYZZ=           -191.1698
 XXYZ=              4.4936 YYXZ=             -1.5125 ZZXY=             -5.1182
 N-N= 5.442148806635D+02 E-N=-1.993290013945D+03  KE= 3.887531710750D+02
 No NMR shielding tensors so no spin-rotation constants.
 Leave Link  601 at Fri Sep 17 22:10:38 2021, MaxMem=   524288000 cpu:               0.4 elap:               0.7
 (Enter /opt/gaussian/g16_legacy/l9999.exe)
 1\1\GINC-TRUENO91\FOpt\RMP2-FC\6-31G(d,p)\C10H18\JRAMOS\17-Sep-2021\0\
 \#p opt mp2/6-31g(d,p)\\Conformer number 036. Energy MM = 25.902 kcal/
 mol\\0,1\C,2.1449636772,1.1659345435,-8.9685859682\H,1.8417407784,0.11
 85905841,-9.0392890366\H,1.8658569851,1.6449966761,-9.9123944541\C,3.6
 357738052,1.2598966446,-8.7726354874\C,4.2478784395,2.5735801359,-9.17
 64975347\H,5.2863830959,2.6731143967,-8.871290331\H,4.2007261964,2.696
 235486,-10.2609447597\H,3.6936959607,3.4071596604,-8.7408412979\C,4.31
 38175551,0.2219365802,-8.2467769857\H,3.7399436439,-0.6699160694,-8.01
 14587059\C,5.7762909306,0.1369418908,-7.933027753\H,6.3166990471,1.043
 4001191,-8.194025176\H,5.930048321,-0.0503213274,-6.8681891905\H,6.239
 3843904,-0.6927954233,-8.470271578\C,2.3677445786,0.3234302142,-4.3459
 587736\H,1.6320092636,-0.4737660516,-4.4418369025\H,3.3543290853,-0.13
 28816179,-4.2354592202\H,2.1654342634,0.867427404,-3.4204844168\C,2.33
 93388282,1.2486487074,-5.5312010795\C,3.3350076475,2.372369636,-5.4737
 532791\H,3.2523320468,3.0539736902,-6.315658546\H,3.209602717,2.946159
 67,-4.5526086484\H,4.3515547055,1.9730383285,-5.4676216181\C,1.4764958
 33,1.0440791571,-6.5441766161\H,0.8209316022,0.179355773,-6.4724867067
 \C,1.3578051505,1.8290491991,-7.8149282897\H,0.3044725423,1.8901200792
 ,-8.1011814544\H,1.7002389097,2.8565419135,-7.6831161902\\Version=EM64
 L-G16RevA.03\State=1-A\HF=-389.1534363\MP2=-390.5747509\RMSD=4.472e-09
 \RMSF=2.307e-06\Dipole=0.1027782,0.0435654,0.0085365\PG=C01 [X(C10H18)
 ]\\@


 ALL MEN WHO EXPLORE
 DEPLORE
 THAT FRUSTRATING HURDLE
 THE GIRDLE.

         -- COLIN FLETCHER
 Job cpu time:       0 days  2 hours  1 minutes  3.3 seconds.
 Elapsed time:       0 days  2 hours  1 minutes  6.8 seconds.
 File lengths (MBytes):  RWF=     32 Int=      0 D2E=      0 Chk=      7 Scr=      1
 Normal termination of Gaussian 16 at Fri Sep 17 22:10:38 2021.
