 Entering Gaussian System, Link 0=/opt/gaussian/g16_legacy/g16
 Input=02-IsoP_033_gaussian.com
 Output=02-IsoP_033_gaussian.log
 Initial command:
 /opt/gaussian/g16_legacy/l1.exe "/scratch-local/jramos/2661523/Gau-12060.inp" -scrdir="/scratch-local/jramos/2661523/"
 Entering Link 1 = /opt/gaussian/g16_legacy/l1.exe PID=     12074.
  
 Copyright (c) 1988,1990,1992,1993,1995,1998,2003,2009,2016,
            Gaussian, Inc.  All Rights Reserved.
  
 This is part of the Gaussian(R) 16 program.  It is based on
 the Gaussian(R) 09 system (copyright 2009, Gaussian, Inc.),
 the Gaussian(R) 03 system (copyright 2003, Gaussian, Inc.),
 the Gaussian(R) 98 system (copyright 1998, Gaussian, Inc.),
 the Gaussian(R) 94 system (copyright 1995, Gaussian, Inc.),
 the Gaussian 92(TM) system (copyright 1992, Gaussian, Inc.),
 the Gaussian 90(TM) system (copyright 1990, Gaussian, Inc.),
 the Gaussian 88(TM) system (copyright 1988, Gaussian, Inc.),
 the Gaussian 86(TM) system (copyright 1986, Carnegie Mellon
 University), and the Gaussian 82(TM) system (copyright 1983,
 Carnegie Mellon University). Gaussian is a federally registered
 trademark of Gaussian, Inc.
  
 This software contains proprietary and confidential information,
 including trade secrets, belonging to Gaussian, Inc.
  
 This software is provided under written license and may be
 used, copied, transmitted, or stored only in accord with that
 written license.
  
 The following legend is applicable only to US Government
 contracts under FAR:
  
                    RESTRICTED RIGHTS LEGEND
  
 Use, reproduction and disclosure by the US Government is
 subject to restrictions as set forth in subparagraphs (a)
 and (c) of the Commercial Computer Software - Restricted
 Rights clause in FAR 52.227-19.
  
 Gaussian, Inc.
 340 Quinnipiac St., Bldg. 40, Wallingford CT 06492
  
  
 ---------------------------------------------------------------
 Warning -- This program may not be used in any manner that
 competes with the business of Gaussian, Inc. or will provide
 assistance to any competitor of Gaussian, Inc.  The licensee
 of this program is prohibited from giving any competitor of
 Gaussian, Inc. access to this program.  By using this program,
 the user acknowledges that Gaussian, Inc. is engaged in the
 business of creating and licensing software in the field of
 computational chemistry and represents and warrants to the
 licensee that it is not a competitor of Gaussian, Inc. and that
 it will not use this program in any manner prohibited above.
 ---------------------------------------------------------------
  

 Cite this work as:
 Gaussian 16, Revision A.03,
 M. J. Frisch, G. W. Trucks, H. B. Schlegel, G. E. Scuseria, 
 M. A. Robb, J. R. Cheeseman, G. Scalmani, V. Barone, 
 G. A. Petersson, H. Nakatsuji, X. Li, M. Caricato, A. V. Marenich, 
 J. Bloino, B. G. Janesko, R. Gomperts, B. Mennucci, H. P. Hratchian, 
 J. V. Ortiz, A. F. Izmaylov, J. L. Sonnenberg, D. Williams-Young, 
 F. Ding, F. Lipparini, F. Egidi, J. Goings, B. Peng, A. Petrone, 
 T. Henderson, D. Ranasinghe, V. G. Zakrzewski, J. Gao, N. Rega, 
 G. Zheng, W. Liang, M. Hada, M. Ehara, K. Toyota, R. Fukuda, 
 J. Hasegawa, M. Ishida, T. Nakajima, Y. Honda, O. Kitao, H. Nakai, 
 T. Vreven, K. Throssell, J. A. Montgomery, Jr., J. E. Peralta, 
 F. Ogliaro, M. J. Bearpark, J. J. Heyd, E. N. Brothers, K. N. Kudin, 
 V. N. Staroverov, T. A. Keith, R. Kobayashi, J. Normand, 
 K. Raghavachari, A. P. Rendell, J. C. Burant, S. S. Iyengar, 
 J. Tomasi, M. Cossi, J. M. Millam, M. Klene, C. Adamo, R. Cammi, 
 J. W. Ochterski, R. L. Martin, K. Morokuma, O. Farkas, 
 J. B. Foresman, and D. J. Fox, Gaussian, Inc., Wallingford CT, 2016.
 
 ******************************************
 Gaussian 16:  EM64L-G16RevA.03 25-Dec-2016
                17-Sep-2021 
 ******************************************
 %chk=02-IsoP_033_gaussian.chk
 %nproc=1
 Will use up to    1 processors via shared memory.
 %mem=4000Mb
 ---------------------
 #p opt mp2/6-31g(d,p)
 ---------------------
 1/18=20,19=15,38=1/1,3;
 2/9=110,12=2,17=6,18=5,40=1/2;
 3/5=1,6=6,7=101,11=9,25=1,30=1,71=1/1,2,3;
 4//1;
 5/5=2,38=5/2;
 8/6=4,10=2/1;
 9/15=2,16=-3/6;
 10/5=1/2;
 6/7=2,8=2,9=2,10=2/1;
 7/12=2/1,2,3,16;
 1/18=20,19=15/3(2);
 2/9=110/2;
 99//99;
 2/9=110/2;
 3/5=1,6=6,7=101,11=9,25=1,30=1,71=1/1,2,3;
 4/5=5,16=3,69=1/1;
 5/5=2,38=5/2;
 8/6=4,10=2/1;
 9/15=2,16=-3/6;
 10/5=1/2;
 7/12=2/1,2,3,16;
 1/18=20,19=15/3(-8);
 2/9=110/2;
 6/7=2,8=2,9=2,10=2/1;
 99//99;
 Leave Link    1 at Fri Sep 17 20:09:28 2021, MaxMem=   524288000 cpu:               0.0 elap:               0.3
 (Enter /opt/gaussian/g16_legacy/l101.exe)
 -------------------------------------------------
 Conformer number 033. Energy MM = 28.138 kcal/mol
 -------------------------------------------------
 Symbolic Z-matrix:
 Charge =  0 Multiplicity = 1
 C                     2.2025    1.2726   -8.9543 
 H                     1.8878    0.2605   -9.2414 
 H                     2.1238    1.8874   -9.8613 
 C                     3.679     1.2072   -8.5703 
 C                     4.5714    0.7716   -9.7053 
 H                     5.4726    0.2604   -9.3539 
 H                     4.0515    0.0565   -10.3541 
 H                     4.8633    1.6346   -10.3132 
 C                     4.1573    1.525    -7.3496 
 H                     3.4657    1.7954   -6.5582 
 C                     5.5829    1.6339   -6.9161 
 H                     6.302     1.3694   -7.695 
 H                     5.7902    2.6648   -6.6129 
 H                     5.7592    0.984    -6.054 
 C                     1.817     5.0855   -5.8976 
 H                     2.1613    5.6267   -6.784 
 H                     0.9852    5.6454   -5.4599 
 H                     2.6441    5.0727   -5.1822 
 C                     1.39      3.6783   -6.2157 
 C                     0.9626    2.8606   -5.0276 
 H                     1.2308    1.8062   -5.1196 
 H                     1.4476    3.22     -4.1125 
 H                    -0.1198    2.9395   -4.8894 
 C                     1.439     3.2133   -7.4817 
 H                     1.7486    3.8961   -8.2748 
 C                     1.1666    1.8033   -7.9397 
 H                     1.1065    1.0993   -7.1043 
 H                     0.1822    1.7918   -8.424 
 
 ITRead=  0  0  0  0  0  0  0  0  0  0  0  0  0  0  0  0  0  0  0  0
 ITRead=  0  0  0  0  0  0  0  0
 MicOpt= -1 -1 -1 -1 -1 -1 -1 -1 -1 -1 -1 -1 -1 -1 -1 -1 -1 -1 -1 -1
 MicOpt= -1 -1 -1 -1 -1 -1 -1 -1
 NAtoms=     28 NQM=       28 NQMF=       0 NMMI=      0 NMMIF=      0
                NMic=       0 NMicF=      0.
                    Isotopes and Nuclear Properties:
 (Nuclear quadrupole moments (NQMom) in fm**2, nuclear magnetic moments (NMagM)
  in nuclear magnetons)

  Atom         1           2           3           4           5           6           7           8           9          10
 IAtWgt=          12           1           1          12          12           1           1           1          12           1
 AtmWgt=  12.0000000   1.0078250   1.0078250  12.0000000  12.0000000   1.0078250   1.0078250   1.0078250  12.0000000   1.0078250
 NucSpn=           0           1           1           0           0           1           1           1           0           1
 AtZEff=  -0.0000000  -0.0000000  -0.0000000  -0.0000000  -0.0000000  -0.0000000  -0.0000000  -0.0000000  -0.0000000  -0.0000000
 NQMom=    0.0000000   0.0000000   0.0000000   0.0000000   0.0000000   0.0000000   0.0000000   0.0000000   0.0000000   0.0000000
 NMagM=    0.0000000   2.7928460   2.7928460   0.0000000   0.0000000   2.7928460   2.7928460   2.7928460   0.0000000   2.7928460
 AtZNuc=   6.0000000   1.0000000   1.0000000   6.0000000   6.0000000   1.0000000   1.0000000   1.0000000   6.0000000   1.0000000

  Atom        11          12          13          14          15          16          17          18          19          20
 IAtWgt=          12           1           1           1          12           1           1           1          12          12
 AtmWgt=  12.0000000   1.0078250   1.0078250   1.0078250  12.0000000   1.0078250   1.0078250   1.0078250  12.0000000  12.0000000
 NucSpn=           0           1           1           1           0           1           1           1           0           0
 AtZEff=  -0.0000000  -0.0000000  -0.0000000  -0.0000000  -0.0000000  -0.0000000  -0.0000000  -0.0000000  -0.0000000  -0.0000000
 NQMom=    0.0000000   0.0000000   0.0000000   0.0000000   0.0000000   0.0000000   0.0000000   0.0000000   0.0000000   0.0000000
 NMagM=    0.0000000   2.7928460   2.7928460   2.7928460   0.0000000   2.7928460   2.7928460   2.7928460   0.0000000   0.0000000
 AtZNuc=   6.0000000   1.0000000   1.0000000   1.0000000   6.0000000   1.0000000   1.0000000   1.0000000   6.0000000   6.0000000

  Atom        21          22          23          24          25          26          27          28
 IAtWgt=           1           1           1          12           1          12           1           1
 AtmWgt=   1.0078250   1.0078250   1.0078250  12.0000000   1.0078250  12.0000000   1.0078250   1.0078250
 NucSpn=           1           1           1           0           1           0           1           1
 AtZEff=  -0.0000000  -0.0000000  -0.0000000  -0.0000000  -0.0000000  -0.0000000  -0.0000000  -0.0000000
 NQMom=    0.0000000   0.0000000   0.0000000   0.0000000   0.0000000   0.0000000   0.0000000   0.0000000
 NMagM=    2.7928460   2.7928460   2.7928460   0.0000000   2.7928460   0.0000000   2.7928460   2.7928460
 AtZNuc=   1.0000000   1.0000000   1.0000000   6.0000000   1.0000000   6.0000000   1.0000000   1.0000000
 Leave Link  101 at Fri Sep 17 20:09:28 2021, MaxMem=   524288000 cpu:               0.3 elap:               0.4
 (Enter /opt/gaussian/g16_legacy/l103.exe)

 GradGradGradGradGradGradGradGradGradGradGradGradGradGradGradGradGradGrad
 Berny optimization.
 Initialization pass.
                           ----------------------------
                           !    Initial Parameters    !
                           ! (Angstroms and Degrees)  !
 --------------------------                            --------------------------
 ! Name  Definition              Value          Derivative Info.                !
 --------------------------------------------------------------------------------
 ! R1    R(1,2)                  1.0981         estimate D2E/DX2                !
 ! R2    R(1,3)                  1.0986         estimate D2E/DX2                !
 ! R3    R(1,4)                  1.527          estimate D2E/DX2                !
 ! R4    R(1,26)                 1.5441         estimate D2E/DX2                !
 ! R5    R(4,5)                  1.5081         estimate D2E/DX2                !
 ! R6    R(4,9)                  1.349          estimate D2E/DX2                !
 ! R7    R(5,6)                  1.0941         estimate D2E/DX2                !
 ! R8    R(5,7)                  1.0966         estimate D2E/DX2                !
 ! R9    R(5,8)                  1.0952         estimate D2E/DX2                !
 ! R10   R(9,10)                 1.0852         estimate D2E/DX2                !
 ! R11   R(9,11)                 1.494          estimate D2E/DX2                !
 ! R12   R(11,12)                1.0926         estimate D2E/DX2                !
 ! R13   R(11,13)                1.0944         estimate D2E/DX2                !
 ! R14   R(11,14)                1.0939         estimate D2E/DX2                !
 ! R15   R(15,16)                1.0941         estimate D2E/DX2                !
 ! R16   R(15,17)                1.0941         estimate D2E/DX2                !
 ! R17   R(15,18)                1.0936         estimate D2E/DX2                !
 ! R18   R(15,19)                1.5046         estimate D2E/DX2                !
 ! R19   R(19,20)                1.5043         estimate D2E/DX2                !
 ! R20   R(19,24)                1.3496         estimate D2E/DX2                !
 ! R21   R(20,21)                1.0919         estimate D2E/DX2                !
 ! R22   R(20,22)                1.0963         estimate D2E/DX2                !
 ! R23   R(20,23)                1.094          estimate D2E/DX2                !
 ! R24   R(24,25)                1.0914         estimate D2E/DX2                !
 ! R25   R(24,26)                1.5073         estimate D2E/DX2                !
 ! R26   R(26,27)                1.0941         estimate D2E/DX2                !
 ! R27   R(26,28)                1.0971         estimate D2E/DX2                !
 ! A1    A(2,1,3)              106.2258         estimate D2E/DX2                !
 ! A2    A(2,1,4)              107.6607         estimate D2E/DX2                !
 ! A3    A(2,1,26)             107.2366         estimate D2E/DX2                !
 ! A4    A(3,1,4)              107.5093         estimate D2E/DX2                !
 ! A5    A(3,1,26)             107.5841         estimate D2E/DX2                !
 ! A6    A(4,1,26)             119.8794         estimate D2E/DX2                !
 ! A7    A(1,4,5)              113.2832         estimate D2E/DX2                !
 ! A8    A(1,4,9)              124.0753         estimate D2E/DX2                !
 ! A9    A(5,4,9)              122.6329         estimate D2E/DX2                !
 ! A10   A(4,5,6)              112.3746         estimate D2E/DX2                !
 ! A11   A(4,5,7)              110.6756         estimate D2E/DX2                !
 ! A12   A(4,5,8)              110.3555         estimate D2E/DX2                !
 ! A13   A(6,5,7)              106.0128         estimate D2E/DX2                !
 ! A14   A(6,5,8)              109.0815         estimate D2E/DX2                !
 ! A15   A(7,5,8)              108.1674         estimate D2E/DX2                !
 ! A16   A(4,9,10)             119.5129         estimate D2E/DX2                !
 ! A17   A(4,9,11)             128.173          estimate D2E/DX2                !
 ! A18   A(10,9,11)            112.2307         estimate D2E/DX2                !
 ! A19   A(9,11,12)            113.7985         estimate D2E/DX2                !
 ! A20   A(9,11,13)            109.2565         estimate D2E/DX2                !
 ! A21   A(9,11,14)            109.8247         estimate D2E/DX2                !
 ! A22   A(12,11,13)           107.5106         estimate D2E/DX2                !
 ! A23   A(12,11,14)           108.1752         estimate D2E/DX2                !
 ! A24   A(13,11,14)           108.1058         estimate D2E/DX2                !
 ! A25   A(16,15,17)           108.0724         estimate D2E/DX2                !
 ! A26   A(16,15,18)           107.3225         estimate D2E/DX2                !
 ! A27   A(16,15,19)           112.3739         estimate D2E/DX2                !
 ! A28   A(17,15,18)           108.6192         estimate D2E/DX2                !
 ! A29   A(17,15,19)           110.3319         estimate D2E/DX2                !
 ! A30   A(18,15,19)           109.998          estimate D2E/DX2                !
 ! A31   A(15,19,20)           114.9642         estimate D2E/DX2                !
 ! A32   A(15,19,24)           120.6823         estimate D2E/DX2                !
 ! A33   A(20,19,24)           124.3271         estimate D2E/DX2                !
 ! A34   A(19,20,21)           112.8668         estimate D2E/DX2                !
 ! A35   A(19,20,22)           110.8168         estimate D2E/DX2                !
 ! A36   A(19,20,23)           109.9785         estimate D2E/DX2                !
 ! A37   A(21,20,22)           106.1561         estimate D2E/DX2                !
 ! A38   A(21,20,23)           108.8633         estimate D2E/DX2                !
 ! A39   A(22,20,23)           107.9759         estimate D2E/DX2                !
 ! A40   A(19,24,25)           118.4527         estimate D2E/DX2                !
 ! A41   A(19,24,26)           126.9249         estimate D2E/DX2                !
 ! A42   A(25,24,26)           114.5632         estimate D2E/DX2                !
 ! A43   A(1,26,24)            113.5734         estimate D2E/DX2                !
 ! A44   A(1,26,27)            108.5066         estimate D2E/DX2                !
 ! A45   A(1,26,28)            107.9563         estimate D2E/DX2                !
 ! A46   A(24,26,27)           112.3222         estimate D2E/DX2                !
 ! A47   A(24,26,28)           107.8228         estimate D2E/DX2                !
 ! A48   A(27,26,28)           106.3203         estimate D2E/DX2                !
 ! D1    D(2,1,4,5)             61.8211         estimate D2E/DX2                !
 ! D2    D(2,1,4,9)           -119.2244         estimate D2E/DX2                !
 ! D3    D(3,1,4,5)            -52.254          estimate D2E/DX2                !
 ! D4    D(3,1,4,9)            126.7006         estimate D2E/DX2                !
 ! D5    D(26,1,4,5)          -175.3881         estimate D2E/DX2                !
 ! D6    D(26,1,4,9)             3.5665         estimate D2E/DX2                !
 ! D7    D(2,1,26,24)         -178.0877         estimate D2E/DX2                !
 ! D8    D(2,1,26,27)           56.2473         estimate D2E/DX2                !
 ! D9    D(2,1,26,28)          -58.5861         estimate D2E/DX2                !
 ! D10   D(3,1,26,24)          -64.1825         estimate D2E/DX2                !
 ! D11   D(3,1,26,27)          170.1525         estimate D2E/DX2                !
 ! D12   D(3,1,26,28)           55.3192         estimate D2E/DX2                !
 ! D13   D(4,1,26,24)           58.9154         estimate D2E/DX2                !
 ! D14   D(4,1,26,27)          -66.7497         estimate D2E/DX2                !
 ! D15   D(4,1,26,28)          178.417          estimate D2E/DX2                !
 ! D16   D(1,4,5,6)           -151.5438         estimate D2E/DX2                !
 ! D17   D(1,4,5,7)            -33.2368         estimate D2E/DX2                !
 ! D18   D(1,4,5,8)             86.4639         estimate D2E/DX2                !
 ! D19   D(9,4,5,6)             29.4844         estimate D2E/DX2                !
 ! D20   D(9,4,5,7)            147.7914         estimate D2E/DX2                !
 ! D21   D(9,4,5,8)            -92.5078         estimate D2E/DX2                !
 ! D22   D(1,4,9,10)             3.4874         estimate D2E/DX2                !
 ! D23   D(1,4,9,11)          -172.9179         estimate D2E/DX2                !
 ! D24   D(5,4,9,10)          -177.6529         estimate D2E/DX2                !
 ! D25   D(5,4,9,11)             5.9418         estimate D2E/DX2                !
 ! D26   D(4,9,11,12)           -3.2449         estimate D2E/DX2                !
 ! D27   D(4,9,11,13)          116.9141         estimate D2E/DX2                !
 ! D28   D(4,9,11,14)         -124.6698         estimate D2E/DX2                !
 ! D29   D(10,9,11,12)        -179.8656         estimate D2E/DX2                !
 ! D30   D(10,9,11,13)         -59.7066         estimate D2E/DX2                !
 ! D31   D(10,9,11,14)          58.7094         estimate D2E/DX2                !
 ! D32   D(16,15,19,20)        177.4206         estimate D2E/DX2                !
 ! D33   D(16,15,19,24)         -0.789          estimate D2E/DX2                !
 ! D34   D(17,15,19,20)        -61.896          estimate D2E/DX2                !
 ! D35   D(17,15,19,24)        119.8944         estimate D2E/DX2                !
 ! D36   D(18,15,19,20)         57.9184         estimate D2E/DX2                !
 ! D37   D(18,15,19,24)       -120.2912         estimate D2E/DX2                !
 ! D38   D(15,19,20,21)       -145.3648         estimate D2E/DX2                !
 ! D39   D(15,19,20,22)        -26.4556         estimate D2E/DX2                !
 ! D40   D(15,19,20,23)         92.8541         estimate D2E/DX2                !
 ! D41   D(24,19,20,21)         32.7707         estimate D2E/DX2                !
 ! D42   D(24,19,20,22)        151.6799         estimate D2E/DX2                !
 ! D43   D(24,19,20,23)        -89.0104         estimate D2E/DX2                !
 ! D44   D(15,19,24,25)         -2.9471         estimate D2E/DX2                !
 ! D45   D(15,19,24,26)        174.0895         estimate D2E/DX2                !
 ! D46   D(20,19,24,25)        179.0184         estimate D2E/DX2                !
 ! D47   D(20,19,24,26)         -3.945          estimate D2E/DX2                !
 ! D48   D(19,24,26,1)        -135.0901         estimate D2E/DX2                !
 ! D49   D(19,24,26,27)        -11.4813         estimate D2E/DX2                !
 ! D50   D(19,24,26,28)        105.3322         estimate D2E/DX2                !
 ! D51   D(25,24,26,1)          42.0453         estimate D2E/DX2                !
 ! D52   D(25,24,26,27)        165.6541         estimate D2E/DX2                !
 ! D53   D(25,24,26,28)        -77.5324         estimate D2E/DX2                !
 --------------------------------------------------------------------------------
 Trust Radius=3.00D-01 FncErr=1.00D-07 GrdErr=1.00D-07 EigMax=2.50D+02 EigMin=1.00D-04
 Number of steps in this run=    138 maximum allowed number of steps=    168.
 GradGradGradGradGradGradGradGradGradGradGradGradGradGradGradGradGradGrad

 Leave Link  103 at Fri Sep 17 20:09:28 2021, MaxMem=   524288000 cpu:               0.1 elap:               0.1
 (Enter /opt/gaussian/g16_legacy/l202.exe)
                          Input orientation:                          
 ---------------------------------------------------------------------
 Center     Atomic      Atomic             Coordinates (Angstroms)
 Number     Number       Type             X           Y           Z
 ---------------------------------------------------------------------
      1          6           0        2.202500    1.272600   -8.954300
      2          1           0        1.887800    0.260500   -9.241400
      3          1           0        2.123800    1.887400   -9.861300
      4          6           0        3.679000    1.207200   -8.570300
      5          6           0        4.571400    0.771600   -9.705300
      6          1           0        5.472600    0.260400   -9.353900
      7          1           0        4.051500    0.056500  -10.354100
      8          1           0        4.863300    1.634600  -10.313200
      9          6           0        4.157300    1.525000   -7.349600
     10          1           0        3.465700    1.795400   -6.558200
     11          6           0        5.582900    1.633900   -6.916100
     12          1           0        6.302000    1.369400   -7.695000
     13          1           0        5.790200    2.664800   -6.612900
     14          1           0        5.759200    0.984000   -6.054000
     15          6           0        1.817000    5.085500   -5.897600
     16          1           0        2.161300    5.626700   -6.784000
     17          1           0        0.985200    5.645400   -5.459900
     18          1           0        2.644100    5.072700   -5.182200
     19          6           0        1.390000    3.678300   -6.215700
     20          6           0        0.962600    2.860600   -5.027600
     21          1           0        1.230800    1.806200   -5.119600
     22          1           0        1.447600    3.220000   -4.112500
     23          1           0       -0.119800    2.939500   -4.889400
     24          6           0        1.439000    3.213300   -7.481700
     25          1           0        1.748600    3.896100   -8.274800
     26          6           0        1.166600    1.803300   -7.939700
     27          1           0        1.106500    1.099300   -7.104300
     28          1           0        0.182200    1.791800   -8.424000
 ---------------------------------------------------------------------
                    Distance matrix (angstroms):
                    1          2          3          4          5
     1  C    0.000000
     2  H    1.098093   0.000000
     3  H    1.098554   1.756922   0.000000
     4  C    1.527018   2.134248   2.132604   0.000000
     5  C    2.535092   2.770945   2.694456   1.508095   0.000000
     6  H    3.446416   3.586565   3.757532   2.174272   1.094061
     7  H    2.618614   2.441580   2.703900   2.155182   1.096634
     8  H    3.009570   3.448261   2.788007   2.150102   1.095225
     9  C    2.541655   3.213798   3.251937   1.349028   2.507671
    10  H    2.758675   3.470627   3.566459   2.107136   3.489266
    11  C    3.963824   4.576791   4.550147   2.557985   3.089714
    12  H    4.289651   4.806888   4.734822   2.769944   2.719126
    13  H    4.504660   5.283786   4.959732   3.226946   3.825260
    14  H    4.598385   5.066627   5.341142   3.272433   3.845514
    15  C    4.902064   5.870829   5.102243   5.064739   6.379266
    16  H    4.865191   5.908445   4.842886   5.002625   6.157481
    17  H    5.728353   6.641655   5.898415   6.052170   7.391764
    18  H    5.372570   6.340849   5.684261   5.243313   6.532410
    19  C    3.734632   4.591734   4.127491   4.109744   5.545045
    20  C    4.413397   5.037125   5.065586   4.760597   6.266437
    21  H    3.991723   4.450851   4.825739   4.273150   5.767031
    22  H    5.273070   5.937847   5.939846   5.376104   6.858003
    23  H    4.969411   5.490665   5.555218   5.566037   7.063996
    24  C    2.552998   3.466554   2.808818   3.197982   4.551728
    25  H    2.747817   3.764476   2.587012   3.323244   4.447137
    26  C    1.544068   2.143545   2.148453   2.658034   3.971701
    27  H    2.157255   2.425121   3.042540   2.962863   4.344896
    28  H    2.152301   2.433535   2.417598   3.548348   4.684828
                    6          7          8          9         10
     6  H    0.000000
     7  H    1.749714   0.000000
     8  H    1.783235   1.775131   0.000000
     9  C    2.710433   3.345849   3.048503   0.000000
    10  H    3.768264   4.216135   4.009884   1.085238   0.000000
    11  C    2.800274   4.080836   3.472479   1.494027   2.153302
    12  H    2.160957   3.722804   2.999193   2.177901   3.085188
    13  H    3.659930   4.880869   3.951288   2.123260   2.482368
    14  H    3.390439   4.718830   4.400762   2.130104   2.484498
    15  C    6.970725   7.081259   6.378572   4.501385   3.738899
    16  H    6.809278   6.880814   5.974355   4.596505   4.053555
    17  H    8.018617   8.036865   7.394640   5.532710   4.709739
    18  H    6.968624   7.341089   6.562967   4.424203   3.648164
    19  C    6.180450   6.109613   5.747176   3.685157   2.823322
    20  C    6.768900   6.765788   6.682522   4.169127   3.121361
    21  H    6.189641   6.198209   6.340188   3.690037   2.657906
    22  H    7.241003   7.466297   7.254597   4.549101   3.476156
    23  H    7.640960   7.454823   7.480084   5.132931   4.116998
    24  C    5.338041   5.004121   4.715455   3.202649   2.640228
    25  H    5.315162   4.936534   4.355550   3.504275   3.210621
    26  C    4.787707   4.147684   4.396311   3.061038   2.682250
    27  H    4.982698   4.507955   4.969621   3.090109   2.519644
    28  H    5.585538   4.659188   5.050395   4.126371   3.776585
                   11         12         13         14         15
    11  C    0.000000
    12  H    1.092589   0.000000
    13  H    1.094376   1.763786   0.000000
    14  H    1.093923   1.770888   1.771558   0.000000
    15  C    5.208924   6.095512   4.707203   5.691020   0.000000
    16  H    5.259967   6.008321   4.687328   5.918821   1.094141
    17  H    6.273077   7.179708   5.770737   6.698707   1.094057
    18  H    4.844409   5.780037   4.212224   5.213574   1.093643
    19  C    4.717048   5.625575   4.532848   5.135690   1.504569
    20  C    5.139883   6.152064   5.085001   5.251904   2.537140
    21  H    4.711462   5.704432   4.873938   4.696331   3.420924
    22  H    5.241812   6.310644   5.041669   5.230584   2.608281
    23  H    6.191356   7.181652   6.162306   6.304198   3.061532
    24  C    4.470606   5.205212   4.470862   5.066777   2.481409
    25  H    4.654618   5.239640   4.540104   5.431132   2.659028
    26  C    4.536536   5.159504   4.886743   5.031808   3.919953
    27  H    4.512136   5.235943   4.962793   4.771168   4.225012
    28  H    5.609479   6.177525   5.957506   6.113295   4.461359
                   16         17         18         19         20
    16  H    0.000000
    17  H    1.771102   0.000000
    18  H    1.762321   1.776809   0.000000
    19  C    2.171205   2.145828   2.141317   0.000000
    20  C    3.489002   2.818245   2.782935   1.504289   0.000000
    21  H    4.269927   3.862069   3.559685   2.175210   1.091858
    22  H    3.665854   2.812804   2.451197   2.153325   1.096267
    23  H    4.001746   2.977984   3.503629   2.141120   1.094036
    24  C    2.614001   3.195109   3.193327   1.349586   2.524670
    25  H    2.321160   3.400955   3.427898   2.101410   3.497766
    26  C    4.116243   4.576467   4.525018   2.556894   3.104807
    27  H    4.659672   4.835886   4.674034   2.742485   2.726824
    28  H    4.616589   4.927568   5.228243   3.145513   3.645119
                   21         22         23         24         25
    21  H    0.000000
    22  H    1.749309   0.000000
    23  H    1.778055   1.771721   0.000000
    24  C    2.757316   3.369218   3.037243   0.000000
    25  H    3.819828   4.227582   3.983332   1.091364   0.000000
    26  C    2.820832   4.090655   3.500015   1.507337   2.197914
    27  H    2.110496   3.683013   3.129845   2.173012   3.099105
    28  H    3.466818   4.714873   3.728514   2.118523   2.627537
                   26         27         28
    26  C    0.000000
    27  H    1.094130   0.000000
    28  H    1.097143   1.753709   0.000000
 Stoichiometry    C10H18
 Framework group  C1[X(C10H18)]
 Deg. of freedom    78
 Full point group                 C1      NOp   1
 Largest Abelian subgroup         C1      NOp   1
 Largest concise Abelian subgroup C1      NOp   1
                         Standard orientation:                         
 ---------------------------------------------------------------------
 Center     Atomic      Atomic             Coordinates (Angstroms)
 Number     Number       Type             X           Y           Z
 ---------------------------------------------------------------------
      1          6           0       -1.131024   -1.597637   -0.020277
      2          1           0       -1.654394   -2.263072   -0.719625
      3          1           0       -1.255302   -2.041394    0.976948
      4          6           0       -1.862388   -0.257155   -0.021020
      5          6           0       -3.291686   -0.357650    0.449466
      6          1           0       -3.931119    0.411480    0.006145
      7          1           0       -3.728827   -1.319938    0.157039
      8          1           0       -3.340032   -0.278149    1.540731
      9          6           0       -1.295859    0.912756   -0.381891
     10          1           0       -0.274743    0.921411   -0.749297
     11          6           0       -1.872170    2.287503   -0.281610
     12          1           0       -2.899987    2.308777    0.088376
     13          1           0       -1.263096    2.885087    0.403649
     14          1           0       -1.852714    2.770431   -1.262972
     15          6           0        2.922662    0.879709    1.188286
     16          1           0        2.508376    0.753143    2.193021
     17          1           0        3.990259    0.644077    1.229211
     18          1           0        2.807725    1.933437    0.919023
     19          6           0        2.234111    0.010676    0.171227
     20          6           0        2.717653    0.183186   -1.242744
     21          1           0        1.920988    0.068620   -1.980548
     22          1           0        3.130849    1.187363   -1.393406
     23          1           0        3.507103   -0.542702   -1.459006
     24          6           0        1.235642   -0.819888    0.538112
     25          1           0        0.973102   -0.882035    1.595603
     26          6           0        0.371337   -1.654405   -0.372176
     27          1           0        0.491998   -1.381695   -1.424883
     28          1           0        0.700152   -2.697416   -0.284248
 ---------------------------------------------------------------------
 Rotational constants (GHZ):           1.8125919           0.7124410           0.5990776
 Leave Link  202 at Fri Sep 17 20:09:28 2021, MaxMem=   524288000 cpu:               0.1 elap:               0.2
 (Enter /opt/gaussian/g16_legacy/l301.exe)
 Standard basis: 6-31G(d,p) (6D, 7F)
 Ernie: Thresh=  0.10000D-02 Tol=  0.10000D-05 Strict=F.
 There are   240 symmetry adapted cartesian basis functions of A   symmetry.
 There are   240 symmetry adapted basis functions of A   symmetry.
   240 basis functions,   406 primitive gaussians,   240 cartesian basis functions
    39 alpha electrons       39 beta electrons
       nuclear repulsion energy       526.9053525531 Hartrees.
 IExCor=    0 DFT=F Ex=HF Corr=None ExCW=0 ScaHFX=  1.000000
 ScaDFX=  1.000000  1.000000  1.000000  1.000000 ScalE2=  1.000000  1.000000
 IRadAn=      5 IRanWt=     -1 IRanGd=            0 ICorTp=0 IEmpDi=  4
 NAtoms=   28 NActive=   28 NUniq=   28 SFac= 1.00D+00 NAtFMM=   60 NAOKFM=F Big=F
 Integral buffers will be    131072 words long.
 Raffenetti 1 integral format.
 Two-electron integral symmetry is turned on.
 Leave Link  301 at Fri Sep 17 20:09:29 2021, MaxMem=   524288000 cpu:               0.2 elap:               0.3
 (Enter /opt/gaussian/g16_legacy/l302.exe)
 NPDir=0 NMtPBC=     1 NCelOv=     1 NCel=       1 NClECP=     1 NCelD=      1
         NCelK=      1 NCelE2=     1 NClLst=     1 CellRange=     0.0.
 One-electron integrals computed using PRISM.
 One-electron integral symmetry used in STVInt
 NBasis=   240 RedAO= T EigKep=  2.23D-03  NBF=   240
 NBsUse=   240 1.00D-06 EigRej= -1.00D+00 NBFU=   240
 Leave Link  302 at Fri Sep 17 20:09:30 2021, MaxMem=   524288000 cpu:               0.3 elap:               0.7
 (Enter /opt/gaussian/g16_legacy/l303.exe)
 DipDrv:  MaxL=1.
 Leave Link  303 at Fri Sep 17 20:09:30 2021, MaxMem=   524288000 cpu:               0.1 elap:               0.3
 (Enter /opt/gaussian/g16_legacy/l401.exe)
 ExpMin= 1.61D-01 ExpMax= 3.05D+03 ExpMxC= 4.57D+02 IAcc=3 IRadAn=         5 AccDes= 0.00D+00
 Harris functional with IExCor=  205 and IRadAn=       5 diagonalized for initial guess.
 HarFok:  IExCor=  205 AccDes= 0.00D+00 IRadAn=         5 IDoV= 1 UseB2=F ITyADJ=14
 ICtDFT=  3500011 ScaDFX=  1.000000  1.000000  1.000000  1.000000
 FoFCou: FMM=F IPFlag=           0 FMFlag=      100000 FMFlg1=           0
         NFxFlg=           0 DoJE=T BraDBF=F KetDBF=T FulRan=T
         wScrn=  0.000000 ICntrl=       500 IOpCl=  0 I1Cent=   200000004 NGrid=           0
         NMat0=    1 NMatS0=      1 NMatT0=    0 NMatD0=    1 NMtDS0=    0 NMtDT0=    0
 Petite list used in FoFCou.
 Harris En= -390.105244445985    
 JPrj=0 DoOrth=F DoCkMO=F.
 Leave Link  401 at Fri Sep 17 20:09:42 2021, MaxMem=   524288000 cpu:              11.3 elap:              11.7
 (Enter /opt/gaussian/g16_legacy/l502.exe)
 Keep R1 ints in memory in canonical form, NReq=425198025.
 FoFCou: FMM=F IPFlag=           0 FMFlag=           0 FMFlg1=           0
         NFxFlg=           0 DoJE=F BraDBF=F KetDBF=F FulRan=T
         wScrn=  0.000000 ICntrl=       600 IOpCl=  0 I1Cent=           0 NGrid=           0
         NMat0=    1 NMatS0=  28920 NMatT0=    0 NMatD0=    1 NMtDS0=    0 NMtDT0=    0
 Symmetry not used in FoFCou.
 Two-electron integral symmetry not used.
 Closed shell SCF:
 Using DIIS extrapolation, IDIIS=  1040.
 NGot=   524288000 LenX=   105970886 LenY=   105912845
 Requested convergence on RMS density matrix=1.00D-08 within 128 cycles.
 Requested convergence on MAX density matrix=1.00D-06.
 Requested convergence on             energy=1.00D-06.
 No special actions if energy rises.

 Cycle   1  Pass 1  IDiag  1:
 E= -388.525509765108    
 DIIS: error= 4.74D-02 at cycle   1 NSaved=   1.
 NSaved= 1 IEnMin= 1 EnMin= -388.525509765108     IErMin= 1 ErrMin= 4.74D-02
 ErrMax= 4.74D-02  0.00D+00 EMaxC= 1.00D-01 BMatC= 8.08D-01 BMatP= 8.08D-01
 IDIUse=3 WtCom= 5.26D-01 WtEn= 4.74D-01
 Coeff-Com:  0.100D+01
 Coeff-En:   0.100D+01
 Coeff:      0.100D+01
 Gap=     0.507 Goal=   None    Shift=    0.000
 GapD=    0.507 DampG=2.000 DampE=0.500 DampFc=1.0000 IDamp=-1.
 RMSDP=4.06D-03 MaxDP=1.16D-01              OVMax= 1.40D-01

 Cycle   2  Pass 1  IDiag  1:
 E= -389.064507394459     Delta-E=       -0.538997629351 Rises=F Damp=F
 DIIS: error= 1.44D-02 at cycle   2 NSaved=   2.
 NSaved= 2 IEnMin= 2 EnMin= -389.064507394459     IErMin= 2 ErrMin= 1.44D-02
 ErrMax= 1.44D-02  0.00D+00 EMaxC= 1.00D-01 BMatC= 8.84D-02 BMatP= 8.08D-01
 IDIUse=3 WtCom= 8.56D-01 WtEn= 1.44D-01
 Coeff-Com:  0.185D+00 0.815D+00
 Coeff-En:   0.000D+00 0.100D+01
 Coeff:      0.158D+00 0.842D+00
 Gap=     0.560 Goal=   None    Shift=    0.000
 RMSDP=1.72D-03 MaxDP=3.26D-02 DE=-5.39D-01 OVMax= 4.36D-02

 Cycle   3  Pass 1  IDiag  1:
 E= -389.143993503927     Delta-E=       -0.079486109468 Rises=F Damp=F
 DIIS: error= 3.11D-03 at cycle   3 NSaved=   3.
 NSaved= 3 IEnMin= 3 EnMin= -389.143993503927     IErMin= 3 ErrMin= 3.11D-03
 ErrMax= 3.11D-03  0.00D+00 EMaxC= 1.00D-01 BMatC= 3.09D-03 BMatP= 8.84D-02
 IDIUse=3 WtCom= 9.69D-01 WtEn= 3.11D-02
 Coeff-Com: -0.248D-01 0.104D+00 0.921D+00
 Coeff-En:   0.000D+00 0.000D+00 0.100D+01
 Coeff:     -0.240D-01 0.101D+00 0.924D+00
 Gap=     0.498 Goal=   None    Shift=    0.000
 RMSDP=2.66D-04 MaxDP=6.79D-03 DE=-7.95D-02 OVMax= 1.14D-02

 Cycle   4  Pass 1  IDiag  1:
 E= -389.147645036386     Delta-E=       -0.003651532459 Rises=F Damp=F
 DIIS: error= 4.31D-04 at cycle   4 NSaved=   4.
 NSaved= 4 IEnMin= 4 EnMin= -389.147645036386     IErMin= 4 ErrMin= 4.31D-04
 ErrMax= 4.31D-04  0.00D+00 EMaxC= 1.00D-01 BMatC= 7.18D-05 BMatP= 3.09D-03
 IDIUse=3 WtCom= 9.96D-01 WtEn= 4.31D-03
 Coeff-Com: -0.243D-02-0.974D-02 0.292D-01 0.983D+00
 Coeff-En:   0.000D+00 0.000D+00 0.000D+00 0.100D+01
 Coeff:     -0.242D-02-0.970D-02 0.290D-01 0.983D+00
 Gap=     0.498 Goal=   None    Shift=    0.000
 RMSDP=8.15D-05 MaxDP=1.62D-03 DE=-3.65D-03 OVMax= 2.25D-03

 Cycle   5  Pass 1  IDiag  1:
 E= -389.147754701094     Delta-E=       -0.000109664708 Rises=F Damp=F
 DIIS: error= 1.89D-04 at cycle   5 NSaved=   5.
 NSaved= 5 IEnMin= 5 EnMin= -389.147754701094     IErMin= 5 ErrMin= 1.89D-04
 ErrMax= 1.89D-04  0.00D+00 EMaxC= 1.00D-01 BMatC= 9.95D-06 BMatP= 7.18D-05
 IDIUse=3 WtCom= 9.98D-01 WtEn= 1.89D-03
 Coeff-Com:  0.221D-02-0.132D-01-0.900D-01 0.144D+00 0.957D+00
 Coeff-En:   0.000D+00 0.000D+00 0.000D+00 0.000D+00 0.100D+01
 Coeff:      0.220D-02-0.131D-01-0.898D-01 0.144D+00 0.957D+00
 Gap=     0.498 Goal=   None    Shift=    0.000
 RMSDP=2.57D-05 MaxDP=7.33D-04 DE=-1.10D-04 OVMax= 1.05D-03

 Cycle   6  Pass 1  IDiag  1:
 E= -389.147770101465     Delta-E=       -0.000015400371 Rises=F Damp=F
 DIIS: error= 3.31D-05 at cycle   6 NSaved=   6.
 NSaved= 6 IEnMin= 6 EnMin= -389.147770101465     IErMin= 6 ErrMin= 3.31D-05
 ErrMax= 3.31D-05  0.00D+00 EMaxC= 1.00D-01 BMatC= 5.87D-07 BMatP= 9.95D-06
 IDIUse=1 WtCom= 1.00D+00 WtEn= 0.00D+00
 Coeff-Com:  0.617D-03-0.268D-02-0.213D-01-0.184D-01 0.204D+00 0.838D+00
 Coeff:      0.617D-03-0.268D-02-0.213D-01-0.184D-01 0.204D+00 0.838D+00
 Gap=     0.498 Goal=   None    Shift=    0.000
 RMSDP=5.31D-06 MaxDP=1.72D-04 DE=-1.54D-05 OVMax= 2.30D-04

 Cycle   7  Pass 1  IDiag  1:
 E= -389.147770912047     Delta-E=       -0.000000810582 Rises=F Damp=F
 DIIS: error= 1.88D-05 at cycle   7 NSaved=   7.
 NSaved= 7 IEnMin= 7 EnMin= -389.147770912047     IErMin= 7 ErrMin= 1.88D-05
 ErrMax= 1.88D-05  0.00D+00 EMaxC= 1.00D-01 BMatC= 5.03D-08 BMatP= 5.87D-07
 IDIUse=1 WtCom= 1.00D+00 WtEn= 0.00D+00
 Coeff-Com: -0.637D-04 0.509D-03 0.345D-02-0.138D-01-0.384D-01 0.110D+00
 Coeff-Com:  0.939D+00
 Coeff:     -0.637D-04 0.509D-03 0.345D-02-0.138D-01-0.384D-01 0.110D+00
 Coeff:      0.939D+00
 Gap=     0.498 Goal=   None    Shift=    0.000
 RMSDP=1.93D-06 MaxDP=7.02D-05 DE=-8.11D-07 OVMax= 1.55D-04

 Cycle   8  Pass 1  IDiag  1:
 E= -389.147771031420     Delta-E=       -0.000000119373 Rises=F Damp=F
 DIIS: error= 4.87D-06 at cycle   8 NSaved=   8.
 NSaved= 8 IEnMin= 8 EnMin= -389.147771031420     IErMin= 8 ErrMin= 4.87D-06
 ErrMax= 4.87D-06  0.00D+00 EMaxC= 1.00D-01 BMatC= 1.03D-08 BMatP= 5.03D-08
 IDIUse=1 WtCom= 1.00D+00 WtEn= 0.00D+00
 Coeff-Com: -0.803D-04 0.335D-03 0.285D-02 0.392D-02-0.255D-01-0.153D+00
 Coeff-Com: -0.358D-02 0.118D+01
 Coeff:     -0.803D-04 0.335D-03 0.285D-02 0.392D-02-0.255D-01-0.153D+00
 Coeff:     -0.358D-02 0.118D+01
 Gap=     0.498 Goal=   None    Shift=    0.000
 RMSDP=1.10D-06 MaxDP=2.96D-05 DE=-1.19D-07 OVMax= 9.61D-05

 Cycle   9  Pass 1  IDiag  1:
 E= -389.147771063013     Delta-E=       -0.000000031593 Rises=F Damp=F
 DIIS: error= 2.26D-06 at cycle   9 NSaved=   9.
 NSaved= 9 IEnMin= 9 EnMin= -389.147771063013     IErMin= 9 ErrMin= 2.26D-06
 ErrMax= 2.26D-06  0.00D+00 EMaxC= 1.00D-01 BMatC= 1.08D-09 BMatP= 1.03D-08
 IDIUse=1 WtCom= 1.00D+00 WtEn= 0.00D+00
 Coeff-Com:  0.131D-04-0.943D-04-0.678D-03 0.182D-02 0.769D-02-0.109D-01
 Coeff-Com: -0.108D+00-0.132D+00 0.124D+01
 Coeff:      0.131D-04-0.943D-04-0.678D-03 0.182D-02 0.769D-02-0.109D-01
 Coeff:     -0.108D+00-0.132D+00 0.124D+01
 Gap=     0.498 Goal=   None    Shift=    0.000
 RMSDP=4.47D-07 MaxDP=1.34D-05 DE=-3.16D-08 OVMax= 3.99D-05

 Cycle  10  Pass 1  IDiag  1:
 E= -389.147771067141     Delta-E=       -0.000000004128 Rises=F Damp=F
 DIIS: error= 5.03D-07 at cycle  10 NSaved=  10.
 NSaved=10 IEnMin=10 EnMin= -389.147771067141     IErMin=10 ErrMin= 5.03D-07
 ErrMax= 5.03D-07  0.00D+00 EMaxC= 1.00D-01 BMatC= 6.93D-11 BMatP= 1.08D-09
 IDIUse=1 WtCom= 1.00D+00 WtEn= 0.00D+00
 Coeff-Com:  0.829D-05-0.373D-04-0.309D-03-0.333D-03 0.290D-02 0.145D-01
 Coeff-Com:  0.560D-02-0.120D+00 0.300D-01 0.107D+01
 Coeff:      0.829D-05-0.373D-04-0.309D-03-0.333D-03 0.290D-02 0.145D-01
 Coeff:      0.560D-02-0.120D+00 0.300D-01 0.107D+01
 Gap=     0.498 Goal=   None    Shift=    0.000
 RMSDP=1.01D-07 MaxDP=3.29D-06 DE=-4.13D-09 OVMax= 9.63D-06

 Cycle  11  Pass 1  IDiag  1:
 E= -389.147771067384     Delta-E=       -0.000000000243 Rises=F Damp=F
 DIIS: error= 1.33D-07 at cycle  11 NSaved=  11.
 NSaved=11 IEnMin=11 EnMin= -389.147771067384     IErMin=11 ErrMin= 1.33D-07
 ErrMax= 1.33D-07  0.00D+00 EMaxC= 1.00D-01 BMatC= 1.30D-11 BMatP= 6.93D-11
 IDIUse=1 WtCom= 1.00D+00 WtEn= 0.00D+00
 Coeff-Com:  0.643D-06 0.233D-07-0.782D-05-0.205D-03-0.843D-04 0.335D-02
 Coeff-Com:  0.855D-02-0.170D-01-0.107D+00 0.201D+00 0.911D+00
 Coeff:      0.643D-06 0.233D-07-0.782D-05-0.205D-03-0.843D-04 0.335D-02
 Coeff:      0.855D-02-0.170D-01-0.107D+00 0.201D+00 0.911D+00
 Gap=     0.498 Goal=   None    Shift=    0.000
 RMSDP=3.62D-08 MaxDP=8.17D-07 DE=-2.43D-10 OVMax= 2.20D-06

 Cycle  12  Pass 1  IDiag  1:
 E= -389.147771067418     Delta-E=       -0.000000000034 Rises=F Damp=F
 DIIS: error= 3.96D-08 at cycle  12 NSaved=  12.
 NSaved=12 IEnMin=12 EnMin= -389.147771067418     IErMin=12 ErrMin= 3.96D-08
 ErrMax= 3.96D-08  0.00D+00 EMaxC= 1.00D-01 BMatC= 9.32D-13 BMatP= 1.30D-11
 IDIUse=1 WtCom= 1.00D+00 WtEn= 0.00D+00
 Coeff-Com: -0.110D-05 0.555D-05 0.448D-04 0.210D-04-0.446D-03-0.168D-02
 Coeff-Com:  0.978D-03 0.173D-01-0.177D-01-0.116D+00 0.116D+00 0.100D+01
 Coeff:     -0.110D-05 0.555D-05 0.448D-04 0.210D-04-0.446D-03-0.168D-02
 Coeff:      0.978D-03 0.173D-01-0.177D-01-0.116D+00 0.116D+00 0.100D+01
 Gap=     0.498 Goal=   None    Shift=    0.000
 RMSDP=9.30D-09 MaxDP=2.13D-07 DE=-3.42D-11 OVMax= 4.66D-07

 SCF Done:  E(RHF) =  -389.147771067     A.U. after   12 cycles
            NFock= 12  Conv=0.93D-08     -V/T= 2.0015
 KE= 3.885794750050D+02 PE=-1.958525112296D+03 EE= 6.538925136705D+02
 Leave Link  502 at Fri Sep 17 20:10:18 2021, MaxMem=   524288000 cpu:              36.1 elap:              36.3
 (Enter /opt/gaussian/g16_legacy/l801.exe)
 ExpMin= 1.61D-01 ExpMax= 3.05D+03 ExpMxC= 4.57D+02 IAcc=3 IRadAn=         5 AccDes= 0.00D+00
 HarFok:  IExCor=  205 AccDes= 0.00D+00 IRadAn=         5 IDoV=-2 UseB2=F ITyADJ=14
 ICtDFT= 12500011 ScaDFX=  1.000000  1.000000  1.000000  1.000000
 Largest valence mixing into a core orbital is  1.97D-04
 Largest core mixing into a valence orbital is  3.54D-05
 Range of M.O.s used for correlation:    11   240
 NBasis=   240 NAE=    39 NBE=    39 NFC=    10 NFV=     0
 NROrb=    230 NOA=    29 NOB=    29 NVA=   201 NVB=   201
 Leave Link  801 at Fri Sep 17 20:10:20 2021, MaxMem=   524288000 cpu:               1.6 elap:               1.6
 (Enter /opt/gaussian/g16_legacy/l906.exe)
 Frozen-core derivative calculation, NFC=  10 NFV=   0.
 FulOut=F Deriv=T AODrv=T NAtomX=    28
   MMem=          86  MDisk=          29 MDiskD=          29
  W3Min=     2246400 MinDsk=     2795480 NBas6D=         240
 NBas2D=       29244    NTT=       28920    LW2=     2040000
    MDV=   523621952 MDiskM=       30186 NBas2p=       24930
 Fully direct method using O(ONN) memory.
 IMap=   1   2   3   4   5   6   7   8   9  10  11  12  13  14  15  16  17  18  19  20
 IMap=  21  22  23  24  25  26  27  28  29  30  31  32  33  34  35  36  37  38  39
 JobTyp=1 Pass  1:  I=  11 to  39 NPSUse=  1 ParTrn=F ParDer=F DoDerP=T.
 Spin components of T(2) and E(2):
     alpha-alpha T2 =       0.5733941531D-01 E2=     -0.1641676294D+00
     alpha-beta  T2 =       0.3628225768D+00 E2=     -0.1090778921D+01
     beta-beta   T2 =       0.5733941531D-01 E2=     -0.1641676294D+00
 The integrals were generated   1 times.
 ANorm=    0.1215525157D+01
 E2 =    -0.1419114180D+01 EUMP2 =    -0.39056688524706D+03
 Leave Link  906 at Fri Sep 17 20:15:06 2021, MaxMem=   524288000 cpu:             286.6 elap:             286.8
 (Enter /opt/gaussian/g16_legacy/l1002.exe)
 Minotr:  Closed shell wavefunction.
          Computing MP2/KS-MP2 derivatives.
          Using Z-Vector for PSCF gradient.
          Skipping F1 and S1 gradient terms here.
          IDoAtm=1111111111111111111111111111
          Frozen-core window.
          Direct CPHF calculation.
          Differentiating once with respect to electric field.
                with respect to dipole field.
          Differentiating once with respect to nuclear coordinates.
          Requested convergence is 1.0D-10 RMS, and 1.0D-09 maximum.
          NewPWx=F KeepS1=T KeepF1=T KeepIn=T MapXYZ=F SortEE=F KeepMc=T.
 Keep R1 ints in memory in canonical form, NReq=425201067.
 FoFCou: FMM=F IPFlag=           0 FMFlag=           0 FMFlg1=           0
         NFxFlg=           0 DoJE=F BraDBF=F KetDBF=F FulRan=T
         wScrn=  0.000000 ICntrl=       600 IOpCl=  0 I1Cent=           0 NGrid=           0
         NMat0=    1 NMatS0=  28920 NMatT0=    0 NMatD0=    1 NMtDS0=    0 NMtDT0=    0
 Symmetry not used in FoFCou.
 Two-electron integral symmetry not used.
          MDV=     524288000 using IRadAn=       5.
          Solving linear equations separately, MaxMat=       0.
          There are     1 degrees of freedom in the 1st order CPHF.  IDoFFX=0 NUNeed=     1.
 LinEq1:  Iter=  0 NonCon=     1 RMS=2.53D-03 Max=3.45D-02 NDo=     1
 AX will form     1 AO Fock derivatives at one time.
 LinEq1:  Iter=  1 NonCon=     1 RMS=6.85D-04 Max=1.32D-02 NDo=     1
 LinEq1:  Iter=  2 NonCon=     1 RMS=1.52D-04 Max=3.13D-03 NDo=     1
 LinEq1:  Iter=  3 NonCon=     1 RMS=3.35D-05 Max=5.07D-04 NDo=     1
 LinEq1:  Iter=  4 NonCon=     1 RMS=1.41D-05 Max=4.59D-04 NDo=     1
 LinEq1:  Iter=  5 NonCon=     1 RMS=4.00D-06 Max=3.76D-05 NDo=     1
 LinEq1:  Iter=  6 NonCon=     1 RMS=1.50D-06 Max=4.00D-05 NDo=     1
 LinEq1:  Iter=  7 NonCon=     1 RMS=4.28D-07 Max=5.06D-06 NDo=     1
 LinEq1:  Iter=  8 NonCon=     1 RMS=1.08D-07 Max=2.12D-06 NDo=     1
 LinEq1:  Iter=  9 NonCon=     1 RMS=2.58D-08 Max=5.33D-07 NDo=     1
 LinEq1:  Iter= 10 NonCon=     1 RMS=9.98D-09 Max=2.61D-07 NDo=     1
 LinEq1:  Iter= 11 NonCon=     1 RMS=3.19D-09 Max=4.60D-08 NDo=     1
 LinEq1:  Iter= 12 NonCon=     1 RMS=8.94D-10 Max=1.55D-08 NDo=     1
 LinEq1:  Iter= 13 NonCon=     1 RMS=2.38D-10 Max=3.40D-09 NDo=     1
 LinEq1:  Iter= 14 NonCon=     0 RMS=6.77D-11 Max=7.74D-10 NDo=     1
 Linear equations converged to 1.000D-10 1.000D-09 after    14 iterations.
 End of Minotr F.D. properties file   721 does not exist.
 End of Minotr F.D. properties file   722 does not exist.
 End of Minotr F.D. properties file   788 does not exist.
 Leave Link 1002 at Fri Sep 17 20:15:41 2021, MaxMem=   524288000 cpu:              34.2 elap:              34.2
 (Enter /opt/gaussian/g16_legacy/l601.exe)
 Copying SCF densities to generalized density rwf, IOpCl= 0 IROHF=0.

 **********************************************************************

            Population analysis using the SCF density.

 **********************************************************************

 Orbital symmetries:
       Occupied  (A) (A) (A) (A) (A) (A) (A) (A) (A) (A) (A) (A)
                 (A) (A) (A) (A) (A) (A) (A) (A) (A) (A) (A) (A)
                 (A) (A) (A) (A) (A) (A) (A) (A) (A) (A) (A) (A)
                 (A) (A) (A)
       Virtual   (A) (A) (A) (A) (A) (A) (A) (A) (A) (A) (A) (A)
                 (A) (A) (A) (A) (A) (A) (A) (A) (A) (A) (A) (A)
                 (A) (A) (A) (A) (A) (A) (A) (A) (A) (A) (A) (A)
                 (A) (A) (A) (A) (A) (A) (A) (A) (A) (A) (A) (A)
                 (A) (A) (A) (A) (A) (A) (A) (A) (A) (A) (A) (A)
                 (A) (A) (A) (A) (A) (A) (A) (A) (A) (A) (A) (A)
                 (A) (A) (A) (A) (A) (A) (A) (A) (A) (A) (A) (A)
                 (A) (A) (A) (A) (A) (A) (A) (A) (A) (A) (A) (A)
                 (A) (A) (A) (A) (A) (A) (A) (A) (A) (A) (A) (A)
                 (A) (A) (A) (A) (A) (A) (A) (A) (A) (A) (A) (A)
                 (A) (A) (A) (A) (A) (A) (A) (A) (A) (A) (A) (A)
                 (A) (A) (A) (A) (A) (A) (A) (A) (A) (A) (A) (A)
                 (A) (A) (A) (A) (A) (A) (A) (A) (A) (A) (A) (A)
                 (A) (A) (A) (A) (A) (A) (A) (A) (A) (A) (A) (A)
                 (A) (A) (A) (A) (A) (A) (A) (A) (A) (A) (A) (A)
                 (A) (A) (A) (A) (A) (A) (A) (A) (A) (A) (A) (A)
                 (A) (A) (A) (A) (A) (A) (A) (A) (A)
 The electronic state is 1-A.
 Alpha  occ. eigenvalues --  -11.22638 -11.22541 -11.22290 -11.22009 -11.21698
 Alpha  occ. eigenvalues --  -11.21445 -11.21421 -11.21328 -11.21251 -11.21013
 Alpha  occ. eigenvalues --   -1.10287  -1.07877  -1.01864  -0.97550  -0.93537
 Alpha  occ. eigenvalues --   -0.91592  -0.87333  -0.82125  -0.70446  -0.68862
 Alpha  occ. eigenvalues --   -0.63720  -0.61651  -0.59637  -0.58862  -0.58069
 Alpha  occ. eigenvalues --   -0.57401  -0.55276  -0.54198  -0.53774  -0.52570
 Alpha  occ. eigenvalues --   -0.52323  -0.51112  -0.49880  -0.49416  -0.46480
 Alpha  occ. eigenvalues --   -0.45642  -0.45077  -0.32943  -0.30894
 Alpha virt. eigenvalues --    0.18950   0.19582   0.22838   0.24472   0.25559
 Alpha virt. eigenvalues --    0.26564   0.29164   0.29556   0.30265   0.30663
 Alpha virt. eigenvalues --    0.31271   0.32153   0.33487   0.33681   0.33940
 Alpha virt. eigenvalues --    0.34713   0.35832   0.37538   0.38939   0.40034
 Alpha virt. eigenvalues --    0.41136   0.42195   0.43011   0.44091   0.45503
 Alpha virt. eigenvalues --    0.51545   0.53026   0.60939   0.62922   0.69394
 Alpha virt. eigenvalues --    0.70708   0.72725   0.74669   0.75685   0.77324
 Alpha virt. eigenvalues --    0.78551   0.80801   0.81335   0.82489   0.82644
 Alpha virt. eigenvalues --    0.84515   0.87210   0.88446   0.89688   0.92211
 Alpha virt. eigenvalues --    0.94149   0.94697   0.97014   0.97618   1.00255
 Alpha virt. eigenvalues --    1.01037   1.02244   1.02859   1.04463   1.07166
 Alpha virt. eigenvalues --    1.08828   1.09214   1.11574   1.11962   1.12886
 Alpha virt. eigenvalues --    1.13783   1.14437   1.14910   1.15314   1.15793
 Alpha virt. eigenvalues --    1.16278   1.17076   1.17744   1.18888   1.20163
 Alpha virt. eigenvalues --    1.20824   1.22764   1.23693   1.24570   1.24988
 Alpha virt. eigenvalues --    1.31360   1.34325   1.41492   1.42552   1.45306
 Alpha virt. eigenvalues --    1.48322   1.51326   1.53588   1.54730   1.57906
 Alpha virt. eigenvalues --    1.61984   1.64389   1.68224   1.71208   1.72316
 Alpha virt. eigenvalues --    1.75658   1.82640   1.90006   1.93644   1.94209
 Alpha virt. eigenvalues --    1.97145   2.00394   2.04329   2.06444   2.08435
 Alpha virt. eigenvalues --    2.08972   2.09129   2.10854   2.12576   2.14809
 Alpha virt. eigenvalues --    2.16136   2.18817   2.22698   2.23330   2.27041
 Alpha virt. eigenvalues --    2.29751   2.31622   2.33608   2.35361   2.35523
 Alpha virt. eigenvalues --    2.36063   2.36689   2.37459   2.40226   2.40687
 Alpha virt. eigenvalues --    2.41592   2.42050   2.44246   2.45074   2.45398
 Alpha virt. eigenvalues --    2.47032   2.48701   2.50534   2.50854   2.52774
 Alpha virt. eigenvalues --    2.53377   2.55580   2.59336   2.63025   2.65233
 Alpha virt. eigenvalues --    2.65598   2.69054   2.71120   2.73729   2.74592
 Alpha virt. eigenvalues --    2.76661   2.78723   2.79892   2.82426   2.86108
 Alpha virt. eigenvalues --    2.87031   2.88376   2.89239   2.92801   2.94537
 Alpha virt. eigenvalues --    2.96726   2.98547   3.00578   3.01371   3.03718
 Alpha virt. eigenvalues --    3.05915   3.06386   3.10802   3.11247   3.14981
 Alpha virt. eigenvalues --    3.16929   3.19295   3.20027   3.21114   3.22044
 Alpha virt. eigenvalues --    3.22816   3.24163   3.25417   3.26725   3.38413
 Alpha virt. eigenvalues --    3.39283   3.42615   3.44790   3.56061   3.56539
 Alpha virt. eigenvalues --    3.60667   3.61053   3.66237   3.71419   3.79432
 Alpha virt. eigenvalues --    3.80017   3.81316   3.81569   3.82162   3.82433
 Alpha virt. eigenvalues --    3.83852   3.85544   3.86406   3.89855   3.93393
 Alpha virt. eigenvalues --    3.94295   4.59120   4.63364   4.76553   4.82340
 Alpha virt. eigenvalues --    4.88921   4.91791   4.92518   5.01168   5.10616
 Alpha virt. eigenvalues --    5.16282
          Condensed to atoms (all electrons):
               1          2          3          4          5          6
     1  C    4.961859   0.406794   0.405898   0.347921  -0.057805   0.003324
     2  H    0.406794   0.598767  -0.035071  -0.043554  -0.003545  -0.000089
     3  H    0.405898  -0.035071   0.612244  -0.052032  -0.002200   0.000068
     4  C    0.347921  -0.043554  -0.052032   4.943980   0.344241  -0.037121
     5  C   -0.057805  -0.003545  -0.002200   0.344241   4.921038   0.405794
     6  H    0.003324  -0.000089   0.000068  -0.037121   0.405794   0.569512
     7  H   -0.004628   0.002421  -0.000702  -0.044185   0.406098  -0.030834
     8  H    0.000066  -0.000075   0.001488  -0.041302   0.395347  -0.026162
     9  C   -0.042501  -0.000208   0.000043   0.698241  -0.052467  -0.003122
    10  H   -0.006196   0.000153   0.000043  -0.032791   0.003344   0.000035
    11  C    0.003016  -0.000102  -0.000070  -0.047687  -0.007976  -0.002267
    12  H    0.000081   0.000001  -0.000006  -0.000027  -0.001227  -0.001050
    13  H   -0.000095  -0.000004   0.000019  -0.001471   0.000170  -0.000075
    14  H   -0.000100   0.000014  -0.000003   0.000157   0.000317   0.000204
    15  C   -0.000079   0.000001   0.000001  -0.000016   0.000000   0.000000
    16  H   -0.000008   0.000000   0.000000   0.000001  -0.000000   0.000000
    17  H   -0.000003   0.000000  -0.000000   0.000000  -0.000000   0.000000
    18  H    0.000013  -0.000000  -0.000000  -0.000001   0.000000  -0.000000
    19  C    0.000074  -0.000056   0.000065   0.000359  -0.000001  -0.000000
    20  C    0.000214   0.000002  -0.000008  -0.000001  -0.000000   0.000000
    21  H    0.000216  -0.000000  -0.000002  -0.000037   0.000000  -0.000000
    22  H    0.000005  -0.000000   0.000000  -0.000000   0.000000   0.000000
    23  H   -0.000035   0.000001   0.000000   0.000002   0.000000   0.000000
    24  C   -0.058748   0.005100  -0.005004   0.002632  -0.000113   0.000001
    25  H   -0.003297  -0.000031   0.002321   0.000359  -0.000049   0.000001
    26  C    0.347062  -0.039822  -0.039571  -0.043399   0.003227  -0.000084
    27  H   -0.039539  -0.004930   0.005040  -0.001842  -0.000078   0.000003
    28  H   -0.045022  -0.002975  -0.003882   0.004112  -0.000079   0.000001
               7          8          9         10         11         12
     1  C   -0.004628   0.000066  -0.042501  -0.006196   0.003016   0.000081
     2  H    0.002421  -0.000075  -0.000208   0.000153  -0.000102   0.000001
     3  H   -0.000702   0.001488   0.000043   0.000043  -0.000070  -0.000006
     4  C   -0.044185  -0.041302   0.698241  -0.032791  -0.047687  -0.000027
     5  C    0.406098   0.395347  -0.052467   0.003344  -0.007976  -0.001227
     6  H   -0.030834  -0.026162  -0.003122   0.000035  -0.002267  -0.001050
     7  H    0.587134  -0.031460   0.002344  -0.000106   0.000141   0.000031
     8  H   -0.031460   0.580254  -0.002834  -0.000117   0.000727  -0.000350
     9  C    0.002344  -0.002834   4.938738   0.404754   0.341432  -0.042610
    10  H   -0.000106  -0.000117   0.404754   0.548969  -0.044462   0.003458
    11  C    0.000141   0.000727   0.341432  -0.044462   4.903146   0.406911
    12  H    0.000031  -0.000350  -0.042610   0.003458   0.406911   0.577280
    13  H   -0.000015   0.000189  -0.044992  -0.001601   0.404953  -0.029325
    14  H    0.000015  -0.000065  -0.043510  -0.001598   0.398307  -0.027748
    15  C    0.000000  -0.000000   0.000066  -0.000093  -0.000004   0.000000
    16  H    0.000000   0.000000   0.000010  -0.000008  -0.000000  -0.000000
    17  H   -0.000000   0.000000  -0.000004   0.000009   0.000000  -0.000000
    18  H    0.000000  -0.000000   0.000093  -0.000030   0.000002   0.000000
    19  C   -0.000000   0.000002  -0.004575   0.001154   0.000010  -0.000003
    20  C    0.000000  -0.000000   0.000080  -0.000802   0.000003   0.000000
    21  H    0.000000  -0.000000   0.000238  -0.000226  -0.000006   0.000000
    22  H    0.000000  -0.000000   0.000048  -0.000064  -0.000001   0.000000
    23  H   -0.000000   0.000000  -0.000007   0.000047  -0.000000   0.000000
    24  C    0.000006   0.000013  -0.005811   0.001942  -0.000082  -0.000009
    25  H   -0.000000   0.000001   0.000132   0.000023  -0.000008   0.000000
    26  C    0.000100  -0.000086  -0.003319  -0.001651  -0.000032   0.000002
    27  H   -0.000006   0.000002   0.001164  -0.001309  -0.000029  -0.000001
    28  H   -0.000009   0.000004  -0.000061   0.000189   0.000001   0.000000
              13         14         15         16         17         18
     1  C   -0.000095  -0.000100  -0.000079  -0.000008  -0.000003   0.000013
     2  H   -0.000004   0.000014   0.000001   0.000000   0.000000  -0.000000
     3  H    0.000019  -0.000003   0.000001   0.000000  -0.000000  -0.000000
     4  C   -0.001471   0.000157  -0.000016   0.000001   0.000000  -0.000001
     5  C    0.000170   0.000317   0.000000  -0.000000  -0.000000   0.000000
     6  H   -0.000075   0.000204   0.000000   0.000000   0.000000  -0.000000
     7  H   -0.000015   0.000015   0.000000   0.000000  -0.000000   0.000000
     8  H    0.000189  -0.000065  -0.000000   0.000000   0.000000  -0.000000
     9  C   -0.044992  -0.043510   0.000066   0.000010  -0.000004   0.000093
    10  H   -0.001601  -0.001598  -0.000093  -0.000008   0.000009  -0.000030
    11  C    0.404953   0.398307  -0.000004  -0.000000   0.000000   0.000002
    12  H   -0.029325  -0.027748   0.000000  -0.000000  -0.000000   0.000000
    13  H    0.584204  -0.034115   0.000003   0.000000   0.000000  -0.000001
    14  H   -0.034115   0.592076   0.000000   0.000000  -0.000000   0.000000
    15  C    0.000003   0.000000   4.892978   0.406037   0.398050   0.399736
    16  H    0.000000   0.000000   0.406037   0.570231  -0.027439  -0.028278
    17  H    0.000000  -0.000000   0.398050  -0.027439   0.597750  -0.035193
    18  H   -0.000001   0.000000   0.399736  -0.028278  -0.035193   0.594044
    19  C    0.000089  -0.000009   0.353000  -0.041618  -0.047646  -0.043545
    20  C   -0.000004   0.000002  -0.059575   0.003842   0.000484  -0.003760
    21  H   -0.000001   0.000002   0.003437  -0.000122  -0.000063   0.000036
    22  H   -0.000001   0.000000  -0.005244   0.000158  -0.000724   0.002468
    23  H    0.000000  -0.000000   0.000736  -0.000133   0.001139  -0.000098
    24  C    0.000040   0.000005  -0.044377  -0.002424  -0.001015  -0.000838
    25  H    0.000000   0.000000  -0.006562   0.002281   0.000191   0.000168
    26  C    0.000008  -0.000003   0.003265   0.000134  -0.000126  -0.000084
    27  H    0.000006  -0.000007   0.000114   0.000005  -0.000010   0.000011
    28  H    0.000000  -0.000000  -0.000131  -0.000007   0.000022  -0.000005
              19         20         21         22         23         24
     1  C    0.000074   0.000214   0.000216   0.000005  -0.000035  -0.058748
     2  H   -0.000056   0.000002  -0.000000  -0.000000   0.000001   0.005100
     3  H    0.000065  -0.000008  -0.000002   0.000000   0.000000  -0.005004
     4  C    0.000359  -0.000001  -0.000037  -0.000000   0.000002   0.002632
     5  C   -0.000001  -0.000000   0.000000   0.000000   0.000000  -0.000113
     6  H   -0.000000   0.000000  -0.000000   0.000000   0.000000   0.000001
     7  H   -0.000000   0.000000   0.000000   0.000000  -0.000000   0.000006
     8  H    0.000002  -0.000000  -0.000000  -0.000000   0.000000   0.000013
     9  C   -0.004575   0.000080   0.000238   0.000048  -0.000007  -0.005811
    10  H    0.001154  -0.000802  -0.000226  -0.000064   0.000047   0.001942
    11  C    0.000010   0.000003  -0.000006  -0.000001  -0.000000  -0.000082
    12  H   -0.000003   0.000000   0.000000   0.000000   0.000000  -0.000009
    13  H    0.000089  -0.000004  -0.000001  -0.000001   0.000000   0.000040
    14  H   -0.000009   0.000002   0.000002   0.000000  -0.000000   0.000005
    15  C    0.353000  -0.059575   0.003437  -0.005244   0.000736  -0.044377
    16  H   -0.041618   0.003842  -0.000122   0.000158  -0.000133  -0.002424
    17  H   -0.047646   0.000484  -0.000063  -0.000724   0.001139  -0.001015
    18  H   -0.043545  -0.003760   0.000036   0.002468  -0.000098  -0.000838
    19  C    4.944236   0.339877  -0.037436  -0.043530  -0.041046   0.701831
    20  C    0.339877   4.919518   0.403454   0.404438   0.401397  -0.050205
    21  H   -0.037436   0.403454   0.571981  -0.030011  -0.026400  -0.003667
    22  H   -0.043530   0.404438  -0.030011   0.586245  -0.031022   0.002753
    23  H   -0.041046   0.401397  -0.026400  -0.031022   0.569048  -0.003848
    24  C    0.701831  -0.050205  -0.003667   0.002753  -0.003848   4.943298
    25  H   -0.033069   0.003321   0.000005  -0.000102  -0.000112   0.400177
    26  C   -0.050198  -0.008050  -0.001595   0.000186   0.000474   0.344316
    27  H   -0.000254  -0.002283   0.000351   0.000098  -0.000478  -0.045787
    28  H   -0.002319   0.000488  -0.000312  -0.000020   0.000292  -0.045888
              25         26         27         28
     1  C   -0.003297   0.347062  -0.039539  -0.045022
     2  H   -0.000031  -0.039822  -0.004930  -0.002975
     3  H    0.002321  -0.039571   0.005040  -0.003882
     4  C    0.000359  -0.043399  -0.001842   0.004112
     5  C   -0.000049   0.003227  -0.000078  -0.000079
     6  H    0.000001  -0.000084   0.000003   0.000001
     7  H   -0.000000   0.000100  -0.000006  -0.000009
     8  H    0.000001  -0.000086   0.000002   0.000004
     9  C    0.000132  -0.003319   0.001164  -0.000061
    10  H    0.000023  -0.001651  -0.001309   0.000189
    11  C   -0.000008  -0.000032  -0.000029   0.000001
    12  H    0.000000   0.000002  -0.000001   0.000000
    13  H    0.000000   0.000008   0.000006   0.000000
    14  H    0.000000  -0.000003  -0.000007  -0.000000
    15  C   -0.006562   0.003265   0.000114  -0.000131
    16  H    0.002281   0.000134   0.000005  -0.000007
    17  H    0.000191  -0.000126  -0.000010   0.000022
    18  H    0.000168  -0.000084   0.000011  -0.000005
    19  C   -0.033069  -0.050198  -0.000254  -0.002319
    20  C    0.003321  -0.008050  -0.002283   0.000488
    21  H    0.000005  -0.001595   0.000351  -0.000312
    22  H   -0.000102   0.000186   0.000098  -0.000020
    23  H   -0.000112   0.000474  -0.000478   0.000292
    24  C    0.400177   0.344316  -0.045787  -0.045888
    25  H    0.554607  -0.043077   0.003270   0.000722
    26  C   -0.043077   4.957367   0.412029   0.414025
    27  H    0.003270   0.412029   0.586006  -0.029697
    28  H    0.000722   0.414025  -0.029697   0.586248
 Mulliken charges:
               1
     1  C   -0.218486
     2  H    0.117211
     3  H    0.111324
     4  C    0.003461
     5  C   -0.354036
     6  H    0.121862
     7  H    0.113657
     8  H    0.124360
     9  C   -0.141361
    10  H    0.126933
    11  C   -0.355920
    12  H    0.114590
    13  H    0.122020
    14  H    0.116059
    15  C   -0.341345
    16  H    0.117338
    17  H    0.114577
    18  H    0.115262
    19  C    0.004608
    20  C   -0.352432
    21  H    0.120159
    22  H    0.114321
    23  H    0.130045
    24  C   -0.134298
    25  H    0.118731
    26  C   -0.251095
    27  H    0.118152
    28  H    0.124304
 Sum of Mulliken charges =  -0.00000
 Mulliken charges with hydrogens summed into heavy atoms:
               1
     1  C    0.010048
     4  C    0.003461
     5  C    0.005843
     9  C   -0.014427
    11  C   -0.003250
    15  C    0.005831
    19  C    0.004608
    20  C    0.012092
    24  C   -0.015567
    26  C   -0.008639
 Electronic spatial extent (au):  <R**2>=           2119.6888
 Charge=              0.0000 electrons
 Dipole moment (field-independent basis, Debye):
    X=              0.0653    Y=             -0.0012    Z=             -0.0614  Tot=              0.0897
 Quadrupole moment (field-independent basis, Debye-Ang):
   XX=            -64.4681   YY=            -64.5822   ZZ=            -65.3503
   XY=              1.2991   XZ=             -1.2592   YZ=             -0.1607
 Traceless Quadrupole moment (field-independent basis, Debye-Ang):
   XX=              0.3321   YY=              0.2180   ZZ=             -0.5501
   XY=              1.2991   XZ=             -1.2592   YZ=             -0.1607
 Octapole moment (field-independent basis, Debye-Ang**2):
  XXX=             -0.7372  YYY=              0.1237  ZZZ=              2.6652  XYY=             -1.6272
  XXY=              2.7297  XXZ=             -1.0788  XZZ=              1.2512  YZZ=             -0.5488
  YYZ=             -1.3814  XYZ=              0.4314
 Hexadecapole moment (field-independent basis, Debye-Ang**3):
 XXXX=          -1933.7945 YYYY=           -705.1833 ZZZZ=           -302.8631 XXXY=             -1.9758
 XXXZ=             -7.0749 YYYX=              6.4990 YYYZ=              0.8219 ZZZX=             -1.7994
 ZZZY=             -1.9935 XXYY=           -443.6177 XXZZ=           -384.4563 YYZZ=           -168.3483
 XXYZ=              3.5968 YYXZ=             -0.7528 ZZXY=              0.1334
 N-N= 5.269053525531D+02 E-N=-1.958525112343D+03  KE= 3.885794750050D+02
 No NMR shielding tensors so no spin-rotation constants.
 Leave Link  601 at Fri Sep 17 20:15:41 2021, MaxMem=   524288000 cpu:               0.3 elap:               0.3
 (Enter /opt/gaussian/g16_legacy/l701.exe)
 ... and contract with generalized density number  2.
 Compute integral first derivatives.
 Leave Link  701 at Fri Sep 17 20:15:41 2021, MaxMem=   524288000 cpu:               0.3 elap:               0.3
 (Enter /opt/gaussian/g16_legacy/l702.exe)
 L702 exits ... SP integral derivatives will be done elsewhere.
 Leave Link  702 at Fri Sep 17 20:15:41 2021, MaxMem=   524288000 cpu:               0.1 elap:               0.1
 (Enter /opt/gaussian/g16_legacy/l703.exe)
 Integral derivatives from FoFJK, PRISM(SPDF).
 Compute integral first derivatives, UseDBF=F ICtDFT=           0.
 Calling FoFJK, ICntrl=  10002127 FMM=F ISym2X=0 I1Cent= 0 IOpClX= 0 NMat=1 NMatS=1 NMatT=0.
 FoFJK:  IHMeth= 1 ICntrl=10002127 DoSepK=F KAlg= 0 I1Cent=           0 FoldK=F
 IRaf=         0 NMat=       1 IRICut=       1 DoRegI=T DoRafI=F ISym2E= 0 IDoP0=0 IntGTp=1.
 FoFCou: FMM=F IPFlag=           0 FMFlag=      100000 FMFlg1=         800
         NFxFlg=           0 DoJE=F BraDBF=F KetDBF=F FulRan=T
         wScrn=  0.000000 ICntrl=  10002127 IOpCl=  0 I1Cent=           0 NGrid=           0
         NMat0=    1 NMatS0=      1 NMatT0=    0 NMatD0=    1 NMtDS0=    0 NMtDT0=    0
 Symmetry not used in FoFCou.
 Leave Link  703 at Fri Sep 17 20:16:18 2021, MaxMem=   524288000 cpu:              37.1 elap:              37.1
 (Enter /opt/gaussian/g16_legacy/l716.exe)
 Dipole        = 2.57696352D-02 9.01596636D-03-2.16715651D-02
 ***** Axes restored to original set *****
 -------------------------------------------------------------------
 Center     Atomic                   Forces (Hartrees/Bohr)
 Number     Number              X              Y              Z
 -------------------------------------------------------------------
      1        6           0.000100932    0.000162769    0.003206350
      2        1           0.000424571    0.002160667   -0.002252506
      3        1           0.001422738   -0.002050000    0.000050205
      4        6          -0.005777314    0.000661980    0.005531151
      5        6           0.001433934   -0.002215568   -0.001856710
      6        1          -0.001977632    0.004687557   -0.000853626
      7        1           0.000302380    0.004472775    0.001541546
      8        1           0.000704937   -0.003635088   -0.000913122
      9        6          -0.007681984    0.001685315   -0.000781367
     10        1          -0.003424266    0.001076751   -0.004405357
     11        6           0.004970812   -0.004485658   -0.002142378
     12        1          -0.002738106    0.000464096    0.001837795
     13        1           0.000476365   -0.002610182    0.000932440
     14        1           0.002068392    0.002613503   -0.000440377
     15        6          -0.003012207    0.002869854   -0.003765031
     16        1          -0.002412388   -0.002629619    0.001422815
     17        1           0.003005374    0.000967983    0.001929455
     18        1          -0.002589396    0.000827284    0.000890920
     19        6           0.007621479    0.000502353   -0.006375313
     20        6           0.001757347   -0.001512449    0.003694026
     21        1          -0.003302219    0.001254514   -0.001898075
     22        1          -0.002845466    0.000670346   -0.003481555
     23        1           0.001769385   -0.001975040    0.002043373
     24        6           0.004564440   -0.004672356    0.002677482
     25        1          -0.000426624   -0.000804545    0.002887038
     26        6           0.003893600    0.001353228    0.000822999
     27        1          -0.000152902    0.003826852    0.000650002
     28        1           0.001823818   -0.003667323   -0.000952184
 -------------------------------------------------------------------
 Cartesian Forces:  Max     0.007681984 RMS     0.002851313
 Leave Link  716 at Fri Sep 17 20:16:19 2021, MaxMem=   524288000 cpu:               0.1 elap:               0.1
 (Enter /opt/gaussian/g16_legacy/l103.exe)

 GradGradGradGradGradGradGradGradGradGradGradGradGradGradGradGradGradGrad
 Berny optimization.
 FormGI is forming the generalized inverse of G from B-inverse, IUseBI=4.
 Internal  Forces:  Max     0.011763395 RMS     0.002766921
 Search for a local minimum.
 Step number   1 out of a maximum of  138
 All quantities printed in internal units (Hartrees-Bohrs-Radians)
 RMS Force = .27669D-02 SwitMx=.10000D-02 MixMth= 1
 Mixed Optimization -- RFO/linear search
 Second derivative matrix not updated -- first step.
 ITU=  0
     Eigenvalues ---    0.00230   0.00409   0.00659   0.00669   0.00706
     Eigenvalues ---    0.00709   0.00845   0.01173   0.01279   0.01541
     Eigenvalues ---    0.01675   0.02756   0.02763   0.03272   0.03914
     Eigenvalues ---    0.05206   0.05427   0.07014   0.07023   0.07030
     Eigenvalues ---    0.07102   0.07260   0.07298   0.07336   0.07535
     Eigenvalues ---    0.09455   0.10398   0.12949   0.13520   0.15985
     Eigenvalues ---    0.15989   0.16000   0.16000   0.16000   0.16000
     Eigenvalues ---    0.16000   0.16000   0.16000   0.16000   0.16000
     Eigenvalues ---    0.16000   0.16000   0.16000   0.21951   0.22003
     Eigenvalues ---    0.22005   0.22079   0.24985   0.24992   0.24995
     Eigenvalues ---    0.24998   0.28162   0.29700   0.31543   0.31620
     Eigenvalues ---    0.31903   0.31931   0.33012   0.33842   0.33894
     Eigenvalues ---    0.34000   0.34057   0.34098   0.34216   0.34312
     Eigenvalues ---    0.34338   0.34340   0.34348   0.34348   0.34350
     Eigenvalues ---    0.34363   0.34395   0.34515   0.34599   0.34655
     Eigenvalues ---    0.35369   0.55110   0.55229
 RFO step:  Lambda=-6.93397987D-03 EMin= 2.30000000D-03
 Linear search not attempted -- first point.
 Iteration  1 RMS(Cart)=  0.15705728 RMS(Int)=  0.00538389
 Iteration  2 RMS(Cart)=  0.01024310 RMS(Int)=  0.00018425
 Iteration  3 RMS(Cart)=  0.00004525 RMS(Int)=  0.00018276
 Iteration  4 RMS(Cart)=  0.00000000 RMS(Int)=  0.00018276
 ITry= 1 IFail=0 DXMaxC= 5.43D-01 DCOld= 1.00D+10 DXMaxT= 3.00D-01 DXLimC= 3.00D+00 Rises=F
 Variable       Old X    -DE/DX   Delta X   Delta X   Delta X     New X
                                 (Linear)    (Quad)   (Total)
    R1        2.07510  -0.00152   0.00000  -0.00441  -0.00441   2.07069
    R2        2.07597  -0.00129   0.00000  -0.00374  -0.00374   2.07223
    R3        2.88565  -0.01176   0.00000  -0.03870  -0.03870   2.84694
    R4        2.91786  -0.00717   0.00000  -0.02486  -0.02486   2.89301
    R5        2.84989   0.00089   0.00000   0.00275   0.00275   2.85263
    R6        2.54929  -0.00706   0.00000  -0.01263  -0.01263   2.53666
    R7        2.06748  -0.00409   0.00000  -0.01168  -0.01168   2.05579
    R8        2.07234  -0.00397   0.00000  -0.01143  -0.01143   2.06091
    R9        2.06967  -0.00217   0.00000  -0.00622  -0.00622   2.06346
   R10        2.05080  -0.00076   0.00000  -0.00211  -0.00211   2.04869
   R11        2.82330   0.00432   0.00000   0.01282   0.01282   2.83612
   R12        2.06469  -0.00322   0.00000  -0.00916  -0.00916   2.05553
   R13        2.06807  -0.00211   0.00000  -0.00603  -0.00603   2.06204
   R14        2.06722  -0.00157   0.00000  -0.00447  -0.00447   2.06275
   R15        2.06763  -0.00321   0.00000  -0.00917  -0.00917   2.05846
   R16        2.06747  -0.00102   0.00000  -0.00290  -0.00290   2.06456
   R17        2.06669  -0.00139   0.00000  -0.00395  -0.00395   2.06274
   R18        2.84322   0.00058   0.00000   0.00179   0.00179   2.84501
   R19        2.84269   0.00188   0.00000   0.00575   0.00575   2.84845
   R20        2.55035  -0.00486   0.00000  -0.00871  -0.00871   2.54164
   R21        2.06331  -0.00186   0.00000  -0.00528  -0.00528   2.05804
   R22        2.07164  -0.00395   0.00000  -0.01134  -0.01134   2.06030
   R23        2.06743  -0.00163   0.00000  -0.00467  -0.00467   2.06276
   R24        2.06238  -0.00272   0.00000  -0.00770  -0.00770   2.05468
   R25        2.84845  -0.00346   0.00000  -0.01070  -0.01070   2.83776
   R26        2.06761  -0.00196   0.00000  -0.00559  -0.00559   2.06202
   R27        2.07330  -0.00118   0.00000  -0.00339  -0.00339   2.06990
    A1        1.85399  -0.00249   0.00000  -0.01180  -0.01211   1.84188
    A2        1.87903   0.00259   0.00000   0.00788   0.00810   1.88714
    A3        1.87163   0.00419   0.00000   0.02292   0.02282   1.89445
    A4        1.87639   0.00261   0.00000   0.00728   0.00747   1.88386
    A5        1.87770   0.00413   0.00000   0.02187   0.02175   1.89944
    A6        2.09229  -0.01049   0.00000  -0.04590  -0.04574   2.04655
    A7        1.97716   0.00165   0.00000   0.00647   0.00645   1.98362
    A8        2.16552  -0.00567   0.00000  -0.02202  -0.02204   2.14349
    A9        2.14035   0.00402   0.00000   0.01572   0.01570   2.15605
   A10        1.96131  -0.00069   0.00000  -0.00195  -0.00194   1.95937
   A11        1.93165  -0.00166   0.00000  -0.00860  -0.00857   1.92309
   A12        1.92607   0.00405   0.00000   0.02073   0.02077   1.94684
   A13        1.85027   0.00251   0.00000   0.02172   0.02173   1.87200
   A14        1.90383  -0.00233   0.00000  -0.01630  -0.01628   1.88755
   A15        1.88788  -0.00207   0.00000  -0.01668  -0.01662   1.87126
   A16        2.08589  -0.00356   0.00000  -0.02384  -0.02392   2.06197
   A17        2.23704  -0.00368   0.00000  -0.01595  -0.01602   2.22102
   A18        1.95880   0.00726   0.00000   0.04094   0.04087   1.99967
   A19        1.98616  -0.00200   0.00000  -0.01128  -0.01125   1.97491
   A20        1.90689   0.00139   0.00000   0.00731   0.00728   1.91417
   A21        1.91680   0.00383   0.00000   0.02333   0.02331   1.94012
   A22        1.87641   0.00016   0.00000   0.00039   0.00040   1.87682
   A23        1.88801  -0.00075   0.00000  -0.00265  -0.00262   1.88540
   A24        1.88680  -0.00283   0.00000  -0.01841  -0.01848   1.86832
   A25        1.88622  -0.00013   0.00000   0.00144   0.00150   1.88772
   A26        1.87313   0.00165   0.00000   0.01286   0.01288   1.88601
   A27        1.96129  -0.00284   0.00000  -0.01431  -0.01427   1.94703
   A28        1.89576  -0.00334   0.00000  -0.02533  -0.02531   1.87045
   A29        1.92566   0.00378   0.00000   0.02116   0.02120   1.94686
   A30        1.91983   0.00072   0.00000   0.00316   0.00318   1.92301
   A31        2.00650   0.00174   0.00000   0.00729   0.00662   2.01312
   A32        2.10630   0.00073   0.00000   0.00347   0.00279   2.10910
   A33        2.16992  -0.00243   0.00000  -0.00883  -0.00949   2.16043
   A34        1.96990  -0.00110   0.00000  -0.00563  -0.00560   1.96430
   A35        1.93412  -0.00141   0.00000  -0.00568  -0.00566   1.92846
   A36        1.91949   0.00382   0.00000   0.01914   0.01918   1.93867
   A37        1.85277   0.00263   0.00000   0.02257   0.02258   1.87535
   A38        1.90002  -0.00245   0.00000  -0.01956  -0.01952   1.88050
   A39        1.88453  -0.00163   0.00000  -0.01170  -0.01167   1.87287
   A40        2.06739  -0.00230   0.00000  -0.01123  -0.01193   2.05546
   A41        2.21526   0.00186   0.00000   0.00880   0.00810   2.22336
   A42        1.99950   0.00051   0.00000   0.00538   0.00468   2.00418
   A43        1.98223  -0.00179   0.00000  -0.00801  -0.00801   1.97422
   A44        1.89380   0.00341   0.00000   0.02255   0.02259   1.91638
   A45        1.88419  -0.00268   0.00000  -0.02239  -0.02229   1.86190
   A46        1.96039  -0.00188   0.00000  -0.01454  -0.01449   1.94590
   A47        1.88186   0.00328   0.00000   0.02289   0.02283   1.90470
   A48        1.85564  -0.00035   0.00000  -0.00088  -0.00071   1.85493
    D1        1.07898   0.00011   0.00000   0.02901   0.02900   1.10798
    D2       -2.08086   0.00034   0.00000   0.03893   0.03882  -2.04204
    D3       -0.91200   0.00046   0.00000   0.03525   0.03537  -0.87664
    D4        2.21134   0.00069   0.00000   0.04517   0.04518   2.25652
    D5       -3.06110   0.00032   0.00000   0.03315   0.03319  -3.02791
    D6        0.06225   0.00055   0.00000   0.04307   0.04301   0.10526
    D7       -3.10822  -0.00051   0.00000   0.07943   0.07922  -3.02900
    D8        0.98170   0.00061   0.00000   0.08677   0.08658   1.06828
    D9       -1.02252   0.00067   0.00000   0.08786   0.08777  -0.93475
   D10       -1.12020   0.00063   0.00000   0.08742   0.08753  -1.03267
   D11        2.96972   0.00175   0.00000   0.09475   0.09489   3.06461
   D12        0.96550   0.00181   0.00000   0.09585   0.09608   1.06158
   D13        1.02827   0.00002   0.00000   0.08241   0.08237   1.11064
   D14       -1.16500   0.00114   0.00000   0.08975   0.08973  -1.07527
   D15        3.11396   0.00120   0.00000   0.09084   0.09092  -3.07830
[...]
                 (A) (A) (A) (A) (A) (A) (A) (A) (A) (A) (A) (A)
                 (A) (A) (A) (A) (A) (A) (A) (A) (A) (A) (A) (A)
                 (A) (A) (A) (A) (A) (A) (A) (A) (A) (A) (A) (A)
                 (A) (A) (A) (A) (A) (A) (A) (A) (A) (A) (A) (A)
                 (A) (A) (A) (A) (A) (A) (A) (A) (A) (A) (A) (A)
                 (A) (A) (A) (A) (A) (A) (A) (A) (A) (A) (A) (A)
                 (A) (A) (A) (A) (A) (A) (A) (A) (A) (A) (A) (A)
                 (A) (A) (A) (A) (A) (A) (A) (A) (A) (A) (A) (A)
                 (A) (A) (A) (A) (A) (A) (A) (A) (A) (A) (A) (A)
                 (A) (A) (A) (A) (A) (A) (A) (A) (A) (A) (A) (A)
                 (A) (A) (A) (A) (A) (A) (A) (A) (A) (A) (A) (A)
                 (A) (A) (A) (A) (A) (A) (A) (A) (A) (A) (A) (A)
                 (A) (A) (A) (A) (A) (A) (A) (A) (A) (A) (A) (A)
                 (A) (A) (A) (A) (A) (A) (A) (A) (A)
 The electronic state is 1-A.
 Alpha  occ. eigenvalues --  -11.22686 -11.22358 -11.21942 -11.21829 -11.21617
 Alpha  occ. eigenvalues --  -11.21343 -11.21320 -11.21276 -11.21210 -11.21081
 Alpha  occ. eigenvalues --   -1.10786  -1.08087  -1.02024  -0.97716  -0.93690
 Alpha  occ. eigenvalues --   -0.91841  -0.87599  -0.82525  -0.70620  -0.68858
 Alpha  occ. eigenvalues --   -0.64364  -0.62000  -0.59840  -0.59304  -0.58218
 Alpha  occ. eigenvalues --   -0.57455  -0.55136  -0.53680  -0.53149  -0.52864
 Alpha  occ. eigenvalues --   -0.52489  -0.51415  -0.50333  -0.49626  -0.46907
 Alpha  occ. eigenvalues --   -0.45822  -0.45194  -0.33141  -0.31216
 Alpha virt. eigenvalues --    0.18829   0.19896   0.23127   0.24462   0.25630
 Alpha virt. eigenvalues --    0.26760   0.28971   0.29285   0.30687   0.30911
 Alpha virt. eigenvalues --    0.32106   0.32486   0.33233   0.33803   0.34586
 Alpha virt. eigenvalues --    0.36180   0.36690   0.38071   0.38896   0.39814
 Alpha virt. eigenvalues --    0.41032   0.42150   0.43542   0.45011   0.46124
 Alpha virt. eigenvalues --    0.51801   0.52935   0.62952   0.63858   0.69330
 Alpha virt. eigenvalues --    0.71316   0.72490   0.73671   0.74475   0.77145
 Alpha virt. eigenvalues --    0.78843   0.80236   0.80657   0.81315   0.83752
 Alpha virt. eigenvalues --    0.85466   0.86651   0.87304   0.88621   0.92383
 Alpha virt. eigenvalues --    0.92749   0.96063   0.98795   0.99595   1.00247
 Alpha virt. eigenvalues --    1.00806   1.02190   1.03366   1.04644   1.08270
 Alpha virt. eigenvalues --    1.08460   1.09360   1.10291   1.11939   1.12705
 Alpha virt. eigenvalues --    1.13981   1.14779   1.15253   1.16243   1.16731
 Alpha virt. eigenvalues --    1.17148   1.18415   1.18775   1.19543   1.21097
 Alpha virt. eigenvalues --    1.22024   1.23024   1.23639   1.25582   1.25774
 Alpha virt. eigenvalues --    1.34659   1.36769   1.43410   1.44032   1.45999
 Alpha virt. eigenvalues --    1.47716   1.52833   1.54557   1.55002   1.58580
 Alpha virt. eigenvalues --    1.61136   1.62981   1.67743   1.72444   1.74158
 Alpha virt. eigenvalues --    1.78815   1.84505   1.90080   1.93282   1.95993
 Alpha virt. eigenvalues --    1.97994   2.01371   2.03100   2.07244   2.08487
 Alpha virt. eigenvalues --    2.09164   2.09933   2.10511   2.11650   2.14685
 Alpha virt. eigenvalues --    2.16692   2.19094   2.21216   2.23363   2.27097
 Alpha virt. eigenvalues --    2.29411   2.31544   2.32944   2.35361   2.35770
 Alpha virt. eigenvalues --    2.35873   2.36098   2.37310   2.40670   2.41179
 Alpha virt. eigenvalues --    2.42719   2.44301   2.45208   2.45709   2.46739
 Alpha virt. eigenvalues --    2.47843   2.49150   2.50796   2.51375   2.52220
 Alpha virt. eigenvalues --    2.55061   2.56497   2.60224   2.63064   2.65718
 Alpha virt. eigenvalues --    2.69236   2.69778   2.71864   2.73338   2.73997
 Alpha virt. eigenvalues --    2.77021   2.79202   2.81003   2.82638   2.83812
 Alpha virt. eigenvalues --    2.85586   2.90344   2.90916   2.94390   2.94587
 Alpha virt. eigenvalues --    2.98364   3.00008   3.03082   3.03139   3.05390
 Alpha virt. eigenvalues --    3.06853   3.08047   3.10862   3.11952   3.15959
 Alpha virt. eigenvalues --    3.18567   3.18776   3.18900   3.21431   3.23025
 Alpha virt. eigenvalues --    3.24235   3.25395   3.27061   3.28811   3.39713
 Alpha virt. eigenvalues --    3.40632   3.43151   3.45659   3.56546   3.57544
 Alpha virt. eigenvalues --    3.62360   3.62668   3.68335   3.72404   3.79786
 Alpha virt. eigenvalues --    3.80197   3.81669   3.82090   3.83529   3.84492
 Alpha virt. eigenvalues --    3.85075   3.86879   3.88157   3.91138   3.94028
 Alpha virt. eigenvalues --    3.95484   4.59341   4.62482   4.76755   4.82594
 Alpha virt. eigenvalues --    4.89261   4.92979   4.93677   5.01543   5.10443
 Alpha virt. eigenvalues --    5.17858
          Condensed to atoms (all electrons):
               1          2          3          4          5          6
     1  C    4.976359   0.408466   0.404013   0.349595  -0.065242   0.003882
     2  H    0.408466   0.597801  -0.037889  -0.044447  -0.002561  -0.000074
     3  H    0.404013  -0.037889   0.615047  -0.049723  -0.003529   0.000014
     4  C    0.349595  -0.044447  -0.049723   4.926617   0.353749  -0.038121
     5  C   -0.065242  -0.002561  -0.003529   0.353749   4.903939   0.406811
     6  H    0.003882  -0.000074   0.000014  -0.038121   0.406811   0.570902
     7  H   -0.002581   0.002632  -0.000566  -0.044831   0.401442  -0.027609
     8  H   -0.003211  -0.000172   0.002796  -0.043037   0.399557  -0.027245
     9  C   -0.046622  -0.001302   0.000881   0.704646  -0.043144  -0.002113
    10  H   -0.008149   0.000160   0.000096  -0.037819   0.003487   0.000047
    11  C    0.003245  -0.000098  -0.000088  -0.044511  -0.008913  -0.002540
    12  H    0.000066  -0.000002  -0.000003   0.000416  -0.002182  -0.001657
    13  H   -0.000097  -0.000004   0.000015  -0.001209   0.000269  -0.000017
    14  H   -0.000103   0.000018  -0.000003  -0.000492   0.000297   0.000018
    15  C   -0.000084   0.000001  -0.000003  -0.000013  -0.000000   0.000000
    16  H   -0.000008   0.000000   0.000001  -0.000000  -0.000000   0.000000
    17  H   -0.000003   0.000000   0.000000   0.000000  -0.000000   0.000000
    18  H    0.000012  -0.000000  -0.000000   0.000002   0.000000  -0.000000
    19  C    0.000435  -0.000062   0.000219   0.000180  -0.000007   0.000000
    20  C    0.000277   0.000001  -0.000010  -0.000002  -0.000000  -0.000000
    21  H    0.000040   0.000010  -0.000005   0.000003  -0.000000   0.000000
    22  H    0.000028  -0.000000   0.000000   0.000004   0.000000  -0.000000
    23  H   -0.000016   0.000000   0.000000   0.000001   0.000000   0.000000
    24  C   -0.062410   0.005219  -0.006630   0.001792  -0.000159   0.000001
    25  H   -0.003508  -0.000042   0.002761   0.000193  -0.000042   0.000001
    26  C    0.346734  -0.037343  -0.038831  -0.045790   0.003346  -0.000087
    27  H   -0.039062  -0.003783   0.005090  -0.002548  -0.000064   0.000001
    28  H   -0.047507  -0.004007  -0.002561   0.004471  -0.000092   0.000001
               7          8          9         10         11         12
     1  C   -0.002581  -0.003211  -0.046622  -0.008149   0.003245   0.000066
     2  H    0.002632  -0.000172  -0.001302   0.000160  -0.000098  -0.000002
     3  H   -0.000566   0.002796   0.000881   0.000096  -0.000088  -0.000003
     4  C   -0.044831  -0.043037   0.704646  -0.037819  -0.044511   0.000416
     5  C    0.401442   0.399557  -0.043144   0.003487  -0.008913  -0.002182
     6  H   -0.027609  -0.027245  -0.002113   0.000047  -0.002540  -0.001657
     7  H    0.591730  -0.036476  -0.000237  -0.000133   0.000274  -0.000034
     8  H   -0.036476   0.588912  -0.000172  -0.000109   0.000320  -0.000056
     9  C   -0.000237  -0.000172   4.921704   0.407866   0.342626  -0.044176
    10  H   -0.000133  -0.000109   0.407866   0.557567  -0.041517   0.003332
    11  C    0.000274   0.000320   0.342626  -0.041517   4.894062   0.408400
    12  H   -0.000034  -0.000056  -0.044176   0.003332   0.408400   0.578824
    13  H   -0.000026   0.000061  -0.043015  -0.001042   0.401950  -0.028528
    14  H    0.000046  -0.000027  -0.042182  -0.001471   0.400851  -0.028433
    15  C    0.000000   0.000000  -0.000000  -0.000057  -0.000001  -0.000000
    16  H    0.000000   0.000000   0.000002  -0.000004  -0.000000  -0.000000
    17  H   -0.000000   0.000000  -0.000003   0.000006   0.000000  -0.000000
    18  H    0.000000  -0.000000   0.000049  -0.000033   0.000001   0.000000
    19  C   -0.000000   0.000002  -0.003031   0.000408   0.000003  -0.000002
    20  C    0.000000  -0.000000   0.000125  -0.002526   0.000010  -0.000000
    21  H    0.000000  -0.000000  -0.000016  -0.000668  -0.000000  -0.000000
    22  H    0.000000  -0.000000   0.000295  -0.000454   0.000013   0.000000
    23  H   -0.000000   0.000000  -0.000012   0.000115  -0.000000   0.000000
    24  C    0.000004   0.000016  -0.003973   0.000779  -0.000035  -0.000007
    25  H   -0.000000   0.000001   0.000115  -0.000002  -0.000002   0.000000
    26  C   -0.000038  -0.000014  -0.005575  -0.002333  -0.000056   0.000002
    27  H   -0.000011   0.000007   0.000489  -0.002770  -0.000047  -0.000002
    28  H   -0.000002   0.000001   0.000103   0.000323   0.000000   0.000000
              13         14         15         16         17         18
     1  C   -0.000097  -0.000103  -0.000084  -0.000008  -0.000003   0.000012
     2  H   -0.000004   0.000018   0.000001   0.000000   0.000000  -0.000000
     3  H    0.000015  -0.000003  -0.000003   0.000001   0.000000  -0.000000
     4  C   -0.001209  -0.000492  -0.000013  -0.000000   0.000000   0.000002
     5  C    0.000269   0.000297  -0.000000  -0.000000  -0.000000   0.000000
     6  H   -0.000017   0.000018   0.000000   0.000000   0.000000  -0.000000
     7  H   -0.000026   0.000046   0.000000   0.000000  -0.000000   0.000000
     8  H    0.000061  -0.000027   0.000000   0.000000   0.000000  -0.000000
     9  C   -0.043015  -0.042182  -0.000000   0.000002  -0.000003   0.000049
    10  H   -0.001042  -0.001471  -0.000057  -0.000004   0.000006  -0.000033
    11  C    0.401950   0.400851  -0.000001  -0.000000   0.000000   0.000001
    12  H   -0.028528  -0.028433  -0.000000  -0.000000  -0.000000   0.000000
    13  H    0.588167  -0.036447   0.000000  -0.000000   0.000000  -0.000004
    14  H   -0.036447   0.590415   0.000000   0.000000  -0.000000   0.000000
    15  C    0.000000   0.000000   4.898361   0.406173   0.398045   0.398875
    16  H   -0.000000   0.000000   0.406173   0.566352  -0.026822  -0.026409
    17  H    0.000000  -0.000000   0.398045  -0.026822   0.597279  -0.038393
    18  H   -0.000004   0.000000   0.398875  -0.026409  -0.038393   0.595859
    19  C    0.000078  -0.000007   0.353009  -0.041710  -0.044133  -0.044670
    20  C   -0.000004   0.000002  -0.065451   0.003804  -0.001640  -0.001425
    21  H   -0.000001   0.000003   0.003788  -0.000115  -0.000062  -0.000035
    22  H   -0.000007   0.000008  -0.002272  -0.000043  -0.000534   0.002930
    23  H    0.000000  -0.000000  -0.002727  -0.000036   0.002702  -0.000445
    24  C    0.000022   0.000002  -0.042481  -0.002528  -0.000732  -0.001298
    25  H   -0.000000   0.000000  -0.007193   0.002425   0.000208   0.000179
    26  C   -0.000001   0.000007   0.003181   0.000142  -0.000120  -0.000076
    27  H    0.000014  -0.000018   0.000089   0.000005  -0.000006   0.000006
    28  H   -0.000000  -0.000000  -0.000118  -0.000007   0.000022  -0.000005
              19         20         21         22         23         24
     1  C    0.000435   0.000277   0.000040   0.000028  -0.000016  -0.062410
     2  H   -0.000062   0.000001   0.000010  -0.000000   0.000000   0.005219
     3  H    0.000219  -0.000010  -0.000005   0.000000   0.000000  -0.006630
     4  C    0.000180  -0.000002   0.000003   0.000004   0.000001   0.001792
     5  C   -0.000007  -0.000000  -0.000000   0.000000   0.000000  -0.000159
     6  H    0.000000  -0.000000   0.000000  -0.000000   0.000000   0.000001
     7  H   -0.000000   0.000000   0.000000   0.000000  -0.000000   0.000004
     8  H    0.000002  -0.000000  -0.000000  -0.000000   0.000000   0.000016
     9  C   -0.003031   0.000125  -0.000016   0.000295  -0.000012  -0.003973
    10  H    0.000408  -0.002526  -0.000668  -0.000454   0.000115   0.000779
    11  C    0.000003   0.000010  -0.000000   0.000013  -0.000000  -0.000035
    12  H   -0.000002  -0.000000  -0.000000   0.000000   0.000000  -0.000007
    13  H    0.000078  -0.000004  -0.000001  -0.000007   0.000000   0.000022
    14  H   -0.000007   0.000002   0.000003   0.000008  -0.000000   0.000002
    15  C    0.353009  -0.065451   0.003788  -0.002272  -0.002727  -0.042481
    16  H   -0.041710   0.003804  -0.000115  -0.000043  -0.000036  -0.002528
    17  H   -0.044133  -0.001640  -0.000062  -0.000534   0.002702  -0.000732
    18  H   -0.044670  -0.001425  -0.000035   0.002930  -0.000445  -0.001298
    19  C    4.920858   0.347574  -0.038791  -0.044799  -0.042044   0.707550
    20  C    0.347574   4.912756   0.406852   0.399255   0.403151  -0.042619
    21  H   -0.038791   0.406852   0.569755  -0.027441  -0.027031  -0.002407
    22  H   -0.044799   0.399255  -0.027441   0.590060  -0.035375  -0.000723
    23  H   -0.042044   0.403151  -0.027031  -0.035375   0.580209   0.000048
    24  C    0.707550  -0.042619  -0.002407  -0.000723   0.000048   4.935201
    25  H   -0.034960   0.003584   0.000052  -0.000123  -0.000119   0.400553
    26  C   -0.047587  -0.008663  -0.002153   0.000389   0.000194   0.342173
    27  H    0.001504  -0.002626  -0.000754   0.000108  -0.000149  -0.049252
    28  H   -0.002702   0.000418  -0.000053  -0.000035   0.000073  -0.043042
              25         26         27         28
     1  C   -0.003508   0.346734  -0.039062  -0.047507
     2  H   -0.000042  -0.037343  -0.003783  -0.004007
     3  H    0.002761  -0.038831   0.005090  -0.002561
     4  C    0.000193  -0.045790  -0.002548   0.004471
     5  C   -0.000042   0.003346  -0.000064  -0.000092
     6  H    0.000001  -0.000087   0.000001   0.000001
     7  H   -0.000000  -0.000038  -0.000011  -0.000002
     8  H    0.000001  -0.000014   0.000007   0.000001
     9  C    0.000115  -0.005575   0.000489   0.000103
    10  H   -0.000002  -0.002333  -0.002770   0.000323
    11  C   -0.000002  -0.000056  -0.000047   0.000000
    12  H    0.000000   0.000002  -0.000002   0.000000
    13  H   -0.000000  -0.000001   0.000014  -0.000000
    14  H    0.000000   0.000007  -0.000018  -0.000000
    15  C   -0.007193   0.003181   0.000089  -0.000118
    16  H    0.002425   0.000142   0.000005  -0.000007
    17  H    0.000208  -0.000120  -0.000006   0.000022
    18  H    0.000179  -0.000076   0.000006  -0.000005
    19  C   -0.034960  -0.047587   0.001504  -0.002702
    20  C    0.003584  -0.008663  -0.002626   0.000418
    21  H    0.000052  -0.002153  -0.000754  -0.000053
    22  H   -0.000123   0.000389   0.000108  -0.000035
    23  H   -0.000119   0.000194  -0.000149   0.000073
    24  C    0.400553   0.342173  -0.049252  -0.043042
    25  H    0.559513  -0.043287   0.003421   0.000233
    26  C   -0.043287   4.961386   0.414475   0.417759
    27  H    0.003421   0.414475   0.587208  -0.029067
    28  H    0.000233   0.417759  -0.029067   0.580247
 Mulliken charges:
               1
     1  C   -0.214549
     2  H    0.117477
     3  H    0.108906
     4  C    0.010875
     5  C   -0.346963
     6  H    0.117785
     7  H    0.116415
     8  H    0.118844
     9  C   -0.143327
    10  H    0.124902
    11  C   -0.353946
    12  H    0.114042
    13  H    0.119826
    14  H    0.117517
    15  C   -0.341123
    16  H    0.118778
    17  H    0.114185
    18  H    0.114880
    19  C    0.012684
    20  C   -0.352844
    21  H    0.119031
    22  H    0.118715
    23  H    0.121461
    24  C   -0.135066
    25  H    0.116040
    26  C   -0.257835
    27  H    0.117742
    28  H    0.125547
 Sum of Mulliken charges =  -0.00000
 Mulliken charges with hydrogens summed into heavy atoms:
               1
     1  C    0.011834
     4  C    0.010875
     5  C    0.006081
     9  C   -0.018424
    11  C   -0.002561
    15  C    0.006720
    19  C    0.012684
    20  C    0.006363
    24  C   -0.019026
    26  C   -0.014545
 Electronic spatial extent (au):  <R**2>=           2104.2812
 Charge=              0.0000 electrons
 Dipole moment (field-independent basis, Debye):
    X=              0.0598    Y=             -0.0054    Z=             -0.0693  Tot=              0.0917
 Quadrupole moment (field-independent basis, Debye-Ang):
   XX=            -64.4254   YY=            -64.2833   ZZ=            -65.4183
   XY=              1.5940   XZ=             -0.7444   YZ=             -0.4490
 Traceless Quadrupole moment (field-independent basis, Debye-Ang):
   XX=              0.2836   YY=              0.4257   ZZ=             -0.7093
   XY=              1.5940   XZ=             -0.7444   YZ=             -0.4490
 Octapole moment (field-independent basis, Debye-Ang**2):
  XXX=              0.2666  YYY=              1.0472  ZZZ=              0.9525  XYY=             -2.7701
  XXY=              3.8534  XXZ=              1.3866  XZZ=              1.7104  YZZ=             -2.1031
  YYZ=              0.1477  XYZ=             -0.9412
 Hexadecapole moment (field-independent basis, Debye-Ang**3):
 XXXX=          -1906.6879 YYYY=           -683.6134 ZZZZ=           -324.1290 XXXY=              4.7883
 XXXZ=             -9.9747 YYYX=              4.8705 YYYZ=              2.1921 ZZZX=              0.1085
 ZZZY=             -4.7165 XXYY=           -439.8560 XXZZ=           -381.4356 YYZZ=           -165.3768
 XXYZ=              3.6201 YYXZ=              2.3937 ZZXY=             -0.4296
 N-N= 5.290445147689D+02 E-N=-1.962887439978D+03  KE= 3.887426825560D+02
 No NMR shielding tensors so no spin-rotation constants.
 Leave Link  601 at Fri Sep 17 22:01:20 2021, MaxMem=   524288000 cpu:               0.4 elap:               0.7
 (Enter /opt/gaussian/g16_legacy/l9999.exe)
 1\1\GINC-TRUENO91\FOpt\RMP2-FC\6-31G(d,p)\C10H18\JRAMOS\17-Sep-2021\0\
 \#p opt mp2/6-31g(d,p)\\Conformer number 033. Energy MM = 28.138 kcal/
 mol\\0,1\C,2.241061561,1.3386403907,-8.9915915372\H,1.942583295,0.3628
 163955,-9.3922727342\H,2.1693566741,2.0300082836,-9.8399322695\C,3.691
 4946472,1.2495378904,-8.5747251195\C,4.6138726996,0.9438331879,-9.7242
 709305\H,5.6497178019,0.8163352864,-9.4224665415\H,4.2969164829,0.0298
 16794,-10.2312325871\H,4.5753234812,1.7455908638,-10.4650261835\C,4.08
 75409909,1.4080249172,-7.2987483062\H,3.3297890153,1.6411182073,-6.561
 5636935\C,5.4807515295,1.3266519554,-6.751140099\H,6.2242725565,1.0910
 144397,-7.5079626084\H,5.7648909793,2.2736366916,-6.2882698824\H,5.542
 8460812,0.5630725351,-5.9735202991\C,1.5950767074,5.1860989312,-6.0415
 710155\H,1.7103312375,5.7214834654,-6.9827581087\H,0.7420429337,5.6110
 15754,-5.5076424798\H,2.4792116142,5.3771466011,-5.4288754846\C,1.4086
 917538,3.7103361068,-6.2643680057\C,1.2467883898,2.9050043271,-5.00520
 19089\H,1.0994081159,1.8445352712,-5.1922404016\H,2.1249074213,3.02015
 71574,-4.3652359881\H,0.3896942432,3.2657898433,-4.4323111889\C,1.4038
 054504,3.1990652075,-7.5092867418\H,1.5289367416,3.8979443638,-8.33390
 89076\C,1.2266911854,1.7691142188,-7.928969658\H,1.2774952887,1.089617
 0781,-7.0779486651\H,0.2274011218,1.6445938356,-8.3595586541\\Version=
 EM64L-G16RevA.03\State=1-A\HF=-389.1534745\MP2=-390.5720967\RMSD=5.545
 e-09\RMSF=3.185e-06\Dipole=-0.0159939,-0.0065477,0.0343982\PG=C01 [X(C
 10H18)]\\@


 IN THE UNIVERSE THE DIFFICULT THINGS ARE DONE AS IF THEY WERE EASY.

                                                          -- LAO-TSU
 Job cpu time:       0 days  1 hours 51 minutes 45.9 seconds.
 Elapsed time:       0 days  1 hours 51 minutes 49.1 seconds.
 File lengths (MBytes):  RWF=     32 Int=      0 D2E=      0 Chk=      7 Scr=      1
 Normal termination of Gaussian 16 at Fri Sep 17 22:01:20 2021.
