 Entering Gaussian System, Link 0=/opt/gaussian/g16_legacy/g16
 Input=02-IsoP_007_gaussian.com
 Output=02-IsoP_007_gaussian.log
 Initial command:
 /opt/gaussian/g16_legacy/l1.exe "/scratch-local/jramos/2661506/Gau-17322.inp" -scrdir="/scratch-local/jramos/2661506/"
 Entering Link 1 = /opt/gaussian/g16_legacy/l1.exe PID=     17326.
  
 Copyright (c) 1988,1990,1992,1993,1995,1998,2003,2009,2016,
            Gaussian, Inc.  All Rights Reserved.
  
 This is part of the Gaussian(R) 16 program.  It is based on
 the Gaussian(R) 09 system (copyright 2009, Gaussian, Inc.),
 the Gaussian(R) 03 system (copyright 2003, Gaussian, Inc.),
 the Gaussian(R) 98 system (copyright 1998, Gaussian, Inc.),
 the Gaussian(R) 94 system (copyright 1995, Gaussian, Inc.),
 the Gaussian 92(TM) system (copyright 1992, Gaussian, Inc.),
 the Gaussian 90(TM) system (copyright 1990, Gaussian, Inc.),
 the Gaussian 88(TM) system (copyright 1988, Gaussian, Inc.),
 the Gaussian 86(TM) system (copyright 1986, Carnegie Mellon
 University), and the Gaussian 82(TM) system (copyright 1983,
 Carnegie Mellon University). Gaussian is a federally registered
 trademark of Gaussian, Inc.
  
 This software contains proprietary and confidential information,
 including trade secrets, belonging to Gaussian, Inc.
  
 This software is provided under written license and may be
 used, copied, transmitted, or stored only in accord with that
 written license.
  
 The following legend is applicable only to US Government
 contracts under FAR:
  
                    RESTRICTED RIGHTS LEGEND
  
 Use, reproduction and disclosure by the US Government is
 subject to restrictions as set forth in subparagraphs (a)
 and (c) of the Commercial Computer Software - Restricted
 Rights clause in FAR 52.227-19.
  
 Gaussian, Inc.
 340 Quinnipiac St., Bldg. 40, Wallingford CT 06492
  
  
 ---------------------------------------------------------------
 Warning -- This program may not be used in any manner that
 competes with the business of Gaussian, Inc. or will provide
 assistance to any competitor of Gaussian, Inc.  The licensee
 of this program is prohibited from giving any competitor of
 Gaussian, Inc. access to this program.  By using this program,
 the user acknowledges that Gaussian, Inc. is engaged in the
 business of creating and licensing software in the field of
 computational chemistry and represents and warrants to the
 licensee that it is not a competitor of Gaussian, Inc. and that
 it will not use this program in any manner prohibited above.
 ---------------------------------------------------------------
  

 Cite this work as:
 Gaussian 16, Revision A.03,
 M. J. Frisch, G. W. Trucks, H. B. Schlegel, G. E. Scuseria, 
 M. A. Robb, J. R. Cheeseman, G. Scalmani, V. Barone, 
 G. A. Petersson, H. Nakatsuji, X. Li, M. Caricato, A. V. Marenich, 
 J. Bloino, B. G. Janesko, R. Gomperts, B. Mennucci, H. P. Hratchian, 
 J. V. Ortiz, A. F. Izmaylov, J. L. Sonnenberg, D. Williams-Young, 
 F. Ding, F. Lipparini, F. Egidi, J. Goings, B. Peng, A. Petrone, 
 T. Henderson, D. Ranasinghe, V. G. Zakrzewski, J. Gao, N. Rega, 
 G. Zheng, W. Liang, M. Hada, M. Ehara, K. Toyota, R. Fukuda, 
 J. Hasegawa, M. Ishida, T. Nakajima, Y. Honda, O. Kitao, H. Nakai, 
 T. Vreven, K. Throssell, J. A. Montgomery, Jr., J. E. Peralta, 
 F. Ogliaro, M. J. Bearpark, J. J. Heyd, E. N. Brothers, K. N. Kudin, 
 V. N. Staroverov, T. A. Keith, R. Kobayashi, J. Normand, 
 K. Raghavachari, A. P. Rendell, J. C. Burant, S. S. Iyengar, 
 J. Tomasi, M. Cossi, J. M. Millam, M. Klene, C. Adamo, R. Cammi, 
 J. W. Ochterski, R. L. Martin, K. Morokuma, O. Farkas, 
 J. B. Foresman, and D. J. Fox, Gaussian, Inc., Wallingford CT, 2016.
 
 ******************************************
 Gaussian 16:  EM64L-G16RevA.03 25-Dec-2016
                17-Sep-2021 
 ******************************************
 %chk=02-IsoP_007_gaussian.chk
 %nproc=1
 Will use up to    1 processors via shared memory.
 %mem=4000Mb
 ---------------------
 #p opt mp2/6-31g(d,p)
 ---------------------
 1/18=20,19=15,38=1/1,3;
 2/9=110,12=2,17=6,18=5,40=1/2;
 3/5=1,6=6,7=101,11=9,25=1,30=1,71=1/1,2,3;
 4//1;
 5/5=2,38=5/2;
 8/6=4,10=2/1;
 9/15=2,16=-3/6;
 10/5=1/2;
 6/7=2,8=2,9=2,10=2/1;
 7/12=2/1,2,3,16;
 1/18=20,19=15/3(2);
 2/9=110/2;
 99//99;
 2/9=110/2;
 3/5=1,6=6,7=101,11=9,25=1,30=1,71=1/1,2,3;
 4/5=5,16=3,69=1/1;
 5/5=2,38=5/2;
 8/6=4,10=2/1;
 9/15=2,16=-3/6;
 10/5=1/2;
 7/12=2/1,2,3,16;
 1/18=20,19=15/3(-8);
 2/9=110/2;
 6/7=2,8=2,9=2,10=2/1;
 99//99;
 Leave Link    1 at Fri Sep 17 20:09:25 2021, MaxMem=   524288000 cpu:               0.0 elap:               0.1
 (Enter /opt/gaussian/g16_legacy/l101.exe)
 -------------------------------------------------
 Conformer number 007. Energy MM = 25.221 kcal/mol
 -------------------------------------------------
 Symbolic Z-matrix:
 Charge =  0 Multiplicity = 1
 C                     2.2163    1.2838   -8.9757 
 H                     1.9254    0.2637   -9.2549 
 H                     2.0328    1.8904   -9.8701 
 C                     3.6987    1.3277   -8.6376 
 C                     4.3803    2.6439   -8.8884 
 H                     5.4584    2.5356   -9.0409 
 H                     3.9915    3.114    -9.7985 
 H                     4.2108    3.3256   -8.0506 
 C                     4.3104    0.2302   -8.1499 
 H                     3.715    -0.6724   -8.0121 
 C                     5.7262    0.0952   -7.6903 
 H                     6.304     1.0173   -7.7764 
 H                     5.7367   -0.2018   -6.6357 
 H                     6.2314   -0.6836   -8.2678 
 C                     0.721    -0.9941   -5.134 
 H                     1.5327   -0.6207   -4.4989 
 H                    -0.1969   -0.9941   -4.5374 
 H                     0.9631   -2.028    -5.4023 
 C                     0.5391   -0.1648   -6.3744 
 C                    -0.5668   -0.6231   -7.2838 
 H                    -0.4516   -0.2552   -8.3094 
 H                    -0.5837   -1.716    -7.3467 
 H                    -1.5334   -0.2834   -6.9022 
 C                     1.3513    0.8782   -6.6323 
 H                     2.1434    1.1151   -5.9222 
 C                     1.3128    1.7836   -7.8383 
 H                     0.286     1.8784   -8.2097 
 H                     1.6092    2.7922   -7.5293 
 
 ITRead=  0  0  0  0  0  0  0  0  0  0  0  0  0  0  0  0  0  0  0  0
 ITRead=  0  0  0  0  0  0  0  0
 MicOpt= -1 -1 -1 -1 -1 -1 -1 -1 -1 -1 -1 -1 -1 -1 -1 -1 -1 -1 -1 -1
 MicOpt= -1 -1 -1 -1 -1 -1 -1 -1
 NAtoms=     28 NQM=       28 NQMF=       0 NMMI=      0 NMMIF=      0
                NMic=       0 NMicF=      0.
                    Isotopes and Nuclear Properties:
 (Nuclear quadrupole moments (NQMom) in fm**2, nuclear magnetic moments (NMagM)
  in nuclear magnetons)

  Atom         1           2           3           4           5           6           7           8           9          10
 IAtWgt=          12           1           1          12          12           1           1           1          12           1
 AtmWgt=  12.0000000   1.0078250   1.0078250  12.0000000  12.0000000   1.0078250   1.0078250   1.0078250  12.0000000   1.0078250
 NucSpn=           0           1           1           0           0           1           1           1           0           1
 AtZEff=  -0.0000000  -0.0000000  -0.0000000  -0.0000000  -0.0000000  -0.0000000  -0.0000000  -0.0000000  -0.0000000  -0.0000000
 NQMom=    0.0000000   0.0000000   0.0000000   0.0000000   0.0000000   0.0000000   0.0000000   0.0000000   0.0000000   0.0000000
 NMagM=    0.0000000   2.7928460   2.7928460   0.0000000   0.0000000   2.7928460   2.7928460   2.7928460   0.0000000   2.7928460
 AtZNuc=   6.0000000   1.0000000   1.0000000   6.0000000   6.0000000   1.0000000   1.0000000   1.0000000   6.0000000   1.0000000

  Atom        11          12          13          14          15          16          17          18          19          20
 IAtWgt=          12           1           1           1          12           1           1           1          12          12
 AtmWgt=  12.0000000   1.0078250   1.0078250   1.0078250  12.0000000   1.0078250   1.0078250   1.0078250  12.0000000  12.0000000
 NucSpn=           0           1           1           1           0           1           1           1           0           0
 AtZEff=  -0.0000000  -0.0000000  -0.0000000  -0.0000000  -0.0000000  -0.0000000  -0.0000000  -0.0000000  -0.0000000  -0.0000000
 NQMom=    0.0000000   0.0000000   0.0000000   0.0000000   0.0000000   0.0000000   0.0000000   0.0000000   0.0000000   0.0000000
 NMagM=    0.0000000   2.7928460   2.7928460   2.7928460   0.0000000   2.7928460   2.7928460   2.7928460   0.0000000   0.0000000
 AtZNuc=   6.0000000   1.0000000   1.0000000   1.0000000   6.0000000   1.0000000   1.0000000   1.0000000   6.0000000   6.0000000

  Atom        21          22          23          24          25          26          27          28
 IAtWgt=           1           1           1          12           1          12           1           1
 AtmWgt=   1.0078250   1.0078250   1.0078250  12.0000000   1.0078250  12.0000000   1.0078250   1.0078250
 NucSpn=           1           1           1           0           1           0           1           1
 AtZEff=  -0.0000000  -0.0000000  -0.0000000  -0.0000000  -0.0000000  -0.0000000  -0.0000000  -0.0000000
 NQMom=    0.0000000   0.0000000   0.0000000   0.0000000   0.0000000   0.0000000   0.0000000   0.0000000
 NMagM=    2.7928460   2.7928460   2.7928460   0.0000000   2.7928460   0.0000000   2.7928460   2.7928460
 AtZNuc=   1.0000000   1.0000000   1.0000000   6.0000000   1.0000000   6.0000000   1.0000000   1.0000000
 Leave Link  101 at Fri Sep 17 20:09:25 2021, MaxMem=   524288000 cpu:               0.1 elap:               0.2
 (Enter /opt/gaussian/g16_legacy/l103.exe)

 GradGradGradGradGradGradGradGradGradGradGradGradGradGradGradGradGradGrad
 Berny optimization.
 Initialization pass.
                           ----------------------------
                           !    Initial Parameters    !
                           ! (Angstroms and Degrees)  !
 --------------------------                            --------------------------
 ! Name  Definition              Value          Derivative Info.                !
 --------------------------------------------------------------------------------
 ! R1    R(1,2)                  1.0969         estimate D2E/DX2                !
 ! R2    R(1,3)                  1.0962         estimate D2E/DX2                !
 ! R3    R(1,4)                  1.5211         estimate D2E/DX2                !
 ! R4    R(1,26)                 1.5362         estimate D2E/DX2                !
 ! R5    R(4,5)                  1.5033         estimate D2E/DX2                !
 ! R6    R(4,9)                  1.3478         estimate D2E/DX2                !
 ! R7    R(5,6)                  1.0942         estimate D2E/DX2                !
 ! R8    R(5,7)                  1.0956         estimate D2E/DX2                !
 ! R9    R(5,8)                  1.0933         estimate D2E/DX2                !
 ! R10   R(9,10)                 1.09           estimate D2E/DX2                !
 ! R11   R(9,11)                 1.4946         estimate D2E/DX2                !
 ! R12   R(11,12)                1.0916         estimate D2E/DX2                !
 ! R13   R(11,13)                1.0957         estimate D2E/DX2                !
 ! R14   R(11,14)                1.0933         estimate D2E/DX2                !
 ! R15   R(15,16)                1.0962         estimate D2E/DX2                !
 ! R16   R(15,17)                1.0947         estimate D2E/DX2                !
 ! R17   R(15,18)                1.0952         estimate D2E/DX2                !
 ! R18   R(15,19)                1.5031         estimate D2E/DX2                !
 ! R19   R(19,20)                1.5034         estimate D2E/DX2                !
 ! R20   R(19,24)                1.3469         estimate D2E/DX2                !
 ! R21   R(20,21)                1.0957         estimate D2E/DX2                !
 ! R22   R(20,22)                1.0948         estimate D2E/DX2                !
 ! R23   R(20,23)                1.0933         estimate D2E/DX2                !
 ! R24   R(24,25)                1.0899         estimate D2E/DX2                !
 ! R25   R(24,26)                1.5085         estimate D2E/DX2                !
 ! R26   R(26,27)                1.096          estimate D2E/DX2                !
 ! R27   R(26,28)                1.0957         estimate D2E/DX2                !
 ! A1    A(2,1,3)              105.2219         estimate D2E/DX2                !
 ! A2    A(2,1,4)              109.991          estimate D2E/DX2                !
 ! A3    A(2,1,26)             109.5762         estimate D2E/DX2                !
 ! A4    A(3,1,4)              109.1796         estimate D2E/DX2                !
 ! A5    A(3,1,26)             109.0035         estimate D2E/DX2                !
 ! A6    A(4,1,26)             113.5298         estimate D2E/DX2                !
 ! A7    A(1,4,5)              115.4712         estimate D2E/DX2                !
 ! A8    A(1,4,9)              119.9495         estimate D2E/DX2                !
 ! A9    A(5,4,9)              124.5793         estimate D2E/DX2                !
 ! A10   A(4,5,6)              112.5399         estimate D2E/DX2                !
 ! A11   A(4,5,7)              110.6924         estimate D2E/DX2                !
 ! A12   A(4,5,8)              110.3516         estimate D2E/DX2                !
 ! A13   A(6,5,7)              106.0416         estimate D2E/DX2                !
 ! A14   A(6,5,8)              108.7392         estimate D2E/DX2                !
 ! A15   A(7,5,8)              108.2991         estimate D2E/DX2                !
 ! A16   A(4,9,10)             118.1717         estimate D2E/DX2                !
 ! A17   A(4,9,11)             127.9325         estimate D2E/DX2                !
 ! A18   A(10,9,11)            113.8124         estimate D2E/DX2                !
 ! A19   A(9,11,12)            113.6315         estimate D2E/DX2                !
 ! A20   A(9,11,13)            109.2404         estimate D2E/DX2                !
 ! A21   A(9,11,14)            109.8545         estimate D2E/DX2                !
 ! A22   A(12,11,13)           107.4473         estimate D2E/DX2                !
 ! A23   A(12,11,14)           108.3904         estimate D2E/DX2                !
 ! A24   A(13,11,14)           108.1136         estimate D2E/DX2                !
 ! A25   A(16,15,17)           107.7653         estimate D2E/DX2                !
 ! A26   A(16,15,18)           107.4459         estimate D2E/DX2                !
 ! A27   A(16,15,19)           112.3198         estimate D2E/DX2                !
 ! A28   A(17,15,18)           108.5928         estimate D2E/DX2                !
 ! A29   A(17,15,19)           110.38           estimate D2E/DX2                !
 ! A30   A(18,15,19)           110.2071         estimate D2E/DX2                !
 ! A31   A(15,19,20)           114.8353         estimate D2E/DX2                !
 ! A32   A(15,19,24)           120.8159         estimate D2E/DX2                !
 ! A33   A(20,19,24)           124.3225         estimate D2E/DX2                !
 ! A34   A(19,20,21)           112.7385         estimate D2E/DX2                !
 ! A35   A(19,20,22)           110.5131         estimate D2E/DX2                !
 ! A36   A(19,20,23)           110.152          estimate D2E/DX2                !
 ! A37   A(21,20,22)           106.4411         estimate D2E/DX2                !
 ! A38   A(21,20,23)           108.3813         estimate D2E/DX2                !
 ! A39   A(22,20,23)           108.4552         estimate D2E/DX2                !
 ! A40   A(19,24,25)           118.8061         estimate D2E/DX2                !
 ! A41   A(19,24,26)           127.0471         estimate D2E/DX2                !
 ! A42   A(25,24,26)           114.1404         estimate D2E/DX2                !
 ! A43   A(1,26,24)            112.4355         estimate D2E/DX2                !
 ! A44   A(1,26,27)            109.1628         estimate D2E/DX2                !
 ! A45   A(1,26,28)            110.4377         estimate D2E/DX2                !
 ! A46   A(24,26,27)           110.2874         estimate D2E/DX2                !
 ! A47   A(24,26,28)           108.6696         estimate D2E/DX2                !
 ! A48   A(27,26,28)           105.6267         estimate D2E/DX2                !
 ! D1    D(2,1,4,5)            151.4171         estimate D2E/DX2                !
 ! D2    D(2,1,4,9)            -28.5134         estimate D2E/DX2                !
 ! D3    D(3,1,4,5)             36.4339         estimate D2E/DX2                !
 ! D4    D(3,1,4,9)           -143.4967         estimate D2E/DX2                !
 ! D5    D(26,1,4,5)           -85.402          estimate D2E/DX2                !
 ! D6    D(26,1,4,9)            94.6675         estimate D2E/DX2                !
 ! D7    D(2,1,26,24)           56.8849         estimate D2E/DX2                !
 ! D8    D(2,1,26,27)          -65.8404         estimate D2E/DX2                !
 ! D9    D(2,1,26,28)          178.4491         estimate D2E/DX2                !
 ! D10   D(3,1,26,24)          171.5431         estimate D2E/DX2                !
 ! D11   D(3,1,26,27)           48.8177         estimate D2E/DX2                !
 ! D12   D(3,1,26,28)          -66.8928         estimate D2E/DX2                !
 ! D13   D(4,1,26,24)          -66.5231         estimate D2E/DX2                !
 ! D14   D(4,1,26,27)          170.7515         estimate D2E/DX2                !
 ! D15   D(4,1,26,28)           55.0411         estimate D2E/DX2                !
 ! D16   D(1,4,5,6)           -155.9622         estimate D2E/DX2                !
 ! D17   D(1,4,5,7)            -37.4996         estimate D2E/DX2                !
 ! D18   D(1,4,5,8)             82.3737         estimate D2E/DX2                !
 ! D19   D(9,4,5,6)             23.9647         estimate D2E/DX2                !
 ! D20   D(9,4,5,7)            142.4273         estimate D2E/DX2                !
 ! D21   D(9,4,5,8)            -97.6994         estimate D2E/DX2                !
 ! D22   D(1,4,9,10)             0.1445         estimate D2E/DX2                !
 ! D23   D(1,4,9,11)          -176.311          estimate D2E/DX2                !
 ! D24   D(5,4,9,10)          -179.7793         estimate D2E/DX2                !
 ! D25   D(5,4,9,11)             3.7651         estimate D2E/DX2                !
 ! D26   D(4,9,11,12)           -0.0946         estimate D2E/DX2                !
 ! D27   D(4,9,11,13)          119.8624         estimate D2E/DX2                !
 ! D28   D(4,9,11,14)         -121.704          estimate D2E/DX2                !
 ! D29   D(10,9,11,12)        -176.6794         estimate D2E/DX2                !
 ! D30   D(10,9,11,13)         -56.7225         estimate D2E/DX2                !
 ! D31   D(10,9,11,14)          61.7111         estimate D2E/DX2                !
 ! D32   D(16,15,19,20)       -179.662          estimate D2E/DX2                !
 ! D33   D(16,15,19,24)          2.1272         estimate D2E/DX2                !
 ! D34   D(17,15,19,20)        -59.3726         estimate D2E/DX2                !
 ! D35   D(17,15,19,24)        122.4166         estimate D2E/DX2                !
 ! D36   D(18,15,19,20)         60.5729         estimate D2E/DX2                !
 ! D37   D(18,15,19,24)       -117.6379         estimate D2E/DX2                !
 ! D38   D(15,19,20,21)       -159.2365         estimate D2E/DX2                !
 ! D39   D(15,19,20,22)        -40.2594         estimate D2E/DX2                !
 ! D40   D(15,19,20,23)         79.5646         estimate D2E/DX2                !
 ! D41   D(24,19,20,21)         18.9029         estimate D2E/DX2                !
 ! D42   D(24,19,20,22)        137.8801         estimate D2E/DX2                !
 ! D43   D(24,19,20,23)       -102.2959         estimate D2E/DX2                !
 ! D44   D(15,19,24,25)         -0.2566         estimate D2E/DX2                !
 ! D45   D(15,19,24,26)        178.7705         estimate D2E/DX2                !
 ! D46   D(20,19,24,25)       -178.2904         estimate D2E/DX2                !
 ! D47   D(20,19,24,26)          0.7367         estimate D2E/DX2                !
 ! D48   D(19,24,26,1)         -91.1316         estimate D2E/DX2                !
 ! D49   D(19,24,26,27)         30.9585         estimate D2E/DX2                !
 ! D50   D(19,24,26,28)        146.3017         estimate D2E/DX2                !
 ! D51   D(25,24,26,1)          87.9342         estimate D2E/DX2                !
 ! D52   D(25,24,26,27)       -149.9757         estimate D2E/DX2                !
 ! D53   D(25,24,26,28)        -34.6325         estimate D2E/DX2                !
 --------------------------------------------------------------------------------
 Trust Radius=3.00D-01 FncErr=1.00D-07 GrdErr=1.00D-07 EigMax=2.50D+02 EigMin=1.00D-04
 Number of steps in this run=    138 maximum allowed number of steps=    168.
 GradGradGradGradGradGradGradGradGradGradGradGradGradGradGradGradGradGrad

 Leave Link  103 at Fri Sep 17 20:09:25 2021, MaxMem=   524288000 cpu:               0.0 elap:               0.1
 (Enter /opt/gaussian/g16_legacy/l202.exe)
                          Input orientation:                          
 ---------------------------------------------------------------------
 Center     Atomic      Atomic             Coordinates (Angstroms)
 Number     Number       Type             X           Y           Z
 ---------------------------------------------------------------------
      1          6           0        2.216300    1.283800   -8.975700
      2          1           0        1.925400    0.263700   -9.254900
      3          1           0        2.032800    1.890400   -9.870100
      4          6           0        3.698700    1.327700   -8.637600
      5          6           0        4.380300    2.643900   -8.888400
      6          1           0        5.458400    2.535600   -9.040900
      7          1           0        3.991500    3.114000   -9.798500
      8          1           0        4.210800    3.325600   -8.050600
      9          6           0        4.310400    0.230200   -8.149900
     10          1           0        3.715000   -0.672400   -8.012100
     11          6           0        5.726200    0.095200   -7.690300
     12          1           0        6.304000    1.017300   -7.776400
     13          1           0        5.736700   -0.201800   -6.635700
     14          1           0        6.231400   -0.683600   -8.267800
     15          6           0        0.721000   -0.994100   -5.134000
     16          1           0        1.532700   -0.620700   -4.498900
     17          1           0       -0.196900   -0.994100   -4.537400
     18          1           0        0.963100   -2.028000   -5.402300
     19          6           0        0.539100   -0.164800   -6.374400
     20          6           0       -0.566800   -0.623100   -7.283800
     21          1           0       -0.451600   -0.255200   -8.309400
     22          1           0       -0.583700   -1.716000   -7.346700
     23          1           0       -1.533400   -0.283400   -6.902200
     24          6           0        1.351300    0.878200   -6.632300
     25          1           0        2.143400    1.115100   -5.922200
     26          6           0        1.312800    1.783600   -7.838300
     27          1           0        0.286000    1.878400   -8.209700
     28          1           0        1.609200    2.792200   -7.529300
 ---------------------------------------------------------------------
                    Distance matrix (angstroms):
                    1          2          3          4          5
     1  C    0.000000
     2  H    1.096895   0.000000
     3  H    1.096169   1.742458   0.000000
     4  C    1.521101   2.158182   2.147303   0.000000
     5  C    2.557418   3.438925   2.653724   1.503284   0.000000
     6  H    3.475984   4.205879   3.583098   2.172146   1.094205
     7  H    2.679173   3.562089   2.310591   2.150416   1.095647
     8  H    3.000465   4.006073   3.180262   2.144393   1.093322
     9  C    2.485412   2.628759   3.301941   1.347789   2.525117
    10  H    2.646005   2.371393   3.584676   2.095690   3.494048
    11  C    3.922298   4.113690   4.649245   2.554837   3.121340
    12  H    4.268329   4.682522   4.836221   2.761449   2.753724
    13  H    4.480605   4.647893   5.343924   3.240435   3.874595
    14  H    4.526899   4.518117   5.178908   3.255249   3.857975
    15  C    4.709927   4.473752   5.698404   5.150987   6.381304
    16  H    4.912857   4.853443   5.950253   5.061290   6.167183
    17  H    5.541739   5.323629   6.459845   6.113763   7.288141
    18  H    5.030678   4.584805   6.038158   5.404757   6.756981
    19  C    3.417339   3.225325   4.321447   4.163256   5.381804
    20  C    3.774181   3.298895   4.445734   4.881894   6.141810
    21  H    3.151217   2.610241   3.634780   4.454018   5.664563
    22  H    4.415024   3.722368   5.120522   5.410128   6.784310
    23  H    4.562430   4.218745   5.123633   5.743007   6.891003
    24  C    2.530664   2.754130   3.460107   3.119866   4.169236
    25  H    3.059025   3.446635   4.024828   3.136488   4.017374
    26  C    1.536161   2.166133   2.158244   2.557195   3.354457
    27  H    2.160177   2.527317   2.410059   3.483230   4.220180
    28  H    2.176216   3.077497   2.544017   2.781924   3.090007
                    6          7          8          9         10
     6  H    0.000000
     7  H    1.749371   0.000000
     8  H    1.778004   1.774266   0.000000
     9  C    2.725189   3.337047   3.098594   0.000000
    10  H    3.793302   4.195772   4.028809   1.090035   0.000000
    11  C    2.802033   4.070239   3.586326   1.494639   2.176624
    12  H    2.149240   3.719233   3.128086   2.175654   3.100574
    13  H    3.654558   4.903423   4.095469   2.124561   2.490625
    14  H    3.399774   4.667115   4.494851   2.130533   2.529383
    15  C    7.082768   7.023547   6.272565   4.845447   4.165452
    16  H    6.782560   6.933934   5.946434   4.665774   4.136143
    17  H    8.045043   7.880251   7.101423   5.904644   5.242136
    18  H    7.367060   7.412014   6.798682   4.883973   4.027612
    19  C    6.213042   5.864645   5.336096   4.187019   3.609163
    20  C    7.026224   6.408411   6.245452   5.026463   4.343577
    21  H    6.576607   5.771487   5.884478   4.789332   4.197976
    22  H    7.579801   7.090323   6.992885   5.327761   4.473330
    23  H    7.836202   7.103196   6.880373   5.997544   5.378559
    24  C    5.041488   4.689806   4.022199   3.388110   3.145677
    25  H    4.767949   4.736747   3.700073   3.231344   3.167454
    26  C    4.381524   3.576001   3.289565   3.390539   3.439870
    27  H    5.279823   4.216838   4.186139   4.349245   4.278279
    28  H    4.143322   3.305779   2.706398   3.774317   4.083007
                   11         12         13         14         15
    11  C    0.000000
    12  H    1.091574   0.000000
    13  H    1.095673   1.763301   0.000000
    14  H    1.093281   1.771950   1.772177   0.000000
    15  C    5.724794   6.495991   5.295289   6.346780   0.000000
    16  H    5.318175   6.015842   4.734449   6.023815   1.096192
    17  H    6.797828   7.536481   6.343360   7.438772   1.094747
    18  H    5.694738   6.590555   5.257712   6.146014   1.095238
    19  C    5.357723   6.049548   5.204296   6.021328   1.503136
    20  C    6.346893   7.081063   6.350720   6.869311   2.533320
    21  H    6.218623   6.895033   6.410864   6.696846   3.464698
    22  H    6.573686   7.422667   6.538026   6.954126   2.668225
    23  H    7.312061   7.992552   7.275441   7.894121   2.951939
    24  C    4.568611   5.085032   4.516431   5.378611   2.479453
    25  H    4.123449   4.556118   3.892957   5.044691   2.663307
    26  C    4.727652   5.050062   4.995893   5.519436   3.921617
    27  H    5.748509   6.094716   6.042751   6.474180   4.230888
    28  H    4.924370   5.025184   5.176757   5.830206   4.567541
                   16         17         18         19         20
    16  H    0.000000
    17  H    1.769866   0.000000
    18  H    1.766655   1.778370   0.000000
    19  C    2.170849   2.145694   2.143891   0.000000
    20  C    3.487632   2.795922   2.802567   1.503350   0.000000
    21  H    4.311722   3.852120   3.687198   2.175749   1.095663
    22  H    3.713327   2.926247   2.504122   2.147619   1.094839
    23  H    3.910319   2.807776   3.394973   2.141937   1.093312
    24  C    2.613619   3.207965   3.179559   1.346859   2.521401
    25  H    2.326314   3.441424   3.397423   2.101525   3.495780
    26  C    4.120753   4.570640   4.537034   2.556927   3.103638
    27  H    4.644330   4.687242   4.857975   2.758088   2.800368
    28  H    4.564763   5.152624   5.308098   3.350038   4.057033
                   21         22         23         24         25
    21  H    0.000000
    22  H    1.754474   0.000000
    23  H    1.775190   1.775346   0.000000
    24  C    2.710666   3.314282   3.121483   0.000000
    25  H    3.782918   4.181077   4.054018   1.089856   0.000000
    26  C    2.737106   4.010684   3.640004   1.508532   2.192767
    27  H    2.259700   3.797481   3.113383   2.150222   3.043882
    28  H    3.760598   5.016575   4.441678   2.129441   2.383444
                   26         27         28
    26  C    0.000000
    27  H    1.096012   0.000000
    28  H    1.095723   1.746091   0.000000
 Stoichiometry    C10H18
 Framework group  C1[X(C10H18)]
 Deg. of freedom    78
 Full point group                 C1      NOp   1
 Largest Abelian subgroup         C1      NOp   1
 Largest concise Abelian subgroup C1      NOp   1
                         Standard orientation:                         
 ---------------------------------------------------------------------
 Center     Atomic      Atomic             Coordinates (Angstroms)
 Number     Number       Type             X           Y           Z
 ---------------------------------------------------------------------
      1          6           0        0.652334   -1.302903    0.598448
      2          1           0        0.173971   -0.949613    1.520150
      3          1           0        1.058327   -2.290743    0.845286
      4          6           0        1.794899   -0.374203    0.216600
      5          6           0        2.918248   -1.013108   -0.551352
      6          1           0        3.861932   -0.469756   -0.444053
      7          1           0        3.109742   -2.027758   -0.184940
      8          1           0        2.666548   -1.073526   -1.613590
      9          6           0        1.752216    0.925712    0.570060
     10          1           0        0.886499    1.278420    1.130691
     11          6           0        2.729229    2.003633    0.227307
     12          1           0        3.565753    1.658101   -0.382915
     13          1           0        2.215452    2.791082   -0.335239
     14          1           0        3.130038    2.446390    1.143047
     15          6           0       -2.927766    1.545074   -0.521963
     16          1           0       -2.365368    2.079159   -1.296623
     17          1           0       -3.949406    1.403178   -0.888825
     18          1           0       -2.960857    2.189535    0.362979
     19          6           0       -2.306863    0.220437   -0.176662
     20          6           0       -3.038477   -0.564536    0.876249
     21          1           0       -2.405398   -1.316525    1.360193
     22          1           0       -3.394510    0.098794    1.671173
     23          1           0       -3.901352   -1.071742    0.436342
     24          6           0       -1.161062   -0.177976   -0.761844
     25          1           0       -0.691274    0.476234   -1.496074
     26          6           0       -0.406193   -1.458328   -0.503893
     27          1           0       -1.100534   -2.259368   -0.225562
     28          1           0        0.061044   -1.784661   -1.439737
 ---------------------------------------------------------------------
 Rotational constants (GHZ):           1.9366660           0.6732843           0.5623957
 Leave Link  202 at Fri Sep 17 20:09:25 2021, MaxMem=   524288000 cpu:               0.0 elap:               0.1
 (Enter /opt/gaussian/g16_legacy/l301.exe)
 Standard basis: 6-31G(d,p) (6D, 7F)
 Ernie: Thresh=  0.10000D-02 Tol=  0.10000D-05 Strict=F.
 There are   240 symmetry adapted cartesian basis functions of A   symmetry.
 There are   240 symmetry adapted basis functions of A   symmetry.
   240 basis functions,   406 primitive gaussians,   240 cartesian basis functions
    39 alpha electrons       39 beta electrons
       nuclear repulsion energy       524.8538678117 Hartrees.
 IExCor=    0 DFT=F Ex=HF Corr=None ExCW=0 ScaHFX=  1.000000
 ScaDFX=  1.000000  1.000000  1.000000  1.000000 ScalE2=  1.000000  1.000000
 IRadAn=      5 IRanWt=     -1 IRanGd=            0 ICorTp=0 IEmpDi=  4
 NAtoms=   28 NActive=   28 NUniq=   28 SFac= 1.00D+00 NAtFMM=   60 NAOKFM=F Big=F
 Integral buffers will be    131072 words long.
 Raffenetti 1 integral format.
 Two-electron integral symmetry is turned on.
 Leave Link  301 at Fri Sep 17 20:09:26 2021, MaxMem=   524288000 cpu:               0.0 elap:               0.1
 (Enter /opt/gaussian/g16_legacy/l302.exe)
 NPDir=0 NMtPBC=     1 NCelOv=     1 NCel=       1 NClECP=     1 NCelD=      1
         NCelK=      1 NCelE2=     1 NClLst=     1 CellRange=     0.0.
 One-electron integrals computed using PRISM.
 One-electron integral symmetry used in STVInt
 NBasis=   240 RedAO= T EigKep=  2.25D-03  NBF=   240
 NBsUse=   240 1.00D-06 EigRej= -1.00D+00 NBFU=   240
 Leave Link  302 at Fri Sep 17 20:09:26 2021, MaxMem=   524288000 cpu:               0.2 elap:               0.3
 (Enter /opt/gaussian/g16_legacy/l303.exe)
 DipDrv:  MaxL=1.
 Leave Link  303 at Fri Sep 17 20:09:26 2021, MaxMem=   524288000 cpu:               0.0 elap:               0.2
 (Enter /opt/gaussian/g16_legacy/l401.exe)
 ExpMin= 1.61D-01 ExpMax= 3.05D+03 ExpMxC= 4.57D+02 IAcc=3 IRadAn=         5 AccDes= 0.00D+00
 Harris functional with IExCor=  205 and IRadAn=       5 diagonalized for initial guess.
 HarFok:  IExCor=  205 AccDes= 0.00D+00 IRadAn=         5 IDoV= 1 UseB2=F ITyADJ=14
 ICtDFT=  3500011 ScaDFX=  1.000000  1.000000  1.000000  1.000000
 FoFCou: FMM=F IPFlag=           0 FMFlag=      100000 FMFlg1=           0
         NFxFlg=           0 DoJE=T BraDBF=F KetDBF=T FulRan=T
         wScrn=  0.000000 ICntrl=       500 IOpCl=  0 I1Cent=   200000004 NGrid=           0
         NMat0=    1 NMatS0=      1 NMatT0=    0 NMatD0=    1 NMtDS0=    0 NMtDT0=    0
 Petite list used in FoFCou.
 Harris En= -390.109467436146    
 JPrj=0 DoOrth=F DoCkMO=F.
 Leave Link  401 at Fri Sep 17 20:09:33 2021, MaxMem=   524288000 cpu:               6.3 elap:               6.6
 (Enter /opt/gaussian/g16_legacy/l502.exe)
 Keep R1 ints in memory in canonical form, NReq=425198025.
 FoFCou: FMM=F IPFlag=           0 FMFlag=           0 FMFlg1=           0
         NFxFlg=           0 DoJE=F BraDBF=F KetDBF=F FulRan=T
         wScrn=  0.000000 ICntrl=       600 IOpCl=  0 I1Cent=           0 NGrid=           0
         NMat0=    1 NMatS0=  28920 NMatT0=    0 NMatD0=    1 NMtDS0=    0 NMtDT0=    0
 Symmetry not used in FoFCou.
 Two-electron integral symmetry not used.
 Closed shell SCF:
 Using DIIS extrapolation, IDIIS=  1040.
 NGot=   524288000 LenX=   105970886 LenY=   105912845
 Requested convergence on RMS density matrix=1.00D-08 within 128 cycles.
 Requested convergence on MAX density matrix=1.00D-06.
 Requested convergence on             energy=1.00D-06.
 No special actions if energy rises.

 Cycle   1  Pass 1  IDiag  1:
 E= -388.525902388416    
 DIIS: error= 5.51D-02 at cycle   1 NSaved=   1.
 NSaved= 1 IEnMin= 1 EnMin= -388.525902388416     IErMin= 1 ErrMin= 5.51D-02
 ErrMax= 5.51D-02  0.00D+00 EMaxC= 1.00D-01 BMatC= 8.11D-01 BMatP= 8.11D-01
 IDIUse=3 WtCom= 4.49D-01 WtEn= 5.51D-01
 Coeff-Com:  0.100D+01
 Coeff-En:   0.100D+01
 Coeff:      0.100D+01
 Gap=     0.508 Goal=   None    Shift=    0.000
 GapD=    0.508 DampG=2.000 DampE=0.500 DampFc=1.0000 IDamp=-1.
 RMSDP=4.04D-03 MaxDP=1.14D-01              OVMax= 1.40D-01

 Cycle   2  Pass 1  IDiag  1:
 E= -389.065843033378     Delta-E=       -0.539940644962 Rises=F Damp=F
 DIIS: error= 1.62D-02 at cycle   2 NSaved=   2.
 NSaved= 2 IEnMin= 2 EnMin= -389.065843033378     IErMin= 2 ErrMin= 1.62D-02
 ErrMax= 1.62D-02  0.00D+00 EMaxC= 1.00D-01 BMatC= 9.09D-02 BMatP= 8.11D-01
 IDIUse=3 WtCom= 8.38D-01 WtEn= 1.62D-01
 Coeff-Com:  0.188D+00 0.812D+00
 Coeff-En:   0.000D+00 0.100D+01
 Coeff:      0.157D+00 0.843D+00
 Gap=     0.554 Goal=   None    Shift=    0.000
 RMSDP=1.75D-03 MaxDP=3.13D-02 DE=-5.40D-01 OVMax= 4.65D-02

 Cycle   3  Pass 1  IDiag  1:
 E= -389.147581224041     Delta-E=       -0.081738190663 Rises=F Damp=F
 DIIS: error= 2.67D-03 at cycle   3 NSaved=   3.
 NSaved= 3 IEnMin= 3 EnMin= -389.147581224041     IErMin= 3 ErrMin= 2.67D-03
 ErrMax= 2.67D-03  0.00D+00 EMaxC= 1.00D-01 BMatC= 3.51D-03 BMatP= 9.09D-02
 IDIUse=3 WtCom= 9.73D-01 WtEn= 2.67D-02
 Coeff-Com: -0.243D-01 0.112D+00 0.912D+00
 Coeff-En:   0.000D+00 0.000D+00 0.100D+01
 Coeff:     -0.237D-01 0.109D+00 0.915D+00
 Gap=     0.500 Goal=   None    Shift=    0.000
 RMSDP=2.73D-04 MaxDP=5.79D-03 DE=-8.17D-02 OVMax= 1.08D-02

 Cycle   4  Pass 1  IDiag  1:
 E= -389.151605376994     Delta-E=       -0.004024152953 Rises=F Damp=F
 DIIS: error= 5.87D-04 at cycle   4 NSaved=   4.
 NSaved= 4 IEnMin= 4 EnMin= -389.151605376994     IErMin= 4 ErrMin= 5.87D-04
 ErrMax= 5.87D-04  0.00D+00 EMaxC= 1.00D-01 BMatC= 9.73D-05 BMatP= 3.51D-03
 IDIUse=3 WtCom= 9.94D-01 WtEn= 5.87D-03
 Coeff-Com: -0.431D-02-0.185D-02 0.905D-01 0.916D+00
 Coeff-En:   0.000D+00 0.000D+00 0.000D+00 0.100D+01
 Coeff:     -0.428D-02-0.184D-02 0.900D-01 0.916D+00
 Gap=     0.500 Goal=   None    Shift=    0.000
 RMSDP=8.25D-05 MaxDP=2.04D-03 DE=-4.02D-03 OVMax= 3.56D-03

 Cycle   5  Pass 1  IDiag  1:
 E= -389.151734840857     Delta-E=       -0.000129463863 Rises=F Damp=F
 DIIS: error= 1.97D-04 at cycle   5 NSaved=   5.
 NSaved= 5 IEnMin= 5 EnMin= -389.151734840857     IErMin= 5 ErrMin= 1.97D-04
 ErrMax= 1.97D-04  0.00D+00 EMaxC= 1.00D-01 BMatC= 1.78D-05 BMatP= 9.73D-05
 IDIUse=3 WtCom= 9.98D-01 WtEn= 1.97D-03
 Coeff-Com:  0.206D-02-0.148D-01-0.903D-01 0.196D+00 0.907D+00
 Coeff-En:   0.000D+00 0.000D+00 0.000D+00 0.000D+00 0.100D+01
 Coeff:      0.206D-02-0.148D-01-0.901D-01 0.196D+00 0.907D+00
 Gap=     0.501 Goal=   None    Shift=    0.000
 RMSDP=3.04D-05 MaxDP=6.72D-04 DE=-1.29D-04 OVMax= 1.67D-03

 Cycle   6  Pass 1  IDiag  1:
 E= -389.151759208097     Delta-E=       -0.000024367239 Rises=F Damp=F
 DIIS: error= 4.03D-05 at cycle   6 NSaved=   6.
 NSaved= 6 IEnMin= 6 EnMin= -389.151759208097     IErMin= 6 ErrMin= 4.03D-05
 ErrMax= 4.03D-05  0.00D+00 EMaxC= 1.00D-01 BMatC= 1.04D-06 BMatP= 1.78D-05
 IDIUse=1 WtCom= 1.00D+00 WtEn= 0.00D+00
 Coeff-Com:  0.814D-03-0.380D-02-0.286D-01-0.173D-01 0.205D+00 0.844D+00
 Coeff:      0.814D-03-0.380D-02-0.286D-01-0.173D-01 0.205D+00 0.844D+00
 Gap=     0.501 Goal=   None    Shift=    0.000
 RMSDP=6.99D-06 MaxDP=1.80D-04 DE=-2.44D-05 OVMax= 4.18D-04

 Cycle   7  Pass 1  IDiag  1:
 E= -389.151760692978     Delta-E=       -0.000001484881 Rises=F Damp=F
 DIIS: error= 1.12D-05 at cycle   7 NSaved=   7.
 NSaved= 7 IEnMin= 7 EnMin= -389.151760692978     IErMin= 7 ErrMin= 1.12D-05
 ErrMax= 1.12D-05  0.00D+00 EMaxC= 1.00D-01 BMatC= 5.24D-08 BMatP= 1.04D-06
 IDIUse=1 WtCom= 1.00D+00 WtEn= 0.00D+00
 Coeff-Com: -0.488D-04 0.468D-03 0.296D-02-0.110D-01-0.388D-01 0.481D-01
 Coeff-Com:  0.998D+00
 Coeff:     -0.488D-04 0.468D-03 0.296D-02-0.110D-01-0.388D-01 0.481D-01
 Coeff:      0.998D+00
 Gap=     0.501 Goal=   None    Shift=    0.000
 RMSDP=2.10D-06 MaxDP=4.69D-05 DE=-1.48D-06 OVMax= 1.82D-04

 Cycle   8  Pass 1  IDiag  1:
 E= -389.151760832090     Delta-E=       -0.000000139112 Rises=F Damp=F
 DIIS: error= 4.20D-06 at cycle   8 NSaved=   8.
 NSaved= 8 IEnMin= 8 EnMin= -389.151760832090     IErMin= 8 ErrMin= 4.20D-06
 ErrMax= 4.20D-06  0.00D+00 EMaxC= 1.00D-01 BMatC= 1.04D-08 BMatP= 5.24D-08
 IDIUse=1 WtCom= 1.00D+00 WtEn= 0.00D+00
 Coeff-Com: -0.890D-04 0.388D-03 0.312D-02 0.461D-02-0.223D-01-0.121D+00
 Coeff-Com: -0.773D-01 0.121D+01
 Coeff:     -0.890D-04 0.388D-03 0.312D-02 0.461D-02-0.223D-01-0.121D+00
 Coeff:     -0.773D-01 0.121D+01
 Gap=     0.501 Goal=   None    Shift=    0.000
 RMSDP=1.14D-06 MaxDP=2.58D-05 DE=-1.39D-07 OVMax= 9.48D-05

 Cycle   9  Pass 1  IDiag  1:
 E= -389.151760865139     Delta-E=       -0.000000033049 Rises=F Damp=F
 DIIS: error= 2.15D-06 at cycle   9 NSaved=   9.
 NSaved= 9 IEnMin= 9 EnMin= -389.151760865139     IErMin= 9 ErrMin= 2.15D-06
 ErrMax= 2.15D-06  0.00D+00 EMaxC= 1.00D-01 BMatC= 9.44D-10 BMatP= 1.04D-08
 IDIUse=1 WtCom= 1.00D+00 WtEn= 0.00D+00
 Coeff-Com:  0.759D-05-0.689D-04-0.455D-03 0.151D-02 0.513D-02-0.318D-02
 Coeff-Com: -0.901D-01-0.947D-01 0.118D+01
 Coeff:      0.759D-05-0.689D-04-0.455D-03 0.151D-02 0.513D-02-0.318D-02
 Coeff:     -0.901D-01-0.947D-01 0.118D+01
 Gap=     0.501 Goal=   None    Shift=    0.000
 RMSDP=3.91D-07 MaxDP=1.10D-05 DE=-3.30D-08 OVMax= 4.26D-05

 Cycle  10  Pass 1  IDiag  1:
 E= -389.151760869336     Delta-E=       -0.000000004196 Rises=F Damp=F
 DIIS: error= 5.92D-07 at cycle  10 NSaved=  10.
 NSaved=10 IEnMin=10 EnMin= -389.151760869336     IErMin=10 ErrMin= 5.92D-07
 ErrMax= 5.92D-07  0.00D+00 EMaxC= 1.00D-01 BMatC= 1.97D-10 BMatP= 9.44D-10
 IDIUse=1 WtCom= 1.00D+00 WtEn= 0.00D+00
 Coeff-Com:  0.122D-04-0.605D-04-0.470D-03-0.347D-03 0.346D-02 0.148D-01
 Coeff-Com: -0.776D-04-0.207D+00 0.181D+00 0.101D+01
 Coeff:      0.122D-04-0.605D-04-0.470D-03-0.347D-03 0.346D-02 0.148D-01
 Coeff:     -0.776D-04-0.207D+00 0.181D+00 0.101D+01
 Gap=     0.501 Goal=   None    Shift=    0.000
 RMSDP=1.59D-07 MaxDP=3.70D-06 DE=-4.20D-09 OVMax= 1.12D-05

 Cycle  11  Pass 1  IDiag  1:
 E= -389.151760869795     Delta-E=       -0.000000000459 Rises=F Damp=F
 DIIS: error= 1.58D-07 at cycle  11 NSaved=  11.
 NSaved=11 IEnMin=11 EnMin= -389.151760869795     IErMin=11 ErrMin= 1.58D-07
 ErrMax= 1.58D-07  0.00D+00 EMaxC= 1.00D-01 BMatC= 1.08D-11 BMatP= 1.97D-10
 IDIUse=1 WtCom= 1.00D+00 WtEn= 0.00D+00
 Coeff-Com:  0.146D-05-0.400D-05-0.373D-04-0.203D-03 0.458D-04 0.299D-02
 Coeff-Com:  0.116D-01-0.247D-01-0.669D-01 0.168D+00 0.909D+00
 Coeff:      0.146D-05-0.400D-05-0.373D-04-0.203D-03 0.458D-04 0.299D-02
 Coeff:      0.116D-01-0.247D-01-0.669D-01 0.168D+00 0.909D+00
 Gap=     0.501 Goal=   None    Shift=    0.000
 RMSDP=2.44D-08 MaxDP=6.21D-07 DE=-4.59D-10 OVMax= 2.05D-06

 Cycle  12  Pass 1  IDiag  1:
 E= -389.151760869830     Delta-E=       -0.000000000035 Rises=F Damp=F
 DIIS: error= 4.37D-08 at cycle  12 NSaved=  12.
 NSaved=12 IEnMin=12 EnMin= -389.151760869830     IErMin=12 ErrMin= 4.37D-08
 ErrMax= 4.37D-08  0.00D+00 EMaxC= 1.00D-01 BMatC= 1.13D-12 BMatP= 1.08D-11
 IDIUse=1 WtCom= 1.00D+00 WtEn= 0.00D+00
 Coeff-Com: -0.103D-05 0.544D-05 0.418D-04 0.260D-04-0.337D-03-0.128D-02
 Coeff-Com:  0.196D-03 0.169D-01-0.203D-01-0.103D+00 0.298D-01 0.108D+01
 Coeff:     -0.103D-05 0.544D-05 0.418D-04 0.260D-04-0.337D-03-0.128D-02
 Coeff:      0.196D-03 0.169D-01-0.203D-01-0.103D+00 0.298D-01 0.108D+01
 Gap=     0.501 Goal=   None    Shift=    0.000
 RMSDP=1.19D-08 MaxDP=2.48D-07 DE=-3.54D-11 OVMax= 7.81D-07

 Cycle  13  Pass 1  IDiag  1:
 E= -389.151760869814     Delta-E=        0.000000000017 Rises=F Damp=F
 DIIS: error= 9.79D-09 at cycle  13 NSaved=  13.
 NSaved=13 IEnMin=12 EnMin= -389.151760869830     IErMin=13 ErrMin= 9.79D-09
 ErrMax= 9.79D-09  0.00D+00 EMaxC= 1.00D-01 BMatC= 4.79D-14 BMatP= 1.13D-12
 IDIUse=1 WtCom= 1.00D+00 WtEn= 0.00D+00
 Coeff-Com: -0.174D-06 0.747D-06 0.594D-05 0.155D-04-0.381D-04-0.280D-03
 Coeff-Com: -0.630D-03 0.313D-02 0.286D-02-0.191D-01-0.473D-01 0.112D+00
 Coeff-Com:  0.949D+00
 Coeff:     -0.174D-06 0.747D-06 0.594D-05 0.155D-04-0.381D-04-0.280D-03
 Coeff:     -0.630D-03 0.313D-02 0.286D-02-0.191D-01-0.473D-01 0.112D+00
 Coeff:      0.949D+00
 Gap=     0.501 Goal=   None    Shift=    0.000
 RMSDP=1.77D-09 MaxDP=4.94D-08 DE= 1.66D-11 OVMax= 7.92D-08

 SCF Done:  E(RHF) =  -389.151760870     A.U. after   13 cycles
            NFock= 13  Conv=0.18D-08     -V/T= 2.0013
 KE= 3.886330541327D+02 PE=-1.954475291792D+03 EE= 6.518366089776D+02
 Leave Link  502 at Fri Sep 17 20:09:56 2021, MaxMem=   524288000 cpu:              23.0 elap:              23.0
 (Enter /opt/gaussian/g16_legacy/l801.exe)
 ExpMin= 1.61D-01 ExpMax= 3.05D+03 ExpMxC= 4.57D+02 IAcc=3 IRadAn=         5 AccDes= 0.00D+00
 HarFok:  IExCor=  205 AccDes= 0.00D+00 IRadAn=         5 IDoV=-2 UseB2=F ITyADJ=14
 ICtDFT= 12500011 ScaDFX=  1.000000  1.000000  1.000000  1.000000
 Largest valence mixing into a core orbital is  1.99D-04
 Largest core mixing into a valence orbital is  3.53D-05
 Range of M.O.s used for correlation:    11   240
 NBasis=   240 NAE=    39 NBE=    39 NFC=    10 NFV=     0
 NROrb=    230 NOA=    29 NOB=    29 NVA=   201 NVB=   201
 Leave Link  801 at Fri Sep 17 20:09:57 2021, MaxMem=   524288000 cpu:               0.9 elap:               0.9
 (Enter /opt/gaussian/g16_legacy/l906.exe)
 Frozen-core derivative calculation, NFC=  10 NFV=   0.
 FulOut=F Deriv=T AODrv=T NAtomX=    28
   MMem=          86  MDisk=          29 MDiskD=          29
  W3Min=     2246400 MinDsk=     2795480 NBas6D=         240
 NBas2D=       29244    NTT=       28920    LW2=     2040000
    MDV=   523621575 MDiskM=       30186 NBas2p=       24918
 Fully direct method using O(ONN) memory.
 IMap=   1   2   3   4   5   6   7   8   9  10  11  12  13  14  15  16  17  18  19  20
 IMap=  21  22  23  24  25  26  27  28  29  30  31  32  33  34  35  36  37  38  39
 JobTyp=1 Pass  1:  I=  11 to  39 NPSUse=  1 ParTrn=F ParDer=F DoDerP=T.
 Spin components of T(2) and E(2):
     alpha-alpha T2 =       0.5728461394D-01 E2=     -0.1640874962D+00
     alpha-beta  T2 =       0.3623606978D+00 E2=     -0.1090319726D+01
     beta-beta   T2 =       0.5728461394D-01 E2=     -0.1640874962D+00
 The integrals were generated   1 times.
 ANorm=    0.1215290058D+01
 E2 =    -0.1418494718D+01 EUMP2 =    -0.39057025558773D+03
 Leave Link  906 at Fri Sep 17 20:12:51 2021, MaxMem=   524288000 cpu:             174.5 elap:             174.5
 (Enter /opt/gaussian/g16_legacy/l1002.exe)
 Minotr:  Closed shell wavefunction.
          Computing MP2/KS-MP2 derivatives.
          Using Z-Vector for PSCF gradient.
          Skipping F1 and S1 gradient terms here.
          IDoAtm=1111111111111111111111111111
          Frozen-core window.
          Direct CPHF calculation.
          Differentiating once with respect to electric field.
                with respect to dipole field.
          Differentiating once with respect to nuclear coordinates.
          Requested convergence is 1.0D-10 RMS, and 1.0D-09 maximum.
          NewPWx=F KeepS1=T KeepF1=T KeepIn=T MapXYZ=F SortEE=F KeepMc=T.
 Keep R1 ints in memory in canonical form, NReq=425201067.
 FoFCou: FMM=F IPFlag=           0 FMFlag=           0 FMFlg1=           0
         NFxFlg=           0 DoJE=F BraDBF=F KetDBF=F FulRan=T
         wScrn=  0.000000 ICntrl=       600 IOpCl=  0 I1Cent=           0 NGrid=           0
         NMat0=    1 NMatS0=  28920 NMatT0=    0 NMatD0=    1 NMtDS0=    0 NMtDT0=    0
 Symmetry not used in FoFCou.
 Two-electron integral symmetry not used.
          MDV=     524288000 using IRadAn=       5.
          Solving linear equations separately, MaxMat=       0.
          There are     1 degrees of freedom in the 1st order CPHF.  IDoFFX=0 NUNeed=     1.
 LinEq1:  Iter=  0 NonCon=     1 RMS=2.53D-03 Max=3.37D-02 NDo=     1
 AX will form     1 AO Fock derivatives at one time.
 LinEq1:  Iter=  1 NonCon=     1 RMS=6.90D-04 Max=9.64D-03 NDo=     1
 LinEq1:  Iter=  2 NonCon=     1 RMS=1.59D-04 Max=3.29D-03 NDo=     1
 LinEq1:  Iter=  3 NonCon=     1 RMS=3.66D-05 Max=6.95D-04 NDo=     1
 LinEq1:  Iter=  4 NonCon=     1 RMS=1.60D-05 Max=6.86D-04 NDo=     1
 LinEq1:  Iter=  5 NonCon=     1 RMS=4.43D-06 Max=8.95D-05 NDo=     1
 LinEq1:  Iter=  6 NonCon=     1 RMS=1.52D-06 Max=4.51D-05 NDo=     1
 LinEq1:  Iter=  7 NonCon=     1 RMS=4.65D-07 Max=1.13D-05 NDo=     1
 LinEq1:  Iter=  8 NonCon=     1 RMS=1.52D-07 Max=3.31D-06 NDo=     1
 LinEq1:  Iter=  9 NonCon=     1 RMS=5.10D-08 Max=1.13D-06 NDo=     1
 LinEq1:  Iter= 10 NonCon=     1 RMS=1.42D-08 Max=3.56D-07 NDo=     1
 LinEq1:  Iter= 11 NonCon=     1 RMS=3.62D-09 Max=7.86D-08 NDo=     1
 LinEq1:  Iter= 12 NonCon=     1 RMS=9.62D-10 Max=1.58D-08 NDo=     1
 LinEq1:  Iter= 13 NonCon=     1 RMS=2.66D-10 Max=5.51D-09 NDo=     1
 LinEq1:  Iter= 14 NonCon=     1 RMS=6.40D-11 Max=1.12D-09 NDo=     1
 LinEq1:  Iter= 15 NonCon=     0 RMS=1.63D-11 Max=2.89D-10 NDo=     1
 Linear equations converged to 1.000D-10 1.000D-09 after    15 iterations.
 End of Minotr F.D. properties file   721 does not exist.
 End of Minotr F.D. properties file   722 does not exist.
 End of Minotr F.D. properties file   788 does not exist.
 Leave Link 1002 at Fri Sep 17 20:13:14 2021, MaxMem=   524288000 cpu:              22.9 elap:              22.9
 (Enter /opt/gaussian/g16_legacy/l601.exe)
 Copying SCF densities to generalized density rwf, IOpCl= 0 IROHF=0.

 **********************************************************************

            Population analysis using the SCF density.

 **********************************************************************

 Orbital symmetries:
       Occupied  (A) (A) (A) (A) (A) (A) (A) (A) (A) (A) (A) (A)
                 (A) (A) (A) (A) (A) (A) (A) (A) (A) (A) (A) (A)
                 (A) (A) (A) (A) (A) (A) (A) (A) (A) (A) (A) (A)
                 (A) (A) (A)
       Virtual   (A) (A) (A) (A) (A) (A) (A) (A) (A) (A) (A) (A)
                 (A) (A) (A) (A) (A) (A) (A) (A) (A) (A) (A) (A)
                 (A) (A) (A) (A) (A) (A) (A) (A) (A) (A) (A) (A)
                 (A) (A) (A) (A) (A) (A) (A) (A) (A) (A) (A) (A)
                 (A) (A) (A) (A) (A) (A) (A) (A) (A) (A) (A) (A)
                 (A) (A) (A) (A) (A) (A) (A) (A) (A) (A) (A) (A)
                 (A) (A) (A) (A) (A) (A) (A) (A) (A) (A) (A) (A)
                 (A) (A) (A) (A) (A) (A) (A) (A) (A) (A) (A) (A)
                 (A) (A) (A) (A) (A) (A) (A) (A) (A) (A) (A) (A)
                 (A) (A) (A) (A) (A) (A) (A) (A) (A) (A) (A) (A)
                 (A) (A) (A) (A) (A) (A) (A) (A) (A) (A) (A) (A)
                 (A) (A) (A) (A) (A) (A) (A) (A) (A) (A) (A) (A)
                 (A) (A) (A) (A) (A) (A) (A) (A) (A) (A) (A) (A)
                 (A) (A) (A) (A) (A) (A) (A) (A) (A) (A) (A) (A)
                 (A) (A) (A) (A) (A) (A) (A) (A) (A) (A) (A) (A)
                 (A) (A) (A) (A) (A) (A) (A) (A) (A) (A) (A) (A)
                 (A) (A) (A) (A) (A) (A) (A) (A) (A)
 The electronic state is 1-A.
 Alpha  occ. eigenvalues --  -11.22694 -11.22363 -11.21835 -11.21732 -11.21706
 Alpha  occ. eigenvalues --  -11.21571 -11.21478 -11.21401 -11.21324 -11.21046
 Alpha  occ. eigenvalues --   -1.10494  -1.08018  -1.01835  -0.97350  -0.93496
 Alpha  occ. eigenvalues --   -0.91905  -0.87713  -0.81520  -0.70371  -0.68953
 Alpha  occ. eigenvalues --   -0.64110  -0.61332  -0.60698  -0.58748  -0.57896
 Alpha  occ. eigenvalues --   -0.56564  -0.55283  -0.53839  -0.53590  -0.53477
 Alpha  occ. eigenvalues --   -0.52241  -0.50839  -0.50378  -0.48963  -0.48129
 Alpha  occ. eigenvalues --   -0.45043  -0.44254  -0.32363  -0.31898
 Alpha virt. eigenvalues --    0.18192   0.19095   0.23010   0.24605   0.26511
 Alpha virt. eigenvalues --    0.27303   0.28020   0.29024   0.29814   0.30814
 Alpha virt. eigenvalues --    0.31423   0.32715   0.33243   0.33569   0.34386
 Alpha virt. eigenvalues --    0.35249   0.35709   0.36652   0.38581   0.40040
 Alpha virt. eigenvalues --    0.40783   0.41974   0.43367   0.43777   0.46126
 Alpha virt. eigenvalues --    0.51615   0.52655   0.60857   0.61763   0.70041
 Alpha virt. eigenvalues --    0.70455   0.72067   0.73114   0.75561   0.76582
 Alpha virt. eigenvalues --    0.77738   0.78900   0.80639   0.80935   0.83043
 Alpha virt. eigenvalues --    0.84906   0.86244   0.87255   0.90400   0.91418
 Alpha virt. eigenvalues --    0.92489   0.95060   0.96641   0.98459   0.99863
 Alpha virt. eigenvalues --    1.00661   1.02085   1.03030   1.05053   1.07537
 Alpha virt. eigenvalues --    1.08126   1.09586   1.10762   1.10997   1.12818
 Alpha virt. eigenvalues --    1.13269   1.13740   1.14712   1.14897   1.15531
 Alpha virt. eigenvalues --    1.16256   1.17171   1.18298   1.18407   1.20685
 Alpha virt. eigenvalues --    1.20986   1.21803   1.23379   1.24319   1.25408
 Alpha virt. eigenvalues --    1.27258   1.29965   1.39915   1.42356   1.45033
 Alpha virt. eigenvalues --    1.46927   1.51294   1.54871   1.55722   1.58727
 Alpha virt. eigenvalues --    1.61167   1.66969   1.69565   1.70827   1.72971
 Alpha virt. eigenvalues --    1.75360   1.79194   1.91928   1.94190   1.95942
 Alpha virt. eigenvalues --    1.97967   2.01352   2.03725   2.07307   2.08420
 Alpha virt. eigenvalues --    2.08557   2.10708   2.11097   2.12011   2.15897
 Alpha virt. eigenvalues --    2.16997   2.17846   2.21252   2.27754   2.28189
 Alpha virt. eigenvalues --    2.29677   2.31748   2.34544   2.34881   2.35721
 Alpha virt. eigenvalues --    2.35846   2.36383   2.37709   2.40244   2.40572
 Alpha virt. eigenvalues --    2.41674   2.41827   2.43537   2.44026   2.45227
 Alpha virt. eigenvalues --    2.46192   2.48168   2.50366   2.52442   2.53892
 Alpha virt. eigenvalues --    2.56616   2.58593   2.59778   2.61623   2.63956
 Alpha virt. eigenvalues --    2.67138   2.69319   2.70291   2.70818   2.74854
 Alpha virt. eigenvalues --    2.75705   2.77485   2.79098   2.83260   2.86092
 Alpha virt. eigenvalues --    2.86435   2.88555   2.89944   2.92917   2.93952
 Alpha virt. eigenvalues --    2.95465   2.98602   2.99602   3.02735   3.03330
 Alpha virt. eigenvalues --    3.05525   3.06306   3.10429   3.11618   3.12860
 Alpha virt. eigenvalues --    3.15615   3.18703   3.19582   3.20622   3.21287
 Alpha virt. eigenvalues --    3.22730   3.24612   3.27070   3.28163   3.37576
 Alpha virt. eigenvalues --    3.40498   3.43720   3.45884   3.55633   3.56329
 Alpha virt. eigenvalues --    3.60325   3.61776   3.68419   3.69894   3.79004
 Alpha virt. eigenvalues --    3.79663   3.80573   3.80895   3.82294   3.82701
 Alpha virt. eigenvalues --    3.84360   3.85911   3.87439   3.89767   3.91155
 Alpha virt. eigenvalues --    3.95304   4.58333   4.62036   4.74879   4.83989
 Alpha virt. eigenvalues --    4.91289   4.92205   4.93590   5.09343   5.12646
 Alpha virt. eigenvalues --    5.15875
          Condensed to atoms (all electrons):
               1          2          3          4          5          6
     1  C    4.969567   0.414670   0.408597   0.357715  -0.057654   0.003315
     2  H    0.414670   0.575830  -0.031383  -0.042701   0.003521  -0.000117
     3  H    0.408597  -0.031383   0.608190  -0.044044  -0.006852   0.000052
     4  C    0.357715  -0.042701  -0.044044   4.973362   0.341752  -0.038680
     5  C   -0.057654   0.003521  -0.006852   0.341752   4.907867   0.407421
     6  H    0.003315  -0.000117   0.000052  -0.038680   0.407421   0.568696
     7  H   -0.006364   0.000127   0.002641  -0.041836   0.403803  -0.030181
     8  H    0.000909  -0.000091   0.000041  -0.044017   0.399095  -0.026399
     9  C   -0.049551  -0.003084   0.003131   0.691657  -0.048204  -0.002990
    10  H   -0.006226   0.001877   0.000221  -0.037833   0.003297   0.000045
    11  C    0.003006   0.000111  -0.000103  -0.049031  -0.007277  -0.001955
    12  H    0.000096   0.000003   0.000002  -0.000230  -0.001520  -0.000768
    13  H   -0.000093  -0.000013  -0.000001  -0.000338   0.000191  -0.000088
    14  H   -0.000114   0.000006   0.000008  -0.000728   0.000294   0.000169
    15  C   -0.000121  -0.000048   0.000002   0.000003   0.000000  -0.000000
    16  H   -0.000004  -0.000001   0.000000  -0.000000   0.000000  -0.000000
    17  H   -0.000005   0.000001   0.000000  -0.000000  -0.000000   0.000000
    18  H    0.000027   0.000001  -0.000000   0.000003   0.000000  -0.000000
    19  C   -0.003691   0.001575   0.000041  -0.000093  -0.000003  -0.000000
    20  C   -0.000078  -0.000357  -0.000015   0.000039  -0.000000   0.000000
    21  H    0.000191   0.000414   0.000009  -0.000001   0.000001  -0.000000
    22  H    0.000078  -0.000014  -0.000004   0.000001   0.000000  -0.000000
    23  H   -0.000069   0.000018   0.000004  -0.000001  -0.000000  -0.000000
    24  C   -0.061645  -0.004868   0.006077  -0.004646  -0.000084  -0.000004
    25  H    0.000696   0.000167  -0.000109   0.002117   0.000028  -0.000000
    26  C    0.330141  -0.038416  -0.047051  -0.063306   0.002117  -0.000057
    27  H   -0.040457  -0.002470  -0.003984   0.005229  -0.000187   0.000002
    28  H   -0.041182   0.004130  -0.001491  -0.004858   0.000589  -0.000020
               7          8          9         10         11         12
     1  C   -0.006364   0.000909  -0.049551  -0.006226   0.003006   0.000096
     2  H    0.000127  -0.000091  -0.003084   0.001877   0.000111   0.000003
     3  H    0.002641   0.000041   0.003131   0.000221  -0.000103   0.000002
     4  C   -0.041836  -0.044017   0.691657  -0.037833  -0.049031  -0.000230
     5  C    0.403803   0.399095  -0.048204   0.003297  -0.007277  -0.001520
     6  H   -0.030181  -0.026399  -0.002990   0.000045  -0.001955  -0.000768
     7  H    0.585684  -0.032409   0.002321  -0.000100   0.000142   0.000012
     8  H   -0.032409   0.581424  -0.003177  -0.000134   0.000590  -0.000189
     9  C    0.002321  -0.003177   4.938723   0.405318   0.339864  -0.041972
    10  H   -0.000100  -0.000134   0.405318   0.551131  -0.043123   0.003334
    11  C    0.000142   0.000590   0.339864  -0.043123   4.903555   0.407299
    12  H    0.000012  -0.000189  -0.041972   0.003334   0.407299   0.575010
    13  H   -0.000015   0.000133  -0.044057  -0.001909   0.402302  -0.029081
    14  H    0.000020  -0.000053  -0.044132  -0.000949   0.400136  -0.027648
    15  C   -0.000000   0.000000   0.000005   0.000015  -0.000001   0.000000
    16  H   -0.000000   0.000000  -0.000001   0.000003  -0.000001   0.000000
    17  H   -0.000000   0.000000   0.000000   0.000002   0.000000  -0.000000
    18  H    0.000000  -0.000000   0.000005  -0.000020  -0.000000   0.000000
    19  C    0.000000  -0.000002   0.000217   0.000990  -0.000000   0.000000
    20  C   -0.000000   0.000000  -0.000007  -0.000018  -0.000000  -0.000000
    21  H    0.000000  -0.000000   0.000006   0.000001  -0.000000   0.000000
    22  H    0.000000  -0.000000   0.000002  -0.000010  -0.000000   0.000000
    23  H    0.000000   0.000000   0.000000   0.000001   0.000000  -0.000000
    24  C    0.000024   0.000032   0.001862   0.002136  -0.000040  -0.000000
    25  H    0.000000  -0.000009   0.000476  -0.000085   0.000012  -0.000002
    26  C   -0.000215   0.000759  -0.007115  -0.000123  -0.000068  -0.000006
    27  H   -0.000016  -0.000006  -0.000011  -0.000009   0.000002   0.000000
    28  H    0.000214  -0.000211   0.000624   0.000036   0.000002   0.000000
              13         14         15         16         17         18
     1  C   -0.000093  -0.000114  -0.000121  -0.000004  -0.000005   0.000027
     2  H   -0.000013   0.000006  -0.000048  -0.000001   0.000001   0.000001
     3  H   -0.000001   0.000008   0.000002   0.000000   0.000000  -0.000000
     4  C   -0.000338  -0.000728   0.000003  -0.000000  -0.000000   0.000003
     5  C    0.000191   0.000294   0.000000   0.000000  -0.000000   0.000000
     6  H   -0.000088   0.000169  -0.000000  -0.000000   0.000000  -0.000000
     7  H   -0.000015   0.000020  -0.000000  -0.000000  -0.000000   0.000000
     8  H    0.000133  -0.000053   0.000000   0.000000   0.000000  -0.000000
     9  C   -0.044057  -0.044132   0.000005  -0.000001   0.000000   0.000005
    10  H   -0.001909  -0.000949   0.000015   0.000003   0.000002  -0.000020
    11  C    0.402302   0.400136  -0.000001  -0.000001   0.000000  -0.000000
    12  H   -0.029081  -0.027648   0.000000   0.000000  -0.000000   0.000000
    13  H    0.587089  -0.033857  -0.000000   0.000002   0.000000  -0.000000
    14  H   -0.033857   0.587563   0.000000  -0.000000  -0.000000  -0.000000
    15  C   -0.000000   0.000000   4.897836   0.405443   0.399519   0.397437
    16  H    0.000002  -0.000000   0.405443   0.569088  -0.027597  -0.027799
    17  H    0.000000  -0.000000   0.399519  -0.027597   0.595754  -0.035104
    18  H   -0.000000  -0.000000   0.397437  -0.027799  -0.035104   0.595956
    19  C   -0.000001   0.000000   0.353416  -0.040802  -0.047166  -0.044027
    20  C    0.000000   0.000000  -0.062938   0.003771  -0.000261  -0.002844
    21  H   -0.000000   0.000000   0.003588  -0.000114  -0.000030  -0.000051
    22  H   -0.000000   0.000000  -0.004298   0.000079  -0.000622   0.002676
    23  H    0.000000   0.000000  -0.000424  -0.000120   0.001896  -0.000211
    24  C    0.000023   0.000002  -0.044721  -0.002344  -0.001087  -0.000596
    25  H    0.000002   0.000001  -0.006552   0.002196   0.000138   0.000230
    26  C    0.000033  -0.000007   0.003161   0.000138  -0.000125  -0.000087
    27  H   -0.000000   0.000000   0.000048   0.000004   0.000010  -0.000006
    28  H   -0.000000   0.000000  -0.000093  -0.000010   0.000007  -0.000001
              19         20         21         22         23         24
     1  C   -0.003691  -0.000078   0.000191   0.000078  -0.000069  -0.061645
     2  H    0.001575  -0.000357   0.000414  -0.000014   0.000018  -0.004868
     3  H    0.000041  -0.000015   0.000009  -0.000004   0.000004   0.006077
     4  C   -0.000093   0.000039  -0.000001   0.000001  -0.000001  -0.004646
     5  C   -0.000003  -0.000000   0.000001   0.000000  -0.000000  -0.000084
     6  H   -0.000000   0.000000  -0.000000  -0.000000  -0.000000  -0.000004
     7  H    0.000000  -0.000000   0.000000   0.000000   0.000000   0.000024
     8  H   -0.000002   0.000000  -0.000000  -0.000000   0.000000   0.000032
     9  C    0.000217  -0.000007   0.000006   0.000002   0.000000   0.001862
    10  H    0.000990  -0.000018   0.000001  -0.000010   0.000001   0.002136
    11  C   -0.000000  -0.000000  -0.000000  -0.000000   0.000000  -0.000040
    12  H    0.000000  -0.000000   0.000000   0.000000  -0.000000  -0.000000
    13  H   -0.000001   0.000000  -0.000000  -0.000000   0.000000   0.000023
    14  H    0.000000   0.000000   0.000000   0.000000   0.000000   0.000002
    15  C    0.353416  -0.062938   0.003588  -0.004298  -0.000424  -0.044721
    16  H   -0.040802   0.003771  -0.000114   0.000079  -0.000120  -0.002344
    17  H   -0.047166  -0.000261  -0.000030  -0.000622   0.001896  -0.001087
    18  H   -0.044027  -0.002844  -0.000051   0.002676  -0.000211  -0.000596
    19  C    4.933455   0.343603  -0.037381  -0.043338  -0.042879   0.695097
    20  C    0.343603   4.914331   0.406212   0.404049   0.398171  -0.047312
    21  H   -0.037381   0.406212   0.570566  -0.030213  -0.026583  -0.003327
    22  H   -0.043338   0.404049  -0.030213   0.584981  -0.031694   0.001754
    23  H   -0.042879   0.398171  -0.026583  -0.031694   0.578175  -0.002220
    24  C    0.695097  -0.047312  -0.003327   0.001754  -0.002220   4.961468
    25  H   -0.037285   0.003325   0.000055  -0.000106  -0.000123   0.405343
    26  C   -0.052722  -0.005473  -0.002391   0.000164   0.000205   0.335807
    27  H   -0.001496  -0.001244  -0.001838  -0.000040   0.000311  -0.044745
    28  H    0.002532   0.000068   0.000048  -0.000007   0.000029  -0.042340
              25         26         27         28
     1  C    0.000696   0.330141  -0.040457  -0.041182
     2  H    0.000167  -0.038416  -0.002470   0.004130
     3  H   -0.000109  -0.047051  -0.003984  -0.001491
     4  C    0.002117  -0.063306   0.005229  -0.004858
     5  C    0.000028   0.002117  -0.000187   0.000589
     6  H   -0.000000  -0.000057   0.000002  -0.000020
     7  H    0.000000  -0.000215  -0.000016   0.000214
     8  H   -0.000009   0.000759  -0.000006  -0.000211
     9  C    0.000476  -0.007115  -0.000011   0.000624
    10  H   -0.000085  -0.000123  -0.000009   0.000036
    11  C    0.000012  -0.000068   0.000002   0.000002
    12  H   -0.000002  -0.000006   0.000000   0.000000
    13  H    0.000002   0.000033  -0.000000  -0.000000
    14  H    0.000001  -0.000007   0.000000   0.000000
    15  C   -0.006552   0.003161   0.000048  -0.000093
    16  H    0.002196   0.000138   0.000004  -0.000010
    17  H    0.000138  -0.000125   0.000010   0.000007
    18  H    0.000230  -0.000087  -0.000006  -0.000001
    19  C   -0.037285  -0.052722  -0.001496   0.002532
    20  C    0.003325  -0.005473  -0.001244   0.000068
    21  H    0.000055  -0.002391  -0.001838   0.000048
    22  H   -0.000106   0.000164  -0.000040  -0.000007
    23  H   -0.000123   0.000205   0.000311   0.000029
    24  C    0.405343   0.335807  -0.044745  -0.042340
    25  H    0.549701  -0.040959   0.003370  -0.004200
    26  C   -0.040959   4.999322   0.415049   0.413076
    27  H    0.003370   0.415049   0.585800  -0.030691
    28  H   -0.004200   0.413076  -0.030691   0.587426
 Mulliken charges:
               1
     1  C   -0.221755
     2  H    0.121112
     3  H    0.106020
     4  C    0.000467
     5  C   -0.348194
     6  H    0.121560
     7  H    0.116149
     8  H    0.123715
     9  C   -0.139912
    10  H    0.122133
    11  C   -0.355422
    12  H    0.115663
    13  H    0.119681
    14  H    0.119289
    15  C   -0.341276
    16  H    0.118068
    17  H    0.114669
    18  H    0.114411
    19  C    0.019960
    20  C   -0.353019
    21  H    0.120835
    22  H    0.116561
    23  H    0.125514
    24  C   -0.149646
    25  H    0.121572
    26  C   -0.241852
    27  H    0.117375
    28  H    0.116322
 Sum of Mulliken charges =  -0.00000
 Mulliken charges with hydrogens summed into heavy atoms:
               1
     1  C    0.005377
     4  C    0.000467
     5  C    0.013231
     9  C   -0.017778
    11  C   -0.000790
    15  C    0.005871
    19  C    0.019960
    20  C    0.009891
    24  C   -0.028074
    26  C   -0.008155
 Electronic spatial extent (au):  <R**2>=           2200.6672
 Charge=             -0.0000 electrons
 Dipole moment (field-independent basis, Debye):
    X=             -0.0966    Y=             -0.0696    Z=              0.0337  Tot=              0.1237
 Quadrupole moment (field-independent basis, Debye-Ang):
   XX=            -64.0680   YY=            -64.1578   ZZ=            -66.1155
   XY=             -0.4467   XZ=             -2.2389   YZ=             -0.0809
 Traceless Quadrupole moment (field-independent basis, Debye-Ang):
   XX=              0.7124   YY=              0.6226   ZZ=             -1.3350
   XY=             -0.4467   XZ=             -2.2389   YZ=             -0.0809
 Octapole moment (field-independent basis, Debye-Ang**2):
  XXX=             -2.0586  YYY=             -0.8222  ZZZ=             -0.5873  XYY=              1.2004
  XXY=              0.4122  XXZ=             -0.2160  XZZ=             -0.3714  YZZ=              2.0449
  YYZ=              1.4269  XYZ=              0.9584
 Hexadecapole moment (field-independent basis, Debye-Ang**3):
 XXXX=          -2086.3375 YYYY=           -704.7426 ZZZZ=           -256.5695 XXXY=              4.2945
 XXXZ=             -7.5740 YYYX=             -1.9105 YYYZ=             -2.4835 ZZZX=             -9.0514
 ZZZY=              1.8991 XXYY=           -472.1993 XXZZ=           -405.6301 YYZZ=           -157.2356
 XXYZ=              1.9226 YYXZ=              1.5209 ZZXY=             -2.0241
 N-N= 5.248538678117D+02 E-N=-1.954475291277D+03  KE= 3.886330541327D+02
 No NMR shielding tensors so no spin-rotation constants.
 Leave Link  601 at Fri Sep 17 20:13:14 2021, MaxMem=   524288000 cpu:               0.2 elap:               0.2
 (Enter /opt/gaussian/g16_legacy/l701.exe)
 ... and contract with generalized density number  2.
 Compute integral first derivatives.
 Leave Link  701 at Fri Sep 17 20:13:15 2021, MaxMem=   524288000 cpu:               0.2 elap:               0.1
 (Enter /opt/gaussian/g16_legacy/l702.exe)
 L702 exits ... SP integral derivatives will be done elsewhere.
 Leave Link  702 at Fri Sep 17 20:13:15 2021, MaxMem=   524288000 cpu:               0.0 elap:               0.0
 (Enter /opt/gaussian/g16_legacy/l703.exe)
 Integral derivatives from FoFJK, PRISM(SPDF).
 Compute integral first derivatives, UseDBF=F ICtDFT=           0.
 Calling FoFJK, ICntrl=  10002127 FMM=F ISym2X=0 I1Cent= 0 IOpClX= 0 NMat=1 NMatS=1 NMatT=0.
 FoFJK:  IHMeth= 1 ICntrl=10002127 DoSepK=F KAlg= 0 I1Cent=           0 FoldK=F
 IRaf=         0 NMat=       1 IRICut=       1 DoRegI=T DoRafI=F ISym2E= 0 IDoP0=0 IntGTp=1.
 FoFCou: FMM=F IPFlag=           0 FMFlag=      100000 FMFlg1=         800
         NFxFlg=           0 DoJE=F BraDBF=F KetDBF=F FulRan=T
         wScrn=  0.000000 ICntrl=  10002127 IOpCl=  0 I1Cent=           0 NGrid=           0
         NMat0=    1 NMatS0=      1 NMatT0=    0 NMatD0=    1 NMtDS0=    0 NMtDT0=    0
 Symmetry not used in FoFCou.
 Leave Link  703 at Fri Sep 17 20:13:34 2021, MaxMem=   524288000 cpu:              19.8 elap:              19.8
 (Enter /opt/gaussian/g16_legacy/l716.exe)
 Dipole        =-3.24161792D-02-2.88854875D-03 9.03456749D-03
 ***** Axes restored to original set *****
 -------------------------------------------------------------------
 Center     Atomic                   Forces (Hartrees/Bohr)
 Number     Number              X              Y              Z
 -------------------------------------------------------------------
      1        6           0.005369513   -0.001574094   -0.005033078
      2        1           0.000504745    0.001546141    0.004526473
      3        1           0.000999773    0.000994733    0.001454572
      4        6          -0.006966182   -0.006315781   -0.006106184
      5        6           0.004654786    0.001698420   -0.001109646
      6        1          -0.003422421    0.000304691    0.003879441
      7        1          -0.000984561   -0.001134017    0.004281689
      8        1           0.001410756    0.002109307   -0.002504750
      9        6          -0.003852952    0.001175392    0.002100185
     10        1          -0.000857867    0.003173323   -0.002111014
     11        6           0.002596748    0.001031742    0.000960585
     12        1          -0.002228928   -0.002011386   -0.000656620
     13        1           0.002014064   -0.000564652   -0.003139154
     14        1           0.001327647    0.000565862    0.002763111
     15        6           0.002914425    0.001297808    0.003871777
     16        1          -0.003452532    0.000116070   -0.003591658
     17        1           0.001412287   -0.002898246   -0.000907620
     18        1          -0.002968248    0.001172316    0.001815006
     19        6           0.007725719   -0.000716710   -0.001078643
     20        6           0.000190366    0.001914011   -0.006707405
     21        1          -0.000993612    0.000726922    0.005360317
     22        1          -0.001160882    0.002684609    0.002382381
     23        1          -0.000596673   -0.002679175   -0.001278115
     24        6           0.003417171    0.005951932   -0.000516887
     25        1          -0.002892384   -0.003654846    0.000078459
     26        6          -0.007518326   -0.002144126    0.003170832
     27        1           0.002233068   -0.001052168    0.000050795
     28        1           0.001124500   -0.001718078   -0.001954850
 -------------------------------------------------------------------
 Cartesian Forces:  Max     0.007725719 RMS     0.003020475
 Leave Link  716 at Fri Sep 17 20:13:34 2021, MaxMem=   524288000 cpu:               0.0 elap:               0.0
 (Enter /opt/gaussian/g16_legacy/l103.exe)

 GradGradGradGradGradGradGradGradGradGradGradGradGradGradGradGradGradGrad
 Berny optimization.
 FormGI is forming the generalized inverse of G from B-inverse, IUseBI=4.
 Internal  Forces:  Max     0.006512497 RMS     0.002031833
 Search for a local minimum.
 Step number   1 out of a maximum of  138
 All quantities printed in internal units (Hartrees-Bohrs-Radians)
 RMS Force = .20318D-02 SwitMx=.10000D-02 MixMth= 1
 Mixed Optimization -- RFO/linear search
 Second derivative matrix not updated -- first step.
 ITU=  0
     Eigenvalues ---    0.00288   0.00487   0.00653   0.00722   0.00723
     Eigenvalues ---    0.00724   0.00837   0.01208   0.01302   0.01551
     Eigenvalues ---    0.01654   0.02779   0.02792   0.03862   0.04031
     Eigenvalues ---    0.05316   0.05347   0.07035   0.07058   0.07059
     Eigenvalues ---    0.07118   0.07282   0.07305   0.07317   0.07534
     Eigenvalues ---    0.09393   0.09496   0.12851   0.12952   0.15985
     Eigenvalues ---    0.15999   0.16000   0.16000   0.16000   0.16000
     Eigenvalues ---    0.16000   0.16000   0.16000   0.16000   0.16000
     Eigenvalues ---    0.16000   0.16000   0.16000   0.21893   0.21905
     Eigenvalues ---    0.22000   0.22005   0.24985   0.24992   0.25000
     Eigenvalues ---    0.25000   0.28862   0.30261   0.31499   0.32028
     Eigenvalues ---    0.32035   0.32051   0.32946   0.34028   0.34107
     Eigenvalues ---    0.34109   0.34127   0.34160   0.34165   0.34166
     Eigenvalues ---    0.34168   0.34214   0.34259   0.34270   0.34331
     Eigenvalues ---    0.34431   0.34433   0.34436   0.34631   0.34809
     Eigenvalues ---    0.34829   0.55495   0.55695
 RFO step:  Lambda=-4.27376345D-03 EMin= 2.87604961D-03
 Linear search not attempted -- first point.
 Iteration  1 RMS(Cart)=  0.10942239 RMS(Int)=  0.00337700
 Iteration  2 RMS(Cart)=  0.00600065 RMS(Int)=  0.00017232
 Iteration  3 RMS(Cart)=  0.00001302 RMS(Int)=  0.00017204
 Iteration  4 RMS(Cart)=  0.00000000 RMS(Int)=  0.00017204
 ITry= 1 IFail=0 DXMaxC= 5.11D-01 DCOld= 1.00D+10 DXMaxT= 3.00D-01 DXLimC= 3.00D+00 Rises=F
 Variable       Old X    -DE/DX   Delta X   Delta X   Delta X     New X
                                 (Linear)    (Quad)   (Total)
    R1        2.07283  -0.00272   0.00000  -0.00791  -0.00791   2.06493
    R2        2.07146  -0.00080   0.00000  -0.00233  -0.00233   2.06913
    R3        2.87446  -0.00651   0.00000  -0.02122  -0.02122   2.85324
    R4        2.90292   0.00052   0.00000   0.00178   0.00178   2.90470
    R5        2.84079   0.00260   0.00000   0.00801   0.00801   2.84881
    R6        2.54695  -0.00323   0.00000  -0.00577  -0.00577   2.54118
    R7        2.06775  -0.00394   0.00000  -0.01134  -0.01134   2.05640
    R8        2.07047  -0.00369   0.00000  -0.01068  -0.01068   2.05979
    R9        2.06608  -0.00082   0.00000  -0.00236  -0.00236   2.06372
   R10        2.05987  -0.00243   0.00000  -0.00688  -0.00688   2.05298
   R11        2.82446   0.00358   0.00000   0.01073   0.01073   2.83519
   R12        2.06278  -0.00283   0.00000  -0.00806  -0.00806   2.05471
   R13        2.07052  -0.00285   0.00000  -0.00824  -0.00824   2.06229
   R14        2.06600  -0.00125   0.00000  -0.00358  -0.00358   2.06242
   R15        2.07150  -0.00460   0.00000  -0.01331  -0.01331   2.05819
   R16        2.06877  -0.00168   0.00000  -0.00484  -0.00484   2.06393
   R17        2.06970  -0.00221   0.00000  -0.00637  -0.00637   2.06333
   R18        2.84052   0.00090   0.00000   0.00277   0.00277   2.84328
   R19        2.84092   0.00122   0.00000   0.00377   0.00377   2.84469
   R20        2.54520  -0.00313   0.00000  -0.00558  -0.00558   2.53962
   R21        2.07050  -0.00488   0.00000  -0.01410  -0.01410   2.05640
   R22        2.06895  -0.00280   0.00000  -0.00807  -0.00807   2.06088
   R23        2.06606  -0.00075   0.00000  -0.00215  -0.00215   2.06391
   R24        2.05953  -0.00285   0.00000  -0.00807  -0.00807   2.05146
   R25        2.85071  -0.00272   0.00000  -0.00851  -0.00851   2.84221
   R26        2.07116  -0.00220   0.00000  -0.00637  -0.00637   2.06480
   R27        2.07062  -0.00183   0.00000  -0.00529  -0.00529   2.06533
    A1        1.83647   0.00144   0.00000   0.02973   0.02977   1.86624
    A2        1.91970   0.00059   0.00000  -0.00586  -0.00626   1.91344
    A3        1.91247  -0.00055   0.00000  -0.01336  -0.01362   1.89885
    A4        1.90554   0.00100   0.00000   0.00831   0.00832   1.91386
    A5        1.90247   0.00028   0.00000   0.00265   0.00273   1.90520
    A6        1.98147  -0.00245   0.00000  -0.01762  -0.01783   1.96364
    A7        2.01535   0.00288   0.00000   0.01134   0.01064   2.02599
    A8        2.09351  -0.00095   0.00000  -0.00370  -0.00438   2.08913
    A9        2.17432  -0.00193   0.00000  -0.00757  -0.00824   2.16608
   A10        1.96419  -0.00089   0.00000  -0.00300  -0.00298   1.96121
   A11        1.93195  -0.00167   0.00000  -0.00882  -0.00878   1.92316
   A12        1.92600   0.00447   0.00000   0.02346   0.02350   1.94950
   A13        1.85077   0.00263   0.00000   0.02309   0.02310   1.87388
   A14        1.89786  -0.00243   0.00000  -0.01711  -0.01708   1.88077
   A15        1.89018  -0.00233   0.00000  -0.01887  -0.01880   1.87137
   A16        2.06249  -0.00245   0.00000  -0.01525  -0.01543   2.04705
   A17        2.23284  -0.00119   0.00000  -0.00496  -0.00513   2.22771
   A18        1.98640   0.00368   0.00000   0.02195   0.02178   2.00819
   A19        1.98324  -0.00261   0.00000  -0.01569  -0.01561   1.96763
   A20        1.90661   0.00271   0.00000   0.01689   0.01684   1.92344
   A21        1.91732   0.00352   0.00000   0.02083   0.02079   1.93811
   A22        1.87531   0.00004   0.00000   0.00129   0.00135   1.87666
   A23        1.89177  -0.00071   0.00000  -0.00497  -0.00490   1.88687
   A24        1.88694  -0.00314   0.00000  -0.01954  -0.01969   1.86724
   A25        1.88086   0.00062   0.00000   0.00565   0.00569   1.88655
   A26        1.87528   0.00129   0.00000   0.01212   0.01216   1.88744
   A27        1.96035  -0.00281   0.00000  -0.01388  -0.01384   1.94651
   A28        1.89530  -0.00323   0.00000  -0.02601  -0.02600   1.86930
   A29        1.92649   0.00222   0.00000   0.01129   0.01131   1.93781
   A30        1.92348   0.00179   0.00000   0.00998   0.01001   1.93348
   A31        2.00425   0.00155   0.00000   0.00655   0.00608   2.01033
   A32        2.10864   0.00174   0.00000   0.00738   0.00690   2.11554
   A33        2.16984  -0.00327   0.00000  -0.01232  -0.01277   2.15706
   A34        1.96766  -0.00126   0.00000  -0.00424  -0.00424   1.96342
   A35        1.92882  -0.00093   0.00000  -0.00569  -0.00567   1.92315
   A36        1.92252   0.00320   0.00000   0.01616   0.01619   1.93870
   A37        1.85775   0.00231   0.00000   0.02040   0.02041   1.87816
   A38        1.89161  -0.00105   0.00000  -0.00612  -0.00612   1.88550
   A39        1.89290  -0.00242   0.00000  -0.02148  -0.02144   1.87146
   A40        2.07356  -0.00179   0.00000  -0.01420  -0.01422   2.05934
   A41        2.21739  -0.00397   0.00000  -0.01772  -0.01775   2.19964
   A42        1.99213   0.00575   0.00000   0.03173   0.03170   2.02382
   A43        1.96237  -0.00028   0.00000  -0.00312  -0.00321   1.95916
   A44        1.90525   0.00012   0.00000   0.00404   0.00404   1.90929
   A45        1.92750  -0.00202   0.00000  -0.02382  -0.02387   1.90363
   A46        1.92488   0.00064   0.00000   0.01272   0.01269   1.93757
   A47        1.89664   0.00088   0.00000   0.00078   0.00057   1.89721
   A48        1.84353   0.00072   0.00000   0.01015   0.01014   1.85367
    D1        2.64273   0.00300   0.00000   0.15677   0.15687   2.79959
    D2       -0.49765   0.00192   0.00000   0.09084   0.09068  -0.40698
    D3        0.63589   0.00039   0.00000   0.11967   0.11977   0.75566
[...]
                 (A) (A) (A) (A) (A) (A) (A) (A) (A) (A) (A) (A)
                 (A) (A) (A) (A) (A) (A) (A) (A) (A) (A) (A) (A)
                 (A) (A) (A) (A) (A) (A) (A) (A) (A) (A) (A) (A)
                 (A) (A) (A) (A) (A) (A) (A) (A) (A) (A) (A) (A)
                 (A) (A) (A) (A) (A) (A) (A) (A) (A) (A) (A) (A)
                 (A) (A) (A) (A) (A) (A) (A) (A) (A) (A) (A) (A)
                 (A) (A) (A) (A) (A) (A) (A) (A) (A) (A) (A) (A)
                 (A) (A) (A) (A) (A) (A) (A) (A) (A) (A) (A) (A)
                 (A) (A) (A) (A) (A) (A) (A) (A) (A) (A) (A) (A)
                 (A) (A) (A) (A) (A) (A) (A) (A) (A) (A) (A) (A)
                 (A) (A) (A) (A) (A) (A) (A) (A) (A) (A) (A) (A)
                 (A) (A) (A) (A) (A) (A) (A) (A) (A) (A) (A) (A)
                 (A) (A) (A) (A) (A) (A) (A) (A) (A) (A) (A) (A)
                 (A) (A) (A) (A) (A) (A) (A) (A) (A) (A) (A) (A)
                 (A) (A) (A) (A) (A) (A) (A) (A) (A)
 The electronic state is 1-A.
 Alpha  occ. eigenvalues --  -11.22657 -11.22363 -11.21748 -11.21670 -11.21500
 Alpha  occ. eigenvalues --  -11.21497 -11.21446 -11.21331 -11.21284 -11.21036
 Alpha  occ. eigenvalues --   -1.10816  -1.08118  -1.01964  -0.97249  -0.93597
 Alpha  occ. eigenvalues --   -0.92320  -0.88046  -0.81481  -0.70821  -0.68867
 Alpha  occ. eigenvalues --   -0.64504  -0.61557  -0.61321  -0.58562  -0.57648
 Alpha  occ. eigenvalues --   -0.56814  -0.55132  -0.54446  -0.53423  -0.53049
 Alpha  occ. eigenvalues --   -0.52427  -0.51153  -0.50315  -0.49160  -0.47824
 Alpha  occ. eigenvalues --   -0.45858  -0.44502  -0.32353  -0.32071
 Alpha virt. eigenvalues --    0.18844   0.19295   0.22637   0.24633   0.26788
 Alpha virt. eigenvalues --    0.26962   0.27968   0.29127   0.30475   0.30673
 Alpha virt. eigenvalues --    0.31909   0.32313   0.33194   0.33626   0.34737
 Alpha virt. eigenvalues --    0.35182   0.36574   0.38551   0.39931   0.40170
 Alpha virt. eigenvalues --    0.41046   0.42109   0.43157   0.43692   0.46277
 Alpha virt. eigenvalues --    0.51170   0.52625   0.62520   0.63989   0.69744
 Alpha virt. eigenvalues --    0.70652   0.72266   0.73670   0.74392   0.76103
 Alpha virt. eigenvalues --    0.76347   0.78204   0.80632   0.81897   0.83123
 Alpha virt. eigenvalues --    0.84719   0.86722   0.87299   0.89950   0.91730
 Alpha virt. eigenvalues --    0.92497   0.95356   0.96537   0.98394   0.99410
 Alpha virt. eigenvalues --    1.01132   1.01810   1.03410   1.05973   1.07184
 Alpha virt. eigenvalues --    1.08340   1.08802   1.10035   1.11352   1.12515
 Alpha virt. eigenvalues --    1.12954   1.14180   1.14620   1.15610   1.15811
 Alpha virt. eigenvalues --    1.16473   1.17691   1.18726   1.19286   1.21094
 Alpha virt. eigenvalues --    1.21432   1.22546   1.24479   1.25414   1.26922
 Alpha virt. eigenvalues --    1.28913   1.32317   1.40981   1.42398   1.45071
 Alpha virt. eigenvalues --    1.46546   1.48786   1.54911   1.57012   1.59059
 Alpha virt. eigenvalues --    1.61090   1.67399   1.70370   1.72095   1.73688
 Alpha virt. eigenvalues --    1.76067   1.76458   1.91433   1.91911   1.97246
 Alpha virt. eigenvalues --    1.98848   2.01834   2.04111   2.06650   2.07500
 Alpha virt. eigenvalues --    2.08417   2.10509   2.11544   2.13630   2.14549
 Alpha virt. eigenvalues --    2.16208   2.18585   2.21561   2.25778   2.27884
 Alpha virt. eigenvalues --    2.30102   2.32024   2.33614   2.34830   2.35550
 Alpha virt. eigenvalues --    2.35937   2.35990   2.37900   2.40428   2.41630
 Alpha virt. eigenvalues --    2.43143   2.43585   2.44134   2.44414   2.46275
 Alpha virt. eigenvalues --    2.47263   2.49190   2.50153   2.53006   2.54430
 Alpha virt. eigenvalues --    2.56616   2.58421   2.61262   2.62545   2.64324
 Alpha virt. eigenvalues --    2.68504   2.69189   2.70413   2.71416   2.74001
 Alpha virt. eigenvalues --    2.76829   2.78377   2.79201   2.83630   2.84873
 Alpha virt. eigenvalues --    2.86109   2.88276   2.90334   2.93373   2.94633
 Alpha virt. eigenvalues --    2.95865   2.98860   2.99993   3.03398   3.04206
 Alpha virt. eigenvalues --    3.06643   3.07261   3.10796   3.12775   3.13645
 Alpha virt. eigenvalues --    3.17862   3.18777   3.19357   3.21218   3.21841
 Alpha virt. eigenvalues --    3.23249   3.24987   3.27068   3.30777   3.38790
 Alpha virt. eigenvalues --    3.41505   3.44179   3.46607   3.56332   3.57463
 Alpha virt. eigenvalues --    3.61970   3.62988   3.68445   3.71834   3.79561
 Alpha virt. eigenvalues --    3.80568   3.81852   3.82197   3.83486   3.84129
 Alpha virt. eigenvalues --    3.84912   3.86738   3.88908   3.89820   3.91376
 Alpha virt. eigenvalues --    3.95966   4.58213   4.62235   4.74428   4.84749
 Alpha virt. eigenvalues --    4.89987   4.92495   4.94774   5.08081   5.11241
 Alpha virt. eigenvalues --    5.16164
          Condensed to atoms (all electrons):
               1          2          3          4          5          6
     1  C    4.958787   0.414954   0.406826   0.367220  -0.062093   0.003506
     2  H    0.414954   0.580404  -0.027245  -0.048391   0.003905  -0.000101
     3  H    0.406826  -0.027245   0.605791  -0.045095  -0.004012  -0.000066
     4  C    0.367220  -0.048391  -0.045095   4.941194   0.344576  -0.037642
     5  C   -0.062093   0.003905  -0.004012   0.344576   4.906759   0.407752
     6  H    0.003506  -0.000101  -0.000066  -0.037642   0.407752   0.568240
     7  H   -0.002945   0.000040   0.003175  -0.044170   0.401171  -0.027472
     8  H   -0.001896  -0.000106  -0.000185  -0.041754   0.400466  -0.027862
     9  C   -0.044055  -0.002869   0.001037   0.701320  -0.044009  -0.002906
    10  H   -0.007700   0.002269   0.000255  -0.038875   0.003585   0.000045
    11  C    0.003206   0.000206  -0.000108  -0.047479  -0.008041  -0.002307
    12  H    0.000085   0.000005   0.000002  -0.000025  -0.002099  -0.001218
    13  H   -0.000089  -0.000010  -0.000003  -0.000401   0.000224  -0.000062
    14  H   -0.000113  -0.000005   0.000014  -0.000848   0.000290   0.000077
    15  C   -0.000121  -0.000031   0.000002   0.000006   0.000000  -0.000000
    16  H   -0.000006  -0.000001   0.000000  -0.000001  -0.000000  -0.000000
    17  H   -0.000005   0.000001   0.000000  -0.000000  -0.000000   0.000000
    18  H    0.000026  -0.000004  -0.000000   0.000005   0.000000   0.000000
    19  C   -0.003273   0.001746  -0.000007  -0.000854   0.000014  -0.000000
    20  C    0.000220   0.000096  -0.000011   0.000015  -0.000000   0.000000
    21  H   -0.000211   0.000298   0.000031  -0.000000   0.000000  -0.000000
    22  H    0.000147  -0.000073  -0.000005   0.000008   0.000000  -0.000000
    23  H   -0.000041   0.000013   0.000001  -0.000001   0.000000  -0.000000
    24  C   -0.065665  -0.003161   0.006480  -0.006154  -0.000610  -0.000024
    25  H   -0.000245   0.000060  -0.000089   0.001725  -0.000018  -0.000002
    26  C    0.331767  -0.039500  -0.051017  -0.065054   0.000007   0.000042
    27  H   -0.039101  -0.004130  -0.002887   0.005025  -0.000152   0.000001
    28  H   -0.042892   0.004487  -0.002319  -0.004731   0.000387   0.000009
               7          8          9         10         11         12
     1  C   -0.002945  -0.001896  -0.044055  -0.007700   0.003206   0.000085
     2  H    0.000040  -0.000106  -0.002869   0.002269   0.000206   0.000005
     3  H    0.003175  -0.000185   0.001037   0.000255  -0.000108   0.000002
     4  C   -0.044170  -0.041754   0.701320  -0.038875  -0.047479  -0.000025
     5  C    0.401171   0.400466  -0.044009   0.003585  -0.008041  -0.002099
     6  H   -0.027472  -0.027862  -0.002906   0.000045  -0.002307  -0.001218
     7  H    0.588412  -0.036099   0.001390  -0.000113   0.000188   0.000003
     8  H   -0.036099   0.588310  -0.002129  -0.000128   0.000438  -0.000107
     9  C    0.001390  -0.002129   4.924625   0.405544   0.340525  -0.043481
    10  H   -0.000113  -0.000128   0.405544   0.558050  -0.042090   0.003337
    11  C    0.000188   0.000438   0.340525  -0.042090   4.899423   0.407856
    12  H    0.000003  -0.000107  -0.043481   0.003337   0.407856   0.577598
    13  H   -0.000019   0.000086  -0.042224  -0.001440   0.401866  -0.028701
    14  H    0.000032  -0.000037  -0.042060  -0.001002   0.401012  -0.027953
    15  C   -0.000000   0.000001   0.000000   0.000000  -0.000001  -0.000000
    16  H    0.000000  -0.000000  -0.000002   0.000000  -0.000000  -0.000000
    17  H    0.000000   0.000000   0.000000   0.000000   0.000000   0.000000
    18  H   -0.000000  -0.000000  -0.000005  -0.000001   0.000000   0.000000
    19  C   -0.000000  -0.000008   0.000317   0.000143   0.000000   0.000000
    20  C    0.000000   0.000000  -0.000009   0.000001  -0.000000  -0.000000
    21  H    0.000000  -0.000000  -0.000000   0.000000  -0.000000  -0.000000
    22  H    0.000000  -0.000000  -0.000000  -0.000000  -0.000000   0.000000
    23  H   -0.000000   0.000000   0.000000   0.000000   0.000000   0.000000
    24  C    0.000144  -0.000121   0.004129   0.000343  -0.000040   0.000002
    25  H    0.000001   0.000270   0.000291  -0.000004   0.000015   0.000001
    26  C   -0.001271   0.001255  -0.005903   0.000193  -0.000087  -0.000005
    27  H   -0.000028   0.000046  -0.000004  -0.000011   0.000002   0.000000
    28  H    0.000431  -0.001724   0.000308  -0.000003   0.000004  -0.000000
              13         14         15         16         17         18
     1  C   -0.000089  -0.000113  -0.000121  -0.000006  -0.000005   0.000026
     2  H   -0.000010  -0.000005  -0.000031  -0.000001   0.000001  -0.000004
     3  H   -0.000003   0.000014   0.000002   0.000000   0.000000  -0.000000
     4  C   -0.000401  -0.000848   0.000006  -0.000001  -0.000000   0.000005
     5  C    0.000224   0.000290   0.000000  -0.000000  -0.000000   0.000000
     6  H   -0.000062   0.000077  -0.000000  -0.000000   0.000000   0.000000
     7  H   -0.000019   0.000032  -0.000000   0.000000   0.000000  -0.000000
     8  H    0.000086  -0.000037   0.000001  -0.000000   0.000000  -0.000000
     9  C   -0.042224  -0.042060   0.000000  -0.000002   0.000000  -0.000005
    10  H   -0.001440  -0.001002   0.000000   0.000000   0.000000  -0.000001
    11  C    0.401866   0.401012  -0.000001  -0.000000   0.000000   0.000000
    12  H   -0.028701  -0.027953  -0.000000  -0.000000   0.000000   0.000000
    13  H    0.585945  -0.035939  -0.000000   0.000002   0.000000  -0.000000
    14  H   -0.035939   0.586623   0.000000  -0.000000  -0.000000   0.000000
    15  C   -0.000000   0.000000   4.898867   0.406043   0.398556   0.398251
    16  H    0.000002  -0.000000   0.406043   0.566189  -0.026608  -0.026722
    17  H    0.000000  -0.000000   0.398556  -0.026608   0.596558  -0.038227
    18  H   -0.000000   0.000000   0.398251  -0.026722  -0.038227   0.596672
    19  C    0.000003  -0.000000   0.354221  -0.041429  -0.044440  -0.044188
    20  C    0.000000   0.000000  -0.065474   0.003816  -0.001201  -0.001968
    21  H    0.000000   0.000000   0.003773  -0.000115  -0.000033  -0.000069
    22  H   -0.000000   0.000000  -0.002601  -0.000037  -0.000484   0.002802
    23  H    0.000000  -0.000000  -0.002268  -0.000048   0.002823  -0.000483
    24  C    0.000010   0.000001  -0.044010  -0.002623  -0.001370  -0.000373
    25  H   -0.000001   0.000000  -0.007043   0.002393   0.000177   0.000191
    26  C    0.000025  -0.000006   0.003207   0.000143  -0.000129  -0.000078
    27  H   -0.000000   0.000000   0.000046   0.000006   0.000007  -0.000004
    28  H   -0.000000   0.000000  -0.000093  -0.000009   0.000009  -0.000002
              19         20         21         22         23         24
     1  C   -0.003273   0.000220  -0.000211   0.000147  -0.000041  -0.065665
     2  H    0.001746   0.000096   0.000298  -0.000073   0.000013  -0.003161
     3  H   -0.000007  -0.000011   0.000031  -0.000005   0.000001   0.006480
     4  C   -0.000854   0.000015  -0.000000   0.000008  -0.000001  -0.006154
     5  C    0.000014  -0.000000   0.000000   0.000000   0.000000  -0.000610
     6  H   -0.000000   0.000000  -0.000000  -0.000000  -0.000000  -0.000024
     7  H   -0.000000   0.000000   0.000000   0.000000  -0.000000   0.000144
     8  H   -0.000008   0.000000  -0.000000  -0.000000   0.000000  -0.000121
     9  C    0.000317  -0.000009  -0.000000  -0.000000   0.000000   0.004129
    10  H    0.000143   0.000001   0.000000  -0.000000   0.000000   0.000343
    11  C    0.000000  -0.000000  -0.000000  -0.000000   0.000000  -0.000040
    12  H    0.000000  -0.000000  -0.000000   0.000000   0.000000   0.000002
    13  H    0.000003   0.000000   0.000000  -0.000000   0.000000   0.000010
    14  H   -0.000000   0.000000   0.000000   0.000000  -0.000000   0.000001
    15  C    0.354221  -0.065474   0.003773  -0.002601  -0.002268  -0.044010
    16  H   -0.041429   0.003816  -0.000115  -0.000037  -0.000048  -0.002623
    17  H   -0.044440  -0.001201  -0.000033  -0.000484   0.002823  -0.001370
    18  H   -0.044188  -0.001968  -0.000069   0.002802  -0.000483  -0.000373
    19  C    4.913464   0.350862  -0.037828  -0.043573  -0.044028   0.703317
    20  C    0.350862   4.905128   0.406854   0.400694   0.400401  -0.044127
    21  H   -0.037828   0.406854   0.570428  -0.028163  -0.026815  -0.002908
    22  H   -0.043573   0.400694  -0.028163   0.588907  -0.036151  -0.000060
    23  H   -0.044028   0.400401  -0.026815  -0.036151   0.587727  -0.000428
    24  C    0.703317  -0.044127  -0.002908  -0.000060  -0.000428   4.954484
    25  H   -0.037059   0.003520   0.000053  -0.000119  -0.000120   0.404535
    26  C   -0.049384  -0.007706  -0.002620   0.000293   0.000146   0.331216
    27  H   -0.000685  -0.002354  -0.001460  -0.000076   0.000092  -0.043572
    28  H    0.002006   0.000153   0.000070  -0.000014   0.000023  -0.044014
              25         26         27         28
     1  C   -0.000245   0.331767  -0.039101  -0.042892
     2  H    0.000060  -0.039500  -0.004130   0.004487
     3  H   -0.000089  -0.051017  -0.002887  -0.002319
     4  C    0.001725  -0.065054   0.005025  -0.004731
     5  C   -0.000018   0.000007  -0.000152   0.000387
     6  H   -0.000002   0.000042   0.000001   0.000009
     7  H    0.000001  -0.001271  -0.000028   0.000431
     8  H    0.000270   0.001255   0.000046  -0.001724
     9  C    0.000291  -0.005903  -0.000004   0.000308
    10  H   -0.000004   0.000193  -0.000011  -0.000003
    11  C    0.000015  -0.000087   0.000002   0.000004
    12  H    0.000001  -0.000005   0.000000  -0.000000
    13  H   -0.000001   0.000025  -0.000000  -0.000000
    14  H    0.000000  -0.000006   0.000000   0.000000
    15  C   -0.007043   0.003207   0.000046  -0.000093
    16  H    0.002393   0.000143   0.000006  -0.000009
    17  H    0.000177  -0.000129   0.000007   0.000009
    18  H    0.000191  -0.000078  -0.000004  -0.000002
    19  C   -0.037059  -0.049384  -0.000685   0.002006
    20  C    0.003520  -0.007706  -0.002354   0.000153
    21  H    0.000053  -0.002620  -0.001460   0.000070
    22  H   -0.000119   0.000293  -0.000076  -0.000014
    23  H   -0.000120   0.000146   0.000092   0.000023
    24  C    0.404535   0.331216  -0.043572  -0.044014
    25  H    0.551476  -0.039492   0.003255  -0.003708
    26  C   -0.039492   5.017085   0.417459   0.412718
    27  H    0.003255   0.417459   0.579448  -0.029678
    28  H   -0.003708   0.412718  -0.029678   0.592412
 Mulliken charges:
               1
     1  C   -0.216295
     2  H    0.117144
     3  H    0.109433
     4  C    0.020379
     5  C   -0.348102
     6  H    0.119989
     7  H    0.117130
     8  H    0.121284
     9  C   -0.149829
    10  H    0.117603
    11  C   -0.354587
    12  H    0.114701
    13  H    0.120730
    14  H    0.119914
    15  C   -0.341332
    16  H    0.119012
    17  H    0.114364
    18  H    0.114179
    19  C    0.020665
    20  C   -0.348910
    21  H    0.118713
    22  H    0.118506
    23  H    0.119156
    24  C   -0.145401
    25  H    0.119935
    26  C   -0.253307
    27  H    0.118755
    28  H    0.116171
 Sum of Mulliken charges =  -0.00000
 Mulliken charges with hydrogens summed into heavy atoms:
               1
     1  C    0.010282
     4  C    0.020379
     5  C    0.010302
     9  C   -0.032226
    11  C    0.000757
    15  C    0.006223
    19  C    0.020665
    20  C    0.007465
    24  C   -0.025465
    26  C   -0.018381
 Electronic spatial extent (au):  <R**2>=           2155.8671
 Charge=             -0.0000 electrons
 Dipole moment (field-independent basis, Debye):
    X=             -0.1026    Y=             -0.0052    Z=              0.0166  Tot=              0.1040
 Quadrupole moment (field-independent basis, Debye-Ang):
   XX=            -64.6434   YY=            -64.2170   ZZ=            -65.5048
   XY=             -0.3037   XZ=             -2.4022   YZ=              0.0860
 Traceless Quadrupole moment (field-independent basis, Debye-Ang):
   XX=              0.1450   YY=              0.5714   ZZ=             -0.7164
   XY=             -0.3037   XZ=             -2.4022   YZ=              0.0860
 Octapole moment (field-independent basis, Debye-Ang**2):
  XXX=             -4.9639  YYY=             -1.1303  ZZZ=              0.1476  XYY=              1.7052
  XXY=              3.3844  XXZ=             -1.2925  XZZ=              0.5584  YZZ=              2.5096
  YYZ=              1.8189  XYZ=              2.0925
 Hexadecapole moment (field-independent basis, Debye-Ang**3):
 XXXX=          -1998.0791 YYYY=           -676.5156 ZZZZ=           -314.2828 XXXY=              3.3904
 XXXZ=            -12.2363 YYYX=             -2.1669 YYYZ=             -0.7674 ZZZX=             -5.4332
 ZZZY=              2.1364 XXYY=           -449.9941 XXZZ=           -397.1318 YYZZ=           -163.8834
 XXYZ=              1.4497 YYXZ=             -1.2939 ZZXY=              0.5752
 N-N= 5.271736735776D+02 E-N=-1.959167928355D+03  KE= 3.887483973485D+02
 No NMR shielding tensors so no spin-rotation constants.
 Leave Link  601 at Fri Sep 17 21:07:31 2021, MaxMem=   524288000 cpu:               0.2 elap:               0.4
 (Enter /opt/gaussian/g16_legacy/l9999.exe)
 1\1\GINC-TRUENO93\FOpt\RMP2-FC\6-31G(d,p)\C10H18\JRAMOS\17-Sep-2021\0\
 \#p opt mp2/6-31g(d,p)\\Conformer number 007. Energy MM = 25.221 kcal/
 mol\\0,1\C,2.2651495841,1.1934392284,-9.1164489556\H,1.9994340629,0.16
 12621052,-9.3561800944\H,2.1726950081,1.7768925232,-10.0394553777\C,3.
 6883786048,1.2462731674,-8.6242105199\C,4.239704792,2.6288122168,-8.40
 07467864\H,5.3155657193,2.6329352555,-8.2458271744\H,4.0236916395,3.26
 30744899,-9.262767989\H,3.7773187924,3.1034051421,-7.5326593791\C,4.36
 28688732,0.1056035409,-8.3858841328\H,3.8401314737,-0.825663206,-8.585
 5023196\C,5.7601056371,-0.0504216451,-7.8677847535\H,6.2442639429,0.90
 20822817,-7.6680518645\H,5.7604419455,-0.6230062995,-6.9384611143\H,6.
 3787621156,-0.6003442739,-8.579357255\C,0.7999275143,-0.7085577771,-5.
 057511626\H,1.6237679387,-0.2451421664,-4.5168927617\H,-0.0953053966,-
 0.6504538289,-4.4340585573\H,1.0279180696,-1.7691972364,-5.1856280175\
 C,0.5705866672,-0.0452542807,-6.3875679391\C,-0.5533770582,-0.63202395
 4,-7.19558506\H,-0.6808731293,-0.1485352697,-8.160685398\H,-0.37350563
 85,-1.6945123438,-7.3735943037\H,-1.4965951102,-0.5590663869,-6.649532
 0574\C,1.3367798495,0.9883633041,-6.7838820766\H,2.1336885957,1.301324
 6444,-6.1154502317\C,1.2521518344,1.7291651754,-8.0854827143\H,0.24972
 73075,1.6660715943,-8.5109961342\H,1.4406963649,2.7911739989,-7.909595
 4063\\Version=EM64L-G16RevA.03\State=1-A\HF=-389.1553937\MP2=-390.5738
 652\RMSD=1.711e-09\RMSF=3.465e-06\Dipole=-0.0165201,-0.0266854,0.01997
 57\PG=C01 [X(C10H18)]\\@


 A MAN IS EXACTLY AS GREAT AS THE TIDE SURGING
 BENEATH HIM.      - BISMARCK
 Job cpu time:       0 days  0 hours 58 minutes  2.3 seconds.
 Elapsed time:       0 days  0 hours 58 minutes  4.0 seconds.
 File lengths (MBytes):  RWF=     32 Int=      0 D2E=      0 Chk=      7 Scr=      1
 Normal termination of Gaussian 16 at Fri Sep 17 21:07:32 2021.
