 Entering Gaussian System, Link 0=/opt/gaussian/g16_legacy/g16
 Input=02-IsoP_003_gaussian.com
 Output=02-IsoP_003_gaussian.log
 Initial command:
 /opt/gaussian/g16_legacy/l1.exe "/scratch-local/jramos/2661502/Gau-13991.inp" -scrdir="/scratch-local/jramos/2661502/"
 Entering Link 1 = /opt/gaussian/g16_legacy/l1.exe PID=     13994.
  
 Copyright (c) 1988,1990,1992,1993,1995,1998,2003,2009,2016,
            Gaussian, Inc.  All Rights Reserved.
  
 This is part of the Gaussian(R) 16 program.  It is based on
 the Gaussian(R) 09 system (copyright 2009, Gaussian, Inc.),
 the Gaussian(R) 03 system (copyright 2003, Gaussian, Inc.),
 the Gaussian(R) 98 system (copyright 1998, Gaussian, Inc.),
 the Gaussian(R) 94 system (copyright 1995, Gaussian, Inc.),
 the Gaussian 92(TM) system (copyright 1992, Gaussian, Inc.),
 the Gaussian 90(TM) system (copyright 1990, Gaussian, Inc.),
 the Gaussian 88(TM) system (copyright 1988, Gaussian, Inc.),
 the Gaussian 86(TM) system (copyright 1986, Carnegie Mellon
 University), and the Gaussian 82(TM) system (copyright 1983,
 Carnegie Mellon University). Gaussian is a federally registered
 trademark of Gaussian, Inc.
  
 This software contains proprietary and confidential information,
 including trade secrets, belonging to Gaussian, Inc.
  
 This software is provided under written license and may be
 used, copied, transmitted, or stored only in accord with that
 written license.
  
 The following legend is applicable only to US Government
 contracts under FAR:
  
                    RESTRICTED RIGHTS LEGEND
  
 Use, reproduction and disclosure by the US Government is
 subject to restrictions as set forth in subparagraphs (a)
 and (c) of the Commercial Computer Software - Restricted
 Rights clause in FAR 52.227-19.
  
 Gaussian, Inc.
 340 Quinnipiac St., Bldg. 40, Wallingford CT 06492
  
  
 ---------------------------------------------------------------
 Warning -- This program may not be used in any manner that
 competes with the business of Gaussian, Inc. or will provide
 assistance to any competitor of Gaussian, Inc.  The licensee
 of this program is prohibited from giving any competitor of
 Gaussian, Inc. access to this program.  By using this program,
 the user acknowledges that Gaussian, Inc. is engaged in the
 business of creating and licensing software in the field of
 computational chemistry and represents and warrants to the
 licensee that it is not a competitor of Gaussian, Inc. and that
 it will not use this program in any manner prohibited above.
 ---------------------------------------------------------------
  

 Cite this work as:
 Gaussian 16, Revision A.03,
 M. J. Frisch, G. W. Trucks, H. B. Schlegel, G. E. Scuseria, 
 M. A. Robb, J. R. Cheeseman, G. Scalmani, V. Barone, 
 G. A. Petersson, H. Nakatsuji, X. Li, M. Caricato, A. V. Marenich, 
 J. Bloino, B. G. Janesko, R. Gomperts, B. Mennucci, H. P. Hratchian, 
 J. V. Ortiz, A. F. Izmaylov, J. L. Sonnenberg, D. Williams-Young, 
 F. Ding, F. Lipparini, F. Egidi, J. Goings, B. Peng, A. Petrone, 
 T. Henderson, D. Ranasinghe, V. G. Zakrzewski, J. Gao, N. Rega, 
 G. Zheng, W. Liang, M. Hada, M. Ehara, K. Toyota, R. Fukuda, 
 J. Hasegawa, M. Ishida, T. Nakajima, Y. Honda, O. Kitao, H. Nakai, 
 T. Vreven, K. Throssell, J. A. Montgomery, Jr., J. E. Peralta, 
 F. Ogliaro, M. J. Bearpark, J. J. Heyd, E. N. Brothers, K. N. Kudin, 
 V. N. Staroverov, T. A. Keith, R. Kobayashi, J. Normand, 
 K. Raghavachari, A. P. Rendell, J. C. Burant, S. S. Iyengar, 
 J. Tomasi, M. Cossi, J. M. Millam, M. Klene, C. Adamo, R. Cammi, 
 J. W. Ochterski, R. L. Martin, K. Morokuma, O. Farkas, 
 J. B. Foresman, and D. J. Fox, Gaussian, Inc., Wallingford CT, 2016.
 
 ******************************************
 Gaussian 16:  EM64L-G16RevA.03 25-Dec-2016
                17-Sep-2021 
 ******************************************
 %chk=02-IsoP_003_gaussian.chk
 %nproc=1
 Will use up to    1 processors via shared memory.
 %mem=4000Mb
 ---------------------
 #p opt mp2/6-31g(d,p)
 ---------------------
 1/18=20,19=15,38=1/1,3;
 2/9=110,12=2,17=6,18=5,40=1/2;
 3/5=1,6=6,7=101,11=9,25=1,30=1,71=1/1,2,3;
 4//1;
 5/5=2,38=5/2;
 8/6=4,10=2/1;
 9/15=2,16=-3/6;
 10/5=1/2;
 6/7=2,8=2,9=2,10=2/1;
 7/12=2/1,2,3,16;
 1/18=20,19=15/3(2);
 2/9=110/2;
 99//99;
 2/9=110/2;
 3/5=1,6=6,7=101,11=9,25=1,30=1,71=1/1,2,3;
 4/5=5,16=3,69=1/1;
 5/5=2,38=5/2;
 8/6=4,10=2/1;
 9/15=2,16=-3/6;
 10/5=1/2;
 7/12=2/1,2,3,16;
 1/18=20,19=15/3(-8);
 2/9=110/2;
 6/7=2,8=2,9=2,10=2/1;
 99//99;
 Leave Link    1 at Fri Sep 17 20:09:24 2021, MaxMem=   524288000 cpu:               0.0 elap:               0.1
 (Enter /opt/gaussian/g16_legacy/l101.exe)
 -------------------------------------------------
 Conformer number 003. Energy MM = 26.148 kcal/mol
 -------------------------------------------------
 Symbolic Z-matrix:
 Charge =  0 Multiplicity = 1
 C                     2.1786    1.2639   -8.9889 
 H                     1.8951    0.2519   -9.3051 
 H                     2.0178    1.9056   -9.864 
 C                     3.6522    1.3147   -8.6214 
 C                     4.193     2.675    -8.2766 
 H                     5.2459    2.7859   -8.5549 
 H                     3.6488    3.4577   -8.8143 
 H                     4.0896    2.862    -7.2028 
 C                     4.3925    0.1881   -8.6167 
 H                     3.9157   -0.7519   -8.8925 
 C                     5.8276    0.0476   -8.2241 
 H                     6.2821    0.9818   -7.885 
 H                     5.9119   -0.675    -7.4043 
 H                     6.4096   -0.3282   -9.0704 
 C                     0.9629    0.3235   -4.2192 
 H                     1.6641   -0.4947   -4.4123 
 H                     1.3751    0.9282   -3.4047 
 H                     0.0188   -0.1184   -3.8831 
 C                     0.7355    1.1779   -5.4366 
 C                    -0.1792    2.3535   -5.2359 
 H                    -0.6696    2.6597   -6.1652 
 H                    -0.976     2.1059   -4.5272 
 H                     0.3818    3.207    -4.8389 
 C                     1.3241    0.8838   -6.6116 
 H                     1.9583   -0.0001   -6.6691 
 C                     1.2244    1.7119   -7.8668 
 H                     0.1992    1.6463   -8.2523 
 H                     1.4165    2.7657   -7.628 
 
 ITRead=  0  0  0  0  0  0  0  0  0  0  0  0  0  0  0  0  0  0  0  0
 ITRead=  0  0  0  0  0  0  0  0
 MicOpt= -1 -1 -1 -1 -1 -1 -1 -1 -1 -1 -1 -1 -1 -1 -1 -1 -1 -1 -1 -1
 MicOpt= -1 -1 -1 -1 -1 -1 -1 -1
 NAtoms=     28 NQM=       28 NQMF=       0 NMMI=      0 NMMIF=      0
                NMic=       0 NMicF=      0.
                    Isotopes and Nuclear Properties:
 (Nuclear quadrupole moments (NQMom) in fm**2, nuclear magnetic moments (NMagM)
  in nuclear magnetons)

  Atom         1           2           3           4           5           6           7           8           9          10
 IAtWgt=          12           1           1          12          12           1           1           1          12           1
 AtmWgt=  12.0000000   1.0078250   1.0078250  12.0000000  12.0000000   1.0078250   1.0078250   1.0078250  12.0000000   1.0078250
 NucSpn=           0           1           1           0           0           1           1           1           0           1
 AtZEff=  -0.0000000  -0.0000000  -0.0000000  -0.0000000  -0.0000000  -0.0000000  -0.0000000  -0.0000000  -0.0000000  -0.0000000
 NQMom=    0.0000000   0.0000000   0.0000000   0.0000000   0.0000000   0.0000000   0.0000000   0.0000000   0.0000000   0.0000000
 NMagM=    0.0000000   2.7928460   2.7928460   0.0000000   0.0000000   2.7928460   2.7928460   2.7928460   0.0000000   2.7928460
 AtZNuc=   6.0000000   1.0000000   1.0000000   6.0000000   6.0000000   1.0000000   1.0000000   1.0000000   6.0000000   1.0000000

  Atom        11          12          13          14          15          16          17          18          19          20
 IAtWgt=          12           1           1           1          12           1           1           1          12          12
 AtmWgt=  12.0000000   1.0078250   1.0078250   1.0078250  12.0000000   1.0078250   1.0078250   1.0078250  12.0000000  12.0000000
 NucSpn=           0           1           1           1           0           1           1           1           0           0
 AtZEff=  -0.0000000  -0.0000000  -0.0000000  -0.0000000  -0.0000000  -0.0000000  -0.0000000  -0.0000000  -0.0000000  -0.0000000
 NQMom=    0.0000000   0.0000000   0.0000000   0.0000000   0.0000000   0.0000000   0.0000000   0.0000000   0.0000000   0.0000000
 NMagM=    0.0000000   2.7928460   2.7928460   2.7928460   0.0000000   2.7928460   2.7928460   2.7928460   0.0000000   0.0000000
 AtZNuc=   6.0000000   1.0000000   1.0000000   1.0000000   6.0000000   1.0000000   1.0000000   1.0000000   6.0000000   6.0000000

  Atom        21          22          23          24          25          26          27          28
 IAtWgt=           1           1           1          12           1          12           1           1
 AtmWgt=   1.0078250   1.0078250   1.0078250  12.0000000   1.0078250  12.0000000   1.0078250   1.0078250
 NucSpn=           1           1           1           0           1           0           1           1
 AtZEff=  -0.0000000  -0.0000000  -0.0000000  -0.0000000  -0.0000000  -0.0000000  -0.0000000  -0.0000000
 NQMom=    0.0000000   0.0000000   0.0000000   0.0000000   0.0000000   0.0000000   0.0000000   0.0000000
 NMagM=    2.7928460   2.7928460   2.7928460   0.0000000   2.7928460   0.0000000   2.7928460   2.7928460
 AtZNuc=   1.0000000   1.0000000   1.0000000   6.0000000   1.0000000   6.0000000   1.0000000   1.0000000
 Leave Link  101 at Fri Sep 17 20:09:25 2021, MaxMem=   524288000 cpu:               0.1 elap:               0.2
 (Enter /opt/gaussian/g16_legacy/l103.exe)

 GradGradGradGradGradGradGradGradGradGradGradGradGradGradGradGradGradGrad
 Berny optimization.
 Initialization pass.
                           ----------------------------
                           !    Initial Parameters    !
                           ! (Angstroms and Degrees)  !
 --------------------------                            --------------------------
 ! Name  Definition              Value          Derivative Info.                !
 --------------------------------------------------------------------------------
 ! R1    R(1,2)                  1.0975         estimate D2E/DX2                !
 ! R2    R(1,3)                  1.097          estimate D2E/DX2                !
 ! R3    R(1,4)                  1.5196         estimate D2E/DX2                !
 ! R4    R(1,26)                 1.5396         estimate D2E/DX2                !
 ! R5    R(4,5)                  1.5039         estimate D2E/DX2                !
 ! R6    R(4,9)                  1.3481         estimate D2E/DX2                !
 ! R7    R(5,6)                  1.0947         estimate D2E/DX2                !
 ! R8    R(5,7)                  1.0945         estimate D2E/DX2                !
 ! R9    R(5,8)                  1.0949         estimate D2E/DX2                !
 ! R10   R(9,10)                 1.0895         estimate D2E/DX2                !
 ! R11   R(9,11)                 1.4945         estimate D2E/DX2                !
 ! R12   R(11,12)                1.0928         estimate D2E/DX2                !
 ! R13   R(11,13)                1.0961         estimate D2E/DX2                !
 ! R14   R(11,14)                1.0937         estimate D2E/DX2                !
 ! R15   R(15,16)                1.0947         estimate D2E/DX2                !
 ! R16   R(15,17)                1.095          estimate D2E/DX2                !
 ! R17   R(15,18)                1.0952         estimate D2E/DX2                !
 ! R18   R(15,19)                1.5046         estimate D2E/DX2                !
 ! R19   R(19,20)                1.503          estimate D2E/DX2                !
 ! R20   R(19,24)                1.3467         estimate D2E/DX2                !
 ! R21   R(20,21)                1.0945         estimate D2E/DX2                !
 ! R22   R(20,22)                1.0947         estimate D2E/DX2                !
 ! R23   R(20,23)                1.0958         estimate D2E/DX2                !
 ! R24   R(24,25)                1.0894         estimate D2E/DX2                !
 ! R25   R(24,26)                1.5071         estimate D2E/DX2                !
 ! R26   R(26,27)                1.0972         estimate D2E/DX2                !
 ! R27   R(26,28)                1.0975         estimate D2E/DX2                !
 ! A1    A(2,1,3)              105.7649         estimate D2E/DX2                !
 ! A2    A(2,1,4)              110.5486         estimate D2E/DX2                !
 ! A3    A(2,1,26)             108.5545         estimate D2E/DX2                !
 ! A4    A(3,1,4)              108.3916         estimate D2E/DX2                !
 ! A5    A(3,1,26)             108.6834         estimate D2E/DX2                !
 ! A6    A(4,1,26)             114.5214         estimate D2E/DX2                !
 ! A7    A(1,4,5)              115.7469         estimate D2E/DX2                !
 ! A8    A(1,4,9)              120.3607         estimate D2E/DX2                !
 ! A9    A(5,4,9)              123.8923         estimate D2E/DX2                !
 ! A10   A(4,5,6)              112.2849         estimate D2E/DX2                !
 ! A11   A(4,5,7)              110.8184         estimate D2E/DX2                !
 ! A12   A(4,5,8)              110.2054         estimate D2E/DX2                !
 ! A13   A(6,5,7)              106.3136         estimate D2E/DX2                !
 ! A14   A(6,5,8)              108.8367         estimate D2E/DX2                !
 ! A15   A(7,5,8)              108.224          estimate D2E/DX2                !
 ! A16   A(4,9,10)             118.6742         estimate D2E/DX2                !
 ! A17   A(4,9,11)             127.3607         estimate D2E/DX2                !
 ! A18   A(10,9,11)            113.9313         estimate D2E/DX2                !
 ! A19   A(9,11,12)            113.6108         estimate D2E/DX2                !
 ! A20   A(9,11,13)            109.4103         estimate D2E/DX2                !
 ! A21   A(9,11,14)            109.8787         estimate D2E/DX2                !
 ! A22   A(12,11,13)           107.4277         estimate D2E/DX2                !
 ! A23   A(12,11,14)           108.2112         estimate D2E/DX2                !
 ! A24   A(13,11,14)           108.1381         estimate D2E/DX2                !
 ! A25   A(16,15,17)           107.6281         estimate D2E/DX2                !
 ! A26   A(16,15,18)           107.7405         estimate D2E/DX2                !
 ! A27   A(16,15,19)           112.2413         estimate D2E/DX2                !
 ! A28   A(17,15,18)           108.6052         estimate D2E/DX2                !
 ! A29   A(17,15,19)           110.1917         estimate D2E/DX2                !
 ! A30   A(18,15,19)           110.3121         estimate D2E/DX2                !
 ! A31   A(15,19,20)           115.3472         estimate D2E/DX2                !
 ! A32   A(15,19,24)           121.0576         estimate D2E/DX2                !
 ! A33   A(20,19,24)           123.5952         estimate D2E/DX2                !
 ! A34   A(19,20,21)           112.2184         estimate D2E/DX2                !
 ! A35   A(19,20,22)           110.64           estimate D2E/DX2                !
 ! A36   A(19,20,23)           110.2446         estimate D2E/DX2                !
 ! A37   A(21,20,22)           106.668          estimate D2E/DX2                !
 ! A38   A(21,20,23)           108.6086         estimate D2E/DX2                !
 ! A39   A(22,20,23)           108.3154         estimate D2E/DX2                !
 ! A40   A(19,24,25)           118.5345         estimate D2E/DX2                !
 ! A41   A(19,24,26)           125.2948         estimate D2E/DX2                !
 ! A42   A(25,24,26)           116.1282         estimate D2E/DX2                !
 ! A43   A(1,26,24)            113.9625         estimate D2E/DX2                !
 ! A44   A(1,26,27)            107.7956         estimate D2E/DX2                !
 ! A45   A(1,26,28)            109.2393         estimate D2E/DX2                !
 ! A46   A(24,26,27)           108.7585         estimate D2E/DX2                !
 ! A47   A(24,26,28)           109.5611         estimate D2E/DX2                !
 ! A48   A(27,26,28)           107.3016         estimate D2E/DX2                !
 ! D1    D(2,1,4,5)            175.2459         estimate D2E/DX2                !
 ! D2    D(2,1,4,9)             -4.7707         estimate D2E/DX2                !
 ! D3    D(3,1,4,5)             59.7526         estimate D2E/DX2                !
 ! D4    D(3,1,4,9)           -120.264          estimate D2E/DX2                !
 ! D5    D(26,1,4,5)           -61.7626         estimate D2E/DX2                !
 ! D6    D(26,1,4,9)           118.2209         estimate D2E/DX2                !
 ! D7    D(2,1,26,24)           64.0666         estimate D2E/DX2                !
 ! D8    D(2,1,26,27)          -56.7475         estimate D2E/DX2                !
 ! D9    D(2,1,26,28)         -173.0332         estimate D2E/DX2                !
 ! D10   D(3,1,26,24)          178.651          estimate D2E/DX2                !
 ! D11   D(3,1,26,27)           57.837          estimate D2E/DX2                !
 ! D12   D(3,1,26,28)          -58.4488         estimate D2E/DX2                !
 ! D13   D(4,1,26,24)          -59.9939         estimate D2E/DX2                !
 ! D14   D(4,1,26,27)          179.192          estimate D2E/DX2                !
 ! D15   D(4,1,26,28)           62.9063         estimate D2E/DX2                !
 ! D16   D(1,4,5,6)           -148.4033         estimate D2E/DX2                !
 ! D17   D(1,4,5,7)            -29.6788         estimate D2E/DX2                !
 ! D18   D(1,4,5,8)             90.087          estimate D2E/DX2                !
 ! D19   D(9,4,5,6)             31.614          estimate D2E/DX2                !
 ! D20   D(9,4,5,7)            150.3385         estimate D2E/DX2                !
 ! D21   D(9,4,5,8)            -89.8958         estimate D2E/DX2                !
 ! D22   D(1,4,9,10)             0.729          estimate D2E/DX2                !
 ! D23   D(1,4,9,11)          -177.0164         estimate D2E/DX2                !
 ! D24   D(5,4,9,10)          -179.289          estimate D2E/DX2                !
 ! D25   D(5,4,9,11)             2.9656         estimate D2E/DX2                !
 ! D26   D(4,9,11,12)            1.681          estimate D2E/DX2                !
 ! D27   D(4,9,11,13)          121.7196         estimate D2E/DX2                !
 ! D28   D(4,9,11,14)         -119.7003         estimate D2E/DX2                !
 ! D29   D(10,9,11,12)        -176.1549         estimate D2E/DX2                !
 ! D30   D(10,9,11,13)         -56.1163         estimate D2E/DX2                !
 ! D31   D(10,9,11,14)          62.4638         estimate D2E/DX2                !
 ! D32   D(16,15,19,20)       -177.8957         estimate D2E/DX2                !
 ! D33   D(16,15,19,24)          2.1473         estimate D2E/DX2                !
 ! D34   D(17,15,19,20)        -57.9622         estimate D2E/DX2                !
 ! D35   D(17,15,19,24)        122.0808         estimate D2E/DX2                !
 ! D36   D(18,15,19,20)         61.9456         estimate D2E/DX2                !
 ! D37   D(18,15,19,24)       -118.0114         estimate D2E/DX2                !
 ! D38   D(15,19,20,21)       -153.9656         estimate D2E/DX2                !
 ! D39   D(15,19,20,22)        -34.9571         estimate D2E/DX2                !
 ! D40   D(15,19,20,23)         84.8336         estimate D2E/DX2                !
 ! D41   D(24,19,20,21)         25.9902         estimate D2E/DX2                !
 ! D42   D(24,19,20,22)        144.9987         estimate D2E/DX2                !
 ! D43   D(24,19,20,23)        -95.2106         estimate D2E/DX2                !
 ! D44   D(15,19,24,25)          1.0644         estimate D2E/DX2                !
 ! D45   D(15,19,24,26)       -176.467          estimate D2E/DX2                !
 ! D46   D(20,19,24,25)       -178.8889         estimate D2E/DX2                !
 ! D47   D(20,19,24,26)          3.5796         estimate D2E/DX2                !
 ! D48   D(19,24,26,1)         170.5359         estimate D2E/DX2                !
 ! D49   D(19,24,26,27)        -69.189          estimate D2E/DX2                !
 ! D50   D(19,24,26,28)         47.8115         estimate D2E/DX2                !
 ! D51   D(25,24,26,1)          -7.0486         estimate D2E/DX2                !
 ! D52   D(25,24,26,27)        113.2265         estimate D2E/DX2                !
 ! D53   D(25,24,26,28)       -129.7731         estimate D2E/DX2                !
 --------------------------------------------------------------------------------
 Trust Radius=3.00D-01 FncErr=1.00D-07 GrdErr=1.00D-07 EigMax=2.50D+02 EigMin=1.00D-04
 Number of steps in this run=    138 maximum allowed number of steps=    168.
 GradGradGradGradGradGradGradGradGradGradGradGradGradGradGradGradGradGrad

 Leave Link  103 at Fri Sep 17 20:09:25 2021, MaxMem=   524288000 cpu:               0.0 elap:               0.2
 (Enter /opt/gaussian/g16_legacy/l202.exe)
                          Input orientation:                          
 ---------------------------------------------------------------------
 Center     Atomic      Atomic             Coordinates (Angstroms)
 Number     Number       Type             X           Y           Z
 ---------------------------------------------------------------------
      1          6           0        2.178600    1.263900   -8.988900
      2          1           0        1.895100    0.251900   -9.305100
      3          1           0        2.017800    1.905600   -9.864000
      4          6           0        3.652200    1.314700   -8.621400
      5          6           0        4.193000    2.675000   -8.276600
      6          1           0        5.245900    2.785900   -8.554900
      7          1           0        3.648800    3.457700   -8.814300
      8          1           0        4.089600    2.862000   -7.202800
      9          6           0        4.392500    0.188100   -8.616700
     10          1           0        3.915700   -0.751900   -8.892500
     11          6           0        5.827600    0.047600   -8.224100
     12          1           0        6.282100    0.981800   -7.885000
     13          1           0        5.911900   -0.675000   -7.404300
     14          1           0        6.409600   -0.328200   -9.070400
     15          6           0        0.962900    0.323500   -4.219200
     16          1           0        1.664100   -0.494700   -4.412300
     17          1           0        1.375100    0.928200   -3.404700
     18          1           0        0.018800   -0.118400   -3.883100
     19          6           0        0.735500    1.177900   -5.436600
     20          6           0       -0.179200    2.353500   -5.235900
     21          1           0       -0.669600    2.659700   -6.165200
     22          1           0       -0.976000    2.105900   -4.527200
     23          1           0        0.381800    3.207000   -4.838900
     24          6           0        1.324100    0.883800   -6.611600
     25          1           0        1.958300   -0.000100   -6.669100
     26          6           0        1.224400    1.711900   -7.866800
     27          1           0        0.199200    1.646300   -8.252300
     28          1           0        1.416500    2.765700   -7.628000
 ---------------------------------------------------------------------
                    Distance matrix (angstroms):
                    1          2          3          4          5
     1  C    0.000000
     2  H    1.097497   0.000000
     3  H    1.097012   1.749899   0.000000
     4  C    1.519583   2.164345   2.136465   0.000000
     5  C    2.560543   3.494220   2.800591   1.503917   0.000000
     6  H    3.451546   4.267531   3.592952   2.169961   1.094691
     7  H    2.646645   3.686937   2.484159   2.151667   1.094484
     8  H    3.065289   4.006010   3.505573   2.144267   1.094855
     9  C    2.489424   2.591326   3.185085   1.348070   2.517963
    10  H    2.662754   2.293617   3.407072   2.100896   3.492831
    11  C    3.921671   4.083486   4.544889   2.548677   3.094819
    12  H    4.258743   4.668534   4.791044   2.751269   2.717465
    13  H    4.495311   4.539479   5.279549   3.247535   3.864974
    14  H    4.521370   4.557665   4.990749   3.240984   3.816103
    15  C    5.011219   5.171122   5.956477   5.253016   5.694347
    16  H    4.929772   4.954822   5.967208   4.994296   5.601352
    17  H    5.651690   5.961753   6.564368   5.705132   5.892986
    18  H    5.713553   5.749409   6.622971   6.140591   6.673071
    19  C    3.835201   4.143361   4.666445   4.320741   4.718179
    20  C    4.564149   5.027706   5.142639   5.217312   5.335293
    21  H    4.246620   4.715311   4.633779   5.149747   5.301238
    22  H    5.528764   5.874424   6.122450   6.229663   6.410962
    23  H    4.922055   5.565037   5.442588   5.346365   5.160044
    24  C    2.554643   2.824939   3.478994   3.105643   3.769776
    25  H    2.650981   2.648772   3.720567   2.899909   3.838502
    26  C    1.539581   2.156420   2.157733   2.573208   3.147711
    27  H    2.146354   2.434916   2.443792   3.488467   4.124228
    28  H    2.165236   3.059561   2.470026   2.844398   2.852694
                    6          7          8          9         10
     6  H    0.000000
     7  H    1.751951   0.000000
     8  H    1.780729   1.773724   0.000000
     9  C    2.735082   3.358931   3.039836   0.000000
    10  H    3.794659   4.218777   3.993194   1.089497   0.000000
    11  C    2.818881   4.089534   3.461870   1.494452   2.177457
    12  H    2.185693   3.732017   2.967761   2.176220   3.101713
    13  H    3.707461   4.918224   3.983936   2.126836   2.491078
    14  H    3.364158   4.692616   4.364368   2.130986   2.535884
    15  C    6.573112   6.176748   5.012196   5.578395   5.631629
    16  H    6.383789   6.240040   4.993734   5.058395   5.020762
    17  H    6.705125   6.389981   5.053084   6.067734   6.276411
    18  H    7.588363   7.090989   6.039421   6.452144   6.378185
    19  C    5.714295   5.009357   4.147968   4.946351   5.077504
    20  C    6.374515   5.355165   4.727570   6.084341   6.307332
    21  H    6.381202   5.128656   4.875195   6.143575   6.332626
    22  H    7.442903   6.449447   5.778480   7.015893   7.152034
    23  H    6.135589   5.151693   4.410763   6.282614   6.677800
    24  C    4.772307   4.108659   3.451200   3.730885   3.820263
    25  H    4.703866   4.406365   3.608170   3.123123   3.056162
    26  C    4.218936   3.134213   3.158005   3.594603   3.790180
    27  H    5.182609   3.936592   4.208870   4.454537   4.469182
    28  H    3.940032   2.620942   2.708419   4.059326   4.496495
                   11         12         13         14         15
    11  C    0.000000
    12  H    1.092835   0.000000
    13  H    1.096052   1.764400   0.000000
    14  H    1.093697   1.771307   1.773095   0.000000
    15  C    6.307190   6.493484   5.969461   7.322936   0.000000
    16  H    5.670859   5.963692   5.198882   6.651721   1.094724
    17  H    6.620183   6.644894   6.256964   7.682766   1.094980
    18  H    7.253550   7.513626   6.887473   8.233737   1.095246
    19  C    5.914154   6.066126   5.839538   6.904220   1.504584
    20  C    7.094234   7.116719   7.139697   8.081286   2.541451
    21  H    7.299023   7.355215   7.481426   8.214792   3.451058
    22  H    8.012031   8.075793   7.965819   9.006253   2.651631
    23  H    7.148295   7.003126   7.227254   8.169309   3.006040
    24  C    4.856017   5.119855   4.909800   5.777279   2.483542
    25  H    4.170346   4.597585   4.077617   5.068329   2.664122
    26  C    4.907852   5.110157   5.280516   5.700610   3.911652
    27  H    5.851113   6.130101   6.224346   6.567877   4.312648
    28  H    5.215478   5.188681   5.665428   6.048453   4.217821
                   16         17         18         19         20
    16  H    0.000000
    17  H    1.767321   0.000000
    18  H    1.768804   1.778704   0.000000
    19  C    2.170041   2.144774   2.146489   0.000000
    20  C    3.491177   2.792959   2.824812   1.502994   0.000000
    21  H    4.297564   3.846979   3.660562   2.168155   1.094463
    22  H    3.707621   2.859135   2.520318   2.148819   1.094738
    23  H    3.940668   2.869931   3.479024   2.144667   1.095807
    24  C    2.617782   3.207613   3.186366   1.346688   2.512465
    25  H    2.329019   3.443569   3.396682   2.098090   3.487463
    26  C    4.122619   4.532906   4.546794   2.535755   3.050144
    27  H    4.634157   5.039607   4.715572   2.904339   3.121216
    28  H    4.586092   4.605907   4.929085   2.790538   2.904877
                   21         22         23         24         25
    21  H    0.000000
    22  H    1.756024   0.000000
    23  H    1.778778   1.775725   0.000000
    24  C    2.707016   3.335972   3.070448   0.000000
    25  H    3.772838   4.199177   4.015031   1.089401   0.000000
    26  C    2.716800   4.018697   3.480442   1.507056   2.214506
    27  H    2.477454   3.933026   3.757716   2.130423   2.882982
    28  H    2.550065   3.971694   3.007396   2.140830   2.977026
                   26         27         28
    26  C    0.000000
    27  H    1.097246   0.000000
    28  H    1.097462   1.767661   0.000000
 Stoichiometry    C10H18
 Framework group  C1[X(C10H18)]
 Deg. of freedom    78
 Full point group                 C1      NOp   1
 Largest Abelian subgroup         C1      NOp   1
 Largest concise Abelian subgroup C1      NOp   1
                         Standard orientation:                         
 ---------------------------------------------------------------------
 Center     Atomic      Atomic             Coordinates (Angstroms)
 Number     Number       Type             X           Y           Z
 ---------------------------------------------------------------------
      1          6           0       -0.913554   -1.290814   -0.935852
      2          1           0       -0.980600   -0.953576   -1.978096
      3          1           0       -1.271245   -2.327873   -0.934554
      4          6           0       -1.830850   -0.466158   -0.048359
      5          6           0       -1.914984   -0.902248    1.388484
      6          1           0       -2.898420   -0.702707    1.825960
      7          1           0       -1.751868   -1.980813    1.477830
      8          1           0       -1.152512   -0.390124    1.984363
      9          6           0       -2.508295    0.582720   -0.556508
     10          1           0       -2.392977    0.816607   -1.614338
     11          6           0       -3.397497    1.531078    0.180597
     12          1           0       -3.456764    1.331423    1.253404
     13          1           0       -3.021758    2.553292    0.057197
     14          1           0       -4.409698    1.488322   -0.231463
     15          6           0        2.901509    1.812742    0.026202
     16          1           0        2.160284    2.519972   -0.359586
     17          1           0        3.139437    2.109007    1.053139
     18          1           0        3.805626    1.910799   -0.584143
     19          6           0        2.403295    0.393332   -0.002613
     20          6           0        3.348405   -0.631838    0.558444
     21          1           0        3.183611   -1.625212    0.129607
     22          1           0        4.386031   -0.362321    0.336759
     23          1           0        3.234537   -0.697337    1.646348
     24          6           0        1.189926    0.092953   -0.503689
     25          1           0        0.578905    0.899940   -0.906454
     26          6           0        0.566300   -1.278998   -0.511350
     27          1           0        1.121341   -1.914980   -1.212353
     28          1           0        0.660544   -1.731024    0.484247
 ---------------------------------------------------------------------
 Rotational constants (GHZ):           2.0112342           0.6010707           0.5344941
 Leave Link  202 at Fri Sep 17 20:09:25 2021, MaxMem=   524288000 cpu:               0.0 elap:               0.3
 (Enter /opt/gaussian/g16_legacy/l301.exe)
 Standard basis: 6-31G(d,p) (6D, 7F)
 Ernie: Thresh=  0.10000D-02 Tol=  0.10000D-05 Strict=F.
 There are   240 symmetry adapted cartesian basis functions of A   symmetry.
 There are   240 symmetry adapted basis functions of A   symmetry.
   240 basis functions,   406 primitive gaussians,   240 cartesian basis functions
    39 alpha electrons       39 beta electrons
       nuclear repulsion energy       519.2263481892 Hartrees.
 IExCor=    0 DFT=F Ex=HF Corr=None ExCW=0 ScaHFX=  1.000000
 ScaDFX=  1.000000  1.000000  1.000000  1.000000 ScalE2=  1.000000  1.000000
 IRadAn=      5 IRanWt=     -1 IRanGd=            0 ICorTp=0 IEmpDi=  4
 NAtoms=   28 NActive=   28 NUniq=   28 SFac= 1.00D+00 NAtFMM=   60 NAOKFM=F Big=F
 Integral buffers will be    131072 words long.
 Raffenetti 1 integral format.
 Two-electron integral symmetry is turned on.
 Leave Link  301 at Fri Sep 17 20:09:26 2021, MaxMem=   524288000 cpu:               0.1 elap:               0.1
 (Enter /opt/gaussian/g16_legacy/l302.exe)
 NPDir=0 NMtPBC=     1 NCelOv=     1 NCel=       1 NClECP=     1 NCelD=      1
         NCelK=      1 NCelE2=     1 NClLst=     1 CellRange=     0.0.
 One-electron integrals computed using PRISM.
 One-electron integral symmetry used in STVInt
 NBasis=   240 RedAO= T EigKep=  2.05D-03  NBF=   240
 NBsUse=   240 1.00D-06 EigRej= -1.00D+00 NBFU=   240
 Leave Link  302 at Fri Sep 17 20:09:26 2021, MaxMem=   524288000 cpu:               0.2 elap:               0.4
 (Enter /opt/gaussian/g16_legacy/l303.exe)
 DipDrv:  MaxL=1.
 Leave Link  303 at Fri Sep 17 20:09:26 2021, MaxMem=   524288000 cpu:               0.0 elap:               0.2
 (Enter /opt/gaussian/g16_legacy/l401.exe)
 ExpMin= 1.61D-01 ExpMax= 3.05D+03 ExpMxC= 4.57D+02 IAcc=3 IRadAn=         5 AccDes= 0.00D+00
 Harris functional with IExCor=  205 and IRadAn=       5 diagonalized for initial guess.
 HarFok:  IExCor=  205 AccDes= 0.00D+00 IRadAn=         5 IDoV= 1 UseB2=F ITyADJ=14
 ICtDFT=  3500011 ScaDFX=  1.000000  1.000000  1.000000  1.000000
 FoFCou: FMM=F IPFlag=           0 FMFlag=      100000 FMFlg1=           0
         NFxFlg=           0 DoJE=T BraDBF=F KetDBF=T FulRan=T
         wScrn=  0.000000 ICntrl=       500 IOpCl=  0 I1Cent=   200000004 NGrid=           0
         NMat0=    1 NMatS0=      1 NMatT0=    0 NMatD0=    1 NMtDS0=    0 NMtDT0=    0
 Petite list used in FoFCou.
 Harris En= -390.109434289145    
 JPrj=0 DoOrth=F DoCkMO=F.
 Leave Link  401 at Fri Sep 17 20:09:33 2021, MaxMem=   524288000 cpu:               6.2 elap:               6.5
 (Enter /opt/gaussian/g16_legacy/l502.exe)
 Keep R1 ints in memory in canonical form, NReq=425198025.
 FoFCou: FMM=F IPFlag=           0 FMFlag=           0 FMFlg1=           0
         NFxFlg=           0 DoJE=F BraDBF=F KetDBF=F FulRan=T
         wScrn=  0.000000 ICntrl=       600 IOpCl=  0 I1Cent=           0 NGrid=           0
         NMat0=    1 NMatS0=  28920 NMatT0=    0 NMatD0=    1 NMtDS0=    0 NMtDT0=    0
 Symmetry not used in FoFCou.
 Two-electron integral symmetry not used.
 Closed shell SCF:
 Using DIIS extrapolation, IDIIS=  1040.
 NGot=   524288000 LenX=   105970886 LenY=   105912845
 Requested convergence on RMS density matrix=1.00D-08 within 128 cycles.
 Requested convergence on MAX density matrix=1.00D-06.
 Requested convergence on             energy=1.00D-06.
 No special actions if energy rises.

 Cycle   1  Pass 1  IDiag  1:
 E= -388.528140575596    
 DIIS: error= 5.32D-02 at cycle   1 NSaved=   1.
 NSaved= 1 IEnMin= 1 EnMin= -388.528140575596     IErMin= 1 ErrMin= 5.32D-02
 ErrMax= 5.32D-02  0.00D+00 EMaxC= 1.00D-01 BMatC= 8.10D-01 BMatP= 8.10D-01
 IDIUse=3 WtCom= 4.68D-01 WtEn= 5.32D-01
 Coeff-Com:  0.100D+01
 Coeff-En:   0.100D+01
 Coeff:      0.100D+01
 Gap=     0.510 Goal=   None    Shift=    0.000
 GapD=    0.510 DampG=2.000 DampE=0.500 DampFc=1.0000 IDamp=-1.
 RMSDP=4.06D-03 MaxDP=1.14D-01              OVMax= 1.36D-01

 Cycle   2  Pass 1  IDiag  1:
 E= -389.067848845989     Delta-E=       -0.539708270393 Rises=F Damp=F
 DIIS: error= 1.56D-02 at cycle   2 NSaved=   2.
 NSaved= 2 IEnMin= 2 EnMin= -389.067848845989     IErMin= 2 ErrMin= 1.56D-02
 ErrMax= 1.56D-02  0.00D+00 EMaxC= 1.00D-01 BMatC= 9.00D-02 BMatP= 8.10D-01
 IDIUse=3 WtCom= 8.44D-01 WtEn= 1.56D-01
 Coeff-Com:  0.187D+00 0.813D+00
 Coeff-En:   0.000D+00 0.100D+01
 Coeff:      0.158D+00 0.842D+00
 Gap=     0.557 Goal=   None    Shift=    0.000
 RMSDP=1.72D-03 MaxDP=3.05D-02 DE=-5.40D-01 OVMax= 4.59D-02

 Cycle   3  Pass 1  IDiag  1:
 E= -389.148620528921     Delta-E=       -0.080771682932 Rises=F Damp=F
 DIIS: error= 3.29D-03 at cycle   3 NSaved=   3.
 NSaved= 3 IEnMin= 3 EnMin= -389.148620528921     IErMin= 3 ErrMin= 3.29D-03
 ErrMax= 3.29D-03  0.00D+00 EMaxC= 1.00D-01 BMatC= 3.52D-03 BMatP= 9.00D-02
 IDIUse=3 WtCom= 9.67D-01 WtEn= 3.29D-02
 Coeff-Com: -0.237D-01 0.113D+00 0.911D+00
 Coeff-En:   0.000D+00 0.000D+00 0.100D+01
 Coeff:     -0.229D-01 0.109D+00 0.914D+00
 Gap=     0.497 Goal=   None    Shift=    0.000
 RMSDP=2.75D-04 MaxDP=6.65D-03 DE=-8.08D-02 OVMax= 1.06D-02

 Cycle   4  Pass 1  IDiag  1:
 E= -389.152614217822     Delta-E=       -0.003993688901 Rises=F Damp=F
 DIIS: error= 5.72D-04 at cycle   4 NSaved=   4.
 NSaved= 4 IEnMin= 4 EnMin= -389.152614217822     IErMin= 4 ErrMin= 5.72D-04
 ErrMax= 5.72D-04  0.00D+00 EMaxC= 1.00D-01 BMatC= 1.21D-04 BMatP= 3.52D-03
 IDIUse=3 WtCom= 9.94D-01 WtEn= 5.72D-03
 Coeff-Com: -0.555D-02 0.297D-02 0.136D+00 0.866D+00
 Coeff-En:   0.000D+00 0.000D+00 0.000D+00 0.100D+01
 Coeff:     -0.552D-02 0.295D-02 0.135D+00 0.867D+00
 Gap=     0.497 Goal=   None    Shift=    0.000
 RMSDP=8.11D-05 MaxDP=1.88D-03 DE=-3.99D-03 OVMax= 4.00D-03

 Cycle   5  Pass 1  IDiag  1:
 E= -389.152761351372     Delta-E=       -0.000147133550 Rises=F Damp=F
 DIIS: error= 2.16D-04 at cycle   5 NSaved=   5.
 NSaved= 5 IEnMin= 5 EnMin= -389.152761351372     IErMin= 5 ErrMin= 2.16D-04
 ErrMax= 2.16D-04  0.00D+00 EMaxC= 1.00D-01 BMatC= 1.96D-05 BMatP= 1.21D-04
 IDIUse=3 WtCom= 9.98D-01 WtEn= 2.16D-03
 Coeff-Com:  0.196D-02-0.147D-01-0.884D-01 0.174D+00 0.927D+00
 Coeff-En:   0.000D+00 0.000D+00 0.000D+00 0.000D+00 0.100D+01
 Coeff:      0.195D-02-0.147D-01-0.882D-01 0.174D+00 0.927D+00
 Gap=     0.497 Goal=   None    Shift=    0.000
 RMSDP=3.21D-05 MaxDP=7.36D-04 DE=-1.47D-04 OVMax= 1.14D-03

 Cycle   6  Pass 1  IDiag  1:
 E= -389.152787559592     Delta-E=       -0.000026208219 Rises=F Damp=F
 DIIS: error= 3.27D-05 at cycle   6 NSaved=   6.
 NSaved= 6 IEnMin= 6 EnMin= -389.152787559592     IErMin= 6 ErrMin= 3.27D-05
 ErrMax= 3.27D-05  0.00D+00 EMaxC= 1.00D-01 BMatC= 8.72D-07 BMatP= 1.96D-05
 IDIUse=1 WtCom= 1.00D+00 WtEn= 0.00D+00
 Coeff-Com:  0.794D-03-0.368D-02-0.282D-01-0.195D-01 0.180D+00 0.871D+00
 Coeff:      0.794D-03-0.368D-02-0.282D-01-0.195D-01 0.180D+00 0.871D+00
 Gap=     0.497 Goal=   None    Shift=    0.000
 RMSDP=7.13D-06 MaxDP=1.67D-04 DE=-2.62D-05 OVMax= 3.50D-04

 Cycle   7  Pass 1  IDiag  1:
 E= -389.152788840946     Delta-E=       -0.000001281355 Rises=F Damp=F
 DIIS: error= 9.64D-06 at cycle   7 NSaved=   7.
 NSaved= 7 IEnMin= 7 EnMin= -389.152788840946     IErMin= 7 ErrMin= 9.64D-06
 ErrMax= 9.64D-06  0.00D+00 EMaxC= 1.00D-01 BMatC= 4.07D-08 BMatP= 8.72D-07
 IDIUse=1 WtCom= 1.00D+00 WtEn= 0.00D+00
 Coeff-Com:  0.322D-05 0.197D-03 0.962D-03-0.825D-02-0.285D-01 0.942D-01
 Coeff-Com:  0.941D+00
 Coeff:      0.322D-05 0.197D-03 0.962D-03-0.825D-02-0.285D-01 0.942D-01
 Coeff:      0.941D+00
 Gap=     0.497 Goal=   None    Shift=    0.000
 RMSDP=1.66D-06 MaxDP=4.51D-05 DE=-1.28D-06 OVMax= 1.21D-04

 Cycle   8  Pass 1  IDiag  1:
 E= -389.152788921176     Delta-E=       -0.000000080230 Rises=F Damp=F
 DIIS: error= 3.83D-06 at cycle   8 NSaved=   8.
 NSaved= 8 IEnMin= 8 EnMin= -389.152788921176     IErMin= 8 ErrMin= 3.83D-06
 ErrMax= 3.83D-06  0.00D+00 EMaxC= 1.00D-01 BMatC= 7.01D-09 BMatP= 4.07D-08
 IDIUse=1 WtCom= 1.00D+00 WtEn= 0.00D+00
 Coeff-Com: -0.739D-04 0.355D-03 0.279D-02 0.249D-02-0.226D-01-0.784D-01
 Coeff-Com:  0.803D-01 0.102D+01
 Coeff:     -0.739D-04 0.355D-03 0.279D-02 0.249D-02-0.226D-01-0.784D-01
 Coeff:      0.803D-01 0.102D+01
 Gap=     0.497 Goal=   None    Shift=    0.000
 RMSDP=7.55D-07 MaxDP=1.94D-05 DE=-8.02D-08 OVMax= 4.26D-05

 Cycle   9  Pass 1  IDiag  1:
 E= -389.152788936028     Delta-E=       -0.000000014852 Rises=F Damp=F
 DIIS: error= 2.39D-06 at cycle   9 NSaved=   9.
 NSaved= 9 IEnMin= 9 EnMin= -389.152788936028     IErMin= 9 ErrMin= 2.39D-06
 ErrMax= 2.39D-06  0.00D+00 EMaxC= 1.00D-01 BMatC= 8.17D-10 BMatP= 7.01D-09
 IDIUse=1 WtCom= 1.00D+00 WtEn= 0.00D+00
 Coeff-Com: -0.823D-05 0.111D-04 0.162D-03 0.179D-02-0.824D-04-0.180D-01
 Coeff-Com: -0.873D-01 0.237D-01 0.108D+01
 Coeff:     -0.823D-05 0.111D-04 0.162D-03 0.179D-02-0.824D-04-0.180D-01
 Coeff:     -0.873D-01 0.237D-01 0.108D+01
 Gap=     0.497 Goal=   None    Shift=    0.000
 RMSDP=3.02D-07 MaxDP=1.20D-05 DE=-1.49D-08 OVMax= 3.50D-05

 Cycle  10  Pass 1  IDiag  1:
 E= -389.152788939015     Delta-E=       -0.000000002987 Rises=F Damp=F
 DIIS: error= 6.62D-07 at cycle  10 NSaved=  10.
 NSaved=10 IEnMin=10 EnMin= -389.152788939015     IErMin=10 ErrMin= 6.62D-07
 ErrMax= 6.62D-07  0.00D+00 EMaxC= 1.00D-01 BMatC= 2.39D-10 BMatP= 8.17D-10
 IDIUse=1 WtCom= 1.00D+00 WtEn= 0.00D+00
 Coeff-Com:  0.120D-04-0.615D-04-0.480D-03-0.161D-03 0.326D-02 0.137D-01
 Coeff-Com: -0.840D-02-0.238D+00 0.128D+00 0.110D+01
 Coeff:      0.120D-04-0.615D-04-0.480D-03-0.161D-03 0.326D-02 0.137D-01
 Coeff:     -0.840D-02-0.238D+00 0.128D+00 0.110D+01
 Gap=     0.497 Goal=   None    Shift=    0.000
 RMSDP=1.65D-07 MaxDP=4.06D-06 DE=-2.99D-09 OVMax= 1.27D-05

 Cycle  11  Pass 1  IDiag  1:
 E= -389.152788939582     Delta-E=       -0.000000000567 Rises=F Damp=F
 DIIS: error= 2.34D-07 at cycle  11 NSaved=  11.
 NSaved=11 IEnMin=11 EnMin= -389.152788939582     IErMin=11 ErrMin= 2.34D-07
 ErrMax= 2.34D-07  0.00D+00 EMaxC= 1.00D-01 BMatC= 1.08D-11 BMatP= 2.39D-10
 IDIUse=1 WtCom= 1.00D+00 WtEn= 0.00D+00
 Coeff-Com:  0.203D-05-0.699D-05-0.613D-04-0.178D-03 0.122D-03 0.346D-02
 Coeff-Com:  0.121D-01-0.299D-01-0.803D-01 0.564D-01 0.104D+01
 Coeff:      0.203D-05-0.699D-05-0.613D-04-0.178D-03 0.122D-03 0.346D-02
 Coeff:      0.121D-01-0.299D-01-0.803D-01 0.564D-01 0.104D+01
 Gap=     0.497 Goal=   None    Shift=    0.000
 RMSDP=3.66D-08 MaxDP=1.20D-06 DE=-5.67D-10 OVMax= 3.53D-06

 Cycle  12  Pass 1  IDiag  1:
 E= -389.152788939622     Delta-E=       -0.000000000039 Rises=F Damp=F
 DIIS: error= 3.69D-08 at cycle  12 NSaved=  12.
 NSaved=12 IEnMin=12 EnMin= -389.152788939622     IErMin=12 ErrMin= 3.69D-08
 ErrMax= 3.69D-08  0.00D+00 EMaxC= 1.00D-01 BMatC= 1.06D-12 BMatP= 1.08D-11
 IDIUse=1 WtCom= 1.00D+00 WtEn= 0.00D+00
 Coeff-Com: -0.108D-05 0.565D-05 0.443D-04 0.277D-04-0.327D-03-0.135D-02
 Coeff-Com:  0.567D-03 0.209D-01-0.551D-02-0.119D+00-0.241D-01 0.113D+01
 Coeff:     -0.108D-05 0.565D-05 0.443D-04 0.277D-04-0.327D-03-0.135D-02
 Coeff:      0.567D-03 0.209D-01-0.551D-02-0.119D+00-0.241D-01 0.113D+01
 Gap=     0.497 Goal=   None    Shift=    0.000
 RMSDP=1.25D-08 MaxDP=3.02D-07 DE=-3.93D-11 OVMax= 8.46D-07

 Cycle  13  Pass 1  IDiag  1:
 E= -389.152788939635     Delta-E=       -0.000000000014 Rises=F Damp=F
 DIIS: error= 8.00D-09 at cycle  13 NSaved=  13.
 NSaved=13 IEnMin=13 EnMin= -389.152788939635     IErMin=13 ErrMin= 8.00D-09
 ErrMax= 8.00D-09  0.00D+00 EMaxC= 1.00D-01 BMatC= 4.03D-14 BMatP= 1.06D-12
 IDIUse=1 WtCom= 1.00D+00 WtEn= 0.00D+00
 Coeff-Com: -0.199D-06 0.886D-06 0.708D-05 0.136D-04-0.382D-04-0.306D-03
 Coeff-Com: -0.584D-03 0.334D-02 0.493D-02-0.136D-01-0.573D-01 0.107D+00
 Coeff-Com:  0.957D+00
 Coeff:     -0.199D-06 0.886D-06 0.708D-05 0.136D-04-0.382D-04-0.306D-03
 Coeff:     -0.584D-03 0.334D-02 0.493D-02-0.136D-01-0.573D-01 0.107D+00
 Coeff:      0.957D+00
 Gap=     0.497 Goal=   None    Shift=    0.000
 RMSDP=1.80D-09 MaxDP=3.60D-08 DE=-1.39D-11 OVMax= 7.33D-08

 SCF Done:  E(RHF) =  -389.152788940     A.U. after   13 cycles
            NFock= 13  Conv=0.18D-08     -V/T= 2.0014
 KE= 3.886103480434D+02 PE=-1.943175827039D+03 EE= 6.461863418666D+02
 Leave Link  502 at Fri Sep 17 20:09:56 2021, MaxMem=   524288000 cpu:              23.4 elap:              23.6
 (Enter /opt/gaussian/g16_legacy/l801.exe)
 ExpMin= 1.61D-01 ExpMax= 3.05D+03 ExpMxC= 4.57D+02 IAcc=3 IRadAn=         5 AccDes= 0.00D+00
 HarFok:  IExCor=  205 AccDes= 0.00D+00 IRadAn=         5 IDoV=-2 UseB2=F ITyADJ=14
 ICtDFT= 12500011 ScaDFX=  1.000000  1.000000  1.000000  1.000000
 Largest valence mixing into a core orbital is  1.96D-04
 Largest core mixing into a valence orbital is  3.52D-05
 Range of M.O.s used for correlation:    11   240
 NBasis=   240 NAE=    39 NBE=    39 NFC=    10 NFV=     0
 NROrb=    230 NOA=    29 NOB=    29 NVA=   201 NVB=   201
 Leave Link  801 at Fri Sep 17 20:09:57 2021, MaxMem=   524288000 cpu:               0.9 elap:               0.9
 (Enter /opt/gaussian/g16_legacy/l906.exe)
 Frozen-core derivative calculation, NFC=  10 NFV=   0.
 FulOut=F Deriv=T AODrv=T NAtomX=    28
   MMem=          89  MDisk=          29 MDiskD=          29
  W3Min=     2246400 MinDsk=     2795480 NBas6D=         240
 NBas2D=       29244    NTT=       28920    LW2=     2040000
    MDV=   523626526 MDiskM=       30186 NBas2p=       24236
 Fully direct method using O(ONN) memory.
 IMap=   1   2   3   4   5   6   7   8   9  10  11  12  13  14  15  16  17  18  19  20
 IMap=  21  22  23  24  25  26  27  28  29  30  31  32  33  34  35  36  37  38  39
 JobTyp=1 Pass  1:  I=  11 to  39 NPSUse=  1 ParTrn=F ParDer=F DoDerP=T.
 Spin components of T(2) and E(2):
     alpha-alpha T2 =       0.5716201842D-01 E2=     -0.1639022135D+00
     alpha-beta  T2 =       0.3621038858D+00 E2=     -0.1089793277D+01
     beta-beta   T2 =       0.5716201842D-01 E2=     -0.1639022135D+00
 The integrals were generated   1 times.
 ANorm=    0.1215083504D+01
 E2 =    -0.1417597704D+01 EUMP2 =    -0.39057038664390D+03
 Leave Link  906 at Fri Sep 17 20:12:45 2021, MaxMem=   524288000 cpu:             167.3 elap:             167.5
 (Enter /opt/gaussian/g16_legacy/l1002.exe)
 Minotr:  Closed shell wavefunction.
          Computing MP2/KS-MP2 derivatives.
          Using Z-Vector for PSCF gradient.
          Skipping F1 and S1 gradient terms here.
          IDoAtm=1111111111111111111111111111
          Frozen-core window.
          Direct CPHF calculation.
          Differentiating once with respect to electric field.
                with respect to dipole field.
          Differentiating once with respect to nuclear coordinates.
          Requested convergence is 1.0D-10 RMS, and 1.0D-09 maximum.
          NewPWx=F KeepS1=T KeepF1=T KeepIn=T MapXYZ=F SortEE=F KeepMc=T.
 Keep R1 ints in memory in canonical form, NReq=425201067.
 FoFCou: FMM=F IPFlag=           0 FMFlag=           0 FMFlg1=           0
         NFxFlg=           0 DoJE=F BraDBF=F KetDBF=F FulRan=T
         wScrn=  0.000000 ICntrl=       600 IOpCl=  0 I1Cent=           0 NGrid=           0
         NMat0=    1 NMatS0=  28920 NMatT0=    0 NMatD0=    1 NMtDS0=    0 NMtDT0=    0
 Symmetry not used in FoFCou.
 Two-electron integral symmetry not used.
          MDV=     524288000 using IRadAn=       5.
          Solving linear equations separately, MaxMat=       0.
          There are     1 degrees of freedom in the 1st order CPHF.  IDoFFX=0 NUNeed=     1.
 LinEq1:  Iter=  0 NonCon=     1 RMS=2.52D-03 Max=3.24D-02 NDo=     1
 AX will form     1 AO Fock derivatives at one time.
 LinEq1:  Iter=  1 NonCon=     1 RMS=6.93D-04 Max=9.10D-03 NDo=     1
 LinEq1:  Iter=  2 NonCon=     1 RMS=1.64D-04 Max=4.09D-03 NDo=     1
 LinEq1:  Iter=  3 NonCon=     1 RMS=4.26D-05 Max=5.13D-04 NDo=     1
 LinEq1:  Iter=  4 NonCon=     1 RMS=1.94D-05 Max=7.94D-04 NDo=     1
 LinEq1:  Iter=  5 NonCon=     1 RMS=5.25D-06 Max=1.13D-04 NDo=     1
 LinEq1:  Iter=  6 NonCon=     1 RMS=1.70D-06 Max=4.21D-05 NDo=     1
 LinEq1:  Iter=  7 NonCon=     1 RMS=5.27D-07 Max=1.21D-05 NDo=     1
 LinEq1:  Iter=  8 NonCon=     1 RMS=1.77D-07 Max=3.28D-06 NDo=     1
 LinEq1:  Iter=  9 NonCon=     1 RMS=5.29D-08 Max=1.09D-06 NDo=     1
 LinEq1:  Iter= 10 NonCon=     1 RMS=1.43D-08 Max=1.53D-07 NDo=     1
 LinEq1:  Iter= 11 NonCon=     1 RMS=4.12D-09 Max=9.24D-08 NDo=     1
 LinEq1:  Iter= 12 NonCon=     1 RMS=1.11D-09 Max=1.78D-08 NDo=     1
 LinEq1:  Iter= 13 NonCon=     1 RMS=3.23D-10 Max=6.10D-09 NDo=     1
 LinEq1:  Iter= 14 NonCon=     0 RMS=7.79D-11 Max=9.33D-10 NDo=     1
 Linear equations converged to 1.000D-10 1.000D-09 after    14 iterations.
 End of Minotr F.D. properties file   721 does not exist.
 End of Minotr F.D. properties file   722 does not exist.
 End of Minotr F.D. properties file   788 does not exist.
 Leave Link 1002 at Fri Sep 17 20:13:11 2021, MaxMem=   524288000 cpu:              26.1 elap:              26.1
 (Enter /opt/gaussian/g16_legacy/l601.exe)
 Copying SCF densities to generalized density rwf, IOpCl= 0 IROHF=0.

 **********************************************************************

            Population analysis using the SCF density.

 **********************************************************************

 Orbital symmetries:
       Occupied  (A) (A) (A) (A) (A) (A) (A) (A) (A) (A) (A) (A)
                 (A) (A) (A) (A) (A) (A) (A) (A) (A) (A) (A) (A)
                 (A) (A) (A) (A) (A) (A) (A) (A) (A) (A) (A) (A)
                 (A) (A) (A)
       Virtual   (A) (A) (A) (A) (A) (A) (A) (A) (A) (A) (A) (A)
                 (A) (A) (A) (A) (A) (A) (A) (A) (A) (A) (A) (A)
                 (A) (A) (A) (A) (A) (A) (A) (A) (A) (A) (A) (A)
                 (A) (A) (A) (A) (A) (A) (A) (A) (A) (A) (A) (A)
                 (A) (A) (A) (A) (A) (A) (A) (A) (A) (A) (A) (A)
                 (A) (A) (A) (A) (A) (A) (A) (A) (A) (A) (A) (A)
                 (A) (A) (A) (A) (A) (A) (A) (A) (A) (A) (A) (A)
                 (A) (A) (A) (A) (A) (A) (A) (A) (A) (A) (A) (A)
                 (A) (A) (A) (A) (A) (A) (A) (A) (A) (A) (A) (A)
                 (A) (A) (A) (A) (A) (A) (A) (A) (A) (A) (A) (A)
                 (A) (A) (A) (A) (A) (A) (A) (A) (A) (A) (A) (A)
                 (A) (A) (A) (A) (A) (A) (A) (A) (A) (A) (A) (A)
                 (A) (A) (A) (A) (A) (A) (A) (A) (A) (A) (A) (A)
                 (A) (A) (A) (A) (A) (A) (A) (A) (A) (A) (A) (A)
                 (A) (A) (A) (A) (A) (A) (A) (A) (A) (A) (A) (A)
                 (A) (A) (A) (A) (A) (A) (A) (A) (A) (A) (A) (A)
                 (A) (A) (A) (A) (A) (A) (A) (A) (A)
 The electronic state is 1-A.
 Alpha  occ. eigenvalues --  -11.22640 -11.22476 -11.22008 -11.21894 -11.21625
 Alpha  occ. eigenvalues --  -11.21613 -11.21534 -11.21441 -11.21396 -11.20904
 Alpha  occ. eigenvalues --   -1.10500  -1.08125  -1.01989  -0.97193  -0.93429
 Alpha  occ. eigenvalues --   -0.92137  -0.87843  -0.80969  -0.70260  -0.69707
 Alpha  occ. eigenvalues --   -0.63780  -0.61986  -0.59819  -0.58878  -0.57646
 Alpha  occ. eigenvalues --   -0.56281  -0.55622  -0.55221  -0.53577  -0.53033
 Alpha  occ. eigenvalues --   -0.52369  -0.51071  -0.49593  -0.48857  -0.47781
 Alpha  occ. eigenvalues --   -0.45817  -0.44454  -0.32423  -0.31748
 Alpha virt. eigenvalues --    0.17996   0.19527   0.22996   0.24549   0.25968
 Alpha virt. eigenvalues --    0.26907   0.28492   0.29548   0.29903   0.30163
 Alpha virt. eigenvalues --    0.31852   0.32654   0.33182   0.33741   0.33827
 Alpha virt. eigenvalues --    0.34826   0.36362   0.36686   0.37741   0.39473
 Alpha virt. eigenvalues --    0.40232   0.41024   0.43108   0.44874   0.46726
 Alpha virt. eigenvalues --    0.51109   0.51741   0.61812   0.62147   0.69743
 Alpha virt. eigenvalues --    0.70478   0.72112   0.73539   0.75764   0.76924
 Alpha virt. eigenvalues --    0.78364   0.79315   0.80154   0.82263   0.82891
 Alpha virt. eigenvalues --    0.85395   0.86198   0.88903   0.90054   0.91555
 Alpha virt. eigenvalues --    0.94265   0.95301   0.96402   0.97306   1.00752
 Alpha virt. eigenvalues --    1.01963   1.02086   1.03325   1.05034   1.06156
 Alpha virt. eigenvalues --    1.07354   1.07751   1.10980   1.12944   1.13179
 Alpha virt. eigenvalues --    1.13448   1.13636   1.14206   1.14911   1.15389
 Alpha virt. eigenvalues --    1.15683   1.15982   1.17794   1.18013   1.19047
 Alpha virt. eigenvalues --    1.21057   1.21981   1.22781   1.23383   1.24644
 Alpha virt. eigenvalues --    1.27627   1.35632   1.41417   1.42391   1.45972
 Alpha virt. eigenvalues --    1.47606   1.52243   1.54644   1.56155   1.57697
 Alpha virt. eigenvalues --    1.58778   1.63899   1.68021   1.69738   1.71830
 Alpha virt. eigenvalues --    1.74182   1.82670   1.90895   1.92050   1.95018
 Alpha virt. eigenvalues --    1.99243   2.02102   2.03651   2.08131   2.08462
 Alpha virt. eigenvalues --    2.08794   2.11364   2.11753   2.12655   2.15090
 Alpha virt. eigenvalues --    2.15537   2.18629   2.22081   2.23347   2.27214
 Alpha virt. eigenvalues --    2.29276   2.30660   2.33525   2.35017   2.35480
 Alpha virt. eigenvalues --    2.35681   2.36318   2.38917   2.40197   2.40896
 Alpha virt. eigenvalues --    2.41212   2.41950   2.42609   2.44403   2.46093
 Alpha virt. eigenvalues --    2.47223   2.48181   2.48495   2.51335   2.53800
 Alpha virt. eigenvalues --    2.54721   2.57373   2.59802   2.62768   2.65123
 Alpha virt. eigenvalues --    2.66400   2.69547   2.70337   2.71816   2.74650
 Alpha virt. eigenvalues --    2.75304   2.80199   2.82621   2.82849   2.87005
 Alpha virt. eigenvalues --    2.88068   2.89569   2.90399   2.90753   2.92767
 Alpha virt. eigenvalues --    2.95486   2.97731   3.00847   3.02228   3.03536
 Alpha virt. eigenvalues --    3.04974   3.06631   3.09516   3.11720   3.13443
 Alpha virt. eigenvalues --    3.15469   3.16565   3.19804   3.20866   3.21825
 Alpha virt. eigenvalues --    3.22657   3.24408   3.26339   3.27873   3.37880
 Alpha virt. eigenvalues --    3.39977   3.43243   3.46612   3.55709   3.56355
 Alpha virt. eigenvalues --    3.60485   3.61614   3.67004   3.70301   3.78560
 Alpha virt. eigenvalues --    3.79455   3.80662   3.81028   3.81930   3.82459
 Alpha virt. eigenvalues --    3.84281   3.86223   3.86521   3.89187   3.91833
 Alpha virt. eigenvalues --    3.93370   4.58967   4.62390   4.75564   4.80051
 Alpha virt. eigenvalues --    4.89847   4.92340   4.94416   5.02712   5.09131
 Alpha virt. eigenvalues --    5.17055
          Condensed to atoms (all electrons):
               1          2          3          4          5          6
     1  C    4.942091   0.413694   0.412226   0.359168  -0.053846   0.002956
     2  H    0.413694   0.586369  -0.029014  -0.048468   0.003710  -0.000100
     3  H    0.412226  -0.029014   0.598129  -0.045514  -0.003119  -0.000041
     4  C    0.359168  -0.048468  -0.045514   4.946030   0.334892  -0.037111
     5  C   -0.053846   0.003710  -0.003119   0.334892   4.921174   0.406660
     6  H    0.002956  -0.000100  -0.000041  -0.037111   0.406660   0.566724
     7  H   -0.003846   0.000132   0.002263  -0.043383   0.404694  -0.029738
     8  H    0.000043  -0.000141  -0.000066  -0.040275   0.398215  -0.026397
     9  C   -0.042590  -0.002221   0.000025   0.696743  -0.050012  -0.003668
    10  H   -0.006659   0.002229   0.000246  -0.036840   0.003338   0.000033
    11  C    0.003175   0.000187  -0.000125  -0.050286  -0.006923  -0.001860
    12  H    0.000104   0.000004   0.000000  -0.000684  -0.001596  -0.001045
    13  H   -0.000086  -0.000009  -0.000003  -0.000079   0.000167  -0.000087
    14  H   -0.000123  -0.000006   0.000017  -0.000682   0.000318   0.000259
    15  C   -0.000062  -0.000002   0.000001  -0.000016  -0.000000  -0.000000
    16  H   -0.000009  -0.000001   0.000000  -0.000003   0.000000   0.000000
    17  H    0.000003   0.000000  -0.000000  -0.000001   0.000001   0.000000
    18  H    0.000000  -0.000000  -0.000000   0.000000  -0.000000   0.000000
    19  C    0.002048  -0.000121  -0.000054   0.000206  -0.000093   0.000001
    20  C    0.000119  -0.000004   0.000003  -0.000005  -0.000003   0.000000
    21  H    0.000006  -0.000007   0.000005   0.000004  -0.000002   0.000000
    22  H   -0.000003   0.000000  -0.000000   0.000000  -0.000000   0.000000
    23  H    0.000003   0.000001  -0.000000  -0.000002   0.000005  -0.000000
    24  C   -0.049190  -0.003362   0.005187  -0.002016  -0.000800  -0.000010
    25  H   -0.005284   0.001366   0.000212   0.004148  -0.000020   0.000006
    26  C    0.346185  -0.040076  -0.049233  -0.063997  -0.001000   0.000056
    27  H   -0.039625  -0.004540  -0.003059   0.005168  -0.000175   0.000001
    28  H   -0.037109   0.004586  -0.003183  -0.005016   0.001368  -0.000002
               7          8          9         10         11         12
     1  C   -0.003846   0.000043  -0.042590  -0.006659   0.003175   0.000104
     2  H    0.000132  -0.000141  -0.002221   0.002229   0.000187   0.000004
     3  H    0.002263  -0.000066   0.000025   0.000246  -0.000125   0.000000
     4  C   -0.043383  -0.040275   0.696743  -0.036840  -0.050286  -0.000684
     5  C    0.404694   0.398215  -0.050012   0.003338  -0.006923  -0.001596
     6  H   -0.029738  -0.026397  -0.003668   0.000033  -0.001860  -0.001045
     7  H    0.583819  -0.031154   0.002782  -0.000101   0.000135   0.000021
     8  H   -0.031154   0.569032  -0.003949  -0.000131   0.000667  -0.000179
     9  C    0.002782  -0.003949   4.942764   0.405078   0.338988  -0.041585
    10  H   -0.000101  -0.000131   0.405078   0.559079  -0.043666   0.003339
    11  C    0.000135   0.000667   0.338988  -0.043666   4.905048   0.407933
    12  H    0.000021  -0.000179  -0.041585   0.003339   0.407933   0.572975
    13  H   -0.000012   0.000157  -0.043568  -0.001979   0.402918  -0.028841
    14  H    0.000015  -0.000070  -0.044285  -0.000806   0.399576  -0.027916
    15  C   -0.000000   0.000000  -0.000003  -0.000000   0.000000   0.000000
    16  H   -0.000000   0.000001  -0.000002  -0.000000  -0.000000  -0.000000
    17  H    0.000000  -0.000003  -0.000000   0.000000   0.000000  -0.000000
    18  H   -0.000000   0.000000  -0.000000  -0.000000   0.000000   0.000000
    19  C   -0.000005   0.000233   0.000039   0.000001  -0.000001   0.000000
    20  C    0.000000  -0.000005   0.000000   0.000000  -0.000000  -0.000000
    21  H   -0.000000   0.000002  -0.000000  -0.000000   0.000000   0.000000
    22  H   -0.000000   0.000000   0.000000  -0.000000   0.000000   0.000000
    23  H    0.000000  -0.000014   0.000000  -0.000000   0.000000  -0.000000
    24  C    0.000170   0.001144  -0.000494  -0.000017  -0.000012  -0.000000
    25  H    0.000016  -0.000190   0.003433   0.000169  -0.000045   0.000001
    26  C   -0.001948   0.000697  -0.003666   0.000124  -0.000070  -0.000003
    27  H   -0.000046   0.000042  -0.000019  -0.000009   0.000001   0.000000
    28  H    0.000644  -0.001163   0.000138  -0.000005   0.000004  -0.000001
              13         14         15         16         17         18
     1  C   -0.000086  -0.000123  -0.000062  -0.000009   0.000003   0.000000
     2  H   -0.000009  -0.000006  -0.000002  -0.000001   0.000000  -0.000000
     3  H   -0.000003   0.000017   0.000001   0.000000  -0.000000  -0.000000
     4  C   -0.000079  -0.000682  -0.000016  -0.000003  -0.000001   0.000000
     5  C    0.000167   0.000318  -0.000000   0.000000   0.000001  -0.000000
     6  H   -0.000087   0.000259  -0.000000   0.000000   0.000000   0.000000
     7  H   -0.000012   0.000015  -0.000000  -0.000000   0.000000  -0.000000
     8  H    0.000157  -0.000070   0.000000   0.000001  -0.000003   0.000000
     9  C   -0.043568  -0.044285  -0.000003  -0.000002  -0.000000  -0.000000
    10  H   -0.001979  -0.000806  -0.000000  -0.000000   0.000000  -0.000000
    11  C    0.402918   0.399576   0.000000  -0.000000   0.000000   0.000000
    12  H   -0.028841  -0.027916   0.000000  -0.000000  -0.000000   0.000000
    13  H    0.584753  -0.033481  -0.000000   0.000000  -0.000000   0.000000
    14  H   -0.033481   0.587887  -0.000000  -0.000000  -0.000000  -0.000000
    15  C   -0.000000  -0.000000   4.893044   0.405613   0.401105   0.396200
    16  H    0.000000  -0.000000   0.405613   0.569222  -0.028158  -0.027376
    17  H   -0.000000  -0.000000   0.401105  -0.028158   0.596019  -0.035276
    18  H    0.000000  -0.000000   0.396200  -0.027376  -0.035276   0.596912
    19  C   -0.000000   0.000000   0.353530  -0.041048  -0.047277  -0.044008
    20  C    0.000000   0.000000  -0.060704   0.003763  -0.000642  -0.002397
    21  H   -0.000000  -0.000000   0.003494  -0.000114  -0.000034  -0.000026
    22  H   -0.000000   0.000000  -0.004965   0.000102  -0.000594   0.002530
    23  H   -0.000000   0.000000   0.000411  -0.000135   0.001575  -0.000201
    24  C    0.000011   0.000000  -0.043196  -0.002204  -0.001207  -0.000644
    25  H   -0.000046   0.000004  -0.006506   0.002264   0.000118   0.000204
    26  C    0.000020  -0.000004   0.003020   0.000131  -0.000078  -0.000108
    27  H   -0.000000   0.000000  -0.000109  -0.000001  -0.000010   0.000034
    28  H   -0.000000   0.000000  -0.000015   0.000000   0.000034  -0.000012
              19         20         21         22         23         24
     1  C    0.002048   0.000119   0.000006  -0.000003   0.000003  -0.049190
     2  H   -0.000121  -0.000004  -0.000007   0.000000   0.000001  -0.003362
     3  H   -0.000054   0.000003   0.000005  -0.000000  -0.000000   0.005187
     4  C    0.000206  -0.000005   0.000004   0.000000  -0.000002  -0.002016
     5  C   -0.000093  -0.000003  -0.000002  -0.000000   0.000005  -0.000800
     6  H    0.000001   0.000000   0.000000   0.000000  -0.000000  -0.000010
     7  H   -0.000005   0.000000  -0.000000  -0.000000   0.000000   0.000170
     8  H    0.000233  -0.000005   0.000002   0.000000  -0.000014   0.001144
     9  C    0.000039   0.000000  -0.000000   0.000000   0.000000  -0.000494
    10  H    0.000001   0.000000  -0.000000  -0.000000  -0.000000  -0.000017
    11  C   -0.000001  -0.000000   0.000000   0.000000   0.000000  -0.000012
    12  H    0.000000  -0.000000   0.000000   0.000000  -0.000000  -0.000000
    13  H   -0.000000   0.000000  -0.000000  -0.000000  -0.000000   0.000011
    14  H    0.000000   0.000000  -0.000000   0.000000   0.000000   0.000000
    15  C    0.353530  -0.060704   0.003494  -0.004965   0.000411  -0.043196
    16  H   -0.041048   0.003763  -0.000114   0.000102  -0.000135  -0.002204
    17  H   -0.047277  -0.000642  -0.000034  -0.000594   0.001575  -0.001207
    18  H   -0.044008  -0.002397  -0.000026   0.002530  -0.000201  -0.000644
    19  C    4.942032   0.343881  -0.038096  -0.042863  -0.041775   0.701175
    20  C    0.343881   4.918756   0.406076   0.404981   0.396567  -0.050100
    21  H   -0.038096   0.406076   0.567598  -0.029578  -0.026977  -0.004085
    22  H   -0.042863   0.404981  -0.029578   0.582479  -0.031057   0.002461
    23  H   -0.041775   0.396567  -0.026977  -0.031057   0.578595  -0.003274
    24  C    0.701175  -0.050100  -0.004085   0.002461  -0.003274   4.959688
    25  H   -0.034470   0.003350   0.000062  -0.000103  -0.000116   0.402733
    26  C   -0.055796  -0.006825  -0.001035   0.000118   0.000498   0.333032
    27  H   -0.004894   0.000009   0.001303   0.000117  -0.000279  -0.044685
    28  H   -0.005784  -0.000354  -0.001812  -0.000070   0.001227  -0.045926
              25         26         27         28
     1  C   -0.005284   0.346185  -0.039625  -0.037109
     2  H    0.001366  -0.040076  -0.004540   0.004586
     3  H    0.000212  -0.049233  -0.003059  -0.003183
     4  C    0.004148  -0.063997   0.005168  -0.005016
     5  C   -0.000020  -0.001000  -0.000175   0.001368
     6  H    0.000006   0.000056   0.000001  -0.000002
     7  H    0.000016  -0.001948  -0.000046   0.000644
     8  H   -0.000190   0.000697   0.000042  -0.001163
     9  C    0.003433  -0.003666  -0.000019   0.000138
    10  H    0.000169   0.000124  -0.000009  -0.000005
    11  C   -0.000045  -0.000070   0.000001   0.000004
    12  H    0.000001  -0.000003   0.000000  -0.000001
    13  H   -0.000046   0.000020  -0.000000  -0.000000
    14  H    0.000004  -0.000004   0.000000   0.000000
    15  C   -0.006506   0.003020  -0.000109  -0.000015
    16  H    0.002264   0.000131  -0.000001   0.000000
    17  H    0.000118  -0.000078  -0.000010   0.000034
    18  H    0.000204  -0.000108   0.000034  -0.000012
    19  C   -0.034470  -0.055796  -0.004894  -0.005784
    20  C    0.003350  -0.006825   0.000009  -0.000354
    21  H    0.000062  -0.001035   0.001303  -0.001812
    22  H   -0.000103   0.000118   0.000117  -0.000070
    23  H   -0.000116   0.000498  -0.000279   0.001227
    24  C    0.402733   0.333032  -0.044685  -0.045926
    25  H    0.541921  -0.045901   0.002879   0.002995
    26  C   -0.045901   5.002441   0.409562   0.410444
    27  H    0.002879   0.409562   0.586295  -0.030774
    28  H    0.002995   0.410444  -0.030774   0.590348
 Mulliken charges:
               1
     1  C   -0.243392
     2  H    0.115795
     3  H    0.115096
     4  C    0.028019
     5  C   -0.356955
     6  H    0.123365
     7  H    0.115541
     8  H    0.133504
     9  C   -0.153927
    10  H    0.116577
    11  C   -0.355644
    12  H    0.117473
    13  H    0.120165
    14  H    0.119297
    15  C   -0.340840
    16  H    0.117955
    17  H    0.114426
    18  H    0.114170
    19  C    0.013141
    20  C   -0.356466
    21  H    0.123217
    22  H    0.116446
    23  H    0.124948
    24  C   -0.154379
    25  H    0.126799
    26  C   -0.236588
    27  H    0.122814
    28  H    0.119441
 Sum of Mulliken charges =  -0.00000
 Mulliken charges with hydrogens summed into heavy atoms:
               1
     1  C   -0.012501
     4  C    0.028019
     5  C    0.015455
     9  C   -0.037350
    11  C    0.001292
    15  C    0.005711
    19  C    0.013141
    20  C    0.008145
    24  C   -0.027579
    26  C    0.005666
 Electronic spatial extent (au):  <R**2>=           2327.1590
 Charge=             -0.0000 electrons
 Dipole moment (field-independent basis, Debye):
    X=              0.1773    Y=             -0.1659    Z=              0.3214  Tot=              0.4028
 Quadrupole moment (field-independent basis, Debye-Ang):
   XX=            -64.7964   YY=            -64.4304   ZZ=            -65.1056
   XY=             -0.8535   XZ=              0.2198   YZ=             -0.6368
 Traceless Quadrupole moment (field-independent basis, Debye-Ang):
   XX=             -0.0189   YY=              0.3470   ZZ=             -0.3281
   XY=             -0.8535   XZ=              0.2198   YZ=             -0.6368
 Octapole moment (field-independent basis, Debye-Ang**2):
  XXX=              8.6043  YYY=             -1.4189  ZZZ=              1.1994  XYY=             -0.3397
  XXY=              3.9950  XXZ=              4.1990  XZZ=             -2.6633  YZZ=              0.5586
  YYZ=             -1.2045  XYZ=              2.3168
 Hexadecapole moment (field-independent basis, Debye-Ang**3):
 XXXX=          -2302.3261 YYYY=           -620.4028 ZZZZ=           -305.6055 XXXY=             -7.7228
 XXXZ=             -9.0193 YYYX=             -1.1400 YYYZ=             -2.0183 ZZZX=              6.4444
 ZZZY=              1.0930 XXYY=           -497.7127 XXZZ=           -437.4610 YYZZ=           -155.9562
 XXYZ=             -4.5858 YYXZ=             -0.9105 ZZXY=             -2.4450
 N-N= 5.192263481892D+02 E-N=-1.943175826694D+03  KE= 3.886103480434D+02
 No NMR shielding tensors so no spin-rotation constants.
 Leave Link  601 at Fri Sep 17 20:13:11 2021, MaxMem=   524288000 cpu:               0.1 elap:               0.2
 (Enter /opt/gaussian/g16_legacy/l701.exe)
 ... and contract with generalized density number  2.
 Compute integral first derivatives.
 Leave Link  701 at Fri Sep 17 20:13:11 2021, MaxMem=   524288000 cpu:               0.1 elap:               0.1
 (Enter /opt/gaussian/g16_legacy/l702.exe)
 L702 exits ... SP integral derivatives will be done elsewhere.
 Leave Link  702 at Fri Sep 17 20:13:11 2021, MaxMem=   524288000 cpu:               0.0 elap:               0.0
 (Enter /opt/gaussian/g16_legacy/l703.exe)
 Integral derivatives from FoFJK, PRISM(SPDF).
 Compute integral first derivatives, UseDBF=F ICtDFT=           0.
 Calling FoFJK, ICntrl=  10002127 FMM=F ISym2X=0 I1Cent= 0 IOpClX= 0 NMat=1 NMatS=1 NMatT=0.
 FoFJK:  IHMeth= 1 ICntrl=10002127 DoSepK=F KAlg= 0 I1Cent=           0 FoldK=F
 IRaf=         0 NMat=       1 IRICut=       1 DoRegI=T DoRafI=F ISym2E= 0 IDoP0=0 IntGTp=1.
 FoFCou: FMM=F IPFlag=           0 FMFlag=      100000 FMFlg1=         800
         NFxFlg=           0 DoJE=F BraDBF=F KetDBF=F FulRan=T
         wScrn=  0.000000 ICntrl=  10002127 IOpCl=  0 I1Cent=           0 NGrid=           0
         NMat0=    1 NMatS0=      1 NMatT0=    0 NMatD0=    1 NMtDS0=    0 NMtDT0=    0
 Symmetry not used in FoFCou.
 Leave Link  703 at Fri Sep 17 20:13:30 2021, MaxMem=   524288000 cpu:              18.9 elap:              18.9
 (Enter /opt/gaussian/g16_legacy/l716.exe)
 Dipole        = 4.21537825D-02-3.98794058D-02 1.23887379D-01
 ***** Axes restored to original set *****
 -------------------------------------------------------------------
 Center     Atomic                   Forces (Hartrees/Bohr)
 Number     Number              X              Y              Z
 -------------------------------------------------------------------
      1        6           0.002986096   -0.002316786   -0.001007727
      2        1           0.003119103    0.001412244    0.002244685
      3        1          -0.000954548    0.000628068    0.001750068
      4        6          -0.008140081   -0.006210341   -0.004275679
      5        6           0.002868875    0.002840740    0.000261945
      6        1          -0.003347123   -0.001618807    0.003452089
      7        1          -0.000410466   -0.002357944    0.002422059
      8        1           0.000989886    0.002500545   -0.002465888
      9        6          -0.003730346    0.000854531    0.002528708
     10        1          -0.001692953    0.003239466    0.000139633
     11        6           0.003740096    0.000968817    0.000959017
     12        1          -0.002637093   -0.002458770   -0.001677118
     13        1           0.001708576    0.001390639   -0.003341558
     14        1           0.001320009   -0.000675571    0.002929880
     15        6           0.001198922   -0.002904622   -0.000723971
     16        1          -0.002073528    0.003299574   -0.000961227
     17        1          -0.002824366   -0.001769887    0.000142531
     18        1           0.002307574    0.002027418    0.002151785
     19        6           0.000810345   -0.007281529   -0.001987029
     20        6          -0.002133401    0.002583236   -0.002977386
     21        1           0.003919610    0.000328907    0.002350661
     22        1           0.003573808    0.001033898   -0.000162640
     23        1          -0.003519153   -0.000515428   -0.000036419
     24        6           0.005869066    0.000781058   -0.000131236
     25        1          -0.000619784    0.001980004    0.001012080
     26        6          -0.001443589    0.000714307    0.000055487
     27        1           0.001297214    0.003679782   -0.000964622
     28        1          -0.002182750   -0.002153550   -0.001688127
 -------------------------------------------------------------------
 Cartesian Forces:  Max     0.008140081 RMS     0.002599863
 Leave Link  716 at Fri Sep 17 20:13:30 2021, MaxMem=   524288000 cpu:               0.0 elap:               0.0
 (Enter /opt/gaussian/g16_legacy/l103.exe)

 GradGradGradGradGradGradGradGradGradGradGradGradGradGradGradGradGradGrad
 Berny optimization.
 FormGI is forming the generalized inverse of G from B-inverse, IUseBI=4.
 Internal  Forces:  Max     0.008873647 RMS     0.002289064
 Search for a local minimum.
 Step number   1 out of a maximum of  138
 All quantities printed in internal units (Hartrees-Bohrs-Radians)
 RMS Force = .22891D-02 SwitMx=.10000D-02 MixMth= 1
 Mixed Optimization -- RFO/linear search
 Second derivative matrix not updated -- first step.
 ITU=  0
     Eigenvalues ---    0.00242   0.00507   0.00673   0.00705   0.00714
     Eigenvalues ---    0.00726   0.00839   0.01207   0.01290   0.01546
     Eigenvalues ---    0.01654   0.02776   0.02794   0.03778   0.03942
     Eigenvalues ---    0.05318   0.05399   0.07039   0.07088   0.07110
     Eigenvalues ---    0.07119   0.07281   0.07300   0.07315   0.07513
     Eigenvalues ---    0.09523   0.09607   0.12963   0.13034   0.15992
     Eigenvalues ---    0.15994   0.16000   0.16000   0.16000   0.16000
     Eigenvalues ---    0.16000   0.16000   0.16000   0.16000   0.16000
     Eigenvalues ---    0.16000   0.16000   0.16000   0.21949   0.22001
     Eigenvalues ---    0.22002   0.22002   0.25000   0.25000   0.25000
     Eigenvalues ---    0.25000   0.28556   0.30407   0.31648   0.31901
     Eigenvalues ---    0.31970   0.32065   0.32966   0.33960   0.33964
     Eigenvalues ---    0.33989   0.34015   0.34123   0.34150   0.34213
     Eigenvalues ---    0.34243   0.34258   0.34271   0.34272   0.34276
     Eigenvalues ---    0.34300   0.34302   0.34389   0.34487   0.34871
     Eigenvalues ---    0.34882   0.55434   0.55732
 RFO step:  Lambda=-4.04528439D-03 EMin= 2.42365083D-03
 Linear search not attempted -- first point.
 Iteration  1 RMS(Cart)=  0.08906267 RMS(Int)=  0.00132409
 Iteration  2 RMS(Cart)=  0.00225178 RMS(Int)=  0.00011935
 Iteration  3 RMS(Cart)=  0.00000168 RMS(Int)=  0.00011935
 Iteration  4 RMS(Cart)=  0.00000000 RMS(Int)=  0.00011935
 ITry= 1 IFail=0 DXMaxC= 3.25D-01 DCOld= 1.00D+10 DXMaxT= 3.00D-01 DXLimC= 3.00D+00 Rises=F
 Variable       Old X    -DE/DX   Delta X   Delta X   Delta X     New X
                                 (Linear)    (Quad)   (Total)
    R1        2.07397  -0.00275   0.00000  -0.00802  -0.00802   2.06595
    R2        2.07305  -0.00089   0.00000  -0.00258  -0.00258   2.07047
    R3        2.87160  -0.00887   0.00000  -0.02880  -0.02880   2.84280
    R4        2.90939  -0.00492   0.00000  -0.01700  -0.01700   2.89239
    R5        2.84199   0.00211   0.00000   0.00652   0.00652   2.84852
    R6        2.54748  -0.00348   0.00000  -0.00623  -0.00623   2.54126
    R7        2.06867  -0.00426   0.00000  -0.01229  -0.01229   2.05638
    R8        2.06827  -0.00267   0.00000  -0.00770  -0.00770   2.06057
    R9        2.06898  -0.00208   0.00000  -0.00601  -0.00601   2.06296
   R10        2.05885  -0.00209   0.00000  -0.00592  -0.00592   2.05293
   R11        2.82411   0.00374   0.00000   0.01122   0.01122   2.83532
   R12        2.06516  -0.00372   0.00000  -0.01066  -0.01066   2.05450
   R13        2.07124  -0.00328   0.00000  -0.00951  -0.00951   2.06172
   R14        2.06679  -0.00133   0.00000  -0.00383  -0.00383   2.06296
   R15        2.06873  -0.00362   0.00000  -0.01045  -0.01045   2.05828
   R16        2.06921  -0.00193   0.00000  -0.00558  -0.00558   2.06363
   R17        2.06971  -0.00215   0.00000  -0.00620  -0.00620   2.06351
   R18        2.84325  -0.00009   0.00000  -0.00027  -0.00027   2.84298
   R19        2.84025   0.00145   0.00000   0.00447   0.00447   2.84472
   R20        2.54487  -0.00317   0.00000  -0.00565  -0.00565   2.53922
   R21        2.06824  -0.00366   0.00000  -0.01055  -0.01055   2.05769
   R22        2.06876  -0.00294   0.00000  -0.00848  -0.00848   2.06028
   R23        2.07077  -0.00222   0.00000  -0.00641  -0.00641   2.06436
   R24        2.05867  -0.00202   0.00000  -0.00573  -0.00573   2.05294
   R25        2.84792  -0.00043   0.00000  -0.00134  -0.00134   2.84658
   R26        2.07349  -0.00109   0.00000  -0.00318  -0.00318   2.07032
   R27        2.07390  -0.00282   0.00000  -0.00820  -0.00820   2.06571
    A1        1.84595   0.00019   0.00000   0.02207   0.02206   1.86800
    A2        1.92944  -0.00028   0.00000  -0.01712  -0.01729   1.91215
    A3        1.89463   0.00333   0.00000   0.01277   0.01221   1.90684
    A4        1.89179   0.00354   0.00000   0.02249   0.02251   1.91430
    A5        1.89688   0.00013   0.00000  -0.00086  -0.00076   1.89613
    A6        1.99878  -0.00643   0.00000  -0.03469  -0.03489   1.96389
    A7        2.02017  -0.00058   0.00000  -0.00229  -0.00247   2.01769
    A8        2.10069   0.00059   0.00000   0.00231   0.00211   2.10281
    A9        2.16233  -0.00001   0.00000  -0.00003  -0.00022   2.16211
   A10        1.95974  -0.00063   0.00000  -0.00197  -0.00196   1.95778
   A11        1.93415  -0.00156   0.00000  -0.00852  -0.00849   1.92566
   A12        1.92345   0.00394   0.00000   0.02117   0.02120   1.94465
   A13        1.85552   0.00212   0.00000   0.01826   0.01827   1.87379
   A14        1.89956  -0.00215   0.00000  -0.01483  -0.01482   1.88474
   A15        1.88886  -0.00190   0.00000  -0.01520  -0.01514   1.87372
   A16        2.07126  -0.00289   0.00000  -0.01761  -0.01774   2.05352
   A17        2.22286  -0.00043   0.00000  -0.00170  -0.00182   2.22104
   A18        1.98848   0.00333   0.00000   0.02026   0.02013   2.00861
   A19        1.98288  -0.00297   0.00000  -0.01782  -0.01774   1.96514
   A20        1.90957   0.00236   0.00000   0.01417   0.01412   1.92369
   A21        1.91774   0.00380   0.00000   0.02317   0.02315   1.94089
   A22        1.87497   0.00023   0.00000   0.00142   0.00148   1.87644
   A23        1.88864  -0.00049   0.00000  -0.00253  -0.00244   1.88620
   A24        1.88737  -0.00313   0.00000  -0.01960  -0.01974   1.86762
   A25        1.87846   0.00083   0.00000   0.00705   0.00708   1.88554
   A26        1.88043   0.00080   0.00000   0.00873   0.00877   1.88920
   A27        1.95898  -0.00271   0.00000  -0.01345  -0.01341   1.94557
   A28        1.89552  -0.00328   0.00000  -0.02602  -0.02601   1.86950
   A29        1.92321   0.00176   0.00000   0.00872   0.00874   1.93195
   A30        1.92531   0.00247   0.00000   0.01404   0.01406   1.93937
   A31        2.01319   0.00168   0.00000   0.00663   0.00653   2.01972
   A32        2.11285   0.00217   0.00000   0.00854   0.00844   2.12129
   A33        2.15714  -0.00385   0.00000  -0.01516  -0.01525   2.14189
   A34        1.95858  -0.00083   0.00000  -0.00271  -0.00270   1.95588
   A35        1.93103  -0.00080   0.00000  -0.00364  -0.00362   1.92741
   A36        1.92413   0.00339   0.00000   0.01710   0.01713   1.94126
   A37        1.86171   0.00208   0.00000   0.01944   0.01944   1.88115
   A38        1.89558  -0.00180   0.00000  -0.01308  -0.01306   1.88252
   A39        1.89046  -0.00220   0.00000  -0.01807  -0.01804   1.87242
   A40        2.06882  -0.00040   0.00000  -0.00253  -0.00270   2.06612
   A41        2.18681  -0.00068   0.00000  -0.00278  -0.00295   2.18386
   A42        2.02682   0.00111   0.00000   0.00654   0.00637   2.03319
   A43        1.98902  -0.00838   0.00000  -0.03511  -0.03504   1.95398
   A44        1.88139   0.00176   0.00000   0.01014   0.01046   1.89185
   A45        1.90659   0.00229   0.00000   0.00115   0.00106   1.90764
   A46        1.89819   0.00453   0.00000   0.03708   0.03719   1.93538
   A47        1.91220   0.00263   0.00000   0.00741   0.00713   1.91933
   A48        1.87277  -0.00260   0.00000  -0.02002  -0.02015   1.85261
    D1        3.05862   0.00129   0.00000   0.04791   0.04765   3.10627
    D2       -0.08326   0.00073   0.00000   0.01305   0.01279  -0.07048
    D3        1.04288  -0.00081   0.00000   0.01788   0.01782   1.06070
    D4       -2.09900  -0.00137   0.00000  -0.01698  -0.01704  -2.11605
[...]
                 (A) (A) (A) (A) (A) (A) (A) (A) (A) (A) (A) (A)
                 (A) (A) (A) (A) (A) (A) (A) (A) (A) (A) (A) (A)
                 (A) (A) (A) (A) (A) (A) (A) (A) (A) (A) (A) (A)
                 (A) (A) (A) (A) (A) (A) (A) (A) (A) (A) (A) (A)
                 (A) (A) (A) (A) (A) (A) (A) (A) (A) (A) (A) (A)
                 (A) (A) (A) (A) (A) (A) (A) (A) (A) (A) (A) (A)
                 (A) (A) (A) (A) (A) (A) (A) (A) (A) (A) (A) (A)
                 (A) (A) (A) (A) (A) (A) (A) (A) (A) (A) (A) (A)
                 (A) (A) (A) (A) (A) (A) (A) (A) (A) (A) (A) (A)
                 (A) (A) (A) (A) (A) (A) (A) (A) (A) (A) (A) (A)
                 (A) (A) (A) (A) (A) (A) (A) (A) (A) (A) (A) (A)
                 (A) (A) (A) (A) (A) (A) (A) (A) (A) (A) (A) (A)
                 (A) (A) (A) (A) (A) (A) (A) (A) (A) (A) (A) (A)
                 (A) (A) (A) (A) (A) (A) (A) (A) (A)
 The electronic state is 1-A.
 Alpha  occ. eigenvalues --  -11.22744 -11.22316 -11.21839 -11.21740 -11.21605
 Alpha  occ. eigenvalues --  -11.21315 -11.21306 -11.21252 -11.21234 -11.21216
 Alpha  occ. eigenvalues --   -1.10881  -1.08081  -1.02121  -0.97148  -0.93656
 Alpha  occ. eigenvalues --   -0.92312  -0.88050  -0.81320  -0.70371  -0.69836
 Alpha  occ. eigenvalues --   -0.64406  -0.62078  -0.60323  -0.59014  -0.57403
 Alpha  occ. eigenvalues --   -0.56888  -0.55181  -0.54558  -0.53459  -0.52929
 Alpha  occ. eigenvalues --   -0.52429  -0.51367  -0.49777  -0.49032  -0.48171
 Alpha  occ. eigenvalues --   -0.45585  -0.44879  -0.32481  -0.31922
 Alpha virt. eigenvalues --    0.18687   0.20046   0.22372   0.25238   0.25736
 Alpha virt. eigenvalues --    0.27047   0.28442   0.29463   0.29882   0.30879
 Alpha virt. eigenvalues --    0.31869   0.32430   0.33268   0.33451   0.34842
 Alpha virt. eigenvalues --    0.36485   0.36638   0.37446   0.39700   0.40642
 Alpha virt. eigenvalues --    0.41325   0.42139   0.42714   0.43791   0.46237
 Alpha virt. eigenvalues --    0.51193   0.52631   0.63191   0.64014   0.69786
 Alpha virt. eigenvalues --    0.70528   0.71976   0.72743   0.74795   0.76622
 Alpha virt. eigenvalues --    0.78317   0.80030   0.80899   0.82300   0.83512
 Alpha virt. eigenvalues --    0.85110   0.87305   0.88371   0.88451   0.91255
 Alpha virt. eigenvalues --    0.93921   0.95379   0.97073   0.98438   0.99448
 Alpha virt. eigenvalues --    1.01237   1.02785   1.03433   1.04120   1.06861
 Alpha virt. eigenvalues --    1.08115   1.08931   1.10724   1.11754   1.12046
 Alpha virt. eigenvalues --    1.13269   1.14349   1.15261   1.15712   1.16338
 Alpha virt. eigenvalues --    1.16444   1.18462   1.18997   1.19913   1.20836
 Alpha virt. eigenvalues --    1.21812   1.23070   1.23944   1.25071   1.27665
 Alpha virt. eigenvalues --    1.31614   1.35223   1.40074   1.43636   1.45552
 Alpha virt. eigenvalues --    1.47316   1.49803   1.55001   1.57880   1.58948
 Alpha virt. eigenvalues --    1.62784   1.66738   1.68293   1.69520   1.73220
 Alpha virt. eigenvalues --    1.76444   1.84031   1.89088   1.92231   1.93930
 Alpha virt. eigenvalues --    1.99900   2.01654   2.02808   2.06808   2.07922
 Alpha virt. eigenvalues --    2.08554   2.09662   2.11849   2.13112   2.15048
 Alpha virt. eigenvalues --    2.16738   2.17424   2.21068   2.23831   2.27366
 Alpha virt. eigenvalues --    2.30777   2.32009   2.33703   2.34186   2.35415
 Alpha virt. eigenvalues --    2.35870   2.36102   2.37852   2.40821   2.41643
 Alpha virt. eigenvalues --    2.43492   2.44498   2.45065   2.45847   2.46627
 Alpha virt. eigenvalues --    2.47775   2.48853   2.51212   2.51927   2.54014
 Alpha virt. eigenvalues --    2.55289   2.57535   2.60449   2.64462   2.65723
 Alpha virt. eigenvalues --    2.68171   2.69868   2.70311   2.71374   2.75614
 Alpha virt. eigenvalues --    2.76464   2.78395   2.80326   2.83854   2.84896
 Alpha virt. eigenvalues --    2.86488   2.88225   2.89700   2.91858   2.95445
 Alpha virt. eigenvalues --    2.97740   2.99611   3.00230   3.02876   3.04274
 Alpha virt. eigenvalues --    3.05942   3.07873   3.11440   3.13031   3.14461
 Alpha virt. eigenvalues --    3.18366   3.18723   3.19379   3.20799   3.21822
 Alpha virt. eigenvalues --    3.23646   3.24659   3.27945   3.30114   3.39315
 Alpha virt. eigenvalues --    3.40200   3.44510   3.45824   3.56420   3.57716
 Alpha virt. eigenvalues --    3.62324   3.63490   3.66846   3.71252   3.79707
 Alpha virt. eigenvalues --    3.80978   3.82014   3.83291   3.83499   3.84266
 Alpha virt. eigenvalues --    3.85076   3.86013   3.88901   3.89840   3.91949
 Alpha virt. eigenvalues --    3.95834   4.58130   4.62692   4.75103   4.86247
 Alpha virt. eigenvalues --    4.90098   4.93079   4.95975   5.04899   5.09934
 Alpha virt. eigenvalues --    5.17529
          Condensed to atoms (all electrons):
               1          2          3          4          5          6
     1  C    4.982721   0.414948   0.410168   0.359375  -0.060026   0.003470
     2  H    0.414948   0.587411  -0.027499  -0.050171   0.004008  -0.000104
     3  H    0.410168  -0.027499   0.595848  -0.043475  -0.002786  -0.000080
     4  C    0.359375  -0.050171  -0.043475   4.921849   0.343689  -0.037286
     5  C   -0.060026   0.004008  -0.002786   0.343689   4.914638   0.407490
     6  H    0.003470  -0.000104  -0.000080  -0.037286   0.407490   0.568609
     7  H   -0.002332   0.000050   0.002983  -0.045252   0.400727  -0.027724
     8  H   -0.003067  -0.000133  -0.000085  -0.040439   0.399543  -0.026908
     9  C   -0.042418  -0.003119  -0.000134   0.703349  -0.043821  -0.002944
    10  H   -0.007730   0.002313   0.000264  -0.039856   0.003609   0.000042
    11  C    0.003206   0.000208  -0.000114  -0.046747  -0.008090  -0.002288
    12  H    0.000089   0.000005   0.000002  -0.000172  -0.002090  -0.001236
    13  H   -0.000091  -0.000007  -0.000004  -0.000470   0.000213  -0.000069
    14  H   -0.000114  -0.000009   0.000017  -0.000736   0.000308   0.000092
    15  C   -0.000085   0.000001   0.000002  -0.000027  -0.000004  -0.000000
    16  H   -0.000009   0.000000   0.000000   0.000003   0.000000   0.000000
    17  H    0.000018   0.000000  -0.000000   0.000002   0.000010  -0.000000
    18  H   -0.000005  -0.000000   0.000000   0.000001  -0.000000   0.000000
    19  C   -0.001289   0.000106  -0.000049   0.000496  -0.000651   0.000002
    20  C    0.000306  -0.000009   0.000002   0.000034  -0.000307   0.000007
    21  H    0.000053  -0.000003   0.000010   0.000003  -0.000075  -0.000001
    22  H   -0.000024   0.000000   0.000000   0.000000   0.000001  -0.000000
    23  H    0.000051   0.000000  -0.000001   0.000001   0.000116   0.000004
    24  C   -0.068684  -0.004078   0.005733   0.001477  -0.002416  -0.000020
    25  H   -0.002138   0.002013  -0.000013  -0.000004   0.000059   0.000001
    26  C    0.330681  -0.039091  -0.050140  -0.068698  -0.000592   0.000057
    27  H   -0.046375  -0.004349  -0.001998   0.005474  -0.000167   0.000001
    28  H   -0.036240   0.004398  -0.003774  -0.004486   0.000617   0.000024
               7          8          9         10         11         12
     1  C   -0.002332  -0.003067  -0.042418  -0.007730   0.003206   0.000089
     2  H    0.000050  -0.000133  -0.003119   0.002313   0.000208   0.000005
     3  H    0.002983  -0.000085  -0.000134   0.000264  -0.000114   0.000002
     4  C   -0.045252  -0.040439   0.703349  -0.039856  -0.046747  -0.000172
     5  C    0.400727   0.399543  -0.043821   0.003609  -0.008090  -0.002090
     6  H   -0.027724  -0.026908  -0.002944   0.000042  -0.002288  -0.001236
     7  H    0.592963  -0.035330   0.001569  -0.000118   0.000184   0.000003
     8  H   -0.035330   0.577868  -0.002334  -0.000128   0.000466  -0.000112
     9  C    0.001569  -0.002334   4.930293   0.405334   0.340693  -0.043416
    10  H   -0.000118  -0.000128   0.405334   0.564433  -0.042324   0.003374
    11  C    0.000184   0.000466   0.340693  -0.042324   4.896646   0.408126
    12  H    0.000003  -0.000112  -0.043416   0.003374   0.408126   0.577090
    13  H   -0.000018   0.000095  -0.042176  -0.001328   0.402014  -0.028619
    14  H    0.000028  -0.000038  -0.042312  -0.001089   0.401018  -0.028043
    15  C    0.000000  -0.000020   0.000002  -0.000001  -0.000000  -0.000000
    16  H    0.000000  -0.000001   0.000005   0.000000  -0.000000  -0.000000
    17  H   -0.000000  -0.000033  -0.000000  -0.000000   0.000001  -0.000000
    18  H    0.000000   0.000003   0.000000   0.000000   0.000000   0.000000
    19  C   -0.000001   0.001666   0.000058  -0.000000  -0.000003   0.000000
    20  C    0.000012  -0.001397   0.000001   0.000000  -0.000000   0.000000
    21  H    0.000023  -0.000315  -0.000000  -0.000000   0.000000  -0.000000
    22  H   -0.000000   0.000083  -0.000000  -0.000000   0.000000   0.000000
    23  H   -0.000004  -0.000459  -0.000000  -0.000000   0.000000  -0.000000
    24  C    0.000364   0.001244   0.002530   0.000031  -0.000056   0.000003
    25  H    0.000003  -0.000060   0.000649   0.000128  -0.000004   0.000001
    26  C   -0.002177   0.001384  -0.004264   0.000201  -0.000081  -0.000004
    27  H   -0.000024   0.000125   0.000002  -0.000011   0.000002   0.000000
    28  H    0.000520  -0.002650   0.000126  -0.000006   0.000004  -0.000001
              13         14         15         16         17         18
     1  C   -0.000091  -0.000114  -0.000085  -0.000009   0.000018  -0.000005
     2  H   -0.000007  -0.000009   0.000001   0.000000   0.000000  -0.000000
     3  H   -0.000004   0.000017   0.000002   0.000000  -0.000000   0.000000
     4  C   -0.000470  -0.000736  -0.000027   0.000003   0.000002   0.000001
     5  C    0.000213   0.000308  -0.000004   0.000000   0.000010  -0.000000
     6  H   -0.000069   0.000092  -0.000000   0.000000  -0.000000   0.000000
     7  H   -0.000018   0.000028   0.000000   0.000000  -0.000000   0.000000
     8  H    0.000095  -0.000038  -0.000020  -0.000001  -0.000033   0.000003
     9  C   -0.042176  -0.042312   0.000002   0.000005  -0.000000   0.000000
    10  H   -0.001328  -0.001089  -0.000001   0.000000  -0.000000   0.000000
    11  C    0.402014   0.401018  -0.000000  -0.000000   0.000001   0.000000
    12  H   -0.028619  -0.028043  -0.000000  -0.000000  -0.000000   0.000000
    13  H    0.586330  -0.036107   0.000000   0.000000  -0.000000   0.000000
    14  H   -0.036107   0.588373   0.000000   0.000000   0.000000  -0.000000
    15  C    0.000000   0.000000   4.899813   0.406113   0.399041   0.397884
    16  H    0.000000   0.000000   0.406113   0.566219  -0.026476  -0.026721
    17  H   -0.000000   0.000000   0.399041  -0.026476   0.594899  -0.038218
    18  H    0.000000  -0.000000   0.397884  -0.026721  -0.038218   0.597407
    19  C    0.000005  -0.000000   0.352888  -0.041533  -0.044336  -0.044203
    20  C    0.000000   0.000000  -0.065981   0.003817  -0.001673  -0.001465
    21  H   -0.000000   0.000000   0.003793  -0.000116  -0.000037  -0.000060
    22  H    0.000000  -0.000000  -0.002548  -0.000038  -0.000445   0.002750
    23  H   -0.000000   0.000000  -0.002401  -0.000039   0.002905  -0.000541
    24  C    0.000006   0.000001  -0.043057  -0.002606  -0.000978  -0.000932
    25  H   -0.000004   0.000000  -0.007311   0.002400   0.000187   0.000208
    26  C    0.000022  -0.000005   0.003189   0.000144  -0.000083  -0.000122
    27  H   -0.000000   0.000000  -0.000112  -0.000006  -0.000004   0.000019
    28  H   -0.000000   0.000000   0.000090   0.000006   0.000004  -0.000005
              19         20         21         22         23         24
     1  C   -0.001289   0.000306   0.000053  -0.000024   0.000051  -0.068684
     2  H    0.000106  -0.000009  -0.000003   0.000000   0.000000  -0.004078
     3  H   -0.000049   0.000002   0.000010   0.000000  -0.000001   0.005733
     4  C    0.000496   0.000034   0.000003   0.000000   0.000001   0.001477
     5  C   -0.000651  -0.000307  -0.000075   0.000001   0.000116  -0.002416
     6  H    0.000002   0.000007  -0.000001  -0.000000   0.000004  -0.000020
     7  H   -0.000001   0.000012   0.000023  -0.000000  -0.000004   0.000364
     8  H    0.001666  -0.001397  -0.000315   0.000083  -0.000459   0.001244
     9  C    0.000058   0.000001  -0.000000  -0.000000  -0.000000   0.002530
    10  H   -0.000000   0.000000  -0.000000  -0.000000  -0.000000   0.000031
    11  C   -0.000003  -0.000000   0.000000   0.000000   0.000000  -0.000056
    12  H    0.000000   0.000000  -0.000000   0.000000  -0.000000   0.000003
    13  H    0.000005   0.000000  -0.000000   0.000000  -0.000000   0.000006
    14  H   -0.000000   0.000000   0.000000  -0.000000   0.000000   0.000001
    15  C    0.352888  -0.065981   0.003793  -0.002548  -0.002401  -0.043057
    16  H   -0.041533   0.003817  -0.000116  -0.000038  -0.000039  -0.002606
    17  H   -0.044336  -0.001673  -0.000037  -0.000445   0.002905  -0.000978
    18  H   -0.044203  -0.001465  -0.000060   0.002750  -0.000541  -0.000932
    19  C    4.914848   0.348133  -0.038656  -0.042986  -0.044356   0.706835
    20  C    0.348133   4.908810   0.406639   0.402313   0.399754  -0.041925
    21  H   -0.038656   0.406639   0.572202  -0.027267  -0.027504  -0.002185
    22  H   -0.042986   0.402313  -0.027267   0.584173  -0.036037  -0.000304
    23  H   -0.044356   0.399754  -0.027504  -0.036037   0.590448  -0.000404
    24  C    0.706835  -0.041925  -0.002185  -0.000304  -0.000404   4.936585
    25  H   -0.035284   0.003582   0.000045  -0.000121  -0.000119   0.401323
    26  C   -0.045525  -0.008955  -0.002421   0.000196   0.000364   0.339183
    27  H   -0.001558   0.000346  -0.000054   0.000067  -0.000030  -0.042449
    28  H    0.001128  -0.002780  -0.001146  -0.000119   0.000064  -0.049599
              25         26         27         28
     1  C   -0.002138   0.330681  -0.046375  -0.036240
     2  H    0.002013  -0.039091  -0.004349   0.004398
     3  H   -0.000013  -0.050140  -0.001998  -0.003774
     4  C   -0.000004  -0.068698   0.005474  -0.004486
     5  C    0.000059  -0.000592  -0.000167   0.000617
     6  H    0.000001   0.000057   0.000001   0.000024
     7  H    0.000003  -0.002177  -0.000024   0.000520
     8  H   -0.000060   0.001384   0.000125  -0.002650
     9  C    0.000649  -0.004264   0.000002   0.000126
    10  H    0.000128   0.000201  -0.000011  -0.000006
    11  C   -0.000004  -0.000081   0.000002   0.000004
    12  H    0.000001  -0.000004   0.000000  -0.000001
    13  H   -0.000004   0.000022  -0.000000  -0.000000
    14  H    0.000000  -0.000005   0.000000   0.000000
    15  C   -0.007311   0.003189  -0.000112   0.000090
    16  H    0.002400   0.000144  -0.000006   0.000006
    17  H    0.000187  -0.000083  -0.000004   0.000004
    18  H    0.000208  -0.000122   0.000019  -0.000005
    19  C   -0.035284  -0.045525  -0.001558   0.001128
    20  C    0.003582  -0.008955   0.000346  -0.002780
    21  H    0.000045  -0.002421  -0.000054  -0.001146
    22  H   -0.000121   0.000196   0.000067  -0.000119
    23  H   -0.000119   0.000364  -0.000030   0.000064
    24  C    0.401323   0.339183  -0.042449  -0.049599
    25  H    0.559806  -0.044500  -0.000252   0.003540
    26  C   -0.044500   5.008364   0.414518   0.414475
    27  H   -0.000252   0.414518   0.582417  -0.029138
    28  H    0.003540   0.414475  -0.029138   0.591426
 Mulliken charges:
               1
     1  C   -0.234461
     2  H    0.113111
     3  H    0.115124
     4  C    0.042066
     5  C   -0.354003
     6  H    0.118860
     7  H    0.113553
     8  H    0.131032
     9  C   -0.157674
    10  H    0.112862
    11  C   -0.352862
    12  H    0.115002
    13  H    0.120209
    14  H    0.118616
    15  C   -0.341269
    16  H    0.118838
    17  H    0.115217
    18  H    0.114001
    19  C    0.014263
    20  C   -0.349265
    21  H    0.117073
    22  H    0.120307
    23  H    0.118190
    24  C   -0.135621
    25  H    0.115867
    26  C   -0.246118
    27  H    0.123559
    28  H    0.113524
 Sum of Mulliken charges =  -0.00000
 Mulliken charges with hydrogens summed into heavy atoms:
               1
     1  C   -0.006226
     4  C    0.042066
     5  C    0.009442
     9  C   -0.044812
    11  C    0.000965
    15  C    0.006786
    19  C    0.014263
    20  C    0.006305
    24  C   -0.019754
    26  C   -0.009035
 Electronic spatial extent (au):  <R**2>=           2006.5987
 Charge=              0.0000 electrons
 Dipole moment (field-independent basis, Debye):
    X=              0.2427    Y=              0.0019    Z=              0.2998  Tot=              0.3857
 Quadrupole moment (field-independent basis, Debye-Ang):
   XX=            -66.5752   YY=            -64.4943   ZZ=            -63.8504
   XY=             -0.0596   XZ=              0.9359   YZ=             -0.3703
 Traceless Quadrupole moment (field-independent basis, Debye-Ang):
   XX=             -1.6019   YY=              0.4790   ZZ=              1.1229
   XY=             -0.0596   XZ=              0.9359   YZ=             -0.3703
 Octapole moment (field-independent basis, Debye-Ang**2):
  XXX=              6.6399  YYY=             -1.9221  ZZZ=             -2.9788  XYY=             -0.9001
  XXY=              6.5151  XXZ=              3.6139  XZZ=             -2.6885  YZZ=              1.2724
  YYZ=              0.7173  XYZ=              0.1410
 Hexadecapole moment (field-independent basis, Debye-Ang**3):
 XXXX=          -1717.3318 YYYY=           -662.0033 ZZZZ=           -419.0286 XXXY=             -7.4705
 XXXZ=              9.3149 YYYX=              1.5830 YYYZ=             -1.3773 ZZZX=              0.6611
 ZZZY=              1.2662 XXYY=           -400.9244 XXZZ=           -358.3975 YYZZ=           -178.1711
 XXYZ=             -3.6081 YYXZ=              0.1617 ZZXY=             -0.8725
 N-N= 5.330878851642D+02 E-N=-1.970992057984D+03  KE= 3.887499008717D+02
 No NMR shielding tensors so no spin-rotation constants.
 Leave Link  601 at Fri Sep 17 21:29:45 2021, MaxMem=   524288000 cpu:               0.2 elap:               0.4
 (Enter /opt/gaussian/g16_legacy/l9999.exe)
 1\1\GINC-TRUENO92\FOpt\RMP2-FC\6-31G(d,p)\C10H18\JRAMOS\17-Sep-2021\0\
 \#p opt mp2/6-31g(d,p)\\Conformer number 003. Energy MM = 26.148 kcal/
 mol\\0,1\C,2.0793618571,1.1053010771,-9.1419212532\H,1.9911620892,0.06
 23170795,-9.4567720462\H,1.9830221881,1.7203735405,-10.0435503471\C,3.
 4307155826,1.3270526641,-8.5137264342\C,3.694905634,2.7315068709,-8.04
 42429902\H,4.7447448733,2.9122735713,-7.8276029824\H,3.3827833436,3.44
 9330822,-8.8056217917\H,3.1235586467,2.9487984897,-7.139842215\C,4.292
 1739508,0.3012529633,-8.3807442554\H,3.9702471719,-0.6661115893,-8.756
 7878675\C,5.6581929844,0.3188576847,-7.7654817993\H,5.9394115557,1.301
 4817436,-7.3955592323\H,5.7076775701,-0.3768261339,-6.9258021443\H,6.4
 134223521,0.0007838589,-8.4865724857\C,1.1329477547,0.1880131693,-4.48
 5009197\H,1.2610681967,-0.8413766126,-4.8160935525\H,1.9945865156,0.45
 95030846,-3.8707723718\H,0.2549408667,0.2333565699,-3.8365749496\C,0.9
 899503605,1.1294358095,-5.6496414494\C,0.808031966,2.5712632375,-5.262
 8793887\H,0.7057599361,3.2347172544,-6.1175814143\H,-0.0835597655,2.68
 49197534,-4.642088269\H,1.6544834456,2.9141603317,-4.6635736299\C,1.02
 10509765,0.6651968489,-6.9129000717\H,1.1518041153,-0.4068762667,-7.04
 41926047\C,0.9172667052,1.4417039252,-8.1899812389\H,-0.0237903559,1.2
 042812001,-8.696967884\H,0.9003794829,2.5146090524,-7.9994161341\\Vers
 ion=EM64L-G16RevA.03\State=1-A\HF=-389.1554125\MP2=-390.5745037\RMSD=8
 .240e-09\RMSF=3.000e-06\Dipole=-0.0062818,0.0919367,0.0999372\PG=C01 [
 X(C10H18)]\\@


  THE LARGE PRINT GIVETH,
  AND THE SMALL PRINT TAKETH AWAY.

                     -- TOM WAITS
 Job cpu time:       0 days  1 hours 20 minutes 14.0 seconds.
 Elapsed time:       0 days  1 hours 20 minutes 17.3 seconds.
 File lengths (MBytes):  RWF=     32 Int=      0 D2E=      0 Chk=      7 Scr=      1
 Normal termination of Gaussian 16 at Fri Sep 17 21:29:45 2021.
