 Entering Gaussian System, Link 0=/opt/gaussian/g16_legacy/g16
 Input=02-IsoP_035_gaussian.com
 Output=02-IsoP_035_gaussian.log
 Initial command:
 /opt/gaussian/g16_legacy/l1.exe "/scratch-local/jramos/2661525/Gau-12063.inp" -scrdir="/scratch-local/jramos/2661525/"
 Entering Link 1 = /opt/gaussian/g16_legacy/l1.exe PID=     12076.
  
 Copyright (c) 1988,1990,1992,1993,1995,1998,2003,2009,2016,
            Gaussian, Inc.  All Rights Reserved.
  
 This is part of the Gaussian(R) 16 program.  It is based on
 the Gaussian(R) 09 system (copyright 2009, Gaussian, Inc.),
 the Gaussian(R) 03 system (copyright 2003, Gaussian, Inc.),
 the Gaussian(R) 98 system (copyright 1998, Gaussian, Inc.),
 the Gaussian(R) 94 system (copyright 1995, Gaussian, Inc.),
 the Gaussian 92(TM) system (copyright 1992, Gaussian, Inc.),
 the Gaussian 90(TM) system (copyright 1990, Gaussian, Inc.),
 the Gaussian 88(TM) system (copyright 1988, Gaussian, Inc.),
 the Gaussian 86(TM) system (copyright 1986, Carnegie Mellon
 University), and the Gaussian 82(TM) system (copyright 1983,
 Carnegie Mellon University). Gaussian is a federally registered
 trademark of Gaussian, Inc.
  
 This software contains proprietary and confidential information,
 including trade secrets, belonging to Gaussian, Inc.
  
 This software is provided under written license and may be
 used, copied, transmitted, or stored only in accord with that
 written license.
  
 The following legend is applicable only to US Government
 contracts under FAR:
  
                    RESTRICTED RIGHTS LEGEND
  
 Use, reproduction and disclosure by the US Government is
 subject to restrictions as set forth in subparagraphs (a)
 and (c) of the Commercial Computer Software - Restricted
 Rights clause in FAR 52.227-19.
  
 Gaussian, Inc.
 340 Quinnipiac St., Bldg. 40, Wallingford CT 06492
  
  
 ---------------------------------------------------------------
 Warning -- This program may not be used in any manner that
 competes with the business of Gaussian, Inc. or will provide
 assistance to any competitor of Gaussian, Inc.  The licensee
 of this program is prohibited from giving any competitor of
 Gaussian, Inc. access to this program.  By using this program,
 the user acknowledges that Gaussian, Inc. is engaged in the
 business of creating and licensing software in the field of
 computational chemistry and represents and warrants to the
 licensee that it is not a competitor of Gaussian, Inc. and that
 it will not use this program in any manner prohibited above.
 ---------------------------------------------------------------
  

 Cite this work as:
 Gaussian 16, Revision A.03,
 M. J. Frisch, G. W. Trucks, H. B. Schlegel, G. E. Scuseria, 
 M. A. Robb, J. R. Cheeseman, G. Scalmani, V. Barone, 
 G. A. Petersson, H. Nakatsuji, X. Li, M. Caricato, A. V. Marenich, 
 J. Bloino, B. G. Janesko, R. Gomperts, B. Mennucci, H. P. Hratchian, 
 J. V. Ortiz, A. F. Izmaylov, J. L. Sonnenberg, D. Williams-Young, 
 F. Ding, F. Lipparini, F. Egidi, J. Goings, B. Peng, A. Petrone, 
 T. Henderson, D. Ranasinghe, V. G. Zakrzewski, J. Gao, N. Rega, 
 G. Zheng, W. Liang, M. Hada, M. Ehara, K. Toyota, R. Fukuda, 
 J. Hasegawa, M. Ishida, T. Nakajima, Y. Honda, O. Kitao, H. Nakai, 
 T. Vreven, K. Throssell, J. A. Montgomery, Jr., J. E. Peralta, 
 F. Ogliaro, M. J. Bearpark, J. J. Heyd, E. N. Brothers, K. N. Kudin, 
 V. N. Staroverov, T. A. Keith, R. Kobayashi, J. Normand, 
 K. Raghavachari, A. P. Rendell, J. C. Burant, S. S. Iyengar, 
 J. Tomasi, M. Cossi, J. M. Millam, M. Klene, C. Adamo, R. Cammi, 
 J. W. Ochterski, R. L. Martin, K. Morokuma, O. Farkas, 
 J. B. Foresman, and D. J. Fox, Gaussian, Inc., Wallingford CT, 2016.
 
 ******************************************
 Gaussian 16:  EM64L-G16RevA.03 25-Dec-2016
                17-Sep-2021 
 ******************************************
 %chk=02-IsoP_035_gaussian.chk
 %nproc=1
 Will use up to    1 processors via shared memory.
 %mem=4000Mb
 ---------------------
 #p opt mp2/6-31g(d,p)
 ---------------------
 1/18=20,19=15,38=1/1,3;
 2/9=110,12=2,17=6,18=5,40=1/2;
 3/5=1,6=6,7=101,11=9,25=1,30=1,71=1/1,2,3;
 4//1;
 5/5=2,38=5/2;
 8/6=4,10=2/1;
 9/15=2,16=-3/6;
 10/5=1/2;
 6/7=2,8=2,9=2,10=2/1;
 7/12=2/1,2,3,16;
 1/18=20,19=15/3(2);
 2/9=110/2;
 99//99;
 2/9=110/2;
 3/5=1,6=6,7=101,11=9,25=1,30=1,71=1/1,2,3;
 4/5=5,16=3,69=1/1;
 5/5=2,38=5/2;
 8/6=4,10=2/1;
 9/15=2,16=-3/6;
 10/5=1/2;
 7/12=2/1,2,3,16;
 1/18=20,19=15/3(-8);
 2/9=110/2;
 6/7=2,8=2,9=2,10=2/1;
 99//99;
 Leave Link    1 at Fri Sep 17 20:09:28 2021, MaxMem=   524288000 cpu:               0.0 elap:               0.3
 (Enter /opt/gaussian/g16_legacy/l101.exe)
 -------------------------------------------------
 Conformer number 035. Energy MM = 30.724 kcal/mol
 -------------------------------------------------
 Symbolic Z-matrix:
 Charge =  0 Multiplicity = 1
 C                     2.2641    1.2974   -8.924 
 H                     2.0567    0.2931   -9.3194 
 H                     2.0986    1.9979   -9.753 
 C                     3.7394    1.3787   -8.5537 
 C                     4.1433    2.0516   -7.2692 
 H                     5.1288    2.5211   -7.3425 
 H                     3.455     2.8557   -6.9981 
 H                     4.1723    1.324    -6.453 
 C                     4.6399    0.8552   -9.4143 
 H                     4.2748    0.4118   -10.3398 
 C                     6.1255    0.7851   -9.2531 
 H                     6.4676    1.0574   -8.2526 
 H                     6.4643   -0.2386   -9.4436 
 H                     6.611     1.4454   -9.9792 
 C                     0.4817   -0.2053   -4.4675 
 H                     1.4674   -0.6826   -4.4539 
 H                     0.3999    0.4048   -3.5614 
 H                    -0.2752   -0.9951   -4.4269 
 C                     0.2801    0.6513   -5.6875 
 C                    -1.0087    1.4249   -5.7138 
 H                    -1.2994    1.7292   -6.7223 
 H                    -1.8285    0.8115   -5.3227 
 H                    -0.9252    2.322    -5.0916 
 C                     1.2222    0.7106   -6.6502 
 H                     2.1155    0.0998   -6.5318 
 C                     1.1919    1.6074   -7.8588 
 H                     0.2171    1.5168   -8.3528 
 H                     1.2906    2.6507   -7.5379 
 
 ITRead=  0  0  0  0  0  0  0  0  0  0  0  0  0  0  0  0  0  0  0  0
 ITRead=  0  0  0  0  0  0  0  0
 MicOpt= -1 -1 -1 -1 -1 -1 -1 -1 -1 -1 -1 -1 -1 -1 -1 -1 -1 -1 -1 -1
 MicOpt= -1 -1 -1 -1 -1 -1 -1 -1
 NAtoms=     28 NQM=       28 NQMF=       0 NMMI=      0 NMMIF=      0
                NMic=       0 NMicF=      0.
                    Isotopes and Nuclear Properties:
 (Nuclear quadrupole moments (NQMom) in fm**2, nuclear magnetic moments (NMagM)
  in nuclear magnetons)

  Atom         1           2           3           4           5           6           7           8           9          10
 IAtWgt=          12           1           1          12          12           1           1           1          12           1
 AtmWgt=  12.0000000   1.0078250   1.0078250  12.0000000  12.0000000   1.0078250   1.0078250   1.0078250  12.0000000   1.0078250
 NucSpn=           0           1           1           0           0           1           1           1           0           1
 AtZEff=  -0.0000000  -0.0000000  -0.0000000  -0.0000000  -0.0000000  -0.0000000  -0.0000000  -0.0000000  -0.0000000  -0.0000000
 NQMom=    0.0000000   0.0000000   0.0000000   0.0000000   0.0000000   0.0000000   0.0000000   0.0000000   0.0000000   0.0000000
 NMagM=    0.0000000   2.7928460   2.7928460   0.0000000   0.0000000   2.7928460   2.7928460   2.7928460   0.0000000   2.7928460
 AtZNuc=   6.0000000   1.0000000   1.0000000   6.0000000   6.0000000   1.0000000   1.0000000   1.0000000   6.0000000   1.0000000

  Atom        11          12          13          14          15          16          17          18          19          20
 IAtWgt=          12           1           1           1          12           1           1           1          12          12
 AtmWgt=  12.0000000   1.0078250   1.0078250   1.0078250  12.0000000   1.0078250   1.0078250   1.0078250  12.0000000  12.0000000
 NucSpn=           0           1           1           1           0           1           1           1           0           0
 AtZEff=  -0.0000000  -0.0000000  -0.0000000  -0.0000000  -0.0000000  -0.0000000  -0.0000000  -0.0000000  -0.0000000  -0.0000000
 NQMom=    0.0000000   0.0000000   0.0000000   0.0000000   0.0000000   0.0000000   0.0000000   0.0000000   0.0000000   0.0000000
 NMagM=    0.0000000   2.7928460   2.7928460   2.7928460   0.0000000   2.7928460   2.7928460   2.7928460   0.0000000   0.0000000
 AtZNuc=   6.0000000   1.0000000   1.0000000   1.0000000   6.0000000   1.0000000   1.0000000   1.0000000   6.0000000   6.0000000

  Atom        21          22          23          24          25          26          27          28
 IAtWgt=           1           1           1          12           1          12           1           1
 AtmWgt=   1.0078250   1.0078250   1.0078250  12.0000000   1.0078250  12.0000000   1.0078250   1.0078250
 NucSpn=           1           1           1           0           1           0           1           1
 AtZEff=  -0.0000000  -0.0000000  -0.0000000  -0.0000000  -0.0000000  -0.0000000  -0.0000000  -0.0000000
 NQMom=    0.0000000   0.0000000   0.0000000   0.0000000   0.0000000   0.0000000   0.0000000   0.0000000
 NMagM=    2.7928460   2.7928460   2.7928460   0.0000000   2.7928460   0.0000000   2.7928460   2.7928460
 AtZNuc=   1.0000000   1.0000000   1.0000000   6.0000000   1.0000000   6.0000000   1.0000000   1.0000000
 Leave Link  101 at Fri Sep 17 20:09:28 2021, MaxMem=   524288000 cpu:               0.3 elap:               0.4
 (Enter /opt/gaussian/g16_legacy/l103.exe)

 GradGradGradGradGradGradGradGradGradGradGradGradGradGradGradGradGradGrad
 Berny optimization.
 Initialization pass.
                           ----------------------------
                           !    Initial Parameters    !
                           ! (Angstroms and Degrees)  !
 --------------------------                            --------------------------
 ! Name  Definition              Value          Derivative Info.                !
 --------------------------------------------------------------------------------
 ! R1    R(1,2)                  1.0991         estimate D2E/DX2                !
 ! R2    R(1,3)                  1.0979         estimate D2E/DX2                !
 ! R3    R(1,4)                  1.5232         estimate D2E/DX2                !
 ! R4    R(1,26)                 1.5428         estimate D2E/DX2                !
 ! R5    R(4,5)                  1.5053         estimate D2E/DX2                !
 ! R6    R(4,9)                  1.3511         estimate D2E/DX2                !
 ! R7    R(5,6)                  1.0941         estimate D2E/DX2                !
 ! R8    R(5,7)                  1.0926         estimate D2E/DX2                !
 ! R9    R(5,8)                  1.0938         estimate D2E/DX2                !
 ! R10   R(9,10)                 1.0892         estimate D2E/DX2                !
 ! R11   R(9,11)                 1.496          estimate D2E/DX2                !
 ! R12   R(11,12)                1.0919         estimate D2E/DX2                !
 ! R13   R(11,13)                1.095          estimate D2E/DX2                !
 ! R14   R(11,14)                1.095          estimate D2E/DX2                !
 ! R15   R(15,16)                1.0953         estimate D2E/DX2                !
 ! R16   R(15,17)                1.0954         estimate D2E/DX2                !
 ! R17   R(15,18)                1.0947         estimate D2E/DX2                !
 ! R18   R(15,19)                1.5043         estimate D2E/DX2                !
 ! R19   R(19,20)                1.5034         estimate D2E/DX2                !
 ! R20   R(19,24)                1.3483         estimate D2E/DX2                !
 ! R21   R(20,21)                1.0928         estimate D2E/DX2                !
 ! R22   R(20,22)                1.096          estimate D2E/DX2                !
 ! R23   R(20,23)                1.0949         estimate D2E/DX2                !
 ! R24   R(24,25)                1.0886         estimate D2E/DX2                !
 ! R25   R(24,26)                1.5053         estimate D2E/DX2                !
 ! R26   R(26,27)                1.0966         estimate D2E/DX2                !
 ! R27   R(26,28)                1.096          estimate D2E/DX2                !
 ! A1    A(2,1,3)              106.4353         estimate D2E/DX2                !
 ! A2    A(2,1,4)              108.602          estimate D2E/DX2                !
 ! A3    A(2,1,26)             107.5082         estimate D2E/DX2                !
 ! A4    A(3,1,4)              107.1882         estimate D2E/DX2                !
 ! A5    A(3,1,26)             106.7601         estimate D2E/DX2                !
 ! A6    A(4,1,26)             119.6379         estimate D2E/DX2                !
 ! A7    A(1,4,5)              119.4184         estimate D2E/DX2                !
 ! A8    A(1,4,9)              118.033          estimate D2E/DX2                !
 ! A9    A(5,4,9)              122.5403         estimate D2E/DX2                !
 ! A10   A(4,5,6)              112.108          estimate D2E/DX2                !
 ! A11   A(4,5,7)              111.8192         estimate D2E/DX2                !
 ! A12   A(4,5,8)              110.2737         estimate D2E/DX2                !
 ! A13   A(6,5,7)              105.5599         estimate D2E/DX2                !
 ! A14   A(6,5,8)              108.1536         estimate D2E/DX2                !
 ! A15   A(7,5,8)              108.7293         estimate D2E/DX2                !
 ! A16   A(4,9,10)             118.3932         estimate D2E/DX2                !
 ! A17   A(4,9,11)             127.6891         estimate D2E/DX2                !
 ! A18   A(10,9,11)            113.9129         estimate D2E/DX2                !
 ! A19   A(9,11,12)            113.4656         estimate D2E/DX2                !
 ! A20   A(9,11,13)            109.4098         estimate D2E/DX2                !
 ! A21   A(9,11,14)            109.9141         estimate D2E/DX2                !
 ! A22   A(12,11,13)           107.1948         estimate D2E/DX2                !
 ! A23   A(12,11,14)           108.5617         estimate D2E/DX2                !
 ! A24   A(13,11,14)           108.1324         estimate D2E/DX2                !
 ! A25   A(16,15,17)           107.4365         estimate D2E/DX2                !
 ! A26   A(16,15,18)           107.9021         estimate D2E/DX2                !
 ! A27   A(16,15,19)           112.2619         estimate D2E/DX2                !
 ! A28   A(17,15,18)           108.6343         estimate D2E/DX2                !
 ! A29   A(17,15,19)           110.1022         estimate D2E/DX2                !
 ! A30   A(18,15,19)           110.3812         estimate D2E/DX2                !
 ! A31   A(15,19,20)           114.9673         estimate D2E/DX2                !
 ! A32   A(15,19,24)           120.6966         estimate D2E/DX2                !
 ! A33   A(20,19,24)           124.325          estimate D2E/DX2                !
 ! A34   A(19,20,21)           112.798          estimate D2E/DX2                !
 ! A35   A(19,20,22)           110.303          estimate D2E/DX2                !
 ! A36   A(19,20,23)           110.26           estimate D2E/DX2                !
 ! A37   A(21,20,22)           106.6294         estimate D2E/DX2                !
 ! A38   A(21,20,23)           108.455          estimate D2E/DX2                !
 ! A39   A(22,20,23)           108.2282         estimate D2E/DX2                !
 ! A40   A(19,24,25)           118.1019         estimate D2E/DX2                !
 ! A41   A(19,24,26)           125.8333         estimate D2E/DX2                !
 ! A42   A(25,24,26)           115.9838         estimate D2E/DX2                !
 ! A43   A(1,26,24)            114.8751         estimate D2E/DX2                !
 ! A44   A(1,26,27)            106.8668         estimate D2E/DX2                !
 ! A45   A(1,26,28)            109.3194         estimate D2E/DX2                !
 ! A46   A(24,26,27)           109.2915         estimate D2E/DX2                !
 ! A47   A(24,26,28)           109.2826         estimate D2E/DX2                !
 ! A48   A(27,26,28)           106.8942         estimate D2E/DX2                !
 ! D1    D(2,1,4,5)           -137.5779         estimate D2E/DX2                !
 ! D2    D(2,1,4,9)             43.4488         estimate D2E/DX2                !
 ! D3    D(3,1,4,5)            107.8023         estimate D2E/DX2                !
 ! D4    D(3,1,4,9)            -71.1711         estimate D2E/DX2                !
 ! D5    D(26,1,4,5)           -13.7498         estimate D2E/DX2                !
 ! D6    D(26,1,4,9)           167.2768         estimate D2E/DX2                !
 ! D7    D(2,1,26,24)           64.0728         estimate D2E/DX2                !
 ! D8    D(2,1,26,27)          -57.3335         estimate D2E/DX2                !
 ! D9    D(2,1,26,28)         -172.6793         estimate D2E/DX2                !
 ! D10   D(3,1,26,24)          177.9539         estimate D2E/DX2                !
 ! D11   D(3,1,26,27)           56.5475         estimate D2E/DX2                !
 ! D12   D(3,1,26,28)          -58.7983         estimate D2E/DX2                !
 ! D13   D(4,1,26,24)          -60.2821         estimate D2E/DX2                !
 ! D14   D(4,1,26,27)          178.3116         estimate D2E/DX2                !
 ! D15   D(4,1,26,28)           62.9658         estimate D2E/DX2                !
 ! D16   D(1,4,5,6)           -149.3357         estimate D2E/DX2                !
 ! D17   D(1,4,5,7)            -31.0083         estimate D2E/DX2                !
 ! D18   D(1,4,5,8)             90.0967         estimate D2E/DX2                !
 ! D19   D(9,4,5,6)             29.5893         estimate D2E/DX2                !
 ! D20   D(9,4,5,7)            147.9167         estimate D2E/DX2                !
 ! D21   D(9,4,5,8)            -90.9783         estimate D2E/DX2                !
 ! D22   D(1,4,9,10)             0.8721         estimate D2E/DX2                !
 ! D23   D(1,4,9,11)          -178.2778         estimate D2E/DX2                !
 ! D24   D(5,4,9,10)          -178.0671         estimate D2E/DX2                !
 ! D25   D(5,4,9,11)             2.783          estimate D2E/DX2                !
 ! D26   D(4,9,11,12)            9.9849         estimate D2E/DX2                !
 ! D27   D(4,9,11,13)          129.6314         estimate D2E/DX2                !
 ! D28   D(4,9,11,14)         -111.7747         estimate D2E/DX2                !
 ! D29   D(10,9,11,12)        -169.197          estimate D2E/DX2                !
 ! D30   D(10,9,11,13)         -49.5505         estimate D2E/DX2                !
 ! D31   D(10,9,11,14)          69.0434         estimate D2E/DX2                !
 ! D32   D(16,15,19,20)       -175.2236         estimate D2E/DX2                !
 ! D33   D(16,15,19,24)          3.6149         estimate D2E/DX2                !
 ! D34   D(17,15,19,20)        -55.5798         estimate D2E/DX2                !
 ! D35   D(17,15,19,24)        123.2587         estimate D2E/DX2                !
 ! D36   D(18,15,19,20)         64.351          estimate D2E/DX2                !
 ! D37   D(18,15,19,24)       -116.8105         estimate D2E/DX2                !
 ! D38   D(15,19,20,21)       -158.7949         estimate D2E/DX2                !
 ! D39   D(15,19,20,22)        -39.6839         estimate D2E/DX2                !
 ! D40   D(15,19,20,23)         79.7937         estimate D2E/DX2                !
 ! D41   D(24,19,20,21)         22.4145         estimate D2E/DX2                !
 ! D42   D(24,19,20,22)        141.5254         estimate D2E/DX2                !
 ! D43   D(24,19,20,23)        -98.997          estimate D2E/DX2                !
 ! D44   D(15,19,24,25)          1.7649         estimate D2E/DX2                !
 ! D45   D(15,19,24,26)       -174.8184         estimate D2E/DX2                !
 ! D46   D(20,19,24,25)       -179.5101         estimate D2E/DX2                !
 ! D47   D(20,19,24,26)          3.9065         estimate D2E/DX2                !
 ! D48   D(19,24,26,1)        -169.6177         estimate D2E/DX2                !
 ! D49   D(19,24,26,27)        -49.5424         estimate D2E/DX2                !
 ! D50   D(19,24,26,28)         67.1148         estimate D2E/DX2                !
 ! D51   D(25,24,26,1)          13.7351         estimate D2E/DX2                !
 ! D52   D(25,24,26,27)        133.8103         estimate D2E/DX2                !
 ! D53   D(25,24,26,28)       -109.5325         estimate D2E/DX2                !
 --------------------------------------------------------------------------------
 Trust Radius=3.00D-01 FncErr=1.00D-07 GrdErr=1.00D-07 EigMax=2.50D+02 EigMin=1.00D-04
 Number of steps in this run=    138 maximum allowed number of steps=    168.
 GradGradGradGradGradGradGradGradGradGradGradGradGradGradGradGradGradGrad

 Leave Link  103 at Fri Sep 17 20:09:28 2021, MaxMem=   524288000 cpu:               0.1 elap:               0.1
 (Enter /opt/gaussian/g16_legacy/l202.exe)
                          Input orientation:                          
 ---------------------------------------------------------------------
 Center     Atomic      Atomic             Coordinates (Angstroms)
 Number     Number       Type             X           Y           Z
 ---------------------------------------------------------------------
      1          6           0        2.264100    1.297400   -8.924000
      2          1           0        2.056700    0.293100   -9.319400
      3          1           0        2.098600    1.997900   -9.753000
      4          6           0        3.739400    1.378700   -8.553700
      5          6           0        4.143300    2.051600   -7.269200
      6          1           0        5.128800    2.521100   -7.342500
      7          1           0        3.455000    2.855700   -6.998100
      8          1           0        4.172300    1.324000   -6.453000
      9          6           0        4.639900    0.855200   -9.414300
     10          1           0        4.274800    0.411800  -10.339800
     11          6           0        6.125500    0.785100   -9.253100
     12          1           0        6.467600    1.057400   -8.252600
     13          1           0        6.464300   -0.238600   -9.443600
     14          1           0        6.611000    1.445400   -9.979200
     15          6           0        0.481700   -0.205300   -4.467500
     16          1           0        1.467400   -0.682600   -4.453900
     17          1           0        0.399900    0.404800   -3.561400
     18          1           0       -0.275200   -0.995100   -4.426900
     19          6           0        0.280100    0.651300   -5.687500
     20          6           0       -1.008700    1.424900   -5.713800
     21          1           0       -1.299400    1.729200   -6.722300
     22          1           0       -1.828500    0.811500   -5.322700
     23          1           0       -0.925200    2.322000   -5.091600
     24          6           0        1.222200    0.710600   -6.650200
     25          1           0        2.115500    0.099800   -6.531800
     26          6           0        1.191900    1.607400   -7.858800
     27          1           0        0.217100    1.516800   -8.352800
     28          1           0        1.290600    2.650700   -7.537900
 ---------------------------------------------------------------------
                    Distance matrix (angstroms):
                    1          2          3          4          5
     1  C    0.000000
     2  H    1.099079   0.000000
     3  H    1.097876   1.759576   0.000000
     4  C    1.523234   2.143899   2.124607   0.000000
     5  C    2.615067   3.413143   3.217599   1.505281   0.000000
     6  H    3.493578   4.279009   3.907219   2.168528   1.094081
     7  H    2.748751   3.729691   3.188278   2.163863   1.092625
     8  H    3.122143   3.708742   3.955297   2.145538   1.093812
     9  C    2.465839   2.645352   2.806900   1.351142   2.505881
    10  H    2.613750   2.444437   2.756065   2.100405   3.483507
    11  C    3.909113   4.098975   4.235175   2.556364   3.077174
    12  H    4.263542   4.601984   4.714223   2.763507   2.712541
    13  H    4.502328   4.441291   4.914977   3.291301   3.919193
    14  H    4.475588   4.743920   4.551722   3.206647   3.714986
    15  C    5.029458   5.125423   5.950207   5.460650   5.133267
    16  H    4.953476   4.997235   5.971931   5.120479   4.749969
    17  H    5.747126   5.992664   6.615093   6.084719   5.520215
    18  H    5.650443   5.570796   6.554412   6.227553   6.073236
    19  C    3.850796   4.058979   4.652802   4.550931   4.403059
    20  C    4.586160   4.866004   5.128234   5.532777   5.418037
    21  H    4.210994   4.480036   4.561112   5.372744   5.479601
    22  H    5.473101   5.597958   6.037981   6.462398   6.402273
    23  H    5.090062   5.557199   5.565704   5.885104   5.523111
    24  C    2.569057   2.827601   3.471683   3.225828   3.273266
    25  H    2.679356   2.794913   3.738877   2.891490   2.909511
    26  C    1.542843   2.146769   2.136022   2.650461   3.042319
    27  H    2.136496   2.411615   2.394172   3.530727   4.107949
    28  H    2.168040   3.052692   2.446565   2.940486   2.927288
                    6          7          8          9         10
     6  H    0.000000
     7  H    1.741314   0.000000
     8  H    1.771765   1.777008   0.000000
     9  C    2.703073   3.353209   3.034423   0.000000
    10  H    3.763279   4.220388   3.993724   1.089244   0.000000
    11  C    2.767219   4.062509   3.456293   1.495964   2.178385
    12  H    2.182449   3.726045   2.928829   2.175068   3.095412
    13  H    3.716736   4.960952   4.079053   2.127367   2.453590
    14  H    3.210332   4.564673   4.289065   2.133702   2.579960
    15  C    6.106916   4.961267   4.461109   6.548749   7.018000
    16  H    5.658052   4.789893   3.916545   6.085651   6.612339
    17  H    6.413886   5.210706   4.841207   7.241333   7.807791
    18  H    7.075846   5.945933   5.409581   7.242650   7.592381
    19  C    5.453904   4.081304   4.023399   5.739205   6.136683
    20  C    6.443852   4.860168   5.234440   6.776794   7.095183
    21  H    6.506421   4.893811   5.493288   6.579212   6.774478
    22  H    7.443544   5.907715   6.127792   7.653973   7.910836
    23  H    6.461974   4.806842   5.369723   7.197748   7.631020
    24  C    4.361045   3.115748   3.019642   4.397935   4.797999
    25  H    3.949672   3.099465   2.394849   3.905385   4.388711
    26  C    4.074383   2.724092   3.307472   3.856694   4.133896
    27  H    5.114110   3.756576   4.392040   4.596266   4.651250
    28  H    3.845355   2.240097   3.352810   4.238220   4.665701
                   11         12         13         14         15
    11  C    0.000000
    12  H    1.091870   0.000000
    13  H    1.095006   1.760144   0.000000
    14  H    1.094956   1.775459   1.773202   0.000000
    15  C    7.465610   7.193914   7.781657   8.406662   0.000000
    16  H    6.847215   6.516112   7.075539   7.843083   1.095265
    17  H    8.082238   7.697417   8.472968   8.991594   1.095413
    18  H    8.211594   8.019607   8.435664   9.176264   1.094683
    19  C    6.848365   6.710426   7.290030   7.689576   1.504263
    20  C    7.989543   7.904152   8.516124   8.732347   2.536160
    21  H    7.900975   7.944773   8.458886   8.559344   3.463918
    22  H    8.872139   8.801708   9.319606   9.659709   2.665009
    23  H    8.330217   8.139080   8.949932   9.025041   2.959073
    24  C    5.551846   5.495651   6.015287   6.376624   2.480200
    25  H    4.894406   4.776916   5.244536   5.822777   2.650231
    26  C    5.192365   5.318890   5.806678   5.821425   3.910394
    27  H    6.021222   6.268161   6.580181   6.597896   4.258074
    28  H    5.458812   5.463582   6.224702   5.976567   4.270645
                   16         17         18         19         20
    16  H    0.000000
    17  H    1.765942   0.000000
    18  H    1.770604   1.778924   0.000000
    19  C    2.170424   2.143692   2.146649   0.000000
    20  C    3.487116   2.767234   2.837346   1.503381   0.000000
    21  H    4.314812   3.825303   3.706704   2.174281   1.092784
    22  H    3.721573   2.869381   2.545388   2.145912   1.096034
    23  H    3.893433   2.788020   3.444921   2.144547   1.094940
    24  C    2.612444   3.210977   3.177213   1.348280   2.522694
    25  H    2.312975   3.443775   3.368213   2.094203   3.490794
    26  C    4.112584   4.532235   4.550091   2.541663   3.078469
    27  H    4.647799   4.922141   4.686650   2.803013   2.911246
    28  H    4.544580   4.652952   5.042014   2.905631   3.180677
                   21         22         23         24         25
    21  H    0.000000
    22  H    1.755278   0.000000
    23  H    1.774999   1.775097   0.000000
    24  C    2.720517   3.328544   3.104379   0.000000
    25  H    3.788506   4.186117   4.032146   1.088614   0.000000
    26  C    2.740993   4.023441   3.556707   1.505285   2.210616
    27  H    2.236832   3.723363   3.548045   2.135189   2.987951
    28  H    2.867484   4.244827   3.316956   2.134638   2.863527
                   26         27         28
    26  C    0.000000
    27  H    1.096576   0.000000
    28  H    1.095990   1.761304   0.000000
 Stoichiometry    C10H18
 Framework group  C1[X(C10H18)]
 Deg. of freedom    78
 Full point group                 C1      NOp   1
 Largest Abelian subgroup         C1      NOp   1
 Largest concise Abelian subgroup C1      NOp   1
                         Standard orientation:                         
 ---------------------------------------------------------------------
 Center     Atomic      Atomic             Coordinates (Angstroms)
 Number     Number       Type             X           Y           Z
 ---------------------------------------------------------------------
      1          6           0       -0.874117   -1.294567   -0.349232
      2          1           0       -0.866845   -1.311798   -1.448151
      3          1           0       -1.252506   -2.273084   -0.025723
      4          6           0       -1.879234   -0.247810    0.113675
      5          6           0       -1.522108    0.666275    1.255070
      6          1           0       -2.401289    0.965879    1.833249
      7          1           0       -0.852741    0.181290    1.969609
      8          1           0       -1.037322    1.571502    0.878281
      9          6           0       -3.074976   -0.194704   -0.513194
     10          1           0       -3.274049   -0.909711   -1.310431
     11          6           0       -4.198054    0.760884   -0.261294
     12          1           0       -3.926962    1.585558    0.400976
     13          1           0       -4.521330    1.200835   -1.210490
     14          1           0       -5.049668    0.228787    0.175232
     15          6           0        3.213345    1.633309   -0.474314
     16          1           0        2.441629    2.365081   -0.736172
     17          1           0        3.757838    2.025987    0.391285
     18          1           0        3.906073    1.558088   -1.318588
     19          6           0        2.632781    0.283744   -0.151164
     20          6           0        3.627757   -0.737410    0.325724
     21          1           0        3.274470   -1.763822    0.199848
     22          1           0        4.560422   -0.654617   -0.243988
     23          1           0        3.857628   -0.577314    1.384223
     24          6           0        1.309031    0.057381   -0.270765
     25          1           0        0.680901    0.868625   -0.634656
     26          6           0        0.591914   -1.206081    0.123301
     27          1           0        1.116627   -2.068858   -0.304217
     28          1           0        0.629099   -1.318554    1.212870
 ---------------------------------------------------------------------
 Rotational constants (GHZ):           2.8293840           0.4998512           0.4636615
 Leave Link  202 at Fri Sep 17 20:09:28 2021, MaxMem=   524288000 cpu:               0.0 elap:               0.2
 (Enter /opt/gaussian/g16_legacy/l301.exe)
 Standard basis: 6-31G(d,p) (6D, 7F)
 Ernie: Thresh=  0.10000D-02 Tol=  0.10000D-05 Strict=F.
 There are   240 symmetry adapted cartesian basis functions of A   symmetry.
 There are   240 symmetry adapted basis functions of A   symmetry.
   240 basis functions,   406 primitive gaussians,   240 cartesian basis functions
    39 alpha electrons       39 beta electrons
       nuclear repulsion energy       513.6103447912 Hartrees.
 IExCor=    0 DFT=F Ex=HF Corr=None ExCW=0 ScaHFX=  1.000000
 ScaDFX=  1.000000  1.000000  1.000000  1.000000 ScalE2=  1.000000  1.000000
 IRadAn=      5 IRanWt=     -1 IRanGd=            0 ICorTp=0 IEmpDi=  4
 NAtoms=   28 NActive=   28 NUniq=   28 SFac= 1.00D+00 NAtFMM=   60 NAOKFM=F Big=F
 Integral buffers will be    131072 words long.
 Raffenetti 1 integral format.
 Two-electron integral symmetry is turned on.
 Leave Link  301 at Fri Sep 17 20:09:29 2021, MaxMem=   524288000 cpu:               0.1 elap:               0.3
 (Enter /opt/gaussian/g16_legacy/l302.exe)
 NPDir=0 NMtPBC=     1 NCelOv=     1 NCel=       1 NClECP=     1 NCelD=      1
         NCelK=      1 NCelE2=     1 NClLst=     1 CellRange=     0.0.
 One-electron integrals computed using PRISM.
 One-electron integral symmetry used in STVInt
 NBasis=   240 RedAO= T EigKep=  2.04D-03  NBF=   240
 NBsUse=   240 1.00D-06 EigRej= -1.00D+00 NBFU=   240
 Leave Link  302 at Fri Sep 17 20:09:30 2021, MaxMem=   524288000 cpu:               0.3 elap:               0.7
 (Enter /opt/gaussian/g16_legacy/l303.exe)
 DipDrv:  MaxL=1.
 Leave Link  303 at Fri Sep 17 20:09:30 2021, MaxMem=   524288000 cpu:               0.1 elap:               0.3
 (Enter /opt/gaussian/g16_legacy/l401.exe)
 ExpMin= 1.61D-01 ExpMax= 3.05D+03 ExpMxC= 4.57D+02 IAcc=3 IRadAn=         5 AccDes= 0.00D+00
 Harris functional with IExCor=  205 and IRadAn=       5 diagonalized for initial guess.
 HarFok:  IExCor=  205 AccDes= 0.00D+00 IRadAn=         5 IDoV= 1 UseB2=F ITyADJ=14
 ICtDFT=  3500011 ScaDFX=  1.000000  1.000000  1.000000  1.000000
 FoFCou: FMM=F IPFlag=           0 FMFlag=      100000 FMFlg1=           0
         NFxFlg=           0 DoJE=T BraDBF=F KetDBF=T FulRan=T
         wScrn=  0.000000 ICntrl=       500 IOpCl=  0 I1Cent=   200000004 NGrid=           0
         NMat0=    1 NMatS0=      1 NMatT0=    0 NMatD0=    1 NMtDS0=    0 NMtDT0=    0
 Petite list used in FoFCou.
 Harris En= -390.102594685216    
 JPrj=0 DoOrth=F DoCkMO=F.
 Leave Link  401 at Fri Sep 17 20:09:41 2021, MaxMem=   524288000 cpu:              10.9 elap:              11.5
 (Enter /opt/gaussian/g16_legacy/l502.exe)
 Keep R1 ints in memory in canonical form, NReq=425198025.
 FoFCou: FMM=F IPFlag=           0 FMFlag=           0 FMFlg1=           0
         NFxFlg=           0 DoJE=F BraDBF=F KetDBF=F FulRan=T
         wScrn=  0.000000 ICntrl=       600 IOpCl=  0 I1Cent=           0 NGrid=           0
         NMat0=    1 NMatS0=  28920 NMatT0=    0 NMatD0=    1 NMtDS0=    0 NMtDT0=    0
 Symmetry not used in FoFCou.
 Two-electron integral symmetry not used.
 Closed shell SCF:
 Using DIIS extrapolation, IDIIS=  1040.
 NGot=   524288000 LenX=   105970886 LenY=   105912845
 Requested convergence on RMS density matrix=1.00D-08 within 128 cycles.
 Requested convergence on MAX density matrix=1.00D-06.
 Requested convergence on             energy=1.00D-06.
 No special actions if energy rises.

 Cycle   1  Pass 1  IDiag  1:
 E= -388.522416873583    
 DIIS: error= 4.64D-02 at cycle   1 NSaved=   1.
 NSaved= 1 IEnMin= 1 EnMin= -388.522416873583     IErMin= 1 ErrMin= 4.64D-02
 ErrMax= 4.64D-02  0.00D+00 EMaxC= 1.00D-01 BMatC= 8.08D-01 BMatP= 8.08D-01
 IDIUse=3 WtCom= 5.36D-01 WtEn= 4.64D-01
 Coeff-Com:  0.100D+01
 Coeff-En:   0.100D+01
 Coeff:      0.100D+01
 Gap=     0.505 Goal=   None    Shift=    0.000
 GapD=    0.505 DampG=2.000 DampE=0.500 DampFc=1.0000 IDamp=-1.
 RMSDP=4.04D-03 MaxDP=1.15D-01              OVMax= 1.34D-01

 Cycle   2  Pass 1  IDiag  1:
 E= -389.062395092783     Delta-E=       -0.539978219200 Rises=F Damp=F
 DIIS: error= 1.26D-02 at cycle   2 NSaved=   2.
 NSaved= 2 IEnMin= 2 EnMin= -389.062395092783     IErMin= 2 ErrMin= 1.26D-02
 ErrMax= 1.26D-02  0.00D+00 EMaxC= 1.00D-01 BMatC= 8.72D-02 BMatP= 8.08D-01
 IDIUse=3 WtCom= 8.74D-01 WtEn= 1.26D-01
 Coeff-Com:  0.184D+00 0.816D+00
 Coeff-En:   0.000D+00 0.100D+01
 Coeff:      0.160D+00 0.840D+00
 Gap=     0.560 Goal=   None    Shift=    0.000
 RMSDP=1.64D-03 MaxDP=3.08D-02 DE=-5.40D-01 OVMax= 4.32D-02

 Cycle   3  Pass 1  IDiag  1:
 E= -389.140658210000     Delta-E=       -0.078263117218 Rises=F Damp=F
 DIIS: error= 2.71D-03 at cycle   3 NSaved=   3.
 NSaved= 3 IEnMin= 3 EnMin= -389.140658210000     IErMin= 3 ErrMin= 2.71D-03
 ErrMax= 2.71D-03  0.00D+00 EMaxC= 1.00D-01 BMatC= 2.98D-03 BMatP= 8.72D-02
 IDIUse=3 WtCom= 9.73D-01 WtEn= 2.71D-02
 Coeff-Com: -0.242D-01 0.101D+00 0.923D+00
 Coeff-En:   0.000D+00 0.000D+00 0.100D+01
 Coeff:     -0.236D-01 0.985D-01 0.925D+00
 Gap=     0.495 Goal=   None    Shift=    0.000
 RMSDP=2.59D-04 MaxDP=6.31D-03 DE=-7.83D-02 OVMax= 9.96D-03

 Cycle   4  Pass 1  IDiag  1:
 E= -389.144130159806     Delta-E=       -0.003471949805 Rises=F Damp=F
 DIIS: error= 4.42D-04 at cycle   4 NSaved=   4.
 NSaved= 4 IEnMin= 4 EnMin= -389.144130159806     IErMin= 4 ErrMin= 4.42D-04
 ErrMax= 4.42D-04  0.00D+00 EMaxC= 1.00D-01 BMatC= 8.28D-05 BMatP= 2.98D-03
 IDIUse=3 WtCom= 9.96D-01 WtEn= 4.42D-03
 Coeff-Com: -0.350D-02-0.522D-02 0.686D-01 0.940D+00
 Coeff-En:   0.000D+00 0.000D+00 0.000D+00 0.100D+01
 Coeff:     -0.349D-02-0.520D-02 0.683D-01 0.940D+00
 Gap=     0.494 Goal=   None    Shift=    0.000
 RMSDP=7.83D-05 MaxDP=1.49D-03 DE=-3.47D-03 OVMax= 4.05D-03

 Cycle   5  Pass 1  IDiag  1:
 E= -389.144244537398     Delta-E=       -0.000114377592 Rises=F Damp=F
 DIIS: error= 1.85D-04 at cycle   5 NSaved=   5.
 NSaved= 5 IEnMin= 5 EnMin= -389.144244537398     IErMin= 5 ErrMin= 1.85D-04
 ErrMax= 1.85D-04  0.00D+00 EMaxC= 1.00D-01 BMatC= 1.67D-05 BMatP= 8.28D-05
 IDIUse=3 WtCom= 9.98D-01 WtEn= 1.85D-03
 Coeff-Com:  0.203D-02-0.140D-01-0.911D-01 0.219D+00 0.884D+00
 Coeff-En:   0.000D+00 0.000D+00 0.000D+00 0.000D+00 0.100D+01
 Coeff:      0.203D-02-0.140D-01-0.910D-01 0.219D+00 0.884D+00
 Gap=     0.494 Goal=   None    Shift=    0.000
 RMSDP=2.77D-05 MaxDP=7.26D-04 DE=-1.14D-04 OVMax= 1.03D-03

 Cycle   6  Pass 1  IDiag  1:
 E= -389.144265892229     Delta-E=       -0.000021354831 Rises=F Damp=F
 DIIS: error= 4.96D-05 at cycle   6 NSaved=   6.
 NSaved= 6 IEnMin= 6 EnMin= -389.144265892229     IErMin= 6 ErrMin= 4.96D-05
 ErrMax= 4.96D-05  0.00D+00 EMaxC= 1.00D-01 BMatC= 7.25D-07 BMatP= 1.67D-05
 IDIUse=1 WtCom= 1.00D+00 WtEn= 0.00D+00
 Coeff-Com:  0.693D-03-0.296D-02-0.247D-01-0.171D-01 0.166D+00 0.878D+00
 Coeff:      0.693D-03-0.296D-02-0.247D-01-0.171D-01 0.166D+00 0.878D+00
 Gap=     0.495 Goal=   None    Shift=    0.000
 RMSDP=6.71D-06 MaxDP=1.56D-04 DE=-2.14D-05 OVMax= 4.80D-04

 Cycle   7  Pass 1  IDiag  1:
 E= -389.144267039718     Delta-E=       -0.000001147489 Rises=F Damp=F
 DIIS: error= 1.09D-05 at cycle   7 NSaved=   7.
 NSaved= 7 IEnMin= 7 EnMin= -389.144267039718     IErMin= 7 ErrMin= 1.09D-05
 ErrMax= 1.09D-05  0.00D+00 EMaxC= 1.00D-01 BMatC= 5.24D-08 BMatP= 7.25D-07
 IDIUse=1 WtCom= 1.00D+00 WtEn= 0.00D+00
 Coeff-Com: -0.578D-05 0.235D-03 0.135D-02-0.100D-01-0.326D-01 0.122D+00
 Coeff-Com:  0.919D+00
 Coeff:     -0.578D-05 0.235D-03 0.135D-02-0.100D-01-0.326D-01 0.122D+00
 Coeff:      0.919D+00
 Gap=     0.495 Goal=   None    Shift=    0.000
 RMSDP=1.75D-06 MaxDP=5.00D-05 DE=-1.15D-06 OVMax= 1.35D-04

 Cycle   8  Pass 1  IDiag  1:
 E= -389.144267137952     Delta-E=       -0.000000098233 Rises=F Damp=F
 DIIS: error= 4.35D-06 at cycle   8 NSaved=   8.
 NSaved= 8 IEnMin= 8 EnMin= -389.144267137952     IErMin= 8 ErrMin= 4.35D-06
 ErrMax= 4.35D-06  0.00D+00 EMaxC= 1.00D-01 BMatC= 9.44D-09 BMatP= 5.24D-08
 IDIUse=1 WtCom= 1.00D+00 WtEn= 0.00D+00
 Coeff-Com: -0.903D-04 0.391D-03 0.338D-02 0.345D-02-0.307D-01-0.101D+00
 Coeff-Com:  0.548D-01 0.107D+01
 Coeff:     -0.903D-04 0.391D-03 0.338D-02 0.345D-02-0.307D-01-0.101D+00
 Coeff:      0.548D-01 0.107D+01
 Gap=     0.495 Goal=   None    Shift=    0.000
 RMSDP=9.45D-07 MaxDP=2.68D-05 DE=-9.82D-08 OVMax= 7.25D-05

 Cycle   9  Pass 1  IDiag  1:
 E= -389.144267160556     Delta-E=       -0.000000022605 Rises=F Damp=F
 DIIS: error= 2.56D-06 at cycle   9 NSaved=   9.
 NSaved= 9 IEnMin= 9 EnMin= -389.144267160556     IErMin= 9 ErrMin= 2.56D-06
 ErrMax= 2.56D-06  0.00D+00 EMaxC= 1.00D-01 BMatC= 1.15D-09 BMatP= 9.44D-09
 IDIUse=1 WtCom= 1.00D+00 WtEn= 0.00D+00
 Coeff-Com: -0.573D-05-0.382D-05 0.550D-04 0.216D-02-0.691D-03-0.152D-01
 Coeff-Com: -0.909D-01 0.871D-03 0.110D+01
 Coeff:     -0.573D-05-0.382D-05 0.550D-04 0.216D-02-0.691D-03-0.152D-01
 Coeff:     -0.909D-01 0.871D-03 0.110D+01
 Gap=     0.495 Goal=   None    Shift=    0.000
 RMSDP=3.64D-07 MaxDP=1.33D-05 DE=-2.26D-08 OVMax= 3.77D-05

 Cycle  10  Pass 1  IDiag  1:
 E= -389.144267164544     Delta-E=       -0.000000003988 Rises=F Damp=F
 DIIS: error= 6.29D-07 at cycle  10 NSaved=  10.
 NSaved=10 IEnMin=10 EnMin= -389.144267164544     IErMin=10 ErrMin= 6.29D-07
 ErrMax= 6.29D-07  0.00D+00 EMaxC= 1.00D-01 BMatC= 2.90D-10 BMatP= 1.15D-09
 IDIUse=1 WtCom= 1.00D+00 WtEn= 0.00D+00
 Coeff-Com:  0.152D-04-0.718D-04-0.609D-03-0.130D-03 0.445D-02 0.185D-01
 Coeff-Com: -0.159D-01-0.243D+00 0.183D+00 0.105D+01
 Coeff:      0.152D-04-0.718D-04-0.609D-03-0.130D-03 0.445D-02 0.185D-01
 Coeff:     -0.159D-01-0.243D+00 0.183D+00 0.105D+01
 Gap=     0.495 Goal=   None    Shift=    0.000
 RMSDP=1.83D-07 MaxDP=4.44D-06 DE=-3.99D-09 OVMax= 1.58D-05

 Cycle  11  Pass 1  IDiag  1:
 E= -389.144267165231     Delta-E=       -0.000000000686 Rises=F Damp=F
 DIIS: error= 2.08D-07 at cycle  11 NSaved=  11.
 NSaved=11 IEnMin=11 EnMin= -389.144267165231     IErMin=11 ErrMin= 2.08D-07
 ErrMax= 2.08D-07  0.00D+00 EMaxC= 1.00D-01 BMatC= 1.06D-11 BMatP= 2.90D-10
 IDIUse=1 WtCom= 1.00D+00 WtEn= 0.00D+00
 Coeff-Com:  0.124D-05-0.321D-05-0.322D-04-0.163D-03 0.115D-04 0.275D-02
 Coeff-Com:  0.989D-02-0.138D-01-0.754D-01 0.150D-01 0.106D+01
 Coeff:      0.124D-05-0.321D-05-0.322D-04-0.163D-03 0.115D-04 0.275D-02
 Coeff:      0.989D-02-0.138D-01-0.754D-01 0.150D-01 0.106D+01
 Gap=     0.495 Goal=   None    Shift=    0.000
 RMSDP=3.62D-08 MaxDP=1.07D-06 DE=-6.86D-10 OVMax= 3.01D-06

 Cycle  12  Pass 1  IDiag  1:
 E= -389.144267165279     Delta-E=       -0.000000000048 Rises=F Damp=F
 DIIS: error= 3.83D-08 at cycle  12 NSaved=  12.
 NSaved=12 IEnMin=12 EnMin= -389.144267165279     IErMin=12 ErrMin= 3.83D-08
 ErrMax= 3.83D-08  0.00D+00 EMaxC= 1.00D-01 BMatC= 9.98D-13 BMatP= 1.06D-11
 IDIUse=1 WtCom= 1.00D+00 WtEn= 0.00D+00
 Coeff-Com: -0.126D-05 0.621D-05 0.526D-04 0.144D-04-0.435D-03-0.156D-02
 Coeff-Com:  0.170D-02 0.207D-01-0.173D-01-0.105D+00 0.294D-01 0.107D+01
 Coeff:     -0.126D-05 0.621D-05 0.526D-04 0.144D-04-0.435D-03-0.156D-02
 Coeff:      0.170D-02 0.207D-01-0.173D-01-0.105D+00 0.294D-01 0.107D+01
 Gap=     0.495 Goal=   None    Shift=    0.000
 RMSDP=1.13D-08 MaxDP=2.54D-07 DE=-4.81D-11 OVMax= 7.82D-07

 Cycle  13  Pass 1  IDiag  1:
 E= -389.144267165262     Delta-E=        0.000000000016 Rises=F Damp=F
 DIIS: error= 7.87D-09 at cycle  13 NSaved=  13.
 NSaved=13 IEnMin=12 EnMin= -389.144267165279     IErMin=13 ErrMin= 7.87D-09
 ErrMax= 7.87D-09  0.00D+00 EMaxC= 1.00D-01 BMatC= 3.59D-14 BMatP= 9.98D-13
 IDIUse=1 WtCom= 1.00D+00 WtEn= 0.00D+00
 Coeff-Com: -0.120D-06 0.480D-06 0.411D-05 0.108D-04-0.253D-04-0.218D-03
 Coeff-Com: -0.451D-03 0.169D-02 0.394D-02-0.597D-02-0.555D-01 0.619D-01
 Coeff-Com:  0.995D+00
 Coeff:     -0.120D-06 0.480D-06 0.411D-05 0.108D-04-0.253D-04-0.218D-03
 Coeff:     -0.451D-03 0.169D-02 0.394D-02-0.597D-02-0.555D-01 0.619D-01
 Coeff:      0.995D+00
 Gap=     0.495 Goal=   None    Shift=    0.000
 RMSDP=1.81D-09 MaxDP=3.17D-08 DE= 1.65D-11 OVMax= 7.47D-08

 SCF Done:  E(RHF) =  -389.144267165     A.U. after   13 cycles
            NFock= 13  Conv=0.18D-08     -V/T= 2.0014
 KE= 3.886034591231D+02 PE=-1.931896047912D+03 EE= 6.405379768323D+02
 Leave Link  502 at Fri Sep 17 20:10:18 2021, MaxMem=   524288000 cpu:              36.0 elap:              36.4
 (Enter /opt/gaussian/g16_legacy/l801.exe)
 ExpMin= 1.61D-01 ExpMax= 3.05D+03 ExpMxC= 4.57D+02 IAcc=3 IRadAn=         5 AccDes= 0.00D+00
 HarFok:  IExCor=  205 AccDes= 0.00D+00 IRadAn=         5 IDoV=-2 UseB2=F ITyADJ=14
 ICtDFT= 12500011 ScaDFX=  1.000000  1.000000  1.000000  1.000000
 Largest valence mixing into a core orbital is  1.97D-04
 Largest core mixing into a valence orbital is  3.52D-05
 Range of M.O.s used for correlation:    11   240
 NBasis=   240 NAE=    39 NBE=    39 NFC=    10 NFV=     0
 NROrb=    230 NOA=    29 NOB=    29 NVA=   201 NVB=   201
 Leave Link  801 at Fri Sep 17 20:10:20 2021, MaxMem=   524288000 cpu:               1.7 elap:               1.6
 (Enter /opt/gaussian/g16_legacy/l906.exe)
 Frozen-core derivative calculation, NFC=  10 NFV=   0.
 FulOut=F Deriv=T AODrv=T NAtomX=    28
   MMem=          91  MDisk=          29 MDiskD=          29
  W3Min=     2246400 MinDsk=     2795480 NBas6D=         240
 NBas2D=       29244    NTT=       28920    LW2=     2040000
    MDV=   523631818 MDiskM=       30187 NBas2p=       23703
 Fully direct method using O(ONN) memory.
 IMap=   1   2   3   4   5   6   7   8   9  10  11  12  13  14  15  16  17  18  19  20
 IMap=  21  22  23  24  25  26  27  28  29  30  31  32  33  34  35  36  37  38  39
 JobTyp=1 Pass  1:  I=  11 to  39 NPSUse=  1 ParTrn=F ParDer=F DoDerP=T.
 Spin components of T(2) and E(2):
     alpha-alpha T2 =       0.5714438218D-01 E2=     -0.1638844722D+00
     alpha-beta  T2 =       0.3626435492D+00 E2=     -0.1090490348D+01
     beta-beta   T2 =       0.5714438218D-01 E2=     -0.1638844722D+00
 The integrals were generated   1 times.
 ANorm=    0.1215291041D+01
 E2 =    -0.1418259292D+01 EUMP2 =    -0.39056252645721D+03
 Leave Link  906 at Fri Sep 17 20:14:47 2021, MaxMem=   524288000 cpu:             266.8 elap:             267.1
 (Enter /opt/gaussian/g16_legacy/l1002.exe)
 Minotr:  Closed shell wavefunction.
          Computing MP2/KS-MP2 derivatives.
          Using Z-Vector for PSCF gradient.
          Skipping F1 and S1 gradient terms here.
          IDoAtm=1111111111111111111111111111
          Frozen-core window.
          Direct CPHF calculation.
          Differentiating once with respect to electric field.
                with respect to dipole field.
          Differentiating once with respect to nuclear coordinates.
          Requested convergence is 1.0D-10 RMS, and 1.0D-09 maximum.
          NewPWx=F KeepS1=T KeepF1=T KeepIn=T MapXYZ=F SortEE=F KeepMc=T.
 Keep R1 ints in memory in canonical form, NReq=425201067.
 FoFCou: FMM=F IPFlag=           0 FMFlag=           0 FMFlg1=           0
         NFxFlg=           0 DoJE=F BraDBF=F KetDBF=F FulRan=T
         wScrn=  0.000000 ICntrl=       600 IOpCl=  0 I1Cent=           0 NGrid=           0
         NMat0=    1 NMatS0=  28920 NMatT0=    0 NMatD0=    1 NMtDS0=    0 NMtDT0=    0
 Symmetry not used in FoFCou.
 Two-electron integral symmetry not used.
          MDV=     524288000 using IRadAn=       5.
          Solving linear equations separately, MaxMat=       0.
          There are     1 degrees of freedom in the 1st order CPHF.  IDoFFX=0 NUNeed=     1.
 LinEq1:  Iter=  0 NonCon=     1 RMS=2.53D-03 Max=4.47D-02 NDo=     1
 AX will form     1 AO Fock derivatives at one time.
 LinEq1:  Iter=  1 NonCon=     1 RMS=6.96D-04 Max=9.69D-03 NDo=     1
 LinEq1:  Iter=  2 NonCon=     1 RMS=1.64D-04 Max=4.18D-03 NDo=     1
 LinEq1:  Iter=  3 NonCon=     1 RMS=4.25D-05 Max=4.67D-04 NDo=     1
 LinEq1:  Iter=  4 NonCon=     1 RMS=2.07D-05 Max=8.47D-04 NDo=     1
 LinEq1:  Iter=  5 NonCon=     1 RMS=5.20D-06 Max=1.08D-04 NDo=     1
 LinEq1:  Iter=  6 NonCon=     1 RMS=1.76D-06 Max=3.71D-05 NDo=     1
 LinEq1:  Iter=  7 NonCon=     1 RMS=6.09D-07 Max=1.57D-05 NDo=     1
 LinEq1:  Iter=  8 NonCon=     1 RMS=1.88D-07 Max=2.18D-06 NDo=     1
 LinEq1:  Iter=  9 NonCon=     1 RMS=5.26D-08 Max=8.24D-07 NDo=     1
 LinEq1:  Iter= 10 NonCon=     1 RMS=1.26D-08 Max=1.25D-07 NDo=     1
 LinEq1:  Iter= 11 NonCon=     1 RMS=3.44D-09 Max=6.94D-08 NDo=     1
 LinEq1:  Iter= 12 NonCon=     1 RMS=9.36D-10 Max=1.54D-08 NDo=     1
 LinEq1:  Iter= 13 NonCon=     1 RMS=2.54D-10 Max=4.96D-09 NDo=     1
 LinEq1:  Iter= 14 NonCon=     0 RMS=6.36D-11 Max=7.53D-10 NDo=     1
 Linear equations converged to 1.000D-10 1.000D-09 after    14 iterations.
 End of Minotr F.D. properties file   721 does not exist.
 End of Minotr F.D. properties file   722 does not exist.
 End of Minotr F.D. properties file   788 does not exist.
 Leave Link 1002 at Fri Sep 17 20:15:19 2021, MaxMem=   524288000 cpu:              32.0 elap:              32.3
 (Enter /opt/gaussian/g16_legacy/l601.exe)
 Copying SCF densities to generalized density rwf, IOpCl= 0 IROHF=0.

 **********************************************************************

            Population analysis using the SCF density.

 **********************************************************************

 Orbital symmetries:
       Occupied  (A) (A) (A) (A) (A) (A) (A) (A) (A) (A) (A) (A)
                 (A) (A) (A) (A) (A) (A) (A) (A) (A) (A) (A) (A)
                 (A) (A) (A) (A) (A) (A) (A) (A) (A) (A) (A) (A)
                 (A) (A) (A)
       Virtual   (A) (A) (A) (A) (A) (A) (A) (A) (A) (A) (A) (A)
                 (A) (A) (A) (A) (A) (A) (A) (A) (A) (A) (A) (A)
                 (A) (A) (A) (A) (A) (A) (A) (A) (A) (A) (A) (A)
                 (A) (A) (A) (A) (A) (A) (A) (A) (A) (A) (A) (A)
                 (A) (A) (A) (A) (A) (A) (A) (A) (A) (A) (A) (A)
                 (A) (A) (A) (A) (A) (A) (A) (A) (A) (A) (A) (A)
                 (A) (A) (A) (A) (A) (A) (A) (A) (A) (A) (A) (A)
                 (A) (A) (A) (A) (A) (A) (A) (A) (A) (A) (A) (A)
                 (A) (A) (A) (A) (A) (A) (A) (A) (A) (A) (A) (A)
                 (A) (A) (A) (A) (A) (A) (A) (A) (A) (A) (A) (A)
                 (A) (A) (A) (A) (A) (A) (A) (A) (A) (A) (A) (A)
                 (A) (A) (A) (A) (A) (A) (A) (A) (A) (A) (A) (A)
                 (A) (A) (A) (A) (A) (A) (A) (A) (A) (A) (A) (A)
                 (A) (A) (A) (A) (A) (A) (A) (A) (A) (A) (A) (A)
                 (A) (A) (A) (A) (A) (A) (A) (A) (A) (A) (A) (A)
                 (A) (A) (A) (A) (A) (A) (A) (A) (A) (A) (A) (A)
                 (A) (A) (A) (A) (A) (A) (A) (A) (A)
 The electronic state is 1-A.
 Alpha  occ. eigenvalues --  -11.22806 -11.22688 -11.22067 -11.21975 -11.21818
 Alpha  occ. eigenvalues --  -11.21583 -11.21435 -11.21354 -11.21242 -11.21138
 Alpha  occ. eigenvalues --   -1.10389  -1.08180  -1.02031  -0.96849  -0.93608
 Alpha  occ. eigenvalues --   -0.92804  -0.87740  -0.80614  -0.70708  -0.69391
 Alpha  occ. eigenvalues --   -0.63766  -0.62078  -0.60260  -0.58906  -0.57707
 Alpha  occ. eigenvalues --   -0.56461  -0.55403  -0.54742  -0.53828  -0.53519
 Alpha  occ. eigenvalues --   -0.51726  -0.51224  -0.49786  -0.49432  -0.46904
 Alpha  occ. eigenvalues --   -0.46159  -0.44729  -0.32208  -0.31573
 Alpha virt. eigenvalues --    0.17886   0.18760   0.22735   0.24738   0.25480
 Alpha virt. eigenvalues --    0.27532   0.27755   0.29022   0.29902   0.30291
 Alpha virt. eigenvalues --    0.31719   0.33036   0.33304   0.33530   0.34051
 Alpha virt. eigenvalues --    0.34972   0.35834   0.37827   0.38903   0.39933
 Alpha virt. eigenvalues --    0.40929   0.41781   0.43635   0.45635   0.47891
 Alpha virt. eigenvalues --    0.51789   0.52797   0.57892   0.62128   0.68754
 Alpha virt. eigenvalues --    0.70564   0.72838   0.74524   0.75926   0.76799
 Alpha virt. eigenvalues --    0.77549   0.79639   0.80576   0.81416   0.83688
 Alpha virt. eigenvalues --    0.85224   0.87026   0.88091   0.89059   0.91212
 Alpha virt. eigenvalues --    0.93373   0.95763   0.98262   0.98694   1.00303
 Alpha virt. eigenvalues --    1.01430   1.02329   1.02989   1.05843   1.06293
 Alpha virt. eigenvalues --    1.07477   1.11169   1.11349   1.12189   1.12682
 Alpha virt. eigenvalues --    1.13486   1.13652   1.14446   1.14770   1.15392
 Alpha virt. eigenvalues --    1.16043   1.17216   1.18007   1.18815   1.19459
 Alpha virt. eigenvalues --    1.20279   1.21381   1.22874   1.23534   1.25643
 Alpha virt. eigenvalues --    1.26374   1.31918   1.37512   1.45561   1.46193
 Alpha virt. eigenvalues --    1.47160   1.49419   1.55874   1.57764   1.58452
 Alpha virt. eigenvalues --    1.61631   1.65715   1.67482   1.69427   1.71573
 Alpha virt. eigenvalues --    1.72879   1.80411   1.90369   1.93386   1.98053
 Alpha virt. eigenvalues --    1.98508   2.01392   2.04494   2.06956   2.07507
 Alpha virt. eigenvalues --    2.08536   2.09559   2.10368   2.14181   2.16172
 Alpha virt. eigenvalues --    2.16614   2.18195   2.22044   2.24574   2.25856
 Alpha virt. eigenvalues --    2.29254   2.30182   2.32660   2.35241   2.35537
 Alpha virt. eigenvalues --    2.35928   2.36375   2.39029   2.39877   2.40785
 Alpha virt. eigenvalues --    2.41666   2.42615   2.43548   2.44195   2.45222
 Alpha virt. eigenvalues --    2.47110   2.48258   2.48889   2.52266   2.53401
 Alpha virt. eigenvalues --    2.53893   2.56399   2.59304   2.63101   2.64849
 Alpha virt. eigenvalues --    2.67092   2.69478   2.71195   2.72120   2.74374
 Alpha virt. eigenvalues --    2.75447   2.80809   2.83954   2.85607   2.86919
 Alpha virt. eigenvalues --    2.87519   2.87936   2.90083   2.90602   2.92097
 Alpha virt. eigenvalues --    2.97107   2.98080   3.01036   3.02716   3.04630
 Alpha virt. eigenvalues --    3.05342   3.07555   3.09964   3.11906   3.13375
 Alpha virt. eigenvalues --    3.16804   3.17306   3.19351   3.20105   3.22230
 Alpha virt. eigenvalues --    3.23138   3.25086   3.25763   3.27485   3.39195
 Alpha virt. eigenvalues --    3.39982   3.42495   3.46340   3.56030   3.56538
 Alpha virt. eigenvalues --    3.60584   3.61815   3.67122   3.72566   3.78302
 Alpha virt. eigenvalues --    3.78996   3.80764   3.81708   3.82393   3.82686
 Alpha virt. eigenvalues --    3.83658   3.85509   3.87244   3.90251   3.91606
 Alpha virt. eigenvalues --    3.91872   4.58391   4.60870   4.75844   4.78153
 Alpha virt. eigenvalues --    4.88882   4.92339   4.93122   4.99041   5.10022
 Alpha virt. eigenvalues --    5.18797
          Condensed to atoms (all electrons):
               1          2          3          4          5          6
     1  C    4.958001   0.409028   0.409628   0.345898  -0.047568   0.003114
     2  H    0.409028   0.582365  -0.027242  -0.044516   0.003108  -0.000087
     3  H    0.409628  -0.027242   0.584397  -0.042551   0.002594  -0.000134
     4  C    0.345898  -0.044516  -0.042551   4.959091   0.337346  -0.037633
     5  C   -0.047568   0.003108   0.002594   0.337346   4.913624   0.407915
     6  H    0.003114  -0.000087  -0.000134  -0.037633   0.407915   0.572149
     7  H   -0.003936   0.000060   0.000501  -0.041427   0.407842  -0.031056
     8  H    0.001415  -0.000097  -0.000134  -0.042805   0.399006  -0.027867
     9  C   -0.057798  -0.007143  -0.008195   0.695716  -0.051547  -0.004917
    10  H   -0.004774   0.001398   0.001039  -0.042878   0.003374   0.000040
    11  C    0.002680   0.000054  -0.000108  -0.047401  -0.007091  -0.002170
    12  H    0.000076   0.000003  -0.000005  -0.001564  -0.002001  -0.001721
    13  H   -0.000056   0.000026  -0.000012   0.000618   0.000166  -0.000049
    14  H   -0.000107  -0.000017   0.000049  -0.001350   0.000409   0.000375
    15  C   -0.000066  -0.000004   0.000001  -0.000003   0.000004  -0.000000
    16  H   -0.000007  -0.000001   0.000000  -0.000003  -0.000003   0.000000
    17  H    0.000000   0.000000  -0.000000  -0.000000   0.000000  -0.000000
    18  H    0.000003  -0.000001  -0.000000   0.000000  -0.000000   0.000000
    19  C    0.002209  -0.000183  -0.000050   0.000066  -0.000180   0.000006
    20  C    0.000118  -0.000003   0.000003  -0.000005  -0.000005   0.000000
    21  H    0.000030  -0.000012   0.000004  -0.000001  -0.000000   0.000000
    22  H    0.000001  -0.000000  -0.000000   0.000000   0.000000   0.000000
    23  H   -0.000015   0.000001   0.000000   0.000000   0.000000  -0.000000
    24  C   -0.049787  -0.002893   0.005135  -0.001702  -0.003719   0.000155
    25  H   -0.005802   0.000883   0.000103   0.002633  -0.002051   0.000060
    26  C    0.353474  -0.040206  -0.044182  -0.042780  -0.006224  -0.000020
    27  H   -0.036206  -0.004231  -0.003732   0.003776   0.000116   0.000002
    28  H   -0.043864   0.004959  -0.003593  -0.002358  -0.000926  -0.000068
               7          8          9         10         11         12
     1  C   -0.003936   0.001415  -0.057798  -0.004774   0.002680   0.000076
     2  H    0.000060  -0.000097  -0.007143   0.001398   0.000054   0.000003
     3  H    0.000501  -0.000134  -0.008195   0.001039  -0.000108  -0.000005
     4  C   -0.041427  -0.042805   0.695716  -0.042878  -0.047401  -0.001564
     5  C    0.407842   0.399006  -0.051547   0.003374  -0.007091  -0.002001
     6  H   -0.031056  -0.027867  -0.004917   0.000040  -0.002170  -0.001721
     7  H    0.578094  -0.030074   0.002557  -0.000102   0.000155   0.000007
     8  H   -0.030074   0.575583  -0.003736  -0.000138   0.000695   0.000051
     9  C    0.002557  -0.003736   4.963429   0.407747   0.340980  -0.040815
    10  H   -0.000102  -0.000138   0.407747   0.563831  -0.043143   0.003393
    11  C    0.000155   0.000695   0.340980  -0.043143   4.897201   0.408256
    12  H    0.000007   0.000051  -0.040815   0.003393   0.408256   0.574412
    13  H   -0.000010   0.000118  -0.043441  -0.003003   0.404168  -0.029437
    14  H    0.000022  -0.000097  -0.045214  -0.000010   0.398897  -0.027888
    15  C   -0.000002  -0.000000  -0.000000   0.000000   0.000000   0.000000
    16  H   -0.000001   0.000046  -0.000000  -0.000000   0.000000  -0.000000
    17  H    0.000000  -0.000002  -0.000000  -0.000000  -0.000000   0.000000
    18  H   -0.000000   0.000000  -0.000000  -0.000000   0.000000   0.000000
    19  C   -0.000082   0.000083   0.000003   0.000000  -0.000000  -0.000000
    20  C   -0.000003   0.000000   0.000000   0.000000  -0.000000  -0.000000
    21  H   -0.000001   0.000000   0.000000  -0.000000   0.000000  -0.000000
    22  H   -0.000000   0.000000  -0.000000   0.000000   0.000000   0.000000
    23  H    0.000001  -0.000000  -0.000000  -0.000000  -0.000000   0.000000
    24  C   -0.000147  -0.000326   0.000070  -0.000002  -0.000001  -0.000001
    25  H   -0.000039  -0.000813   0.000118  -0.000000   0.000000  -0.000001
    26  C   -0.002520   0.000522   0.002926   0.000120  -0.000058   0.000003
    27  H    0.000067  -0.000003  -0.000067  -0.000005   0.000001   0.000000
    28  H   -0.000983   0.000099  -0.000046  -0.000000   0.000000  -0.000000
              13         14         15         16         17         18
     1  C   -0.000056  -0.000107  -0.000066  -0.000007   0.000000   0.000003
     2  H    0.000026  -0.000017  -0.000004  -0.000001   0.000000  -0.000001
     3  H   -0.000012   0.000049   0.000001   0.000000  -0.000000  -0.000000
     4  C    0.000618  -0.001350  -0.000003  -0.000003  -0.000000   0.000000
     5  C    0.000166   0.000409   0.000004  -0.000003   0.000000  -0.000000
     6  H   -0.000049   0.000375  -0.000000   0.000000  -0.000000   0.000000
     7  H   -0.000010   0.000022  -0.000002  -0.000001   0.000000  -0.000000
     8  H    0.000118  -0.000097  -0.000000   0.000046  -0.000002   0.000000
     9  C   -0.043441  -0.045214  -0.000000  -0.000000  -0.000000  -0.000000
    10  H   -0.003003  -0.000010   0.000000  -0.000000  -0.000000  -0.000000
    11  C    0.404168   0.398897   0.000000   0.000000  -0.000000   0.000000
    12  H   -0.029437  -0.027888   0.000000  -0.000000   0.000000   0.000000
    13  H    0.586577  -0.033646  -0.000000   0.000000   0.000000   0.000000
    14  H   -0.033646   0.589360  -0.000000  -0.000000  -0.000000  -0.000000
    15  C   -0.000000  -0.000000   4.896926   0.405595   0.400769   0.396240
    16  H    0.000000  -0.000000   0.405595   0.570081  -0.028643  -0.026778
    17  H    0.000000  -0.000000   0.400769  -0.028643   0.595660  -0.034955
    18  H    0.000000  -0.000000   0.396240  -0.026778  -0.034955   0.593708
    19  C   -0.000000   0.000000   0.353170  -0.041106  -0.046873  -0.043916
    20  C   -0.000000   0.000000  -0.061753   0.003748  -0.001086  -0.002083
    21  H   -0.000000  -0.000000   0.003618  -0.000111  -0.000021  -0.000053
    22  H   -0.000000  -0.000000  -0.004619   0.000090  -0.000722   0.002731
    23  H   -0.000000   0.000000  -0.000278  -0.000133   0.001870  -0.000224
    24  C   -0.000000   0.000000  -0.044034  -0.002286  -0.000783  -0.001080
    25  H   -0.000001   0.000000  -0.006799   0.002108   0.000169   0.000200
    26  C    0.000002  -0.000000   0.003039   0.000139  -0.000097  -0.000094
    27  H   -0.000000  -0.000000  -0.000023   0.000002  -0.000011   0.000027
    28  H    0.000000  -0.000000  -0.000099  -0.000002   0.000042  -0.000011
              19         20         21         22         23         24
     1  C    0.002209   0.000118   0.000030   0.000001  -0.000015  -0.049787
     2  H   -0.000183  -0.000003  -0.000012  -0.000000   0.000001  -0.002893
     3  H   -0.000050   0.000003   0.000004  -0.000000   0.000000   0.005135
     4  C    0.000066  -0.000005  -0.000001   0.000000   0.000000  -0.001702
     5  C   -0.000180  -0.000005  -0.000000   0.000000   0.000000  -0.003719
     6  H    0.000006   0.000000   0.000000   0.000000  -0.000000   0.000155
     7  H   -0.000082  -0.000003  -0.000001  -0.000000   0.000001  -0.000147
     8  H    0.000083   0.000000   0.000000   0.000000  -0.000000  -0.000326
     9  C    0.000003   0.000000   0.000000  -0.000000  -0.000000   0.000070
    10  H    0.000000   0.000000  -0.000000   0.000000  -0.000000  -0.000002
    11  C   -0.000000  -0.000000   0.000000   0.000000  -0.000000  -0.000001
    12  H   -0.000000  -0.000000  -0.000000   0.000000   0.000000  -0.000001
    13  H   -0.000000  -0.000000  -0.000000  -0.000000  -0.000000  -0.000000
    14  H    0.000000   0.000000  -0.000000  -0.000000   0.000000   0.000000
    15  C    0.353170  -0.061753   0.003618  -0.004619  -0.000278  -0.044034
    16  H   -0.041106   0.003748  -0.000111   0.000090  -0.000133  -0.002286
    17  H   -0.046873  -0.001086  -0.000021  -0.000722   0.001870  -0.000783
    18  H   -0.043916  -0.002083  -0.000053   0.002731  -0.000224  -0.001080
    19  C    4.932415   0.346684  -0.037392  -0.043824  -0.041858   0.705304
    20  C    0.346684   4.914031   0.405268   0.404051   0.397461  -0.047970
    21  H   -0.037392   0.405268   0.568017  -0.029568  -0.026781  -0.003867
    22  H   -0.043824   0.404051  -0.029568   0.584842  -0.031885   0.002018
    23  H   -0.041858   0.397461  -0.026781  -0.031885   0.577476  -0.002549
    24  C    0.705304  -0.047970  -0.003867   0.002018  -0.002549   4.956836
    25  H   -0.034524   0.003373   0.000054  -0.000111  -0.000109   0.405299
    26  C   -0.053455  -0.007239  -0.001004   0.000154   0.000376   0.333231
    27  H   -0.003170  -0.001188   0.000966   0.000180  -0.000367  -0.045575
    28  H   -0.007585   0.000703  -0.000868  -0.000072   0.000858  -0.047410
              25         26         27         28
     1  C   -0.005802   0.353474  -0.036206  -0.043864
     2  H    0.000883  -0.040206  -0.004231   0.004959
     3  H    0.000103  -0.044182  -0.003732  -0.003593
     4  C    0.002633  -0.042780   0.003776  -0.002358
     5  C   -0.002051  -0.006224   0.000116  -0.000926
     6  H    0.000060  -0.000020   0.000002  -0.000068
     7  H   -0.000039  -0.002520   0.000067  -0.000983
     8  H   -0.000813   0.000522  -0.000003   0.000099
     9  C    0.000118   0.002926  -0.000067  -0.000046
    10  H   -0.000000   0.000120  -0.000005  -0.000000
    11  C    0.000000  -0.000058   0.000001   0.000000
    12  H   -0.000001   0.000003   0.000000  -0.000000
    13  H   -0.000001   0.000002  -0.000000   0.000000
    14  H    0.000000  -0.000000  -0.000000  -0.000000
    15  C   -0.006799   0.003039  -0.000023  -0.000099
    16  H    0.002108   0.000139   0.000002  -0.000002
    17  H    0.000169  -0.000097  -0.000011   0.000042
    18  H    0.000200  -0.000094   0.000027  -0.000011
    19  C   -0.034524  -0.053455  -0.003170  -0.007585
    20  C    0.003373  -0.007239  -0.001188   0.000703
    21  H    0.000054  -0.001004   0.000966  -0.000868
    22  H   -0.000111   0.000154   0.000180  -0.000072
    23  H   -0.000109   0.000376  -0.000367   0.000858
    24  C    0.405299   0.333231  -0.045575  -0.047410
    25  H    0.550468  -0.044363   0.003023   0.002753
    26  C   -0.044363   4.967786   0.413828   0.410982
    27  H    0.003023   0.413828   0.581108  -0.031038
    28  H    0.002753   0.410982  -0.031038   0.597917
 Mulliken charges:
               1
     1  C   -0.235690
     2  H    0.124750
     3  H    0.126482
     4  C    0.003833
     5  C   -0.354188
     6  H    0.121906
     7  H    0.121076
     8  H    0.128473
     9  C   -0.150627
    10  H    0.113113
    11  C   -0.353117
    12  H    0.117232
    13  H    0.117979
    14  H    0.119220
    15  C   -0.341682
    16  H    0.117264
    17  H    0.114683
    18  H    0.116284
    19  C    0.014257
    20  C   -0.354108
    21  H    0.121722
    22  H    0.116734
    23  H    0.126157
    24  C   -0.153917
    25  H    0.123370
    26  C   -0.244341
    27  H    0.122523
    28  H    0.120611
 Sum of Mulliken charges =  -0.00000
 Mulliken charges with hydrogens summed into heavy atoms:
               1
     1  C    0.015541
     4  C    0.003833
     5  C    0.017267
     9  C   -0.037514
    11  C    0.001315
    15  C    0.006550
    19  C    0.014257
    20  C    0.010505
    24  C   -0.030547
    26  C   -0.001206
 Electronic spatial extent (au):  <R**2>=           2575.9302
 Charge=             -0.0000 electrons
 Dipole moment (field-independent basis, Debye):
    X=              0.4248    Y=             -0.0738    Z=              0.2638  Tot=              0.5055
 Quadrupole moment (field-independent basis, Debye-Ang):
   XX=            -63.7398   YY=            -64.6783   ZZ=            -65.8838
   XY=             -0.6694   XZ=              0.6976   YZ=              0.3219
 Traceless Quadrupole moment (field-independent basis, Debye-Ang):
   XX=              1.0275   YY=              0.0890   ZZ=             -1.1165
   XY=             -0.6694   XZ=              0.6976   YZ=              0.3219
 Octapole moment (field-independent basis, Debye-Ang**2):
  XXX=              8.0532  YYY=             -0.8066  ZZZ=              1.8898  XYY=              0.7751
  XXY=              1.5970  XXZ=             -1.6818  XZZ=             -1.5542  YZZ=             -0.4871
  YYZ=             -0.9559  XYZ=             -2.0057
 Hexadecapole moment (field-independent basis, Debye-Ang**3):
 XXXX=          -2851.5115 YYYY=           -474.9423 ZZZZ=           -234.9430 XXXY=              0.8498
 XXXZ=              4.7518 YYYX=             -4.8856 YYYZ=              1.1937 ZZZX=              6.6611
 ZZZY=              0.1563 XXYY=           -568.0878 XXZZ=           -512.9820 YYZZ=           -119.5860
 XXYZ=              7.2022 YYXZ=              0.1433 ZZXY=              0.5834
 N-N= 5.136103447912D+02 E-N=-1.931896047609D+03  KE= 3.886034591231D+02
 No NMR shielding tensors so no spin-rotation constants.
 Leave Link  601 at Fri Sep 17 20:15:20 2021, MaxMem=   524288000 cpu:               0.3 elap:               0.7
 (Enter /opt/gaussian/g16_legacy/l701.exe)
 ... and contract with generalized density number  2.
 Compute integral first derivatives.
 Leave Link  701 at Fri Sep 17 20:15:20 2021, MaxMem=   524288000 cpu:               0.3 elap:               0.5
 (Enter /opt/gaussian/g16_legacy/l702.exe)
 L702 exits ... SP integral derivatives will be done elsewhere.
 Leave Link  702 at Fri Sep 17 20:15:21 2021, MaxMem=   524288000 cpu:               0.1 elap:               0.1
 (Enter /opt/gaussian/g16_legacy/l703.exe)
 Integral derivatives from FoFJK, PRISM(SPDF).
 Compute integral first derivatives, UseDBF=F ICtDFT=           0.
 Calling FoFJK, ICntrl=  10002127 FMM=F ISym2X=0 I1Cent= 0 IOpClX= 0 NMat=1 NMatS=1 NMatT=0.
 FoFJK:  IHMeth= 1 ICntrl=10002127 DoSepK=F KAlg= 0 I1Cent=           0 FoldK=F
 IRaf=         0 NMat=       1 IRICut=       1 DoRegI=T DoRafI=F ISym2E= 0 IDoP0=0 IntGTp=1.
 FoFCou: FMM=F IPFlag=           0 FMFlag=      100000 FMFlg1=         800
         NFxFlg=           0 DoJE=F BraDBF=F KetDBF=F FulRan=T
         wScrn=  0.000000 ICntrl=  10002127 IOpCl=  0 I1Cent=           0 NGrid=           0
         NMat0=    1 NMatS0=      1 NMatT0=    0 NMatD0=    1 NMtDS0=    0 NMtDT0=    0
 Symmetry not used in FoFCou.
 Leave Link  703 at Fri Sep 17 20:15:55 2021, MaxMem=   524288000 cpu:              34.4 elap:              34.6
 (Enter /opt/gaussian/g16_legacy/l716.exe)
 Dipole        = 1.17777934D-01-2.12012058D-02 9.07260318D-02
 ***** Axes restored to original set *****
 -------------------------------------------------------------------
 Center     Atomic                   Forces (Hartrees/Bohr)
 Number     Number              X              Y              Z
 -------------------------------------------------------------------
      1        6          -0.006790720   -0.000381457   -0.003708862
      2        1           0.001233740    0.004088695    0.000424425
      3        1          -0.001615892   -0.002282681    0.000702850
      4        6           0.002036084   -0.002734331   -0.003039435
      5        6           0.003628552    0.003820803    0.001716589
      6        1          -0.002098053   -0.004121842   -0.000488518
      7        1          -0.000738579   -0.004272213    0.000398023
      8        1          -0.000770319    0.004232561    0.001282278
      9        6          -0.005053220   -0.000426627    0.004539928
     10        1          -0.002136493    0.000118912    0.002395640
     11        6           0.002404188    0.000779075    0.000638932
     12        1          -0.001930810    0.000482127   -0.002950941
     13        1           0.000770826    0.003464980   -0.000740457
     14        1           0.002106081   -0.002710669    0.001811420
     15        6           0.002671674   -0.002180658    0.000217267
     16        1          -0.003391259    0.002124750   -0.001735607
     17        1          -0.001941405   -0.002806318   -0.001041951
     18        1           0.000472515    0.002115103    0.002903886
     19        6           0.004919200   -0.004400393   -0.002389322
     20        6          -0.002388358    0.000079436   -0.002891527
     21        1           0.002981620    0.001101032    0.002383887
     22        1           0.003141920    0.002575956    0.001031806
     23        1          -0.002400586   -0.001437250   -0.000866701
     24        6           0.002444395    0.000852267    0.001612629
     25        1          -0.001743531    0.000641449    0.001013176
     26        6           0.004202641   -0.001051733   -0.001852092
     27        1           0.001908089    0.002969585    0.000323153
     28        1          -0.001922301   -0.000640561   -0.001690475
 -------------------------------------------------------------------
 Cartesian Forces:  Max     0.006790720 RMS     0.002490446
 Leave Link  716 at Fri Sep 17 20:15:56 2021, MaxMem=   524288000 cpu:               0.1 elap:               0.4
 (Enter /opt/gaussian/g16_legacy/l103.exe)

 GradGradGradGradGradGradGradGradGradGradGradGradGradGradGradGradGradGrad
 Berny optimization.
 FormGI is forming the generalized inverse of G from B-inverse, IUseBI=4.
 Internal  Forces:  Max     0.012400173 RMS     0.002576555
 Search for a local minimum.
 Step number   1 out of a maximum of  138
 All quantities printed in internal units (Hartrees-Bohrs-Radians)
 RMS Force = .25766D-02 SwitMx=.10000D-02 MixMth= 1
 Mixed Optimization -- RFO/linear search
 Second derivative matrix not updated -- first step.
 ITU=  0
     Eigenvalues ---    0.00230   0.00459   0.00696   0.00696   0.00710
     Eigenvalues ---    0.00721   0.00819   0.01129   0.01289   0.01551
     Eigenvalues ---    0.01622   0.02735   0.02773   0.03315   0.03841
     Eigenvalues ---    0.05244   0.05393   0.07039   0.07040   0.07093
     Eigenvalues ---    0.07117   0.07139   0.07321   0.07327   0.07505
     Eigenvalues ---    0.09660   0.10351   0.13063   0.13500   0.15985
     Eigenvalues ---    0.15999   0.16000   0.16000   0.16000   0.16000
     Eigenvalues ---    0.16000   0.16000   0.16000   0.16000   0.16000
     Eigenvalues ---    0.16000   0.16000   0.16000   0.22000   0.22003
     Eigenvalues ---    0.22004   0.22084   0.24994   0.24996   0.24997
     Eigenvalues ---    0.24997   0.28269   0.30057   0.31829   0.31830
     Eigenvalues ---    0.31934   0.32025   0.32805   0.33784   0.33918
     Eigenvalues ---    0.34064   0.34125   0.34130   0.34194   0.34211
     Eigenvalues ---    0.34241   0.34246   0.34248   0.34277   0.34345
     Eigenvalues ---    0.34376   0.34493   0.34511   0.34597   0.34900
     Eigenvalues ---    0.34973   0.54779   0.55389
 RFO step:  Lambda=-5.74369170D-03 EMin= 2.30000000D-03
 Linear search not attempted -- first point.
 Iteration  1 RMS(Cart)=  0.17690232 RMS(Int)=  0.00828721
 Iteration  2 RMS(Cart)=  0.01262241 RMS(Int)=  0.00014499
 Iteration  3 RMS(Cart)=  0.00007152 RMS(Int)=  0.00014008
 Iteration  4 RMS(Cart)=  0.00000000 RMS(Int)=  0.00014008
 ITry= 1 IFail=0 DXMaxC= 6.70D-01 DCOld= 1.00D+10 DXMaxT= 3.00D-01 DXLimC= 3.00D+00 Rises=F
 Variable       Old X    -DE/DX   Delta X   Delta X   Delta X     New X
                                 (Linear)    (Quad)   (Total)
    R1        2.07696  -0.00412   0.00000  -0.01200  -0.01200   2.06496
    R2        2.07468  -0.00174   0.00000  -0.00505  -0.00505   2.06963
    R3        2.87850  -0.00045   0.00000  -0.00146  -0.00146   2.87704
    R4        2.91555  -0.00829   0.00000  -0.02875  -0.02875   2.88680
    R5        2.84457   0.00234   0.00000   0.00721   0.00721   2.85178
    R6        2.55329  -0.00685   0.00000  -0.01237  -0.01237   2.54092
    R7        2.06751  -0.00363   0.00000  -0.01038  -0.01038   2.05713
    R8        2.06476  -0.00258   0.00000  -0.00735  -0.00735   2.05741
    R9        2.06701  -0.00188   0.00000  -0.00538  -0.00538   2.06163
   R10        2.05837  -0.00137   0.00000  -0.00386  -0.00386   2.05452
   R11        2.82696   0.00310   0.00000   0.00928   0.00928   2.83625
   R12        2.06334  -0.00319   0.00000  -0.00907  -0.00907   2.05427
   R13        2.06926  -0.00287   0.00000  -0.00825  -0.00825   2.06101
   R14        2.06917  -0.00190   0.00000  -0.00546  -0.00546   2.06370
   R15        2.06975  -0.00400   0.00000  -0.01150  -0.01150   2.05825
   R16        2.07003  -0.00228   0.00000  -0.00656  -0.00656   2.06347
   R17        2.06865  -0.00175   0.00000  -0.00501  -0.00501   2.06364
   R18        2.84264   0.00041   0.00000   0.00126   0.00126   2.84391
   R19        2.84098   0.00006   0.00000   0.00017   0.00017   2.84115
   R20        2.54788  -0.00442   0.00000  -0.00790  -0.00790   2.53998
   R21        2.06506  -0.00269   0.00000  -0.00766  -0.00766   2.05740
   R22        2.07120  -0.00342   0.00000  -0.00987  -0.00987   2.06134
   R23        2.06914  -0.00185   0.00000  -0.00532  -0.00532   2.06381
   R24        2.05718  -0.00168   0.00000  -0.00473  -0.00473   2.05245
   R25        2.84458   0.00108   0.00000   0.00334   0.00334   2.84791
   R26        2.07223  -0.00209   0.00000  -0.00603  -0.00603   2.06620
   R27        2.07112  -0.00128   0.00000  -0.00368  -0.00368   2.06744
    A1        1.85765  -0.00220   0.00000  -0.00424  -0.00447   1.85317
    A2        1.89546   0.00359   0.00000   0.00575   0.00507   1.90053
    A3        1.87637   0.00341   0.00000   0.00461   0.00406   1.88043
    A4        1.87079   0.00477   0.00000   0.03249   0.03289   1.90368
    A5        1.86331   0.00356   0.00000   0.02230   0.02281   1.88612
    A6        2.08808  -0.01240   0.00000  -0.05620  -0.05623   2.03184
    A7        2.08424  -0.00181   0.00000  -0.00711  -0.00713   2.07711
    A8        2.06006   0.00171   0.00000   0.00663   0.00661   2.06667
    A9        2.13873   0.00009   0.00000   0.00030   0.00028   2.13901
   A10        1.95665  -0.00224   0.00000  -0.00957  -0.00956   1.94710
   A11        1.95161  -0.00180   0.00000  -0.01172  -0.01166   1.93996
   A12        1.92464   0.00512   0.00000   0.02785   0.02792   1.95256
   A13        1.84237   0.00319   0.00000   0.02495   0.02496   1.86733
   A14        1.88764  -0.00128   0.00000  -0.00600  -0.00597   1.88166
   A15        1.89768  -0.00320   0.00000  -0.02668  -0.02658   1.87110
   A16        2.06635  -0.00225   0.00000  -0.01431  -0.01433   2.05202
   A17        2.22860  -0.00100   0.00000  -0.00441  -0.00443   2.22417
   A18        1.98816   0.00325   0.00000   0.01886   0.01884   2.00700
   A19        1.98035  -0.00264   0.00000  -0.01578  -0.01571   1.96464
   A20        1.90956   0.00196   0.00000   0.01252   0.01247   1.92203
   A21        1.91836   0.00442   0.00000   0.02584   0.02581   1.94418
   A22        1.87090   0.00056   0.00000   0.00489   0.00494   1.87584
   A23        1.89476  -0.00131   0.00000  -0.00909  -0.00900   1.88576
   A24        1.88727  -0.00321   0.00000  -0.01966  -0.01981   1.86745
   A25        1.87512   0.00107   0.00000   0.00960   0.00963   1.88475
   A26        1.88325   0.00052   0.00000   0.00593   0.00597   1.88922
   A27        1.95934  -0.00265   0.00000  -0.01291  -0.01287   1.94647
   A28        1.89603  -0.00334   0.00000  -0.02625  -0.02624   1.86978
   A29        1.92165   0.00167   0.00000   0.00863   0.00864   1.93029
   A30        1.92652   0.00259   0.00000   0.01404   0.01407   1.94058
   A31        2.00656   0.00152   0.00000   0.00593   0.00593   2.01249
   A32        2.10655   0.00300   0.00000   0.01173   0.01173   2.11828
   A33        2.16988  -0.00453   0.00000  -0.01773  -0.01774   2.15214
   A34        1.96870  -0.00163   0.00000  -0.00767  -0.00766   1.96103
   A35        1.92515  -0.00021   0.00000   0.00059   0.00060   1.92575
   A36        1.92440   0.00264   0.00000   0.01191   0.01193   1.93633
   A37        1.86103   0.00236   0.00000   0.02176   0.02177   1.88280
   A38        1.89290  -0.00119   0.00000  -0.01039  -0.01037   1.88253
   A39        1.88894  -0.00207   0.00000  -0.01677  -0.01675   1.87218
   A40        2.06127  -0.00098   0.00000  -0.00551  -0.00594   2.05533
   A41        2.19620  -0.00072   0.00000  -0.00263  -0.00305   2.19315
   A42        2.02430   0.00176   0.00000   0.01083   0.01040   2.03470
   A43        2.00495  -0.00758   0.00000  -0.03151  -0.03140   1.97355
   A44        1.86518   0.00182   0.00000   0.00371   0.00380   1.86898
   A45        1.90798   0.00215   0.00000   0.00920   0.00936   1.91734
   A46        1.90750   0.00290   0.00000   0.01545   0.01537   1.92287
   A47        1.90734   0.00328   0.00000   0.02103   0.02106   1.92840
   A48        1.86566  -0.00235   0.00000  -0.01792  -0.01804   1.84762
    D1       -2.40119  -0.00021   0.00000  -0.10937  -0.10940  -2.51059
    D2        0.75832  -0.00001   0.00000  -0.09794  -0.09796   0.66036
    D3        1.88150  -0.00186   0.00000  -0.12390  -0.12412   1.75738
    D4       -1.24217  -0.00166   0.00000  -0.11247  -0.11268  -1.35485
[...]
                 (A) (A) (A) (A) (A) (A) (A) (A) (A) (A) (A) (A)
                 (A) (A) (A) (A) (A) (A) (A) (A) (A) (A) (A) (A)
                 (A) (A) (A) (A) (A) (A) (A) (A) (A) (A) (A) (A)
                 (A) (A) (A) (A) (A) (A) (A) (A) (A) (A) (A) (A)
                 (A) (A) (A) (A) (A) (A) (A) (A) (A) (A) (A) (A)
                 (A) (A) (A) (A) (A) (A) (A) (A) (A) (A) (A) (A)
                 (A) (A) (A) (A) (A) (A) (A) (A) (A) (A) (A) (A)
                 (A) (A) (A) (A) (A) (A) (A) (A) (A) (A) (A) (A)
                 (A) (A) (A) (A) (A) (A) (A) (A) (A) (A) (A) (A)
                 (A) (A) (A) (A) (A) (A) (A) (A) (A) (A) (A) (A)
                 (A) (A) (A) (A) (A) (A) (A) (A) (A) (A) (A) (A)
                 (A) (A) (A) (A) (A) (A) (A) (A) (A) (A) (A) (A)
                 (A) (A) (A) (A) (A) (A) (A) (A) (A) (A) (A) (A)
                 (A) (A) (A) (A) (A) (A) (A) (A) (A)
 The electronic state is 1-A.
 Alpha  occ. eigenvalues --  -11.22656 -11.22362 -11.21748 -11.21670 -11.21500
 Alpha  occ. eigenvalues --  -11.21497 -11.21445 -11.21331 -11.21284 -11.21036
 Alpha  occ. eigenvalues --   -1.10817  -1.08118  -1.01963  -0.97249  -0.93597
 Alpha  occ. eigenvalues --   -0.92320  -0.88045  -0.81481  -0.70820  -0.68867
 Alpha  occ. eigenvalues --   -0.64504  -0.61555  -0.61322  -0.58562  -0.57647
 Alpha  occ. eigenvalues --   -0.56815  -0.55131  -0.54444  -0.53425  -0.53050
 Alpha  occ. eigenvalues --   -0.52426  -0.51153  -0.50316  -0.49161  -0.47822
 Alpha  occ. eigenvalues --   -0.45858  -0.44503  -0.32350  -0.32072
 Alpha virt. eigenvalues --    0.18841   0.19296   0.22635   0.24632   0.26787
 Alpha virt. eigenvalues --    0.26963   0.27967   0.29128   0.30475   0.30673
 Alpha virt. eigenvalues --    0.31912   0.32313   0.33192   0.33627   0.34738
 Alpha virt. eigenvalues --    0.35183   0.36575   0.38550   0.39929   0.40165
 Alpha virt. eigenvalues --    0.41046   0.42110   0.43158   0.43697   0.46278
 Alpha virt. eigenvalues --    0.51169   0.52628   0.62514   0.63984   0.69743
 Alpha virt. eigenvalues --    0.70653   0.72266   0.73665   0.74395   0.76099
 Alpha virt. eigenvalues --    0.76348   0.78200   0.80632   0.81896   0.83121
 Alpha virt. eigenvalues --    0.84726   0.86720   0.87303   0.89951   0.91731
 Alpha virt. eigenvalues --    0.92493   0.95360   0.96532   0.98398   0.99411
 Alpha virt. eigenvalues --    1.01133   1.01812   1.03411   1.05974   1.07187
 Alpha virt. eigenvalues --    1.08339   1.08798   1.10035   1.11349   1.12520
 Alpha virt. eigenvalues --    1.12956   1.14175   1.14622   1.15610   1.15809
 Alpha virt. eigenvalues --    1.16474   1.17692   1.18727   1.19290   1.21096
 Alpha virt. eigenvalues --    1.21433   1.22547   1.24480   1.25417   1.26924
 Alpha virt. eigenvalues --    1.28918   1.32298   1.40989   1.42401   1.45055
 Alpha virt. eigenvalues --    1.46546   1.48792   1.54914   1.57018   1.59057
 Alpha virt. eigenvalues --    1.61092   1.67403   1.70361   1.72104   1.73695
 Alpha virt. eigenvalues --    1.76056   1.76460   1.91443   1.91914   1.97253
 Alpha virt. eigenvalues --    1.98836   2.01836   2.04108   2.06651   2.07501
 Alpha virt. eigenvalues --    2.08418   2.10511   2.11545   2.13634   2.14545
 Alpha virt. eigenvalues --    2.16210   2.18580   2.21563   2.25783   2.27893
 Alpha virt. eigenvalues --    2.30101   2.32022   2.33617   2.34833   2.35550
 Alpha virt. eigenvalues --    2.35937   2.35990   2.37903   2.40429   2.41630
 Alpha virt. eigenvalues --    2.43142   2.43580   2.44131   2.44418   2.46274
 Alpha virt. eigenvalues --    2.47266   2.49188   2.50151   2.53010   2.54429
 Alpha virt. eigenvalues --    2.56618   2.58426   2.61260   2.62536   2.64327
 Alpha virt. eigenvalues --    2.68507   2.69189   2.70411   2.71420   2.74004
 Alpha virt. eigenvalues --    2.76826   2.78373   2.79201   2.83625   2.84876
 Alpha virt. eigenvalues --    2.86111   2.88286   2.90334   2.93367   2.94635
 Alpha virt. eigenvalues --    2.95865   2.98855   2.99990   3.03398   3.04199
 Alpha virt. eigenvalues --    3.06644   3.07259   3.10798   3.12770   3.13644
 Alpha virt. eigenvalues --    3.17861   3.18781   3.19355   3.21217   3.21844
 Alpha virt. eigenvalues --    3.23250   3.24990   3.27062   3.30773   3.38792
 Alpha virt. eigenvalues --    3.41509   3.44180   3.46610   3.56331   3.57462
 Alpha virt. eigenvalues --    3.61970   3.62988   3.68447   3.71831   3.79562
 Alpha virt. eigenvalues --    3.80569   3.81857   3.82199   3.83483   3.84129
 Alpha virt. eigenvalues --    3.84915   3.86740   3.88900   3.89820   3.91368
 Alpha virt. eigenvalues --    3.95973   4.58211   4.62238   4.74431   4.84756
 Alpha virt. eigenvalues --    4.89986   4.92495   4.94778   5.08087   5.11236
 Alpha virt. eigenvalues --    5.16167
          Condensed to atoms (all electrons):
               1          2          3          4          5          6
     1  C    4.958699   0.414978   0.406814   0.367233  -0.062079   0.003505
     2  H    0.414978   0.580408  -0.027249  -0.048394   0.003905  -0.000101
     3  H    0.406814  -0.027249   0.605803  -0.045085  -0.004015  -0.000066
     4  C    0.367233  -0.048394  -0.045085   4.941226   0.344564  -0.037639
     5  C   -0.062079   0.003905  -0.004015   0.344564   4.906782   0.407752
     6  H    0.003505  -0.000101  -0.000066  -0.037639   0.407752   0.568231
     7  H   -0.002949   0.000041   0.003175  -0.044168   0.401176  -0.027473
     8  H   -0.001890  -0.000106  -0.000185  -0.041753   0.400460  -0.027861
     9  C   -0.044057  -0.002870   0.001041   0.701308  -0.044021  -0.002907
    10  H   -0.007700   0.002268   0.000255  -0.038873   0.003585   0.000045
    11  C    0.003206   0.000206  -0.000108  -0.047482  -0.008041  -0.002308
    12  H    0.000086   0.000005   0.000002  -0.000027  -0.002099  -0.001217
    13  H   -0.000089  -0.000010  -0.000003  -0.000405   0.000224  -0.000062
    14  H   -0.000113  -0.000005   0.000014  -0.000844   0.000290   0.000077
    15  C   -0.000122  -0.000031   0.000002   0.000006   0.000000  -0.000000
    16  H   -0.000006  -0.000001   0.000000  -0.000001  -0.000000  -0.000000
    17  H   -0.000005   0.000001   0.000000  -0.000000  -0.000000   0.000000
    18  H    0.000026  -0.000004  -0.000000   0.000005   0.000000   0.000000
    19  C   -0.003277   0.001748  -0.000007  -0.000861   0.000014  -0.000000
    20  C    0.000218   0.000094  -0.000011   0.000015  -0.000000   0.000000
    21  H   -0.000214   0.000299   0.000031   0.000000   0.000000  -0.000000
    22  H    0.000148  -0.000073  -0.000005   0.000008   0.000000  -0.000000
    23  H   -0.000041   0.000013   0.000001  -0.000001   0.000000  -0.000000
    24  C   -0.065648  -0.003173   0.006481  -0.006164  -0.000612  -0.000024
    25  H   -0.000231   0.000059  -0.000089   0.001713  -0.000018  -0.000002
    26  C    0.331775  -0.039495  -0.051019  -0.065067   0.000009   0.000042
    27  H   -0.039111  -0.004133  -0.002882   0.005027  -0.000152   0.000001
    28  H   -0.042870   0.004485  -0.002321  -0.004734   0.000389   0.000010
               7          8          9         10         11         12
     1  C   -0.002949  -0.001890  -0.044057  -0.007700   0.003206   0.000086
     2  H    0.000041  -0.000106  -0.002870   0.002268   0.000206   0.000005
     3  H    0.003175  -0.000185   0.001041   0.000255  -0.000108   0.000002
     4  C   -0.044168  -0.041753   0.701308  -0.038873  -0.047482  -0.000027
     5  C    0.401176   0.400460  -0.044021   0.003585  -0.008041  -0.002099
     6  H   -0.027473  -0.027861  -0.002907   0.000045  -0.002308  -0.001217
     7  H    0.588414  -0.036096   0.001396  -0.000113   0.000188   0.000003
     8  H   -0.036096   0.588305  -0.002137  -0.000128   0.000439  -0.000107
     9  C    0.001396  -0.002137   4.924602   0.405542   0.340532  -0.043482
    10  H   -0.000113  -0.000128   0.405542   0.558060  -0.042090   0.003337
    11  C    0.000188   0.000439   0.340532  -0.042090   4.899425   0.407856
    12  H    0.000003  -0.000107  -0.043482   0.003337   0.407856   0.577602
    13  H   -0.000019   0.000086  -0.042225  -0.001437   0.401865  -0.028703
    14  H    0.000032  -0.000037  -0.042058  -0.001005   0.401011  -0.027952
    15  C   -0.000000   0.000001   0.000000   0.000000  -0.000001  -0.000000
    16  H    0.000000  -0.000000  -0.000002   0.000000  -0.000000  -0.000000
    17  H    0.000000   0.000000   0.000000   0.000000   0.000000   0.000000
    18  H   -0.000000  -0.000000  -0.000005  -0.000001   0.000000   0.000000
    19  C   -0.000000  -0.000008   0.000319   0.000144   0.000000   0.000000
    20  C    0.000000   0.000000  -0.000009   0.000001  -0.000000  -0.000000
    21  H    0.000000  -0.000000  -0.000000   0.000000  -0.000000  -0.000000
    22  H    0.000000  -0.000000  -0.000000  -0.000000  -0.000000   0.000000
    23  H   -0.000000   0.000000   0.000000   0.000000   0.000000   0.000000
    24  C    0.000144  -0.000122   0.004145   0.000343  -0.000040   0.000002
    25  H    0.000001   0.000271   0.000287  -0.000004   0.000015   0.000001
    26  C   -0.001274   0.001254  -0.005911   0.000193  -0.000087  -0.000005
    27  H   -0.000028   0.000046  -0.000004  -0.000011   0.000002   0.000000
    28  H    0.000431  -0.001722   0.000308  -0.000003   0.000004  -0.000000
              13         14         15         16         17         18
     1  C   -0.000089  -0.000113  -0.000122  -0.000006  -0.000005   0.000026
     2  H   -0.000010  -0.000005  -0.000031  -0.000001   0.000001  -0.000004
     3  H   -0.000003   0.000014   0.000002   0.000000   0.000000  -0.000000
     4  C   -0.000405  -0.000844   0.000006  -0.000001  -0.000000   0.000005
     5  C    0.000224   0.000290   0.000000  -0.000000  -0.000000   0.000000
     6  H   -0.000062   0.000077  -0.000000  -0.000000   0.000000   0.000000
     7  H   -0.000019   0.000032  -0.000000   0.000000   0.000000  -0.000000
     8  H    0.000086  -0.000037   0.000001  -0.000000   0.000000  -0.000000
     9  C   -0.042225  -0.042058   0.000000  -0.000002   0.000000  -0.000005
    10  H   -0.001437  -0.001005   0.000000   0.000000   0.000000  -0.000001
    11  C    0.401865   0.401011  -0.000001  -0.000000   0.000000   0.000000
    12  H   -0.028703  -0.027952  -0.000000  -0.000000   0.000000   0.000000
    13  H    0.585946  -0.035940  -0.000000   0.000002   0.000000  -0.000000
    14  H   -0.035940   0.586631   0.000000  -0.000000  -0.000000   0.000000
    15  C   -0.000000   0.000000   4.898851   0.406043   0.398555   0.398252
    16  H    0.000002  -0.000000   0.406043   0.566192  -0.026609  -0.026723
    17  H    0.000000  -0.000000   0.398555  -0.026609   0.596560  -0.038228
    18  H   -0.000000   0.000000   0.398252  -0.026723  -0.038228   0.596674
    19  C    0.000003  -0.000000   0.354225  -0.041429  -0.044437  -0.044191
    20  C    0.000000   0.000000  -0.065469   0.003816  -0.001203  -0.001965
    21  H    0.000000   0.000000   0.003773  -0.000115  -0.000033  -0.000069
    22  H   -0.000000   0.000000  -0.002597  -0.000037  -0.000483   0.002800
    23  H    0.000000  -0.000000  -0.002272  -0.000048   0.002824  -0.000483
    24  C    0.000010   0.000001  -0.044006  -0.002624  -0.001369  -0.000374
    25  H   -0.000001   0.000000  -0.007042   0.002394   0.000177   0.000191
    26  C    0.000025  -0.000006   0.003207   0.000143  -0.000129  -0.000078
    27  H   -0.000000   0.000000   0.000046   0.000006   0.000007  -0.000005
    28  H   -0.000000   0.000000  -0.000092  -0.000009   0.000009  -0.000002
              19         20         21         22         23         24
     1  C   -0.003277   0.000218  -0.000214   0.000148  -0.000041  -0.065648
     2  H    0.001748   0.000094   0.000299  -0.000073   0.000013  -0.003173
     3  H   -0.000007  -0.000011   0.000031  -0.000005   0.000001   0.006481
     4  C   -0.000861   0.000015   0.000000   0.000008  -0.000001  -0.006164
     5  C    0.000014  -0.000000   0.000000   0.000000   0.000000  -0.000612
     6  H   -0.000000   0.000000  -0.000000  -0.000000  -0.000000  -0.000024
     7  H   -0.000000   0.000000   0.000000   0.000000  -0.000000   0.000144
     8  H   -0.000008   0.000000  -0.000000  -0.000000   0.000000  -0.000122
     9  C    0.000319  -0.000009  -0.000000  -0.000000   0.000000   0.004145
    10  H    0.000144   0.000001   0.000000  -0.000000   0.000000   0.000343
    11  C    0.000000  -0.000000  -0.000000  -0.000000   0.000000  -0.000040
    12  H    0.000000  -0.000000  -0.000000   0.000000   0.000000   0.000002
    13  H    0.000003   0.000000   0.000000  -0.000000   0.000000   0.000010
    14  H   -0.000000   0.000000   0.000000   0.000000  -0.000000   0.000001
    15  C    0.354225  -0.065469   0.003773  -0.002597  -0.002272  -0.044006
    16  H   -0.041429   0.003816  -0.000115  -0.000037  -0.000048  -0.002624
    17  H   -0.044437  -0.001203  -0.000033  -0.000483   0.002824  -0.001369
    18  H   -0.044191  -0.001965  -0.000069   0.002800  -0.000483  -0.000374
    19  C    4.913483   0.350869  -0.037829  -0.043571  -0.044028   0.703287
    20  C    0.350869   4.905140   0.406859   0.400689   0.400403  -0.044143
    21  H   -0.037829   0.406859   0.570426  -0.028164  -0.026815  -0.002911
    22  H   -0.043571   0.400689  -0.028164   0.588900  -0.036149  -0.000063
    23  H   -0.044028   0.400403  -0.026815  -0.036149   0.587730  -0.000423
    24  C    0.703287  -0.044143  -0.002911  -0.000063  -0.000423   4.954521
    25  H   -0.037065   0.003520   0.000054  -0.000119  -0.000120   0.404545
    26  C   -0.049420  -0.007700  -0.002619   0.000293   0.000146   0.331201
    27  H   -0.000696  -0.002352  -0.001461  -0.000076   0.000093  -0.043557
    28  H    0.002017   0.000153   0.000070  -0.000014   0.000023  -0.043994
              25         26         27         28
     1  C   -0.000231   0.331775  -0.039111  -0.042870
     2  H    0.000059  -0.039495  -0.004133   0.004485
     3  H   -0.000089  -0.051019  -0.002882  -0.002321
     4  C    0.001713  -0.065067   0.005027  -0.004734
     5  C   -0.000018   0.000009  -0.000152   0.000389
     6  H   -0.000002   0.000042   0.000001   0.000010
     7  H    0.000001  -0.001274  -0.000028   0.000431
     8  H    0.000271   0.001254   0.000046  -0.001722
     9  C    0.000287  -0.005911  -0.000004   0.000308
    10  H   -0.000004   0.000193  -0.000011  -0.000003
    11  C    0.000015  -0.000087   0.000002   0.000004
    12  H    0.000001  -0.000005   0.000000  -0.000000
    13  H   -0.000001   0.000025  -0.000000  -0.000000
    14  H    0.000000  -0.000006   0.000000   0.000000
    15  C   -0.007042   0.003207   0.000046  -0.000092
    16  H    0.002394   0.000143   0.000006  -0.000009
    17  H    0.000177  -0.000129   0.000007   0.000009
    18  H    0.000191  -0.000078  -0.000005  -0.000002
    19  C   -0.037065  -0.049420  -0.000696   0.002017
    20  C    0.003520  -0.007700  -0.002352   0.000153
    21  H    0.000054  -0.002619  -0.001461   0.000070
    22  H   -0.000119   0.000293  -0.000076  -0.000014
    23  H   -0.000120   0.000146   0.000093   0.000023
    24  C    0.404545   0.331201  -0.043557  -0.043994
    25  H    0.551496  -0.039483   0.003254  -0.003719
    26  C   -0.039483   5.017155   0.417453   0.412720
    27  H    0.003254   0.417453   0.579436  -0.029676
    28  H   -0.003719   0.412720  -0.029676   0.592366
 Mulliken charges:
               1
     1  C   -0.216287
     2  H    0.117134
     3  H    0.109424
     4  C    0.020392
     5  C   -0.348113
     6  H    0.119996
     7  H    0.117119
     8  H    0.121290
     9  C   -0.149792
    10  H    0.117593
    11  C   -0.354592
    12  H    0.114699
    13  H    0.120734
    14  H    0.119903
    15  C   -0.341330
    16  H    0.119010
    17  H    0.114361
    18  H    0.114181
    19  C    0.020711
    20  C   -0.348922
    21  H    0.118717
    22  H    0.118513
    23  H    0.119147
    24  C   -0.145433
    25  H    0.119915
    26  C   -0.253321
    27  H    0.118774
    28  H    0.116172
 Sum of Mulliken charges =  -0.00000
 Mulliken charges with hydrogens summed into heavy atoms:
               1
     1  C    0.010272
     4  C    0.020392
     5  C    0.010292
     9  C   -0.032199
    11  C    0.000745
    15  C    0.006222
    19  C    0.020711
    20  C    0.007456
    24  C   -0.025518
    26  C   -0.018375
 Electronic spatial extent (au):  <R**2>=           2155.0018
 Charge=              0.0000 electrons
 Dipole moment (field-independent basis, Debye):
    X=              0.1025    Y=             -0.0049    Z=             -0.0166  Tot=              0.1040
 Quadrupole moment (field-independent basis, Debye-Ang):
   XX=            -64.6470   YY=            -64.2172   ZZ=            -65.5035
   XY=              0.3066   XZ=             -2.4039   YZ=             -0.0857
 Traceless Quadrupole moment (field-independent basis, Debye-Ang):
   XX=              0.1422   YY=              0.5721   ZZ=             -0.7143
   XY=              0.3066   XZ=             -2.4039   YZ=             -0.0857
 Octapole moment (field-independent basis, Debye-Ang**2):
  XXX=              4.9521  YYY=             -1.1286  ZZZ=             -0.1365  XYY=             -1.7075
  XXY=              3.3832  XXZ=              1.2895  XZZ=             -0.5554  YZZ=              2.5108
  YYZ=             -1.8225  XYZ=              2.0938
 Hexadecapole moment (field-independent basis, Debye-Ang**3):
 XXXX=          -1996.5332 YYYY=           -676.6653 ZZZZ=           -314.4670 XXXY=             -3.3754
 XXXZ=            -12.2668 YYYX=              2.1734 YYYZ=              0.7631 ZZZX=             -5.4277
 ZZZY=             -2.1308 XXYY=           -449.7660 XXZZ=           -396.9377 YYZZ=           -163.9379
 XXYZ=             -1.4309 YYXZ=             -1.2915 ZZXY=             -0.5697
 N-N= 5.272114917760D+02 E-N=-1.959243724600D+03  KE= 3.887484146685D+02
 No NMR shielding tensors so no spin-rotation constants.
 Leave Link  601 at Fri Sep 17 23:46:53 2021, MaxMem=   524288000 cpu:               0.3 elap:               0.9
 (Enter /opt/gaussian/g16_legacy/l9999.exe)
 1\1\GINC-TRUENO91\FOpt\RMP2-FC\6-31G(d,p)\C10H18\JRAMOS\17-Sep-2021\0\
 \#p opt mp2/6-31g(d,p)\\Conformer number 035. Energy MM = 30.724 kcal/
 mol\\0,1\C,1.972069762,1.9862731698,-8.657062986\H,1.4252359303,1.0930
 602874,-8.9678797614\H,1.809376093,2.7518247842,-9.4241057623\C,3.4421
 35178,1.6695027779,-8.5611851671\C,4.3369089682,2.8489751716,-8.290029
 4227\H,5.3900368005,2.6193734279,-8.4304040912\H,4.0828651989,3.674442
 3138,-8.9579307907\H,4.2100185963,3.2151554576,-7.2690314058\C,3.86799
 72823,0.3981367636,-8.6842564627\H,3.1110034248,-0.3579391902,-8.87311
 48098\C,5.2706749845,-0.119710952,-8.5875882209\H,5.9962190501,0.66410
 97928,-8.3856421602\H,5.3502068559,-0.8581884737,-7.7876939456\H,5.564
 0686875,-0.6205957777,-9.5119893702\C,1.0742052957,-0.3916246374,-4.68
 55048751\H,2.0839619823,-0.2096729682,-4.3207817981\H,0.3832571146,-0.
 2954789641,-3.8447543967\H,1.0148496158,-1.427623763,-5.0268766346\C,0
 .7076778433,0.5589428419,-5.7917020419\C,-0.675487818,0.3688634763,-6.
 3495435784\H,-0.9042369646,1.0538205548,-7.1619162572\H,-0.792126758,-
 0.6496361367,-6.7263459458\H,-1.4259701314,0.5035666527,-5.5673731022\
 C,1.5813798788,1.4900096081,-6.2186137155\H,2.5600027169,1.5063630776,
 -5.7476209031\C,1.3759252245,2.4821048844,-7.3248077792\H,0.3163582002
 ,2.6962286922,-7.471058666\H,1.8420869875,3.4315171281,-7.0497859495\\
 Version=EM64L-G16RevA.03\State=1-A\HF=-389.1553862\MP2=-390.5738652\RM
 SD=4.488e-09\RMSF=1.285e-06\Dipole=-0.0172147,-0.0267464,0.0194986\PG=
 C01 [X(C10H18)]\\@


 BLESSED ARE THOSE WHO NOUGHT EXPECT,
 FOR THEY SHALL NOT BE DISAPPOINTED..  WALCOT - ODE TO PITT
 Job cpu time:       0 days  3 hours 36 minutes 59.3 seconds.
 Elapsed time:       0 days  3 hours 37 minutes 14.6 seconds.
 File lengths (MBytes):  RWF=     37 Int=      0 D2E=      0 Chk=      7 Scr=      1
 Normal termination of Gaussian 16 at Fri Sep 17 23:46:54 2021.
