 Entering Gaussian System, Link 0=/opt/gaussian/g16_legacy/g16
 Input=02-IsoP_004_gaussian.com
 Output=02-IsoP_004_gaussian.log
 Initial command:
 /opt/gaussian/g16_legacy/l1.exe "/scratch-local/jramos/2661503/Gau-13990.inp" -scrdir="/scratch-local/jramos/2661503/"
 Entering Link 1 = /opt/gaussian/g16_legacy/l1.exe PID=     13992.
  
 Copyright (c) 1988,1990,1992,1993,1995,1998,2003,2009,2016,
            Gaussian, Inc.  All Rights Reserved.
  
 This is part of the Gaussian(R) 16 program.  It is based on
 the Gaussian(R) 09 system (copyright 2009, Gaussian, Inc.),
 the Gaussian(R) 03 system (copyright 2003, Gaussian, Inc.),
 the Gaussian(R) 98 system (copyright 1998, Gaussian, Inc.),
 the Gaussian(R) 94 system (copyright 1995, Gaussian, Inc.),
 the Gaussian 92(TM) system (copyright 1992, Gaussian, Inc.),
 the Gaussian 90(TM) system (copyright 1990, Gaussian, Inc.),
 the Gaussian 88(TM) system (copyright 1988, Gaussian, Inc.),
 the Gaussian 86(TM) system (copyright 1986, Carnegie Mellon
 University), and the Gaussian 82(TM) system (copyright 1983,
 Carnegie Mellon University). Gaussian is a federally registered
 trademark of Gaussian, Inc.
  
 This software contains proprietary and confidential information,
 including trade secrets, belonging to Gaussian, Inc.
  
 This software is provided under written license and may be
 used, copied, transmitted, or stored only in accord with that
 written license.
  
 The following legend is applicable only to US Government
 contracts under FAR:
  
                    RESTRICTED RIGHTS LEGEND
  
 Use, reproduction and disclosure by the US Government is
 subject to restrictions as set forth in subparagraphs (a)
 and (c) of the Commercial Computer Software - Restricted
 Rights clause in FAR 52.227-19.
  
 Gaussian, Inc.
 340 Quinnipiac St., Bldg. 40, Wallingford CT 06492
  
  
 ---------------------------------------------------------------
 Warning -- This program may not be used in any manner that
 competes with the business of Gaussian, Inc. or will provide
 assistance to any competitor of Gaussian, Inc.  The licensee
 of this program is prohibited from giving any competitor of
 Gaussian, Inc. access to this program.  By using this program,
 the user acknowledges that Gaussian, Inc. is engaged in the
 business of creating and licensing software in the field of
 computational chemistry and represents and warrants to the
 licensee that it is not a competitor of Gaussian, Inc. and that
 it will not use this program in any manner prohibited above.
 ---------------------------------------------------------------
  

 Cite this work as:
 Gaussian 16, Revision A.03,
 M. J. Frisch, G. W. Trucks, H. B. Schlegel, G. E. Scuseria, 
 M. A. Robb, J. R. Cheeseman, G. Scalmani, V. Barone, 
 G. A. Petersson, H. Nakatsuji, X. Li, M. Caricato, A. V. Marenich, 
 J. Bloino, B. G. Janesko, R. Gomperts, B. Mennucci, H. P. Hratchian, 
 J. V. Ortiz, A. F. Izmaylov, J. L. Sonnenberg, D. Williams-Young, 
 F. Ding, F. Lipparini, F. Egidi, J. Goings, B. Peng, A. Petrone, 
 T. Henderson, D. Ranasinghe, V. G. Zakrzewski, J. Gao, N. Rega, 
 G. Zheng, W. Liang, M. Hada, M. Ehara, K. Toyota, R. Fukuda, 
 J. Hasegawa, M. Ishida, T. Nakajima, Y. Honda, O. Kitao, H. Nakai, 
 T. Vreven, K. Throssell, J. A. Montgomery, Jr., J. E. Peralta, 
 F. Ogliaro, M. J. Bearpark, J. J. Heyd, E. N. Brothers, K. N. Kudin, 
 V. N. Staroverov, T. A. Keith, R. Kobayashi, J. Normand, 
 K. Raghavachari, A. P. Rendell, J. C. Burant, S. S. Iyengar, 
 J. Tomasi, M. Cossi, J. M. Millam, M. Klene, C. Adamo, R. Cammi, 
 J. W. Ochterski, R. L. Martin, K. Morokuma, O. Farkas, 
 J. B. Foresman, and D. J. Fox, Gaussian, Inc., Wallingford CT, 2016.
 
 ******************************************
 Gaussian 16:  EM64L-G16RevA.03 25-Dec-2016
                17-Sep-2021 
 ******************************************
 %chk=02-IsoP_004_gaussian.chk
 %nproc=1
 Will use up to    1 processors via shared memory.
 %mem=4000Mb
 ---------------------
 #p opt mp2/6-31g(d,p)
 ---------------------
 1/18=20,19=15,38=1/1,3;
 2/9=110,12=2,17=6,18=5,40=1/2;
 3/5=1,6=6,7=101,11=9,25=1,30=1,71=1/1,2,3;
 4//1;
 5/5=2,38=5/2;
 8/6=4,10=2/1;
 9/15=2,16=-3/6;
 10/5=1/2;
 6/7=2,8=2,9=2,10=2/1;
 7/12=2/1,2,3,16;
 1/18=20,19=15/3(2);
 2/9=110/2;
 99//99;
 2/9=110/2;
 3/5=1,6=6,7=101,11=9,25=1,30=1,71=1/1,2,3;
 4/5=5,16=3,69=1/1;
 5/5=2,38=5/2;
 8/6=4,10=2/1;
 9/15=2,16=-3/6;
 10/5=1/2;
 7/12=2/1,2,3,16;
 1/18=20,19=15/3(-8);
 2/9=110/2;
 6/7=2,8=2,9=2,10=2/1;
 99//99;
 Leave Link    1 at Fri Sep 17 20:09:24 2021, MaxMem=   524288000 cpu:               0.0 elap:               0.1
 (Enter /opt/gaussian/g16_legacy/l101.exe)
 -------------------------------------------------
 Conformer number 004. Energy MM = 27.498 kcal/mol
 -------------------------------------------------
 Symbolic Z-matrix:
 Charge =  0 Multiplicity = 1
 C                     2.1791    1.2101   -8.955 
 H                     1.8753    0.179    -9.1771 
 H                     2.0322    1.7691   -9.8878 
 C                     3.6462    1.2108   -8.5632 
 C                     4.0254    0.3531   -7.3866 
 H                     4.8196    0.809    -6.7885 
 H                     3.186     0.2015   -6.704 
 H                     4.3551   -0.6335   -7.7313 
 C                     4.5329    1.954    -9.2569 
 H                     4.1749    2.5466   -10.0979 
 C                     6.0035    2.0685   -9.0139 
 H                     6.3595    1.4437   -8.1914 
 H                     6.5501    1.7743   -9.9147 
 H                     6.257     3.1077   -8.7841 
 C                     1.3884    5.273    -6.1204 
 H                     2.1862    5.6427   -6.7732 
 H                     0.5334    5.9506   -6.2205 
 H                     1.7558    5.3254   -5.0899 
 C                     0.9803    3.8662   -6.4572 
 C                    -0.1076    3.2847   -5.598 
 H                    -0.0156    2.2001   -5.4877 
 H                    -0.074     3.7057   -4.5881 
 H                    -1.0867    3.5094   -6.0323 
 C                     1.5631    3.1982   -7.471 
 H                     2.3342    3.7037   -8.0505 
 C                     1.2313    1.7888   -7.8888 
 H                     1.236     1.1316   -7.0128 
 H                     0.2124    1.7736   -8.2954 
 
 ITRead=  0  0  0  0  0  0  0  0  0  0  0  0  0  0  0  0  0  0  0  0
 ITRead=  0  0  0  0  0  0  0  0
 MicOpt= -1 -1 -1 -1 -1 -1 -1 -1 -1 -1 -1 -1 -1 -1 -1 -1 -1 -1 -1 -1
 MicOpt= -1 -1 -1 -1 -1 -1 -1 -1
 NAtoms=     28 NQM=       28 NQMF=       0 NMMI=      0 NMMIF=      0
                NMic=       0 NMicF=      0.
                    Isotopes and Nuclear Properties:
 (Nuclear quadrupole moments (NQMom) in fm**2, nuclear magnetic moments (NMagM)
  in nuclear magnetons)

  Atom         1           2           3           4           5           6           7           8           9          10
 IAtWgt=          12           1           1          12          12           1           1           1          12           1
 AtmWgt=  12.0000000   1.0078250   1.0078250  12.0000000  12.0000000   1.0078250   1.0078250   1.0078250  12.0000000   1.0078250
 NucSpn=           0           1           1           0           0           1           1           1           0           1
 AtZEff=  -0.0000000  -0.0000000  -0.0000000  -0.0000000  -0.0000000  -0.0000000  -0.0000000  -0.0000000  -0.0000000  -0.0000000
 NQMom=    0.0000000   0.0000000   0.0000000   0.0000000   0.0000000   0.0000000   0.0000000   0.0000000   0.0000000   0.0000000
 NMagM=    0.0000000   2.7928460   2.7928460   0.0000000   0.0000000   2.7928460   2.7928460   2.7928460   0.0000000   2.7928460
 AtZNuc=   6.0000000   1.0000000   1.0000000   6.0000000   6.0000000   1.0000000   1.0000000   1.0000000   6.0000000   1.0000000

  Atom        11          12          13          14          15          16          17          18          19          20
 IAtWgt=          12           1           1           1          12           1           1           1          12          12
 AtmWgt=  12.0000000   1.0078250   1.0078250   1.0078250  12.0000000   1.0078250   1.0078250   1.0078250  12.0000000  12.0000000
 NucSpn=           0           1           1           1           0           1           1           1           0           0
 AtZEff=  -0.0000000  -0.0000000  -0.0000000  -0.0000000  -0.0000000  -0.0000000  -0.0000000  -0.0000000  -0.0000000  -0.0000000
 NQMom=    0.0000000   0.0000000   0.0000000   0.0000000   0.0000000   0.0000000   0.0000000   0.0000000   0.0000000   0.0000000
 NMagM=    0.0000000   2.7928460   2.7928460   2.7928460   0.0000000   2.7928460   2.7928460   2.7928460   0.0000000   0.0000000
 AtZNuc=   6.0000000   1.0000000   1.0000000   1.0000000   6.0000000   1.0000000   1.0000000   1.0000000   6.0000000   6.0000000

  Atom        21          22          23          24          25          26          27          28
 IAtWgt=           1           1           1          12           1          12           1           1
 AtmWgt=   1.0078250   1.0078250   1.0078250  12.0000000   1.0078250  12.0000000   1.0078250   1.0078250
 NucSpn=           1           1           1           0           1           0           1           1
 AtZEff=  -0.0000000  -0.0000000  -0.0000000  -0.0000000  -0.0000000  -0.0000000  -0.0000000  -0.0000000
 NQMom=    0.0000000   0.0000000   0.0000000   0.0000000   0.0000000   0.0000000   0.0000000   0.0000000
 NMagM=    2.7928460   2.7928460   2.7928460   0.0000000   2.7928460   0.0000000   2.7928460   2.7928460
 AtZNuc=   1.0000000   1.0000000   1.0000000   6.0000000   1.0000000   6.0000000   1.0000000   1.0000000
 Leave Link  101 at Fri Sep 17 20:09:25 2021, MaxMem=   524288000 cpu:               0.1 elap:               0.2
 (Enter /opt/gaussian/g16_legacy/l103.exe)

 GradGradGradGradGradGradGradGradGradGradGradGradGradGradGradGradGradGrad
 Berny optimization.
 Initialization pass.
                           ----------------------------
                           !    Initial Parameters    !
                           ! (Angstroms and Degrees)  !
 --------------------------                            --------------------------
 ! Name  Definition              Value          Derivative Info.                !
 --------------------------------------------------------------------------------
 ! R1    R(1,2)                  1.0976         estimate D2E/DX2                !
 ! R2    R(1,3)                  1.0973         estimate D2E/DX2                !
 ! R3    R(1,4)                  1.5185         estimate D2E/DX2                !
 ! R4    R(1,26)                 1.5395         estimate D2E/DX2                !
 ! R5    R(4,5)                  1.5046         estimate D2E/DX2                !
 ! R6    R(4,9)                  1.349          estimate D2E/DX2                !
 ! R7    R(5,6)                  1.0938         estimate D2E/DX2                !
 ! R8    R(5,7)                  1.0925         estimate D2E/DX2                !
 ! R9    R(5,8)                  1.0959         estimate D2E/DX2                !
 ! R10   R(9,10)                 1.0893         estimate D2E/DX2                !
 ! R11   R(9,11)                 1.4949         estimate D2E/DX2                !
 ! R12   R(11,12)                1.0925         estimate D2E/DX2                !
 ! R13   R(11,13)                1.094          estimate D2E/DX2                !
 ! R14   R(11,14)                1.0941         estimate D2E/DX2                !
 ! R15   R(15,16)                1.0951         estimate D2E/DX2                !
 ! R16   R(15,17)                1.0955         estimate D2E/DX2                !
 ! R17   R(15,18)                1.0953         estimate D2E/DX2                !
 ! R18   R(15,19)                1.503          estimate D2E/DX2                !
 ! R19   R(19,20)                1.5033         estimate D2E/DX2                !
 ! R20   R(19,24)                1.3467         estimate D2E/DX2                !
 ! R21   R(20,21)                1.0941         estimate D2E/DX2                !
 ! R22   R(20,22)                1.0947         estimate D2E/DX2                !
 ! R23   R(20,23)                1.0944         estimate D2E/DX2                !
 ! R24   R(24,25)                1.089          estimate D2E/DX2                !
 ! R25   R(24,26)                1.507          estimate D2E/DX2                !
 ! R26   R(26,27)                1.0951         estimate D2E/DX2                !
 ! R27   R(26,28)                1.0971         estimate D2E/DX2                !
 ! A1    A(2,1,3)              105.6332         estimate D2E/DX2                !
 ! A2    A(2,1,4)              108.6658         estimate D2E/DX2                !
 ! A3    A(2,1,26)             108.8359         estimate D2E/DX2                !
 ! A4    A(3,1,4)              110.3911         estimate D2E/DX2                !
 ! A5    A(3,1,26)             108.3494         estimate D2E/DX2                !
 ! A6    A(4,1,26)             114.5791         estimate D2E/DX2                !
 ! A7    A(1,4,5)              116.4232         estimate D2E/DX2                !
 ! A8    A(1,4,9)              120.1735         estimate D2E/DX2                !
 ! A9    A(5,4,9)              123.4033         estimate D2E/DX2                !
 ! A10   A(4,5,6)              111.9015         estimate D2E/DX2                !
 ! A11   A(4,5,7)              111.9667         estimate D2E/DX2                !
 ! A12   A(4,5,8)              110.0637         estimate D2E/DX2                !
 ! A13   A(6,5,7)              105.9072         estimate D2E/DX2                !
 ! A14   A(6,5,8)              109.1962         estimate D2E/DX2                !
 ! A15   A(7,5,8)              107.6239         estimate D2E/DX2                !
 ! A16   A(4,9,10)             118.731          estimate D2E/DX2                !
 ! A17   A(4,9,11)             127.244          estimate D2E/DX2                !
 ! A18   A(10,9,11)            114.0243         estimate D2E/DX2                !
 ! A19   A(9,11,12)            113.523          estimate D2E/DX2                !
 ! A20   A(9,11,13)            109.6986         estimate D2E/DX2                !
 ! A21   A(9,11,14)            109.5618         estimate D2E/DX2                !
 ! A22   A(12,11,13)           107.656          estimate D2E/DX2                !
 ! A23   A(12,11,14)           108.0335         estimate D2E/DX2                !
 ! A24   A(13,11,14)           108.2173         estimate D2E/DX2                !
 ! A25   A(16,15,17)           107.7753         estimate D2E/DX2                !
 ! A26   A(16,15,18)           107.4767         estimate D2E/DX2                !
 ! A27   A(16,15,19)           112.3462         estimate D2E/DX2                !
 ! A28   A(17,15,18)           108.552          estimate D2E/DX2                !
 ! A29   A(17,15,19)           110.2756         estimate D2E/DX2                !
 ! A30   A(18,15,19)           110.2846         estimate D2E/DX2                !
 ! A31   A(15,19,20)           115.4977         estimate D2E/DX2                !
 ! A32   A(15,19,24)           121.0275         estimate D2E/DX2                !
 ! A33   A(20,19,24)           123.474          estimate D2E/DX2                !
 ! A34   A(19,20,21)           112.3483         estimate D2E/DX2                !
 ! A35   A(19,20,22)           110.8738         estimate D2E/DX2                !
 ! A36   A(19,20,23)           109.9499         estimate D2E/DX2                !
 ! A37   A(21,20,22)           106.5993         estimate D2E/DX2                !
 ! A38   A(21,20,23)           108.5889         estimate D2E/DX2                !
 ! A39   A(22,20,23)           108.337          estimate D2E/DX2                !
 ! A40   A(19,24,25)           118.4742         estimate D2E/DX2                !
 ! A41   A(19,24,26)           125.2619         estimate D2E/DX2                !
 ! A42   A(25,24,26)           116.2628         estimate D2E/DX2                !
 ! A43   A(1,26,24)            114.0803         estimate D2E/DX2                !
 ! A44   A(1,26,27)            109.0118         estimate D2E/DX2                !
 ! A45   A(1,26,28)            108.0522         estimate D2E/DX2                !
 ! A46   A(24,26,27)           109.7876         estimate D2E/DX2                !
 ! A47   A(24,26,28)           108.6734         estimate D2E/DX2                !
 ! A48   A(27,26,28)           106.9847         estimate D2E/DX2                !
 ! D1    D(2,1,4,5)            -57.9735         estimate D2E/DX2                !
 ! D2    D(2,1,4,9)            122.0431         estimate D2E/DX2                !
 ! D3    D(3,1,4,5)           -173.3794         estimate D2E/DX2                !
 ! D4    D(3,1,4,9)              6.6373         estimate D2E/DX2                !
 ! D5    D(26,1,4,5)            63.9815         estimate D2E/DX2                !
 ! D6    D(26,1,4,9)          -116.0018         estimate D2E/DX2                !
 ! D7    D(2,1,26,24)          178.6804         estimate D2E/DX2                !
 ! D8    D(2,1,26,27)           55.5748         estimate D2E/DX2                !
 ! D9    D(2,1,26,28)          -60.3549         estimate D2E/DX2                !
 ! D10   D(3,1,26,24)          -66.9185         estimate D2E/DX2                !
 ! D11   D(3,1,26,27)          169.9759         estimate D2E/DX2                !
 ! D12   D(3,1,26,28)           54.0462         estimate D2E/DX2                !
 ! D13   D(4,1,26,24)           56.8181         estimate D2E/DX2                !
 ! D14   D(4,1,26,27)          -66.2876         estimate D2E/DX2                !
 ! D15   D(4,1,26,28)          177.7827         estimate D2E/DX2                !
 ! D16   D(1,4,5,6)           -144.5446         estimate D2E/DX2                !
 ! D17   D(1,4,5,7)            -25.8146         estimate D2E/DX2                !
 ! D18   D(1,4,5,8)             93.847          estimate D2E/DX2                !
 ! D19   D(9,4,5,6)             35.4382         estimate D2E/DX2                !
 ! D20   D(9,4,5,7)            154.1681         estimate D2E/DX2                !
 ! D21   D(9,4,5,8)            -86.1703         estimate D2E/DX2                !
 ! D22   D(1,4,9,10)            -0.1038         estimate D2E/DX2                !
 ! D23   D(1,4,9,11)          -179.7874         estimate D2E/DX2                !
 ! D24   D(5,4,9,10)           179.9141         estimate D2E/DX2                !
 ! D25   D(5,4,9,11)             0.2305         estimate D2E/DX2                !
 ! D26   D(4,9,11,12)            1.7511         estimate D2E/DX2                !
 ! D27   D(4,9,11,13)          122.2282         estimate D2E/DX2                !
 ! D28   D(4,9,11,14)         -119.1117         estimate D2E/DX2                !
 ! D29   D(10,9,11,12)        -177.9452         estimate D2E/DX2                !
 ! D30   D(10,9,11,13)         -57.468          estimate D2E/DX2                !
 ! D31   D(10,9,11,14)          61.192          estimate D2E/DX2                !
 ! D32   D(16,15,19,20)        179.6863         estimate D2E/DX2                !
 ! D33   D(16,15,19,24)         -0.6405         estimate D2E/DX2                !
 ! D34   D(17,15,19,20)        -60.0661         estimate D2E/DX2                !
 ! D35   D(17,15,19,24)        119.6071         estimate D2E/DX2                !
 ! D36   D(18,15,19,20)         59.8116         estimate D2E/DX2                !
 ! D37   D(18,15,19,24)       -120.5152         estimate D2E/DX2                !
 ! D38   D(15,19,20,21)       -149.43           estimate D2E/DX2                !
 ! D39   D(15,19,20,22)        -30.2637         estimate D2E/DX2                !
 ! D40   D(15,19,20,23)         89.5128         estimate D2E/DX2                !
 ! D41   D(24,19,20,21)         30.9057         estimate D2E/DX2                !
 ! D42   D(24,19,20,22)        150.072          estimate D2E/DX2                !
 ! D43   D(24,19,20,23)        -90.1515         estimate D2E/DX2                !
 ! D44   D(15,19,24,25)         -0.5243         estimate D2E/DX2                !
 ! D45   D(15,19,24,26)        179.8725         estimate D2E/DX2                !
 ! D46   D(20,19,24,25)        179.1221         estimate D2E/DX2                !
 ! D47   D(20,19,24,26)         -0.4811         estimate D2E/DX2                !
 ! D48   D(19,24,26,1)        -172.2714         estimate D2E/DX2                !
 ! D49   D(19,24,26,27)        -49.5881         estimate D2E/DX2                !
 ! D50   D(19,24,26,28)         67.11           estimate D2E/DX2                !
 ! D51   D(25,24,26,1)           8.1176         estimate D2E/DX2                !
 ! D52   D(25,24,26,27)        130.8009         estimate D2E/DX2                !
 ! D53   D(25,24,26,28)       -112.501          estimate D2E/DX2                !
 --------------------------------------------------------------------------------
 Trust Radius=3.00D-01 FncErr=1.00D-07 GrdErr=1.00D-07 EigMax=2.50D+02 EigMin=1.00D-04
 Number of steps in this run=    138 maximum allowed number of steps=    168.
 GradGradGradGradGradGradGradGradGradGradGradGradGradGradGradGradGradGrad

 Leave Link  103 at Fri Sep 17 20:09:25 2021, MaxMem=   524288000 cpu:               0.0 elap:               0.2
 (Enter /opt/gaussian/g16_legacy/l202.exe)
                          Input orientation:                          
 ---------------------------------------------------------------------
 Center     Atomic      Atomic             Coordinates (Angstroms)
 Number     Number       Type             X           Y           Z
 ---------------------------------------------------------------------
      1          6           0        2.179100    1.210100   -8.955000
      2          1           0        1.875300    0.179000   -9.177100
      3          1           0        2.032200    1.769100   -9.887800
      4          6           0        3.646200    1.210800   -8.563200
      5          6           0        4.025400    0.353100   -7.386600
      6          1           0        4.819600    0.809000   -6.788500
      7          1           0        3.186000    0.201500   -6.704000
      8          1           0        4.355100   -0.633500   -7.731300
      9          6           0        4.532900    1.954000   -9.256900
     10          1           0        4.174900    2.546600  -10.097900
     11          6           0        6.003500    2.068500   -9.013900
     12          1           0        6.359500    1.443700   -8.191400
     13          1           0        6.550100    1.774300   -9.914700
     14          1           0        6.257000    3.107700   -8.784100
     15          6           0        1.388400    5.273000   -6.120400
     16          1           0        2.186200    5.642700   -6.773200
     17          1           0        0.533400    5.950600   -6.220500
     18          1           0        1.755800    5.325400   -5.089900
     19          6           0        0.980300    3.866200   -6.457200
     20          6           0       -0.107600    3.284700   -5.598000
     21          1           0       -0.015600    2.200100   -5.487700
     22          1           0       -0.074000    3.705700   -4.588100
     23          1           0       -1.086700    3.509400   -6.032300
     24          6           0        1.563100    3.198200   -7.471000
     25          1           0        2.334200    3.703700   -8.050500
     26          6           0        1.231300    1.788800   -7.888800
     27          1           0        1.236000    1.131600   -7.012800
     28          1           0        0.212400    1.773600   -8.295400
 ---------------------------------------------------------------------
                    Distance matrix (angstroms):
                    1          2          3          4          5
     1  C    0.000000
     2  H    1.097629   0.000000
     3  H    1.097350   1.748751   0.000000
     4  C    1.518516   2.139526   2.161310   0.000000
     5  C    2.569660   2.803414   3.497700   1.504603   0.000000
     6  H    3.439018   3.843334   4.277505   2.165149   1.093765
     7  H    2.664230   2.799047   3.731649   2.164970   1.092482
     8  H    3.103430   2.983270   3.977291   2.143838   1.095856
     9  C    2.486947   3.196847   2.585677   1.349001   2.513655
    10  H    2.660013   3.426596   2.289063   2.102187   3.490693
    11  C    3.919994   4.543003   4.077323   2.548655   3.082788
    12  H    4.255984   4.762260   4.659311   2.748540   2.699099
    13  H    4.510542   4.994276   4.517983   3.252187   3.845154
    14  H    4.501040   5.284981   4.567159   3.234703   3.810625
    15  C    5.016704   5.960648   5.185084   5.250372   5.723849
    16  H    4.940470   5.977241   4.972849   4.997743   5.633719
    17  H    5.714732   6.622201   5.760246   6.135428   6.699691
    18  H    5.661614   6.573045   5.978588   5.706782   5.928717
    19  C    3.838098   4.668439   4.156121   4.312007   4.741128
    20  C    4.560966   5.136849   5.027740   5.213874   5.373552
    21  H    4.221253   4.612160   4.872384   4.883256   4.831864
    22  H    5.511288   6.107070   6.022733   5.988809   5.989709
    23  H    4.949182   5.454794   5.255574   5.838609   6.158728
    24  C    2.556219   3.481927   2.846630   3.079280   3.763594
    25  H    2.657107   3.728717   2.685061   2.863347   3.811488
    26  C    1.539481   2.160072   2.153562   2.573061   3.181263
    27  H    2.160495   2.449560   3.050568   2.866893   2.920024
    28  H    2.149538   2.466856   2.418146   3.489906   4.169257
                    6          7          8          9         10
     6  H    0.000000
     7  H    1.744949   0.000000
     8  H    1.784780   1.766172   0.000000
     9  C    2.736096   3.376788   3.009024   0.000000
    10  H    3.793023   4.242166   3.968161   1.089321   0.000000
    11  C    2.817865   4.093853   3.415127   1.494933   2.178856
    12  H    2.177674   3.718403   2.923024   2.175354   3.102194
    13  H    3.701292   4.909120   3.922086   2.129340   2.504313
    14  H    3.366387   4.712097   4.326914   2.127695   2.525083
    15  C    5.669814   5.412215   6.803165   5.544481   5.569412
    16  H    5.504515   5.532725   6.709156   5.028148   4.959273
    17  H    6.717900   6.349977   7.761332   6.417830   6.315217
    18  H    5.715766   5.559239   7.017253   6.036763   6.217221
    19  C    4.918989   4.284396   5.767140   4.910784   5.020111
    20  C    5.641248   4.645122   6.310226   6.057438   6.255693
    21  H    5.196768   3.965354   5.671512   5.912384   6.239735
    22  H    6.097537   5.232977   6.951639   6.788938   7.053691
    23  H    6.538224   5.445122   7.047227   6.663124   6.718670
    24  C    4.096203   3.493180   4.748152   3.682008   3.761208
    25  H    4.018600   3.847601   4.795543   3.057962   2.986453
    26  C    3.878990   2.782827   3.956067   3.577646   3.757548
    27  H    3.605076   2.182417   3.655216   4.072085   4.489677
    28  H    4.942418   3.721068   4.824345   4.429870   4.421305
                   11         12         13         14         15
    11  C    0.000000
    12  H    1.092528   0.000000
    13  H    1.093968   1.765046   0.000000
    14  H    1.094078   1.769377   1.772602   0.000000
    15  C    6.319835   6.607905   7.299367   5.957104   0.000000
    16  H    5.689237   6.087637   6.623984   5.200130   1.095130
    17  H    7.266070   7.624961   8.203004   6.885762   1.095530
    18  H    6.636876   6.773548   7.672960   6.231060   1.095289
    19  C    5.916162   6.149126   6.881353   5.816644   1.503019
    20  C    7.105847   7.206829   8.077139   7.119740   2.542490
    21  H    6.977175   6.965920   7.930199   7.143914   3.437185
    22  H    7.694422   7.712998   8.716747   7.618765   2.634955
    23  H    7.825412   8.023386   8.740956   7.852623   3.040422
    24  C    4.834658   5.157780   5.733178   4.874948   2.481821
    25  H    4.131075   4.618495   4.997163   4.035064   2.661302
    26  C    4.911005   5.148698   5.691583   5.272449   3.910444
    27  H    5.254640   5.266570   6.088821   5.679165   4.239198
    28  H    5.842949   6.156825   6.541298   6.209335   4.284787
                   16         17         18         19         20
    16  H    0.000000
    17  H    1.769754   0.000000
    18  H    1.766189   1.778593   0.000000
    19  C    2.170254   2.144871   2.144802   0.000000
    20  C    3.493247   2.811656   2.809783   1.503294   0.000000
    21  H    4.283915   3.860654   3.614361   2.169709   1.094069
    22  H    3.692578   2.841345   2.494674   2.151939   1.094654
    23  H    3.976402   2.935916   3.502254   2.140172   1.094415
    24  C    2.617395   3.193703   3.198711   1.346726   2.511344
    25  H    2.326611   3.411794   3.424852   2.097154   3.486073
    26  C    4.124190   4.537716   4.540538   2.535364   3.046003
    27  H    4.616309   4.933979   4.642811   2.802162   2.905643
    28  H    4.602490   4.674995   5.027186   2.889226   3.108342
                   21         22         23         24         25
    21  H    0.000000
    22  H    1.754857   0.000000
    23  H    1.777107   1.774770   0.000000
    24  C    2.724330   3.353918   3.031195   0.000000
    25  H    3.788181   4.217540   3.976612   1.089011   0.000000
    26  C    2.736642   4.033973   3.432227   1.507002   2.215711
    27  H    2.243686   3.771109   3.465581   2.141910   2.983046
    28  H    2.849046   4.190359   3.134052   2.129204   2.878767
                   26         27         28
    26  C    0.000000
    27  H    1.095130   0.000000
    28  H    1.097138   1.762096   0.000000
 Stoichiometry    C10H18
 Framework group  C1[X(C10H18)]
 Deg. of freedom    78
 Full point group                 C1      NOp   1
 Largest Abelian subgroup         C1      NOp   1
 Largest concise Abelian subgroup C1      NOp   1
                         Standard orientation:                         
 ---------------------------------------------------------------------
 Center     Atomic      Atomic             Coordinates (Angstroms)
 Number     Number       Type             X           Y           Z
 ---------------------------------------------------------------------
      1          6           0        0.911578   -1.295834   -0.933919
      2          1           0        1.267505   -2.334137   -0.928241
      3          1           0        0.985131   -0.963718   -1.977215
      4          6           0        1.823295   -0.464691   -0.048559
      5          6           0        1.946359   -0.903779    1.385277
      6          1           0        2.045634   -0.052976    2.065425
      7          1           0        1.064571   -1.454354    1.721187
      8          1           0        2.813924   -1.562755    1.503520
      9          6           0        2.471546    0.603850   -0.556292
     10          1           0        2.327989    0.852738   -1.607037
     11          6           0        3.403738    1.523320    0.165107
     12          1           0        3.569500    1.245486    1.208634
     13          1           0        4.376554    1.529148   -0.335253
     14          1           0        3.002760    2.541076    0.145173
     15          6           0       -2.908190    1.809741    0.031535
     16          1           0       -2.172760    2.520632   -0.359731
     17          1           0       -3.814615    1.897010   -0.577534
     18          1           0       -3.146460    2.113634    1.056491
     19          6           0       -2.401763    0.394744    0.011973
     20          6           0       -3.354057   -0.640791    0.541780
     21          1           0       -2.834839   -1.486852    1.001759
     22          1           0       -4.003202   -0.215160    1.313607
     23          1           0       -3.984875   -1.017705   -0.269237
     24          6           0       -1.174989    0.102992   -0.460865
     25          1           0       -0.557261    0.916333   -0.838801
     26          6           0       -0.571825   -1.276658   -0.522640
     27          1           0       -0.679332   -1.772085    0.448083
     28          1           0       -1.134379   -1.873677   -1.251210
 ---------------------------------------------------------------------
 Rotational constants (GHZ):           2.0176404           0.6012256           0.5340281
 Leave Link  202 at Fri Sep 17 20:09:25 2021, MaxMem=   524288000 cpu:               0.0 elap:               0.3
 (Enter /opt/gaussian/g16_legacy/l301.exe)
 Standard basis: 6-31G(d,p) (6D, 7F)
 Ernie: Thresh=  0.10000D-02 Tol=  0.10000D-05 Strict=F.
 There are   240 symmetry adapted cartesian basis functions of A   symmetry.
 There are   240 symmetry adapted basis functions of A   symmetry.
   240 basis functions,   406 primitive gaussians,   240 cartesian basis functions
    39 alpha electrons       39 beta electrons
       nuclear repulsion energy       519.3507775864 Hartrees.
 IExCor=    0 DFT=F Ex=HF Corr=None ExCW=0 ScaHFX=  1.000000
 ScaDFX=  1.000000  1.000000  1.000000  1.000000 ScalE2=  1.000000  1.000000
 IRadAn=      5 IRanWt=     -1 IRanGd=            0 ICorTp=0 IEmpDi=  4
 NAtoms=   28 NActive=   28 NUniq=   28 SFac= 1.00D+00 NAtFMM=   60 NAOKFM=F Big=F
 Integral buffers will be    131072 words long.
 Raffenetti 1 integral format.
 Two-electron integral symmetry is turned on.
 Leave Link  301 at Fri Sep 17 20:09:26 2021, MaxMem=   524288000 cpu:               0.1 elap:               0.1
 (Enter /opt/gaussian/g16_legacy/l302.exe)
 NPDir=0 NMtPBC=     1 NCelOv=     1 NCel=       1 NClECP=     1 NCelD=      1
         NCelK=      1 NCelE2=     1 NClLst=     1 CellRange=     0.0.
 One-electron integrals computed using PRISM.
 One-electron integral symmetry used in STVInt
 NBasis=   240 RedAO= T EigKep=  2.03D-03  NBF=   240
 NBsUse=   240 1.00D-06 EigRej= -1.00D+00 NBFU=   240
 Leave Link  302 at Fri Sep 17 20:09:26 2021, MaxMem=   524288000 cpu:               0.2 elap:               0.4
 (Enter /opt/gaussian/g16_legacy/l303.exe)
 DipDrv:  MaxL=1.
 Leave Link  303 at Fri Sep 17 20:09:26 2021, MaxMem=   524288000 cpu:               0.0 elap:               0.2
 (Enter /opt/gaussian/g16_legacy/l401.exe)
 ExpMin= 1.61D-01 ExpMax= 3.05D+03 ExpMxC= 4.57D+02 IAcc=3 IRadAn=         5 AccDes= 0.00D+00
 Harris functional with IExCor=  205 and IRadAn=       5 diagonalized for initial guess.
 HarFok:  IExCor=  205 AccDes= 0.00D+00 IRadAn=         5 IDoV= 1 UseB2=F ITyADJ=14
 ICtDFT=  3500011 ScaDFX=  1.000000  1.000000  1.000000  1.000000
 FoFCou: FMM=F IPFlag=           0 FMFlag=      100000 FMFlg1=           0
         NFxFlg=           0 DoJE=T BraDBF=F KetDBF=T FulRan=T
         wScrn=  0.000000 ICntrl=       500 IOpCl=  0 I1Cent=   200000004 NGrid=           0
         NMat0=    1 NMatS0=      1 NMatT0=    0 NMatD0=    1 NMtDS0=    0 NMtDT0=    0
 Petite list used in FoFCou.
 Harris En= -390.109574620406    
 JPrj=0 DoOrth=F DoCkMO=F.
 Leave Link  401 at Fri Sep 17 20:09:33 2021, MaxMem=   524288000 cpu:               6.2 elap:               6.5
 (Enter /opt/gaussian/g16_legacy/l502.exe)
 Keep R1 ints in memory in canonical form, NReq=425198025.
 FoFCou: FMM=F IPFlag=           0 FMFlag=           0 FMFlg1=           0
         NFxFlg=           0 DoJE=F BraDBF=F KetDBF=F FulRan=T
         wScrn=  0.000000 ICntrl=       600 IOpCl=  0 I1Cent=           0 NGrid=           0
         NMat0=    1 NMatS0=  28920 NMatT0=    0 NMatD0=    1 NMtDS0=    0 NMtDT0=    0
 Symmetry not used in FoFCou.
 Two-electron integral symmetry not used.
 Closed shell SCF:
 Using DIIS extrapolation, IDIIS=  1040.
 NGot=   524288000 LenX=   105970886 LenY=   105912845
 Requested convergence on RMS density matrix=1.00D-08 within 128 cycles.
 Requested convergence on MAX density matrix=1.00D-06.
 Requested convergence on             energy=1.00D-06.
 No special actions if energy rises.

 Cycle   1  Pass 1  IDiag  1:
 E= -388.527010698296    
 DIIS: error= 4.57D-02 at cycle   1 NSaved=   1.
 NSaved= 1 IEnMin= 1 EnMin= -388.527010698296     IErMin= 1 ErrMin= 4.57D-02
 ErrMax= 4.57D-02  0.00D+00 EMaxC= 1.00D-01 BMatC= 8.10D-01 BMatP= 8.10D-01
 IDIUse=3 WtCom= 5.43D-01 WtEn= 4.57D-01
 Coeff-Com:  0.100D+01
 Coeff-En:   0.100D+01
 Coeff:      0.100D+01
 Gap=     0.504 Goal=   None    Shift=    0.000
 GapD=    0.504 DampG=2.000 DampE=0.500 DampFc=1.0000 IDamp=-1.
 RMSDP=4.06D-03 MaxDP=1.14D-01              OVMax= 1.38D-01

 Cycle   2  Pass 1  IDiag  1:
 E= -389.066745756797     Delta-E=       -0.539735058502 Rises=F Damp=F
 DIIS: error= 1.33D-02 at cycle   2 NSaved=   2.
 NSaved= 2 IEnMin= 2 EnMin= -389.066745756797     IErMin= 2 ErrMin= 1.33D-02
 ErrMax= 1.33D-02  0.00D+00 EMaxC= 1.00D-01 BMatC= 8.99D-02 BMatP= 8.10D-01
 IDIUse=3 WtCom= 8.67D-01 WtEn= 1.33D-01
 Coeff-Com:  0.187D+00 0.813D+00
 Coeff-En:   0.000D+00 0.100D+01
 Coeff:      0.162D+00 0.838D+00
 Gap=     0.564 Goal=   None    Shift=    0.000
 RMSDP=1.72D-03 MaxDP=3.07D-02 DE=-5.40D-01 OVMax= 4.56D-02

 Cycle   3  Pass 1  IDiag  1:
 E= -389.147573632337     Delta-E=       -0.080827875540 Rises=F Damp=F
 DIIS: error= 2.53D-03 at cycle   3 NSaved=   3.
 NSaved= 3 IEnMin= 3 EnMin= -389.147573632337     IErMin= 3 ErrMin= 2.53D-03
 ErrMax= 2.53D-03  0.00D+00 EMaxC= 1.00D-01 BMatC= 3.30D-03 BMatP= 8.99D-02
 IDIUse=3 WtCom= 9.75D-01 WtEn= 2.53D-02
 Coeff-Com: -0.239D-01 0.107D+00 0.916D+00
 Coeff-En:   0.000D+00 0.000D+00 0.100D+01
 Coeff:     -0.233D-01 0.105D+00 0.919D+00
 Gap=     0.492 Goal=   None    Shift=    0.000
 RMSDP=2.73D-04 MaxDP=6.56D-03 DE=-8.08D-02 OVMax= 1.06D-02

 Cycle   4  Pass 1  IDiag  1:
 E= -389.151349318783     Delta-E=       -0.003775686446 Rises=F Damp=F
 DIIS: error= 6.10D-04 at cycle   4 NSaved=   4.
 NSaved= 4 IEnMin= 4 EnMin= -389.151349318783     IErMin= 4 ErrMin= 6.10D-04
 ErrMax= 6.10D-04  0.00D+00 EMaxC= 1.00D-01 BMatC= 1.16D-04 BMatP= 3.30D-03
 IDIUse=3 WtCom= 9.94D-01 WtEn= 6.10D-03
 Coeff-Com: -0.541D-02 0.226D-02 0.132D+00 0.871D+00
 Coeff-En:   0.000D+00 0.000D+00 0.000D+00 0.100D+01
 Coeff:     -0.537D-02 0.225D-02 0.131D+00 0.872D+00
 Gap=     0.492 Goal=   None    Shift=    0.000
 RMSDP=8.14D-05 MaxDP=1.89D-03 DE=-3.78D-03 OVMax= 3.90D-03

 Cycle   5  Pass 1  IDiag  1:
 E= -389.151491044734     Delta-E=       -0.000141725951 Rises=F Damp=F
 DIIS: error= 2.14D-04 at cycle   5 NSaved=   5.
 NSaved= 5 IEnMin= 5 EnMin= -389.151491044734     IErMin= 5 ErrMin= 2.14D-04
 ErrMax= 2.14D-04  0.00D+00 EMaxC= 1.00D-01 BMatC= 1.95D-05 BMatP= 1.16D-04
 IDIUse=3 WtCom= 9.98D-01 WtEn= 2.14D-03
 Coeff-Com:  0.200D-02-0.143D-01-0.906D-01 0.180D+00 0.923D+00
 Coeff-En:   0.000D+00 0.000D+00 0.000D+00 0.000D+00 0.100D+01
 Coeff:      0.200D-02-0.143D-01-0.904D-01 0.179D+00 0.924D+00
 Gap=     0.493 Goal=   None    Shift=    0.000
 RMSDP=3.18D-05 MaxDP=7.29D-04 DE=-1.42D-04 OVMax= 1.16D-03

 Cycle   6  Pass 1  IDiag  1:
 E= -389.151517014240     Delta-E=       -0.000025969506 Rises=F Damp=F
 DIIS: error= 3.87D-05 at cycle   6 NSaved=   6.
 NSaved= 6 IEnMin= 6 EnMin= -389.151517014240     IErMin= 6 ErrMin= 3.87D-05
 ErrMax= 3.87D-05  0.00D+00 EMaxC= 1.00D-01 BMatC= 8.47D-07 BMatP= 1.95D-05
 IDIUse=1 WtCom= 1.00D+00 WtEn= 0.00D+00
 Coeff-Com:  0.784D-03-0.351D-02-0.280D-01-0.182D-01 0.178D+00 0.871D+00
 Coeff:      0.784D-03-0.351D-02-0.280D-01-0.182D-01 0.178D+00 0.871D+00
 Gap=     0.493 Goal=   None    Shift=    0.000
 RMSDP=7.01D-06 MaxDP=1.60D-04 DE=-2.60D-05 OVMax= 3.49D-04

 Cycle   7  Pass 1  IDiag  1:
 E= -389.151518266497     Delta-E=       -0.000001252256 Rises=F Damp=F
 DIIS: error= 1.39D-05 at cycle   7 NSaved=   7.
 NSaved= 7 IEnMin= 7 EnMin= -389.151518266497     IErMin= 7 ErrMin= 1.39D-05
 ErrMax= 1.39D-05  0.00D+00 EMaxC= 1.00D-01 BMatC= 4.22D-08 BMatP= 8.47D-07
 IDIUse=1 WtCom= 1.00D+00 WtEn= 0.00D+00
 Coeff-Com:  0.568D-06 0.206D-03 0.107D-02-0.882D-02-0.290D-01 0.994D-01
 Coeff-Com:  0.937D+00
 Coeff:      0.568D-06 0.206D-03 0.107D-02-0.882D-02-0.290D-01 0.994D-01
 Coeff:      0.937D+00
 Gap=     0.493 Goal=   None    Shift=    0.000
 RMSDP=1.70D-06 MaxDP=4.86D-05 DE=-1.25D-06 OVMax= 1.25D-04

 Cycle   8  Pass 1  IDiag  1:
 E= -389.151518350674     Delta-E=       -0.000000084177 Rises=F Damp=F
 DIIS: error= 3.68D-06 at cycle   8 NSaved=   8.
 NSaved= 8 IEnMin= 8 EnMin= -389.151518350674     IErMin= 8 ErrMin= 3.68D-06
 ErrMax= 3.68D-06  0.00D+00 EMaxC= 1.00D-01 BMatC= 7.24D-09 BMatP= 4.22D-08
 IDIUse=1 WtCom= 1.00D+00 WtEn= 0.00D+00
 Coeff-Com: -0.752D-04 0.346D-03 0.284D-02 0.257D-02-0.224D-01-0.826D-01
 Coeff-Com:  0.626D-01 0.104D+01
 Coeff:     -0.752D-04 0.346D-03 0.284D-02 0.257D-02-0.224D-01-0.826D-01
 Coeff:      0.626D-01 0.104D+01
 Gap=     0.493 Goal=   None    Shift=    0.000
 RMSDP=7.93D-07 MaxDP=2.01D-05 DE=-8.42D-08 OVMax= 4.66D-05

 Cycle   9  Pass 1  IDiag  1:
 E= -389.151518366748     Delta-E=       -0.000000016074 Rises=F Damp=F
 DIIS: error= 2.68D-06 at cycle   9 NSaved=   9.
 NSaved= 9 IEnMin= 9 EnMin= -389.151518366748     IErMin= 9 ErrMin= 2.68D-06
 ErrMax= 2.68D-06  0.00D+00 EMaxC= 1.00D-01 BMatC= 8.44D-10 BMatP= 7.24D-09
 IDIUse=1 WtCom= 1.00D+00 WtEn= 0.00D+00
 Coeff-Com: -0.802D-05 0.893D-05 0.151D-03 0.188D-02 0.389D-04-0.192D-01
 Coeff-Com: -0.885D-01 0.318D-01 0.107D+01
 Coeff:     -0.802D-05 0.893D-05 0.151D-03 0.188D-02 0.389D-04-0.192D-01
 Coeff:     -0.885D-01 0.318D-01 0.107D+01
 Gap=     0.493 Goal=   None    Shift=    0.000
 RMSDP=3.07D-07 MaxDP=1.25D-05 DE=-1.61D-08 OVMax= 3.60D-05

 Cycle  10  Pass 1  IDiag  1:
 E= -389.151518369856     Delta-E=       -0.000000003109 Rises=F Damp=F
 DIIS: error= 6.05D-07 at cycle  10 NSaved=  10.
 NSaved=10 IEnMin=10 EnMin= -389.151518369856     IErMin=10 ErrMin= 6.05D-07
 ErrMax= 6.05D-07  0.00D+00 EMaxC= 1.00D-01 BMatC= 2.46D-10 BMatP= 8.44D-10
 IDIUse=1 WtCom= 1.00D+00 WtEn= 0.00D+00
 Coeff-Com:  0.124D-04-0.608D-04-0.496D-03-0.165D-03 0.331D-02 0.143D-01
 Coeff-Com: -0.614D-02-0.242D+00 0.130D+00 0.110D+01
 Coeff:      0.124D-04-0.608D-04-0.496D-03-0.165D-03 0.331D-02 0.143D-01
 Coeff:     -0.614D-02-0.242D+00 0.130D+00 0.110D+01
 Gap=     0.493 Goal=   None    Shift=    0.000
 RMSDP=1.68D-07 MaxDP=3.83D-06 DE=-3.11D-09 OVMax= 1.31D-05

 Cycle  11  Pass 1  IDiag  1:
 E= -389.151518370473     Delta-E=       -0.000000000617 Rises=F Damp=F
 DIIS: error= 2.31D-07 at cycle  11 NSaved=  11.
 NSaved=11 IEnMin=11 EnMin= -389.151518370473     IErMin=11 ErrMin= 2.31D-07
 ErrMax= 2.31D-07  0.00D+00 EMaxC= 1.00D-01 BMatC= 1.05D-11 BMatP= 2.46D-10
 IDIUse=1 WtCom= 1.00D+00 WtEn= 0.00D+00
 Coeff-Com:  0.196D-05-0.647D-05-0.593D-04-0.178D-03 0.111D-03 0.348D-02
 Coeff-Com:  0.117D-01-0.298D-01-0.745D-01 0.545D-01 0.103D+01
 Coeff:      0.196D-05-0.647D-05-0.593D-04-0.178D-03 0.111D-03 0.348D-02
 Coeff:      0.117D-01-0.298D-01-0.745D-01 0.545D-01 0.103D+01
 Gap=     0.493 Goal=   None    Shift=    0.000
 RMSDP=3.56D-08 MaxDP=1.16D-06 DE=-6.17D-10 OVMax= 3.48D-06

 Cycle  12  Pass 1  IDiag  1:
 E= -389.151518370496     Delta-E=       -0.000000000023 Rises=F Damp=F
 DIIS: error= 4.14D-08 at cycle  12 NSaved=  12.
 NSaved=12 IEnMin=12 EnMin= -389.151518370496     IErMin=12 ErrMin= 4.14D-08
 ErrMax= 4.14D-08  0.00D+00 EMaxC= 1.00D-01 BMatC= 1.10D-12 BMatP= 1.05D-11
 IDIUse=1 WtCom= 1.00D+00 WtEn= 0.00D+00
 Coeff-Com: -0.111D-05 0.558D-05 0.457D-04 0.265D-04-0.333D-03-0.139D-02
 Coeff-Com:  0.466D-03 0.213D-01-0.655D-02-0.120D+00-0.173D-01 0.112D+01
 Coeff:     -0.111D-05 0.558D-05 0.457D-04 0.265D-04-0.333D-03-0.139D-02
 Coeff:      0.466D-03 0.213D-01-0.655D-02-0.120D+00-0.173D-01 0.112D+01
 Gap=     0.493 Goal=   None    Shift=    0.000
 RMSDP=1.24D-08 MaxDP=3.09D-07 DE=-2.32D-11 OVMax= 8.73D-07

 Cycle  13  Pass 1  IDiag  1:
 E= -389.151518370503     Delta-E=       -0.000000000007 Rises=F Damp=F
 DIIS: error= 8.41D-09 at cycle  13 NSaved=  13.
 NSaved=13 IEnMin=13 EnMin= -389.151518370503     IErMin=13 ErrMin= 8.41D-09
 ErrMax= 8.41D-09  0.00D+00 EMaxC= 1.00D-01 BMatC= 4.25D-14 BMatP= 1.10D-12
 IDIUse=1 WtCom= 1.00D+00 WtEn= 0.00D+00
 Coeff-Com: -0.194D-06 0.827D-06 0.689D-05 0.135D-04-0.367D-04-0.302D-03
 Coeff-Com: -0.589D-03 0.325D-02 0.481D-02-0.130D-01-0.583D-01 0.103D+00
 Coeff-Com:  0.962D+00
 Coeff:     -0.194D-06 0.827D-06 0.689D-05 0.135D-04-0.367D-04-0.302D-03
 Coeff:     -0.589D-03 0.325D-02 0.481D-02-0.130D-01-0.583D-01 0.103D+00
 Coeff:      0.962D+00
 Gap=     0.493 Goal=   None    Shift=    0.000
 RMSDP=1.88D-09 MaxDP=4.10D-08 DE=-7.05D-12 OVMax= 8.48D-08

 SCF Done:  E(RHF) =  -389.151518371     A.U. after   13 cycles
            NFock= 13  Conv=0.19D-08     -V/T= 2.0014
 KE= 3.886244307243D+02 PE=-1.943448694398D+03 EE= 6.463219677169D+02
 Leave Link  502 at Fri Sep 17 20:09:56 2021, MaxMem=   524288000 cpu:              23.4 elap:              23.6
 (Enter /opt/gaussian/g16_legacy/l801.exe)
 ExpMin= 1.61D-01 ExpMax= 3.05D+03 ExpMxC= 4.57D+02 IAcc=3 IRadAn=         5 AccDes= 0.00D+00
 HarFok:  IExCor=  205 AccDes= 0.00D+00 IRadAn=         5 IDoV=-2 UseB2=F ITyADJ=14
 ICtDFT= 12500011 ScaDFX=  1.000000  1.000000  1.000000  1.000000
 Largest valence mixing into a core orbital is  1.96D-04
 Largest core mixing into a valence orbital is  3.52D-05
 Range of M.O.s used for correlation:    11   240
 NBasis=   240 NAE=    39 NBE=    39 NFC=    10 NFV=     0
 NROrb=    230 NOA=    29 NOB=    29 NVA=   201 NVB=   201
 Leave Link  801 at Fri Sep 17 20:09:57 2021, MaxMem=   524288000 cpu:               0.9 elap:               0.9
 (Enter /opt/gaussian/g16_legacy/l906.exe)
 Frozen-core derivative calculation, NFC=  10 NFV=   0.
 FulOut=F Deriv=T AODrv=T NAtomX=    28
   MMem=          89  MDisk=          29 MDiskD=          29
  W3Min=     2246400 MinDsk=     2795480 NBas6D=         240
 NBas2D=       29244    NTT=       28920    LW2=     2040000
    MDV=   523626733 MDiskM=       30186 NBas2p=       24199
 Fully direct method using O(ONN) memory.
 IMap=   1   2   3   4   5   6   7   8   9  10  11  12  13  14  15  16  17  18  19  20
 IMap=  21  22  23  24  25  26  27  28  29  30  31  32  33  34  35  36  37  38  39
 JobTyp=1 Pass  1:  I=  11 to  39 NPSUse=  1 ParTrn=F ParDer=F DoDerP=T.
 Spin components of T(2) and E(2):
     alpha-alpha T2 =       0.5722174730D-01 E2=     -0.1640274273D+00
     alpha-beta  T2 =       0.3621552579D+00 E2=     -0.1089997959D+01
     beta-beta   T2 =       0.5722174730D-01 E2=     -0.1640274273D+00
 The integrals were generated   1 times.
 ANorm=    0.1215153798D+01
 E2 =    -0.1418052813D+01 EUMP2 =    -0.39056957118375D+03
 Leave Link  906 at Fri Sep 17 20:12:45 2021, MaxMem=   524288000 cpu:             167.1 elap:             167.3
 (Enter /opt/gaussian/g16_legacy/l1002.exe)
 Minotr:  Closed shell wavefunction.
          Computing MP2/KS-MP2 derivatives.
          Using Z-Vector for PSCF gradient.
          Skipping F1 and S1 gradient terms here.
          IDoAtm=1111111111111111111111111111
          Frozen-core window.
          Direct CPHF calculation.
          Differentiating once with respect to electric field.
                with respect to dipole field.
          Differentiating once with respect to nuclear coordinates.
          Requested convergence is 1.0D-10 RMS, and 1.0D-09 maximum.
          NewPWx=F KeepS1=T KeepF1=T KeepIn=T MapXYZ=F SortEE=F KeepMc=T.
 Keep R1 ints in memory in canonical form, NReq=425201067.
 FoFCou: FMM=F IPFlag=           0 FMFlag=           0 FMFlg1=           0
         NFxFlg=           0 DoJE=F BraDBF=F KetDBF=F FulRan=T
         wScrn=  0.000000 ICntrl=       600 IOpCl=  0 I1Cent=           0 NGrid=           0
         NMat0=    1 NMatS0=  28920 NMatT0=    0 NMatD0=    1 NMtDS0=    0 NMtDT0=    0
 Symmetry not used in FoFCou.
 Two-electron integral symmetry not used.
          MDV=     524288000 using IRadAn=       5.
          Solving linear equations separately, MaxMat=       0.
          There are     1 degrees of freedom in the 1st order CPHF.  IDoFFX=0 NUNeed=     1.
 LinEq1:  Iter=  0 NonCon=     1 RMS=2.53D-03 Max=4.78D-02 NDo=     1
 AX will form     1 AO Fock derivatives at one time.
 LinEq1:  Iter=  1 NonCon=     1 RMS=6.94D-04 Max=9.17D-03 NDo=     1
 LinEq1:  Iter=  2 NonCon=     1 RMS=1.64D-04 Max=3.77D-03 NDo=     1
 LinEq1:  Iter=  3 NonCon=     1 RMS=4.23D-05 Max=5.21D-04 NDo=     1
 LinEq1:  Iter=  4 NonCon=     1 RMS=1.96D-05 Max=7.64D-04 NDo=     1
 LinEq1:  Iter=  5 NonCon=     1 RMS=5.22D-06 Max=1.10D-04 NDo=     1
 LinEq1:  Iter=  6 NonCon=     1 RMS=1.72D-06 Max=4.49D-05 NDo=     1
 LinEq1:  Iter=  7 NonCon=     1 RMS=5.39D-07 Max=1.28D-05 NDo=     1
 LinEq1:  Iter=  8 NonCon=     1 RMS=1.80D-07 Max=3.42D-06 NDo=     1
 LinEq1:  Iter=  9 NonCon=     1 RMS=5.37D-08 Max=1.19D-06 NDo=     1
 LinEq1:  Iter= 10 NonCon=     1 RMS=1.43D-08 Max=1.63D-07 NDo=     1
 LinEq1:  Iter= 11 NonCon=     1 RMS=4.18D-09 Max=9.12D-08 NDo=     1
 LinEq1:  Iter= 12 NonCon=     1 RMS=1.12D-09 Max=1.73D-08 NDo=     1
 LinEq1:  Iter= 13 NonCon=     1 RMS=3.24D-10 Max=6.02D-09 NDo=     1
 LinEq1:  Iter= 14 NonCon=     0 RMS=7.93D-11 Max=9.88D-10 NDo=     1
 Linear equations converged to 1.000D-10 1.000D-09 after    14 iterations.
 End of Minotr F.D. properties file   721 does not exist.
 End of Minotr F.D. properties file   722 does not exist.
 End of Minotr F.D. properties file   788 does not exist.
 Leave Link 1002 at Fri Sep 17 20:13:11 2021, MaxMem=   524288000 cpu:              25.8 elap:              25.8
 (Enter /opt/gaussian/g16_legacy/l601.exe)
 Copying SCF densities to generalized density rwf, IOpCl= 0 IROHF=0.

 **********************************************************************

            Population analysis using the SCF density.

 **********************************************************************

 Orbital symmetries:
       Occupied  (A) (A) (A) (A) (A) (A) (A) (A) (A) (A) (A) (A)
                 (A) (A) (A) (A) (A) (A) (A) (A) (A) (A) (A) (A)
                 (A) (A) (A) (A) (A) (A) (A) (A) (A) (A) (A) (A)
                 (A) (A) (A)
       Virtual   (A) (A) (A) (A) (A) (A) (A) (A) (A) (A) (A) (A)
                 (A) (A) (A) (A) (A) (A) (A) (A) (A) (A) (A) (A)
                 (A) (A) (A) (A) (A) (A) (A) (A) (A) (A) (A) (A)
                 (A) (A) (A) (A) (A) (A) (A) (A) (A) (A) (A) (A)
                 (A) (A) (A) (A) (A) (A) (A) (A) (A) (A) (A) (A)
                 (A) (A) (A) (A) (A) (A) (A) (A) (A) (A) (A) (A)
                 (A) (A) (A) (A) (A) (A) (A) (A) (A) (A) (A) (A)
                 (A) (A) (A) (A) (A) (A) (A) (A) (A) (A) (A) (A)
                 (A) (A) (A) (A) (A) (A) (A) (A) (A) (A) (A) (A)
                 (A) (A) (A) (A) (A) (A) (A) (A) (A) (A) (A) (A)
                 (A) (A) (A) (A) (A) (A) (A) (A) (A) (A) (A) (A)
                 (A) (A) (A) (A) (A) (A) (A) (A) (A) (A) (A) (A)
                 (A) (A) (A) (A) (A) (A) (A) (A) (A) (A) (A) (A)
                 (A) (A) (A) (A) (A) (A) (A) (A) (A) (A) (A) (A)
                 (A) (A) (A) (A) (A) (A) (A) (A) (A) (A) (A) (A)
                 (A) (A) (A) (A) (A) (A) (A) (A) (A) (A) (A) (A)
                 (A) (A) (A) (A) (A) (A) (A) (A) (A)
 The electronic state is 1-A.
 Alpha  occ. eigenvalues --  -11.22664 -11.22408 -11.22012 -11.21847 -11.21575
 Alpha  occ. eigenvalues --  -11.21561 -11.21522 -11.21413 -11.21362 -11.20827
 Alpha  occ. eigenvalues --   -1.10494  -1.08101  -1.01982  -0.97156  -0.93416
 Alpha  occ. eigenvalues --   -0.92157  -0.87849  -0.80965  -0.70287  -0.69650
 Alpha  occ. eigenvalues --   -0.63899  -0.61923  -0.59815  -0.58865  -0.57903
 Alpha  occ. eigenvalues --   -0.56364  -0.55729  -0.54698  -0.53578  -0.53136
 Alpha  occ. eigenvalues --   -0.52228  -0.50959  -0.49764  -0.48765  -0.47774
 Alpha  occ. eigenvalues --   -0.45888  -0.44380  -0.32425  -0.31677
 Alpha virt. eigenvalues --    0.17601   0.20295   0.22981   0.24578   0.25615
 Alpha virt. eigenvalues --    0.27156   0.28445   0.29320   0.30175   0.30992
 Alpha virt. eigenvalues --    0.31377   0.32187   0.32612   0.33472   0.33801
 Alpha virt. eigenvalues --    0.34567   0.36379   0.37718   0.38353   0.40270
 Alpha virt. eigenvalues --    0.40966   0.42217   0.44207   0.44931   0.46633
 Alpha virt. eigenvalues --    0.51470   0.52406   0.61242   0.63257   0.69667
 Alpha virt. eigenvalues --    0.70408   0.72018   0.73621   0.74641   0.77093
 Alpha virt. eigenvalues --    0.78572   0.79801   0.80442   0.81925   0.82724
 Alpha virt. eigenvalues --    0.84785   0.85501   0.89542   0.90860   0.93397
 Alpha virt. eigenvalues --    0.94022   0.95075   0.95709   0.96911   1.00131
 Alpha virt. eigenvalues --    1.01485   1.02724   1.03357   1.04197   1.05852
 Alpha virt. eigenvalues --    1.06947   1.07946   1.10225   1.12370   1.13005
 Alpha virt. eigenvalues --    1.13717   1.14321   1.14651   1.14869   1.15212
 Alpha virt. eigenvalues --    1.15673   1.16632   1.17939   1.18070   1.19725
 Alpha virt. eigenvalues --    1.21246   1.22449   1.23159   1.24118   1.24538
 Alpha virt. eigenvalues --    1.29761   1.35281   1.42039   1.44357   1.46029
 Alpha virt. eigenvalues --    1.47923   1.52388   1.54192   1.57156   1.57589
 Alpha virt. eigenvalues --    1.59905   1.63614   1.66832   1.69263   1.70754
 Alpha virt. eigenvalues --    1.73593   1.84720   1.90215   1.92035   1.96350
 Alpha virt. eigenvalues --    1.99052   2.01068   2.04768   2.06685   2.08389
 Alpha virt. eigenvalues --    2.09590   2.10436   2.11617   2.12519   2.15210
 Alpha virt. eigenvalues --    2.16233   2.18440   2.22483   2.23416   2.27730
 Alpha virt. eigenvalues --    2.29745   2.31272   2.32973   2.34599   2.35511
 Alpha virt. eigenvalues --    2.35797   2.36286   2.39023   2.40255   2.40667
 Alpha virt. eigenvalues --    2.41089   2.42382   2.44041   2.44593   2.45828
 Alpha virt. eigenvalues --    2.47530   2.48486   2.49499   2.50871   2.53058
 Alpha virt. eigenvalues --    2.54362   2.58079   2.59591   2.62689   2.65297
 Alpha virt. eigenvalues --    2.66574   2.68449   2.70936   2.72777   2.74531
 Alpha virt. eigenvalues --    2.75471   2.78766   2.81831   2.83345   2.87206
 Alpha virt. eigenvalues --    2.88276   2.88707   2.90341   2.91583   2.93539
 Alpha virt. eigenvalues --    2.94761   2.97760   3.00369   3.01528   3.02992
 Alpha virt. eigenvalues --    3.05684   3.07010   3.10607   3.11945   3.15096
 Alpha virt. eigenvalues --    3.16198   3.17261   3.20113   3.21164   3.21415
 Alpha virt. eigenvalues --    3.23146   3.24083   3.25763   3.26783   3.37229
 Alpha virt. eigenvalues --    3.40268   3.43298   3.46867   3.55988   3.56482
 Alpha virt. eigenvalues --    3.60616   3.61819   3.66675   3.71476   3.79273
 Alpha virt. eigenvalues --    3.79868   3.80892   3.81536   3.82260   3.82770
 Alpha virt. eigenvalues --    3.84229   3.85458   3.86113   3.89805   3.92000
 Alpha virt. eigenvalues --    3.93539   4.58899   4.62932   4.75440   4.80559
 Alpha virt. eigenvalues --    4.89495   4.92212   4.93514   5.02937   5.09214
 Alpha virt. eigenvalues --    5.17784
          Condensed to atoms (all electrons):
               1          2          3          4          5          6
     1  C    4.948277   0.415568   0.413604   0.355544  -0.053701   0.003174
     2  H    0.415568   0.597013  -0.029411  -0.048543  -0.000490  -0.000025
     3  H    0.413604  -0.029411   0.585147  -0.047709   0.003559  -0.000107
     4  C    0.355544  -0.048543  -0.047709   4.950517   0.335648  -0.038115
     5  C   -0.053701  -0.000490   0.003559   0.335648   4.915664   0.406316
     6  H    0.003174  -0.000025  -0.000107  -0.038115   0.406316   0.565980
     7  H   -0.004940  -0.000370   0.000109  -0.040467   0.407313  -0.030272
     8  H    0.000867   0.001156  -0.000125  -0.040766   0.397672  -0.026247
     9  C   -0.043157  -0.000610  -0.002293   0.696585  -0.051039  -0.003804
    10  H   -0.006572   0.000136   0.002282  -0.036832   0.003311   0.000014
    11  C    0.003176  -0.000112   0.000191  -0.050966  -0.006854  -0.001983
    12  H    0.000102  -0.000002   0.000004  -0.000825  -0.001634  -0.001152
    13  H   -0.000112   0.000016  -0.000008  -0.000007   0.000189  -0.000101
    14  H   -0.000095  -0.000004  -0.000007  -0.000653   0.000296   0.000305
    15  C   -0.000063   0.000001  -0.000001  -0.000018   0.000000   0.000000
    16  H   -0.000009   0.000000  -0.000000  -0.000004  -0.000000   0.000000
    17  H   -0.000000  -0.000000  -0.000000   0.000000   0.000000  -0.000000
    18  H    0.000004  -0.000000   0.000000  -0.000001  -0.000000   0.000000
    19  C    0.001995  -0.000053  -0.000120   0.000149   0.000007   0.000001
    20  C    0.000139   0.000004  -0.000008   0.000000  -0.000004  -0.000000
    21  H    0.000065   0.000003   0.000000  -0.000010  -0.000004   0.000000
    22  H    0.000001  -0.000000   0.000000   0.000000  -0.000000  -0.000000
    23  H   -0.000023   0.000000  -0.000001   0.000001   0.000000  -0.000000
    24  C   -0.048833   0.005096  -0.003243  -0.003827   0.000684   0.000005
    25  H   -0.005094   0.000211   0.001264   0.004542   0.000009  -0.000026
    26  C    0.340998  -0.049004  -0.039965  -0.060446  -0.003116   0.000046
    27  H   -0.037706  -0.003580   0.004696  -0.003992  -0.000450  -0.000051
    28  H   -0.039791  -0.002410  -0.004705   0.004946  -0.000011   0.000002
               7          8          9         10         11         12
     1  C   -0.004940   0.000867  -0.043157  -0.006572   0.003176   0.000102
     2  H   -0.000370   0.001156  -0.000610   0.000136  -0.000112  -0.000002
     3  H    0.000109  -0.000125  -0.002293   0.002282   0.000191   0.000004
     4  C   -0.040467  -0.040766   0.696585  -0.036832  -0.050966  -0.000825
     5  C    0.407313   0.397672  -0.051039   0.003311  -0.006854  -0.001634
     6  H   -0.030272  -0.026247  -0.003804   0.000014  -0.001983  -0.001152
     7  H    0.581357  -0.031418   0.002900  -0.000100   0.000146   0.000028
     8  H   -0.031418   0.575868  -0.004560  -0.000124   0.000693  -0.000238
     9  C    0.002900  -0.004560   4.943826   0.404988   0.340028  -0.041587
    10  H   -0.000100  -0.000124   0.404988   0.558715  -0.043304   0.003341
    11  C    0.000146   0.000693   0.340028  -0.043304   4.904180   0.408161
    12  H    0.000028  -0.000238  -0.041587   0.003341   0.408161   0.573075
    13  H   -0.000011   0.000183  -0.043537  -0.001630   0.401855  -0.028815
    14  H    0.000011  -0.000074  -0.044386  -0.001139   0.400861  -0.027968
    15  C    0.000000  -0.000000  -0.000004  -0.000000  -0.000000  -0.000000
    16  H   -0.000000  -0.000000  -0.000003   0.000000  -0.000000  -0.000000
    17  H    0.000000   0.000000  -0.000000  -0.000000   0.000000   0.000000
    18  H    0.000000  -0.000000  -0.000000   0.000000   0.000000  -0.000000
    19  C    0.000005   0.000001   0.000042  -0.000001  -0.000001   0.000000
    20  C   -0.000002   0.000000   0.000001   0.000000  -0.000000  -0.000000
    21  H    0.000011  -0.000000  -0.000000  -0.000000   0.000000  -0.000000
    22  H   -0.000000  -0.000000   0.000000  -0.000000   0.000000   0.000000
    23  H   -0.000000   0.000000  -0.000000  -0.000000   0.000000   0.000000
    24  C   -0.000088   0.000041  -0.000986  -0.000041  -0.000019  -0.000002
    25  H   -0.000085   0.000011   0.003561   0.000120  -0.000040   0.000001
    26  C   -0.000659  -0.000128  -0.002929   0.000276  -0.000082  -0.000000
    27  H   -0.001167   0.000011   0.000109   0.000001   0.000003  -0.000000
    28  H    0.000006   0.000001  -0.000020  -0.000012   0.000001   0.000000
              13         14         15         16         17         18
     1  C   -0.000112  -0.000095  -0.000063  -0.000009  -0.000000   0.000004
     2  H    0.000016  -0.000004   0.000001   0.000000  -0.000000  -0.000000
     3  H   -0.000008  -0.000007  -0.000001  -0.000000  -0.000000   0.000000
     4  C   -0.000007  -0.000653  -0.000018  -0.000004   0.000000  -0.000001
     5  C    0.000189   0.000296   0.000000  -0.000000   0.000000  -0.000000
     6  H   -0.000101   0.000305   0.000000   0.000000  -0.000000   0.000000
     7  H   -0.000011   0.000011   0.000000  -0.000000   0.000000   0.000000
     8  H    0.000183  -0.000074  -0.000000  -0.000000   0.000000  -0.000000
     9  C   -0.043537  -0.044386  -0.000004  -0.000003  -0.000000  -0.000000
    10  H   -0.001630  -0.001139  -0.000000   0.000000  -0.000000   0.000000
    11  C    0.401855   0.400861  -0.000000  -0.000000   0.000000   0.000000
    12  H   -0.028815  -0.027968  -0.000000  -0.000000   0.000000  -0.000000
    13  H    0.585505  -0.033416  -0.000000  -0.000000  -0.000000   0.000000
    14  H   -0.033416   0.586349   0.000000   0.000000   0.000000  -0.000000
    15  C   -0.000000   0.000000   4.891317   0.405770   0.399552   0.397821
    16  H   -0.000000   0.000000   0.405770   0.569891  -0.027810  -0.027934
    17  H   -0.000000   0.000000   0.399552  -0.027810   0.598200  -0.035378
    18  H    0.000000  -0.000000   0.397821  -0.027934  -0.035378   0.595826
    19  C    0.000000  -0.000000   0.354219  -0.041385  -0.047984  -0.043436
    20  C    0.000000   0.000000  -0.059559   0.003776  -0.000024  -0.003107
    21  H   -0.000000  -0.000000   0.003440  -0.000117  -0.000048   0.000003
    22  H    0.000000  -0.000000  -0.005257   0.000115  -0.000656   0.002550
    23  H   -0.000000   0.000000   0.000776  -0.000133   0.001342  -0.000157
    24  C   -0.000000   0.000016  -0.043448  -0.002154  -0.001217  -0.000683
    25  H    0.000005  -0.000056  -0.006575   0.002307   0.000105   0.000211
    26  C   -0.000004   0.000020   0.003056   0.000131  -0.000094  -0.000097
    27  H    0.000000  -0.000000  -0.000027   0.000003  -0.000014   0.000034
    28  H    0.000000  -0.000000  -0.000100  -0.000003   0.000038  -0.000010
              19         20         21         22         23         24
     1  C    0.001995   0.000139   0.000065   0.000001  -0.000023  -0.048833
     2  H   -0.000053   0.000004   0.000003  -0.000000   0.000000   0.005096
     3  H   -0.000120  -0.000008   0.000000   0.000000  -0.000001  -0.003243
     4  C    0.000149   0.000000  -0.000010   0.000000   0.000001  -0.003827
     5  C    0.000007  -0.000004  -0.000004  -0.000000   0.000000   0.000684
     6  H    0.000001  -0.000000   0.000000  -0.000000  -0.000000   0.000005
     7  H    0.000005  -0.000002   0.000011  -0.000000  -0.000000  -0.000088
     8  H    0.000001   0.000000  -0.000000  -0.000000   0.000000   0.000041
     9  C    0.000042   0.000001  -0.000000   0.000000  -0.000000  -0.000986
    10  H   -0.000001   0.000000  -0.000000  -0.000000  -0.000000  -0.000041
    11  C   -0.000001  -0.000000   0.000000   0.000000   0.000000  -0.000019
    12  H    0.000000  -0.000000  -0.000000   0.000000   0.000000  -0.000002
    13  H    0.000000   0.000000  -0.000000   0.000000  -0.000000  -0.000000
    14  H   -0.000000   0.000000  -0.000000  -0.000000   0.000000   0.000016
    15  C    0.354219  -0.059559   0.003440  -0.005257   0.000776  -0.043448
    16  H   -0.041385   0.003776  -0.000117   0.000115  -0.000133  -0.002154
    17  H   -0.047984  -0.000024  -0.000048  -0.000656   0.001342  -0.001217
    18  H   -0.043436  -0.003107   0.000003   0.002550  -0.000157  -0.000683
    19  C    4.941257   0.343999  -0.037887  -0.042766  -0.041639   0.701869
    20  C    0.343999   4.918461   0.404318   0.404698   0.398376  -0.050866
    21  H   -0.037887   0.404318   0.570573  -0.029568  -0.026995  -0.004116
    22  H   -0.042766   0.404698  -0.029568   0.584211  -0.030983   0.002832
    23  H   -0.041639   0.398376  -0.026995  -0.030983   0.574868  -0.004199
    24  C    0.701869  -0.050866  -0.004116   0.002832  -0.004199   4.957979
    25  H   -0.034330   0.003362   0.000045  -0.000096  -0.000125   0.402201
    26  C   -0.054940  -0.008026  -0.001186   0.000142   0.000552   0.336753
    27  H   -0.004665  -0.001094   0.001488   0.000149  -0.000480  -0.047070
    28  H   -0.006150   0.000667  -0.001118  -0.000062   0.001180  -0.044077
              25         26         27         28
     1  C   -0.005094   0.340998  -0.037706  -0.039791
     2  H    0.000211  -0.049004  -0.003580  -0.002410
     3  H    0.001264  -0.039965   0.004696  -0.004705
     4  C    0.004542  -0.060446  -0.003992   0.004946
     5  C    0.000009  -0.003116  -0.000450  -0.000011
     6  H   -0.000026   0.000046  -0.000051   0.000002
     7  H   -0.000085  -0.000659  -0.001167   0.000006
     8  H    0.000011  -0.000128   0.000011   0.000001
     9  C    0.003561  -0.002929   0.000109  -0.000020
    10  H    0.000120   0.000276   0.000001  -0.000012
    11  C   -0.000040  -0.000082   0.000003   0.000001
    12  H    0.000001  -0.000000  -0.000000   0.000000
    13  H    0.000005  -0.000004   0.000000   0.000000
    14  H   -0.000056   0.000020  -0.000000  -0.000000
    15  C   -0.006575   0.003056  -0.000027  -0.000100
    16  H    0.002307   0.000131   0.000003  -0.000003
    17  H    0.000105  -0.000094  -0.000014   0.000038
    18  H    0.000211  -0.000097   0.000034  -0.000010
    19  C   -0.034330  -0.054940  -0.004665  -0.006150
    20  C    0.003362  -0.008026  -0.001094   0.000667
    21  H    0.000045  -0.001186   0.001488  -0.001118
    22  H   -0.000096   0.000142   0.000149  -0.000062
    23  H   -0.000125   0.000552  -0.000480   0.001180
    24  C    0.402201   0.336753  -0.047070  -0.044077
    25  H    0.540590  -0.045403   0.003129   0.002790
    26  C   -0.045403   4.998642   0.408443   0.411163
    27  H    0.003129   0.408443   0.600125  -0.031403
    28  H    0.002790   0.411163  -0.031403   0.584811
 Mulliken charges:
               1
     1  C   -0.243421
     2  H    0.115407
     3  H    0.116847
     4  C    0.025249
     5  C   -0.353365
     6  H    0.126040
     7  H    0.117695
     8  H    0.127174
     9  C   -0.153124
    10  H    0.116571
    11  C   -0.355935
    12  H    0.117512
    13  H    0.119889
    14  H    0.119939
    15  C   -0.340900
    16  H    0.117557
    17  H    0.113986
    18  H    0.114354
    19  C    0.011813
    20  C   -0.355111
    21  H    0.121103
    22  H    0.114689
    23  H    0.127639
    24  C   -0.152607
    25  H    0.127367
    26  C   -0.234144
    27  H    0.113510
    28  H    0.124267
 Sum of Mulliken charges =  -0.00000
 Mulliken charges with hydrogens summed into heavy atoms:
               1
     1  C   -0.011167
     4  C    0.025249
     5  C    0.017545
     9  C   -0.036553
    11  C    0.001404
    15  C    0.004997
    19  C    0.011813
    20  C    0.008319
    24  C   -0.025240
    26  C    0.003633
 Electronic spatial extent (au):  <R**2>=           2327.9189
 Charge=             -0.0000 electrons
 Dipole moment (field-independent basis, Debye):
    X=             -0.1366    Y=             -0.2128    Z=              0.2460  Tot=              0.3528
 Quadrupole moment (field-independent basis, Debye-Ang):
   XX=            -64.5934   YY=            -64.4003   ZZ=            -65.0626
   XY=              0.7790   XZ=             -0.1263   YZ=             -0.6718
 Traceless Quadrupole moment (field-independent basis, Debye-Ang):
   XX=              0.0921   YY=              0.2851   ZZ=             -0.3772
   XY=              0.7790   XZ=             -0.1263   YZ=             -0.6718
 Octapole moment (field-independent basis, Debye-Ang**2):
  XXX=             -7.8146  YYY=             -0.5013  ZZZ=              0.4628  XYY=              0.9467
  XXY=              2.7739  XXZ=              3.5410  XZZ=              1.7767  YZZ=              0.4989
  YYZ=             -0.3216  XYZ=             -2.3913
 Hexadecapole moment (field-independent basis, Debye-Ang**3):
 XXXX=          -2314.8457 YYYY=           -625.2928 ZZZZ=           -304.1559 XXXY=              5.0964
 XXXZ=              4.1629 YYYX=             -0.3794 YYYZ=             -2.4323 ZZZX=             -4.5679
 ZZZY=              2.1677 XXYY=           -495.4331 XXZZ=           -433.8407 YYZZ=           -154.1043
 XXYZ=             -2.5329 YYXZ=              0.1227 ZZXY=              3.7563
 N-N= 5.193507775864D+02 E-N=-1.943448694090D+03  KE= 3.886244307243D+02
 No NMR shielding tensors so no spin-rotation constants.
 Leave Link  601 at Fri Sep 17 20:13:11 2021, MaxMem=   524288000 cpu:               0.2 elap:               0.2
 (Enter /opt/gaussian/g16_legacy/l701.exe)
 ... and contract with generalized density number  2.
 Compute integral first derivatives.
 Leave Link  701 at Fri Sep 17 20:13:11 2021, MaxMem=   524288000 cpu:               0.2 elap:               0.2
 (Enter /opt/gaussian/g16_legacy/l702.exe)
 L702 exits ... SP integral derivatives will be done elsewhere.
 Leave Link  702 at Fri Sep 17 20:13:11 2021, MaxMem=   524288000 cpu:               0.0 elap:               0.0
 (Enter /opt/gaussian/g16_legacy/l703.exe)
 Integral derivatives from FoFJK, PRISM(SPDF).
 Compute integral first derivatives, UseDBF=F ICtDFT=           0.
 Calling FoFJK, ICntrl=  10002127 FMM=F ISym2X=0 I1Cent= 0 IOpClX= 0 NMat=1 NMatS=1 NMatT=0.
 FoFJK:  IHMeth= 1 ICntrl=10002127 DoSepK=F KAlg= 0 I1Cent=           0 FoldK=F
 IRaf=         0 NMat=       1 IRICut=       1 DoRegI=T DoRafI=F ISym2E= 0 IDoP0=0 IntGTp=1.
 FoFCou: FMM=F IPFlag=           0 FMFlag=      100000 FMFlg1=         800
         NFxFlg=           0 DoJE=F BraDBF=F KetDBF=F FulRan=T
         wScrn=  0.000000 ICntrl=  10002127 IOpCl=  0 I1Cent=           0 NGrid=           0
         NMat0=    1 NMatS0=      1 NMatT0=    0 NMatD0=    1 NMtDS0=    0 NMtDT0=    0
 Symmetry not used in FoFCou.
 Leave Link  703 at Fri Sep 17 20:13:30 2021, MaxMem=   524288000 cpu:              18.8 elap:              18.8
 (Enter /opt/gaussian/g16_legacy/l716.exe)
 Dipole        =-2.43648566D-02-5.92703433D-02 8.90989501D-02
 ***** Axes restored to original set *****
 -------------------------------------------------------------------
 Center     Atomic                   Forces (Hartrees/Bohr)
 Number     Number              X              Y              Z
 -------------------------------------------------------------------
      1        6           0.002441932   -0.000083105   -0.002740368
      2        1          -0.001014613    0.001109462    0.001766651
      3        1           0.003430137   -0.000247309    0.002518764
      4        6          -0.007852788    0.009303425   -0.002989781
      5        6           0.002289890   -0.001522605    0.003587585
      6        1          -0.000439383   -0.003367330   -0.003486918
      7        1           0.000283444    0.000035231   -0.003501753
      8        1           0.000264373    0.001872932    0.003319937
      9        6          -0.003131148   -0.001667906    0.000940070
     10        1          -0.002084576   -0.002232574    0.001911096
     11        6           0.002648490   -0.000652394    0.001927271
     12        1          -0.002305541    0.001639152   -0.002540412
     13        1           0.000827255    0.002114865    0.002053750
     14        1           0.002324897   -0.002003287   -0.001493780
     15        6           0.001506283    0.002795871   -0.002399387
     16        1          -0.003206748   -0.002742698    0.000987315
     17        1           0.002222708   -0.000125215    0.002979024
     18        1          -0.002851697    0.001516801   -0.001529498
     19        6           0.007106880   -0.000105847   -0.001251322
     20        6           0.000258165   -0.003096726    0.002633725
     21        1          -0.001575541    0.002675483   -0.003135346
     22        1          -0.001156474    0.000703732   -0.003466919
     23        1           0.000109440   -0.001369071    0.002940326
     24        6           0.003070057   -0.001262451   -0.001039114
     25        1          -0.001270623   -0.000661783    0.001418683
     26        6          -0.000554298    0.000363400    0.000092892
     27        1          -0.002262908    0.000546358   -0.001120668
     28        1           0.000922387   -0.003536412    0.001618178
 -------------------------------------------------------------------
 Cartesian Forces:  Max     0.009303425 RMS     0.002562007
 Leave Link  716 at Fri Sep 17 20:13:30 2021, MaxMem=   524288000 cpu:               0.0 elap:               0.0
 (Enter /opt/gaussian/g16_legacy/l103.exe)

 GradGradGradGradGradGradGradGradGradGradGradGradGradGradGradGradGradGrad
 Berny optimization.
 FormGI is forming the generalized inverse of G from B-inverse, IUseBI=4.
 Internal  Forces:  Max     0.008229925 RMS     0.002075443
 Search for a local minimum.
 Step number   1 out of a maximum of  138
 All quantities printed in internal units (Hartrees-Bohrs-Radians)
 RMS Force = .20754D-02 SwitMx=.10000D-02 MixMth= 1
 Mixed Optimization -- RFO/linear search
 Second derivative matrix not updated -- first step.
 ITU=  0
     Eigenvalues ---    0.00244   0.00521   0.00673   0.00705   0.00722
     Eigenvalues ---    0.00726   0.00833   0.01196   0.01294   0.01542
     Eigenvalues ---    0.01643   0.02763   0.02793   0.03775   0.03920
     Eigenvalues ---    0.05318   0.05390   0.07054   0.07082   0.07099
     Eigenvalues ---    0.07116   0.07195   0.07297   0.07320   0.07507
     Eigenvalues ---    0.09551   0.09622   0.12982   0.13043   0.16000
     Eigenvalues ---    0.16000   0.16000   0.16000   0.16000   0.16000
     Eigenvalues ---    0.16000   0.16000   0.16000   0.16000   0.16000
     Eigenvalues ---    0.16000   0.16000   0.16000   0.21945   0.21990
     Eigenvalues ---    0.22000   0.22000   0.25000   0.25000   0.25000
     Eigenvalues ---    0.25000   0.28565   0.30510   0.31654   0.31899
     Eigenvalues ---    0.32034   0.32063   0.32915   0.33946   0.33977
     Eigenvalues ---    0.34001   0.34145   0.34181   0.34208   0.34226
     Eigenvalues ---    0.34226   0.34280   0.34307   0.34346   0.34347
     Eigenvalues ---    0.34358   0.34381   0.34522   0.34527   0.34891
     Eigenvalues ---    0.34927   0.55235   0.55724
 RFO step:  Lambda=-3.17027895D-03 EMin= 2.43692934D-03
 Linear search not attempted -- first point.
 Iteration  1 RMS(Cart)=  0.06523356 RMS(Int)=  0.00076708
 Iteration  2 RMS(Cart)=  0.00166256 RMS(Int)=  0.00010096
 Iteration  3 RMS(Cart)=  0.00000171 RMS(Int)=  0.00010095
 Iteration  4 RMS(Cart)=  0.00000000 RMS(Int)=  0.00010095
 ITry= 1 IFail=0 DXMaxC= 2.11D-01 DCOld= 1.00D+10 DXMaxT= 3.00D-01 DXLimC= 3.00D+00 Rises=F
 Variable       Old X    -DE/DX   Delta X   Delta X   Delta X     New X
                                 (Linear)    (Quad)   (Total)
    R1        2.07422  -0.00112   0.00000  -0.00327  -0.00327   2.07095
    R2        2.07369  -0.00273   0.00000  -0.00795  -0.00795   2.06574
    R3        2.86958  -0.00700   0.00000  -0.02271  -0.02271   2.84687
    R4        2.90920  -0.00392   0.00000  -0.01359  -0.01359   2.89561
    R5        2.84329   0.00224   0.00000   0.00696   0.00696   2.85024
    R6        2.54924  -0.00411   0.00000  -0.00740  -0.00740   2.54184
    R7        2.06692  -0.00363   0.00000  -0.01046  -0.01046   2.05646
    R8        2.06449  -0.00241   0.00000  -0.00692  -0.00692   2.05757
    R9        2.07087  -0.00265   0.00000  -0.00769  -0.00769   2.06317
   R10        2.05852  -0.00200   0.00000  -0.00569  -0.00569   2.05282
   R11        2.82501   0.00351   0.00000   0.01057   0.01057   2.83559
   R12        2.06458  -0.00360   0.00000  -0.01034  -0.01034   2.05424
   R13        2.06730  -0.00185   0.00000  -0.00533  -0.00533   2.06197
   R14        2.06751  -0.00168   0.00000  -0.00484  -0.00484   2.06267
   R15        2.06950  -0.00385   0.00000  -0.01115  -0.01115   2.05835
   R16        2.07025  -0.00208   0.00000  -0.00604  -0.00604   2.06421
   R17        2.06980  -0.00232   0.00000  -0.00673  -0.00673   2.06307
   R18        2.84029   0.00073   0.00000   0.00225   0.00225   2.84254
   R19        2.84081   0.00154   0.00000   0.00477   0.00477   2.84559
   R20        2.54494  -0.00261   0.00000  -0.00465  -0.00465   2.54029
   R21        2.06749  -0.00310   0.00000  -0.00895  -0.00895   2.05855
   R22        2.06860  -0.00296   0.00000  -0.00857  -0.00857   2.06003
   R23        2.06814  -0.00155   0.00000  -0.00446  -0.00446   2.06368
   R24        2.05793  -0.00196   0.00000  -0.00557  -0.00557   2.05237
   R25        2.84782  -0.00115   0.00000  -0.00360  -0.00360   2.84422
   R26        2.06950  -0.00123   0.00000  -0.00357  -0.00357   2.06592
   R27        2.07329  -0.00141   0.00000  -0.00410  -0.00410   2.06919
    A1        1.84365   0.00051   0.00000   0.01896   0.01903   1.86267
    A2        1.89658   0.00257   0.00000   0.01962   0.01971   1.91629
    A3        1.89954  -0.00053   0.00000  -0.00143  -0.00138   1.89817
    A4        1.92669  -0.00146   0.00000  -0.02385  -0.02394   1.90275
    A5        1.89105   0.00250   0.00000   0.00945   0.00902   1.90008
    A6        1.99978  -0.00330   0.00000  -0.01945  -0.01959   1.98019
    A7        2.03197   0.00047   0.00000   0.00184   0.00155   2.03351
    A8        2.09742  -0.00020   0.00000  -0.00078  -0.00108   2.09634
    A9        2.15379  -0.00027   0.00000  -0.00105  -0.00135   2.15245
   A10        1.95305   0.00068   0.00000   0.00557   0.00559   1.95863
   A11        1.95419  -0.00309   0.00000  -0.01698  -0.01692   1.93726
   A12        1.92097   0.00352   0.00000   0.01824   0.01828   1.93925
   A13        1.84843   0.00237   0.00000   0.02073   0.02077   1.86920
   A14        1.90583  -0.00292   0.00000  -0.02153  -0.02154   1.88429
   A15        1.87839  -0.00074   0.00000  -0.00712  -0.00705   1.87134
   A16        2.07225  -0.00313   0.00000  -0.01912  -0.01913   2.05312
   A17        2.22083   0.00012   0.00000   0.00052   0.00051   2.22134
   A18        1.99010   0.00301   0.00000   0.01856   0.01855   2.00865
   A19        1.98135  -0.00274   0.00000  -0.01636  -0.01629   1.96506
   A20        1.91460   0.00260   0.00000   0.01519   0.01515   1.92975
   A21        1.91221   0.00360   0.00000   0.02238   0.02235   1.93456
   A22        1.87895  -0.00010   0.00000  -0.00110  -0.00105   1.87791
   A23        1.88554  -0.00033   0.00000  -0.00068  -0.00060   1.88494
   A24        1.88875  -0.00323   0.00000  -0.02071  -0.02085   1.86790
   A25        1.88103   0.00049   0.00000   0.00531   0.00536   1.88640
   A26        1.87582   0.00134   0.00000   0.01162   0.01166   1.88748
   A27        1.96081  -0.00296   0.00000  -0.01517  -0.01512   1.94569
   A28        1.89459  -0.00324   0.00000  -0.02574  -0.02573   1.86886
   A29        1.92467   0.00274   0.00000   0.01504   0.01507   1.93975
   A30        1.92483   0.00151   0.00000   0.00805   0.00808   1.93291
   A31        2.01581   0.00133   0.00000   0.00520   0.00499   2.02080
   A32        2.11233   0.00167   0.00000   0.00654   0.00632   2.11865
   A33        2.15503  -0.00300   0.00000  -0.01193  -0.01212   2.14290
   A34        1.96085  -0.00107   0.00000  -0.00486  -0.00484   1.95601
   A35        1.93511  -0.00068   0.00000  -0.00192  -0.00191   1.93321
   A36        1.91899   0.00359   0.00000   0.01802   0.01805   1.93704
   A37        1.86051   0.00224   0.00000   0.02107   0.02107   1.88158
   A38        1.89523  -0.00211   0.00000  -0.01698  -0.01694   1.87829
   A39        1.89084  -0.00212   0.00000  -0.01637  -0.01635   1.87449
   A40        2.06776  -0.00043   0.00000  -0.00263  -0.00264   2.06512
   A41        2.18623   0.00004   0.00000   0.00015   0.00014   2.18637
   A42        2.02917   0.00040   0.00000   0.00244   0.00243   2.03160
   A43        1.99108  -0.00823   0.00000  -0.03447  -0.03435   1.95673
   A44        1.90262   0.00315   0.00000   0.01129   0.01129   1.91390
   A45        1.88587   0.00130   0.00000   0.00436   0.00463   1.89050
   A46        1.91616   0.00219   0.00000   0.00730   0.00725   1.92341
   A47        1.89671   0.00444   0.00000   0.03237   0.03241   1.92912
   A48        1.86724  -0.00261   0.00000  -0.02043  -0.02054   1.84670
    D1       -1.01183   0.00146   0.00000   0.07189   0.07189  -0.93994
    D2        2.13005   0.00079   0.00000   0.02800   0.02797   2.15803
    D3       -3.02604   0.00018   0.00000   0.05104   0.05128  -2.97476
    D4        0.11584  -0.00048   0.00000   0.00714   0.00736   0.12321
[...]
                 (A) (A) (A) (A) (A) (A) (A) (A) (A) (A) (A) (A)
                 (A) (A) (A) (A) (A) (A) (A) (A) (A) (A) (A) (A)
                 (A) (A) (A) (A) (A) (A) (A) (A) (A) (A) (A) (A)
                 (A) (A) (A) (A) (A) (A) (A) (A) (A) (A) (A) (A)
                 (A) (A) (A) (A) (A) (A) (A) (A) (A) (A) (A) (A)
                 (A) (A) (A) (A) (A) (A) (A) (A) (A) (A) (A) (A)
                 (A) (A) (A) (A) (A) (A) (A) (A) (A) (A) (A) (A)
                 (A) (A) (A) (A) (A) (A) (A) (A) (A) (A) (A) (A)
                 (A) (A) (A) (A) (A) (A) (A) (A) (A) (A) (A) (A)
                 (A) (A) (A) (A) (A) (A) (A) (A) (A) (A) (A) (A)
                 (A) (A) (A) (A) (A) (A) (A) (A) (A) (A) (A) (A)
                 (A) (A) (A) (A) (A) (A) (A) (A) (A) (A) (A) (A)
                 (A) (A) (A) (A) (A) (A) (A) (A) (A) (A) (A) (A)
                 (A) (A) (A) (A) (A) (A) (A) (A) (A) (A) (A) (A)
                 (A) (A) (A) (A) (A) (A) (A) (A) (A)
 The electronic state is 1-A.
 Alpha  occ. eigenvalues --  -11.22744 -11.22316 -11.21839 -11.21740 -11.21605
 Alpha  occ. eigenvalues --  -11.21315 -11.21306 -11.21252 -11.21233 -11.21216
 Alpha  occ. eigenvalues --   -1.10881  -1.08080  -1.02120  -0.97148  -0.93656
 Alpha  occ. eigenvalues --   -0.92311  -0.88050  -0.81320  -0.70371  -0.69836
 Alpha  occ. eigenvalues --   -0.64406  -0.62077  -0.60323  -0.59015  -0.57403
 Alpha  occ. eigenvalues --   -0.56888  -0.55180  -0.54558  -0.53460  -0.52929
 Alpha  occ. eigenvalues --   -0.52430  -0.51366  -0.49777  -0.49031  -0.48172
 Alpha  occ. eigenvalues --   -0.45584  -0.44879  -0.32481  -0.31922
 Alpha virt. eigenvalues --    0.18687   0.20045   0.22372   0.25239   0.25736
 Alpha virt. eigenvalues --    0.27047   0.28444   0.29466   0.29883   0.30879
 Alpha virt. eigenvalues --    0.31869   0.32430   0.33266   0.33451   0.34842
 Alpha virt. eigenvalues --    0.36489   0.36638   0.37445   0.39695   0.40642
 Alpha virt. eigenvalues --    0.41322   0.42137   0.42714   0.43791   0.46235
 Alpha virt. eigenvalues --    0.51192   0.52632   0.63191   0.63997   0.69789
 Alpha virt. eigenvalues --    0.70529   0.71968   0.72748   0.74794   0.76632
 Alpha virt. eigenvalues --    0.78318   0.80028   0.80901   0.82297   0.83513
 Alpha virt. eigenvalues --    0.85114   0.87307   0.88369   0.88449   0.91249
 Alpha virt. eigenvalues --    0.93933   0.95376   0.97075   0.98439   0.99447
 Alpha virt. eigenvalues --    1.01239   1.02787   1.03430   1.04118   1.06860
 Alpha virt. eigenvalues --    1.08117   1.08931   1.10723   1.11755   1.12046
 Alpha virt. eigenvalues --    1.13269   1.14348   1.15261   1.15713   1.16338
 Alpha virt. eigenvalues --    1.16444   1.18465   1.18998   1.19913   1.20835
 Alpha virt. eigenvalues --    1.21812   1.23069   1.23943   1.25068   1.27664
 Alpha virt. eigenvalues --    1.31615   1.35221   1.40074   1.43634   1.45551
 Alpha virt. eigenvalues --    1.47317   1.49802   1.55013   1.57881   1.58949
 Alpha virt. eigenvalues --    1.62791   1.66734   1.68289   1.69521   1.73217
 Alpha virt. eigenvalues --    1.76441   1.84028   1.89085   1.92229   1.93930
 Alpha virt. eigenvalues --    1.99903   2.01656   2.02810   2.06805   2.07923
 Alpha virt. eigenvalues --    2.08558   2.09662   2.11849   2.13112   2.15048
 Alpha virt. eigenvalues --    2.16740   2.17425   2.21067   2.23831   2.27364
 Alpha virt. eigenvalues --    2.30776   2.32008   2.33704   2.34185   2.35416
 Alpha virt. eigenvalues --    2.35870   2.36104   2.37850   2.40821   2.41648
 Alpha virt. eigenvalues --    2.43492   2.44496   2.45063   2.45848   2.46630
 Alpha virt. eigenvalues --    2.47772   2.48848   2.51208   2.51929   2.54013
 Alpha virt. eigenvalues --    2.55295   2.57535   2.60445   2.64459   2.65723
 Alpha virt. eigenvalues --    2.68174   2.69864   2.70314   2.71376   2.75623
 Alpha virt. eigenvalues --    2.76460   2.78394   2.80324   2.83856   2.84891
 Alpha virt. eigenvalues --    2.86490   2.88225   2.89700   2.91855   2.95446
 Alpha virt. eigenvalues --    2.97741   2.99607   3.00236   3.02876   3.04275
 Alpha virt. eigenvalues --    3.05942   3.07872   3.11441   3.13022   3.14458
 Alpha virt. eigenvalues --    3.18365   3.18721   3.19382   3.20798   3.21820
 Alpha virt. eigenvalues --    3.23648   3.24667   3.27947   3.30110   3.39314
 Alpha virt. eigenvalues --    3.40199   3.44510   3.45824   3.56421   3.57716
 Alpha virt. eigenvalues --    3.62324   3.63489   3.66845   3.71251   3.79707
 Alpha virt. eigenvalues --    3.80971   3.82015   3.83290   3.83513   3.84268
 Alpha virt. eigenvalues --    3.85071   3.86014   3.88901   3.89839   3.91947
 Alpha virt. eigenvalues --    3.95835   4.58128   4.62694   4.75103   4.86249
 Alpha virt. eigenvalues --    4.90098   4.93081   4.95976   5.04903   5.09933
 Alpha virt. eigenvalues --    5.17525
          Condensed to atoms (all electrons):
               1          2          3          4          5          6
     1  C    4.982756   0.410163   0.414947   0.359379  -0.060033   0.003470
     2  H    0.410163   0.595858  -0.027501  -0.043476  -0.002789  -0.000081
     3  H    0.414947  -0.027501   0.587411  -0.050170   0.004008  -0.000104
     4  C    0.359379  -0.043476  -0.050170   4.921862   0.343691  -0.037279
     5  C   -0.060033  -0.002789   0.004008   0.343691   4.914633   0.407496
     6  H    0.003470  -0.000081  -0.000104  -0.037279   0.407496   0.568595
     7  H   -0.003068  -0.000085  -0.000133  -0.040442   0.399541  -0.026905
     8  H   -0.002334   0.002983   0.000050  -0.045248   0.400726  -0.027730
     9  C   -0.042419  -0.000129  -0.003119   0.703326  -0.043824  -0.002946
    10  H   -0.007729   0.000264   0.002313  -0.039856   0.003609   0.000042
    11  C    0.003206  -0.000114   0.000208  -0.046751  -0.008083  -0.002286
    12  H    0.000089   0.000002   0.000005  -0.000172  -0.002091  -0.001239
    13  H   -0.000114   0.000017  -0.000009  -0.000760   0.000309   0.000092
    14  H   -0.000091  -0.000004  -0.000008  -0.000445   0.000212  -0.000068
    15  C   -0.000085   0.000002   0.000001  -0.000027  -0.000004  -0.000000
    16  H   -0.000009   0.000000   0.000000   0.000003   0.000000   0.000000
    17  H   -0.000005   0.000000  -0.000000   0.000001  -0.000000   0.000000
    18  H    0.000018  -0.000000   0.000000   0.000002   0.000010  -0.000000
    19  C   -0.001293  -0.000049   0.000106   0.000496  -0.000650   0.000002
    20  C    0.000307   0.000002  -0.000009   0.000034  -0.000307   0.000007
    21  H    0.000053   0.000010  -0.000003   0.000003  -0.000076  -0.000001
    22  H    0.000051  -0.000001   0.000000   0.000001   0.000116   0.000004
    23  H   -0.000024   0.000000   0.000000   0.000000   0.000001  -0.000000
    24  C   -0.068701   0.005734  -0.004079   0.001475  -0.002415  -0.000020
    25  H   -0.002138  -0.000013   0.002013  -0.000005   0.000059   0.000001
    26  C    0.330688  -0.050140  -0.039089  -0.068699  -0.000586   0.000057
    27  H   -0.036240  -0.003774   0.004398  -0.004486   0.000617   0.000024
    28  H   -0.046379  -0.001998  -0.004349   0.005474  -0.000167   0.000001
               7          8          9         10         11         12
     1  C   -0.003068  -0.002334  -0.042419  -0.007729   0.003206   0.000089
     2  H   -0.000085   0.002983  -0.000129   0.000264  -0.000114   0.000002
     3  H   -0.000133   0.000050  -0.003119   0.002313   0.000208   0.000005
     4  C   -0.040442  -0.045248   0.703326  -0.039856  -0.046751  -0.000172
     5  C    0.399541   0.400726  -0.043824   0.003609  -0.008083  -0.002091
     6  H   -0.026905  -0.027730  -0.002946   0.000042  -0.002286  -0.001239
     7  H    0.577885  -0.035330  -0.002332  -0.000128   0.000466  -0.000110
     8  H   -0.035330   0.592960   0.001569  -0.000118   0.000184   0.000002
     9  C   -0.002332   0.001569   4.930316   0.405335   0.340682  -0.043408
    10  H   -0.000128  -0.000118   0.405335   0.564436  -0.042326   0.003373
    11  C    0.000466   0.000184   0.340682  -0.042326   4.896657   0.408131
    12  H   -0.000110   0.000002  -0.043408   0.003373   0.408131   0.577069
    13  H   -0.000039   0.000029  -0.042315  -0.001068   0.401006  -0.028047
    14  H    0.000094  -0.000018  -0.042169  -0.001350   0.402027  -0.028619
    15  C   -0.000020   0.000000   0.000002  -0.000001  -0.000000  -0.000000
    16  H   -0.000001   0.000000   0.000005   0.000000  -0.000000  -0.000000
    17  H    0.000003   0.000000   0.000000   0.000000   0.000000   0.000000
    18  H   -0.000033  -0.000000  -0.000000  -0.000000   0.000001  -0.000000
    19  C    0.001666  -0.000001   0.000058  -0.000000  -0.000003   0.000000
    20  C   -0.001398   0.000012   0.000001   0.000000  -0.000000   0.000000
    21  H   -0.000315   0.000023  -0.000000  -0.000000   0.000000  -0.000000
    22  H   -0.000459  -0.000004  -0.000000  -0.000000   0.000000  -0.000000
    23  H    0.000083  -0.000000  -0.000000  -0.000000   0.000000   0.000000
    24  C    0.001242   0.000363   0.002533   0.000031  -0.000056   0.000003
    25  H   -0.000060   0.000003   0.000649   0.000128  -0.000004   0.000001
    26  C    0.001384  -0.002175  -0.004271   0.000201  -0.000080  -0.000004
    27  H   -0.002651   0.000519   0.000126  -0.000006   0.000004  -0.000001
    28  H    0.000125  -0.000024   0.000002  -0.000011   0.000002   0.000000
              13         14         15         16         17         18
     1  C   -0.000114  -0.000091  -0.000085  -0.000009  -0.000005   0.000018
     2  H    0.000017  -0.000004   0.000002   0.000000   0.000000  -0.000000
     3  H   -0.000009  -0.000008   0.000001   0.000000  -0.000000   0.000000
     4  C   -0.000760  -0.000445  -0.000027   0.000003   0.000001   0.000002
     5  C    0.000309   0.000212  -0.000004   0.000000  -0.000000   0.000010
     6  H    0.000092  -0.000068  -0.000000   0.000000   0.000000  -0.000000
     7  H   -0.000039   0.000094  -0.000020  -0.000001   0.000003  -0.000033
     8  H    0.000029  -0.000018   0.000000   0.000000   0.000000  -0.000000
     9  C   -0.042315  -0.042169   0.000002   0.000005   0.000000  -0.000000
    10  H   -0.001068  -0.001350  -0.000001   0.000000   0.000000  -0.000000
    11  C    0.401006   0.402027  -0.000000  -0.000000   0.000000   0.000001
    12  H   -0.028047  -0.028619  -0.000000  -0.000000   0.000000  -0.000000
    13  H    0.588363  -0.036105   0.000000   0.000000  -0.000000   0.000000
    14  H   -0.036105   0.586337   0.000000   0.000000   0.000000  -0.000000
    15  C    0.000000   0.000000   4.899802   0.406115   0.397886   0.399039
    16  H    0.000000   0.000000   0.406115   0.566221  -0.026721  -0.026477
    17  H   -0.000000   0.000000   0.397886  -0.026721   0.597406  -0.038217
    18  H    0.000000  -0.000000   0.399039  -0.026477  -0.038217   0.594897
    19  C   -0.000000   0.000005   0.352886  -0.041535  -0.044202  -0.044336
    20  C    0.000000   0.000000  -0.065973   0.003816  -0.001464  -0.001672
    21  H    0.000000  -0.000000   0.003793  -0.000116  -0.000060  -0.000037
    22  H    0.000000  -0.000000  -0.002398  -0.000039  -0.000542   0.002904
    23  H   -0.000000   0.000000  -0.002549  -0.000038   0.002750  -0.000445
    24  C    0.000001   0.000006  -0.043057  -0.002606  -0.000930  -0.000981
    25  H    0.000000  -0.000004  -0.007311   0.002400   0.000208   0.000187
    26  C   -0.000005   0.000022   0.003189   0.000144  -0.000122  -0.000083
    27  H    0.000000  -0.000000   0.000090   0.000006  -0.000005   0.000004
    28  H    0.000000  -0.000000  -0.000111  -0.000006   0.000019  -0.000004
              19         20         21         22         23         24
     1  C   -0.001293   0.000307   0.000053   0.000051  -0.000024  -0.068701
     2  H   -0.000049   0.000002   0.000010  -0.000001   0.000000   0.005734
     3  H    0.000106  -0.000009  -0.000003   0.000000   0.000000  -0.004079
     4  C    0.000496   0.000034   0.000003   0.000001   0.000000   0.001475
     5  C   -0.000650  -0.000307  -0.000076   0.000116   0.000001  -0.002415
     6  H    0.000002   0.000007  -0.000001   0.000004  -0.000000  -0.000020
     7  H    0.001666  -0.001398  -0.000315  -0.000459   0.000083   0.001242
     8  H   -0.000001   0.000012   0.000023  -0.000004  -0.000000   0.000363
     9  C    0.000058   0.000001  -0.000000  -0.000000  -0.000000   0.002533
    10  H   -0.000000   0.000000  -0.000000  -0.000000  -0.000000   0.000031
    11  C   -0.000003  -0.000000   0.000000   0.000000   0.000000  -0.000056
    12  H    0.000000   0.000000  -0.000000  -0.000000   0.000000   0.000003
    13  H   -0.000000   0.000000   0.000000   0.000000  -0.000000   0.000001
    14  H    0.000005   0.000000  -0.000000  -0.000000   0.000000   0.000006
    15  C    0.352886  -0.065973   0.003793  -0.002398  -0.002549  -0.043057
    16  H   -0.041535   0.003816  -0.000116  -0.000039  -0.000038  -0.002606
    17  H   -0.044202  -0.001464  -0.000060  -0.000542   0.002750  -0.000930
    18  H   -0.044336  -0.001672  -0.000037   0.002904  -0.000445  -0.000981
    19  C    4.914839   0.348135  -0.038659  -0.044352  -0.042986   0.706834
    20  C    0.348135   4.908807   0.406641   0.399750   0.402314  -0.041929
    21  H   -0.038659   0.406641   0.572216  -0.027504  -0.027270  -0.002186
    22  H   -0.044352   0.399750  -0.027504   0.590444  -0.036036  -0.000402
    23  H   -0.042986   0.402314  -0.027270  -0.036036   0.584176  -0.000306
    24  C    0.706834  -0.041929  -0.002186  -0.000402  -0.000306   4.936597
    25  H   -0.035285   0.003583   0.000045  -0.000119  -0.000121   0.401323
    26  C   -0.045522  -0.008957  -0.002423   0.000364   0.000196   0.339188
    27  H    0.001128  -0.002781  -0.001147   0.000064  -0.000119  -0.049602
    28  H   -0.001554   0.000345  -0.000054  -0.000030   0.000067  -0.042442
              25         26         27         28
     1  C   -0.002138   0.330688  -0.036240  -0.046379
     2  H   -0.000013  -0.050140  -0.003774  -0.001998
     3  H    0.002013  -0.039089   0.004398  -0.004349
     4  C   -0.000005  -0.068699  -0.004486   0.005474
     5  C    0.000059  -0.000586   0.000617  -0.000167
     6  H    0.000001   0.000057   0.000024   0.000001
     7  H   -0.000060   0.001384  -0.002651   0.000125
     8  H    0.000003  -0.002175   0.000519  -0.000024
     9  C    0.000649  -0.004271   0.000126   0.000002
    10  H    0.000128   0.000201  -0.000006  -0.000011
    11  C   -0.000004  -0.000080   0.000004   0.000002
    12  H    0.000001  -0.000004  -0.000001   0.000000
    13  H    0.000000  -0.000005   0.000000   0.000000
    14  H   -0.000004   0.000022  -0.000000  -0.000000
    15  C   -0.007311   0.003189   0.000090  -0.000111
    16  H    0.002400   0.000144   0.000006  -0.000006
    17  H    0.000208  -0.000122  -0.000005   0.000019
    18  H    0.000187  -0.000083   0.000004  -0.000004
    19  C   -0.035285  -0.045522   0.001128  -0.001554
    20  C    0.003583  -0.008957  -0.002781   0.000345
    21  H    0.000045  -0.002423  -0.001147  -0.000054
    22  H   -0.000119   0.000364   0.000064  -0.000030
    23  H   -0.000121   0.000196  -0.000119   0.000067
    24  C    0.401323   0.339188  -0.049602  -0.042442
    25  H    0.559815  -0.044502   0.003540  -0.000253
    26  C   -0.044502   5.008344   0.414477   0.414518
    27  H    0.003540   0.414477   0.591431  -0.029137
    28  H   -0.000253   0.414518  -0.029137   0.582410
 Mulliken charges:
               1
     1  C   -0.234465
     2  H    0.115117
     3  H    0.113112
     4  C    0.042067
     5  C   -0.354002
     6  H    0.118867
     7  H    0.131018
     8  H    0.113558
     9  C   -0.157671
    10  H    0.112859
    11  C   -0.352869
    12  H    0.115015
    13  H    0.118644
    14  H    0.120177
    15  C   -0.341268
    16  H    0.118838
    17  H    0.113996
    18  H    0.115224
    19  C    0.014271
    20  C   -0.349264
    21  H    0.117067
    22  H    0.118188
    23  H    0.120307
    24  C   -0.135619
    25  H    0.115862
    26  C   -0.246112
    27  H    0.113522
    28  H    0.123559
 Sum of Mulliken charges =  -0.00000
 Mulliken charges with hydrogens summed into heavy atoms:
               1
     1  C   -0.006236
     4  C    0.042067
     5  C    0.009442
     9  C   -0.044811
    11  C    0.000968
    15  C    0.006790
    19  C    0.014271
    20  C    0.006298
    24  C   -0.019757
    26  C   -0.009032
 Electronic spatial extent (au):  <R**2>=           2006.4207
 Charge=             -0.0000 electrons
 Dipole moment (field-independent basis, Debye):
    X=             -0.2423    Y=              0.0018    Z=              0.2998  Tot=              0.3855
 Quadrupole moment (field-independent basis, Debye-Ang):
   XX=            -66.5751   YY=            -64.4939   ZZ=            -63.8503
   XY=              0.0594   XZ=             -0.9358   YZ=             -0.3702
 Traceless Quadrupole moment (field-independent basis, Debye-Ang):
   XX=             -1.6020   YY=              0.4792   ZZ=              1.1228
   XY=              0.0594   XZ=             -0.9358   YZ=             -0.3702
 Octapole moment (field-independent basis, Debye-Ang**2):
  XXX=             -6.6298  YYY=             -1.9222  ZZZ=             -2.9801  XYY=              0.9017
  XXY=              6.5128  XXZ=              3.6164  XZZ=              2.6856  YZZ=              1.2742
  YYZ=              0.7159  XYZ=             -0.1406
 Hexadecapole moment (field-independent basis, Debye-Ang**3):
 XXXX=          -1716.9464 YYYY=           -662.1030 ZZZZ=           -419.0340 XXXY=              7.4469
 XXXZ=             -9.2980 YYYX=             -1.5748 YYYZ=             -1.3837 ZZZX=             -0.6646
 ZZZY=              1.2677 XXYY=           -400.8796 XXZZ=           -358.3598 YYZZ=           -178.1799
 XXYZ=             -3.6049 YYXZ=             -0.1603 ZZXY=              0.8733
 N-N= 5.330959524648D+02 E-N=-1.971008276669D+03  KE= 3.887499117889D+02
 No NMR shielding tensors so no spin-rotation constants.
 Leave Link  601 at Fri Sep 17 21:29:24 2021, MaxMem=   524288000 cpu:               0.2 elap:               0.4
 (Enter /opt/gaussian/g16_legacy/l9999.exe)
 1\1\GINC-TRUENO92\FOpt\RMP2-FC\6-31G(d,p)\C10H18\JRAMOS\17-Sep-2021\0\
 \#p opt mp2/6-31g(d,p)\\Conformer number 004. Energy MM = 27.498 kcal/
 mol\\0,1\C,2.1440648396,1.2142750052,-9.1798914905\H,1.9355112336,0.16
 88959315,-9.4333247563\H,2.1875269511,1.7678166481,-10.1213986472\C,3.
 4730054966,1.3146581087,-8.4772159368\C,3.5600592015,0.5822107677,-7.1
 662331053\H,4.5823358792,0.4703071025,-6.8138303571\H,2.9945435219,1.1
 069590677,-6.3939475267\H,3.1288961033,-0.416434516,-7.2621377082\C,4.
 4692971433,2.0437690761,-9.0137332066\H,4.2690553231,2.5295279029,-9.9
 649354775\C,5.8400185121,2.2815823301,-8.4574374886\H,5.9967211799,1.7
 88055074,-7.5017465447\H,6.6070185653,1.928730473,-9.1493514307\H,6.01
 20942156,3.3493363794,-8.3099454626\C,1.4862570082,5.1511231542,-6.443
 0776698\H,1.7412042944,5.6574870586,-7.3727414855\H,0.6325171534,5.664
 8918825,-5.9952129851\H,2.3234639855,5.2654023723,-5.7506583453\C,1.17
 82358287,3.6966191802,-6.6724452177\C,0.8156678768,2.9355189513,-5.427
 1215223\H,0.5960229168,1.8876536834,-5.6139033122\H,1.6272949771,2.989
 8028436,-4.6980689904\H,-0.0619737578,3.3826210425,-4.9547947013\C,1.2
 296313013,3.1731887926,-7.9116749766\H,1.4998523814,3.8455621786,-8.72
 32038046\C,0.9792831449,1.7571959417,-8.3323304507\H,0.8235970778,1.11
 05318551,-7.4690178885\H,0.0627976453,1.7003117127,-8.9288195112\\Vers
 ion=EM64L-G16RevA.03\State=1-A\HF=-389.1554107\MP2=-390.5745036\RMSD=7
 .564e-09\RMSF=3.761e-06\Dipole=-0.0152278,0.0017388,0.1349819\PG=C01 [
 X(C10H18)]\\@


 Just remember, when you're over the hill, you begin to pick up speed.
 -- Charles Schulz
 Job cpu time:       0 days  1 hours 19 minutes 49.3 seconds.
 Elapsed time:       0 days  1 hours 19 minutes 55.5 seconds.
 File lengths (MBytes):  RWF=     37 Int=      0 D2E=      0 Chk=      7 Scr=      1
 Normal termination of Gaussian 16 at Fri Sep 17 21:29:24 2021.
