 Entering Gaussian System, Link 0=/opt/gaussian/g16_legacy/g16
 Input=02-IsoP_001_gaussian.com
 Output=02-IsoP_001_gaussian.log
 Initial command:
 /opt/gaussian/g16_legacy/l1.exe "/scratch-local/jramos/2661500/Gau-21613.inp" -scrdir="/scratch-local/jramos/2661500/"
 Entering Link 1 = /opt/gaussian/g16_legacy/l1.exe PID=     21619.
  
 Copyright (c) 1988,1990,1992,1993,1995,1998,2003,2009,2016,
            Gaussian, Inc.  All Rights Reserved.
  
 This is part of the Gaussian(R) 16 program.  It is based on
 the Gaussian(R) 09 system (copyright 2009, Gaussian, Inc.),
 the Gaussian(R) 03 system (copyright 2003, Gaussian, Inc.),
 the Gaussian(R) 98 system (copyright 1998, Gaussian, Inc.),
 the Gaussian(R) 94 system (copyright 1995, Gaussian, Inc.),
 the Gaussian 92(TM) system (copyright 1992, Gaussian, Inc.),
 the Gaussian 90(TM) system (copyright 1990, Gaussian, Inc.),
 the Gaussian 88(TM) system (copyright 1988, Gaussian, Inc.),
 the Gaussian 86(TM) system (copyright 1986, Carnegie Mellon
 University), and the Gaussian 82(TM) system (copyright 1983,
 Carnegie Mellon University). Gaussian is a federally registered
 trademark of Gaussian, Inc.
  
 This software contains proprietary and confidential information,
 including trade secrets, belonging to Gaussian, Inc.
  
 This software is provided under written license and may be
 used, copied, transmitted, or stored only in accord with that
 written license.
  
 The following legend is applicable only to US Government
 contracts under FAR:
  
                    RESTRICTED RIGHTS LEGEND
  
 Use, reproduction and disclosure by the US Government is
 subject to restrictions as set forth in subparagraphs (a)
 and (c) of the Commercial Computer Software - Restricted
 Rights clause in FAR 52.227-19.
  
 Gaussian, Inc.
 340 Quinnipiac St., Bldg. 40, Wallingford CT 06492
  
  
 ---------------------------------------------------------------
 Warning -- This program may not be used in any manner that
 competes with the business of Gaussian, Inc. or will provide
 assistance to any competitor of Gaussian, Inc.  The licensee
 of this program is prohibited from giving any competitor of
 Gaussian, Inc. access to this program.  By using this program,
 the user acknowledges that Gaussian, Inc. is engaged in the
 business of creating and licensing software in the field of
 computational chemistry and represents and warrants to the
 licensee that it is not a competitor of Gaussian, Inc. and that
 it will not use this program in any manner prohibited above.
 ---------------------------------------------------------------
  

 Cite this work as:
 Gaussian 16, Revision A.03,
 M. J. Frisch, G. W. Trucks, H. B. Schlegel, G. E. Scuseria, 
 M. A. Robb, J. R. Cheeseman, G. Scalmani, V. Barone, 
 G. A. Petersson, H. Nakatsuji, X. Li, M. Caricato, A. V. Marenich, 
 J. Bloino, B. G. Janesko, R. Gomperts, B. Mennucci, H. P. Hratchian, 
 J. V. Ortiz, A. F. Izmaylov, J. L. Sonnenberg, D. Williams-Young, 
 F. Ding, F. Lipparini, F. Egidi, J. Goings, B. Peng, A. Petrone, 
 T. Henderson, D. Ranasinghe, V. G. Zakrzewski, J. Gao, N. Rega, 
 G. Zheng, W. Liang, M. Hada, M. Ehara, K. Toyota, R. Fukuda, 
 J. Hasegawa, M. Ishida, T. Nakajima, Y. Honda, O. Kitao, H. Nakai, 
 T. Vreven, K. Throssell, J. A. Montgomery, Jr., J. E. Peralta, 
 F. Ogliaro, M. J. Bearpark, J. J. Heyd, E. N. Brothers, K. N. Kudin, 
 V. N. Staroverov, T. A. Keith, R. Kobayashi, J. Normand, 
 K. Raghavachari, A. P. Rendell, J. C. Burant, S. S. Iyengar, 
 J. Tomasi, M. Cossi, J. M. Millam, M. Klene, C. Adamo, R. Cammi, 
 J. W. Ochterski, R. L. Martin, K. Morokuma, O. Farkas, 
 J. B. Foresman, and D. J. Fox, Gaussian, Inc., Wallingford CT, 2016.
 
 ******************************************
 Gaussian 16:  EM64L-G16RevA.03 25-Dec-2016
                17-Sep-2021 
 ******************************************
 %chk=02-IsoP_001_gaussian.chk
 %nproc=1
 Will use up to    1 processors via shared memory.
 %mem=4000Mb
 ---------------------
 #p opt mp2/6-31g(d,p)
 ---------------------
 1/18=20,19=15,38=1/1,3;
 2/9=110,12=2,17=6,18=5,40=1/2;
 3/5=1,6=6,7=101,11=9,25=1,30=1,71=1/1,2,3;
 4//1;
 5/5=2,38=5/2;
 8/6=4,10=2/1;
 9/15=2,16=-3/6;
 10/5=1/2;
 6/7=2,8=2,9=2,10=2/1;
 7/12=2/1,2,3,16;
 1/18=20,19=15/3(2);
 2/9=110/2;
 99//99;
 2/9=110/2;
 3/5=1,6=6,7=101,11=9,25=1,30=1,71=1/1,2,3;
 4/5=5,16=3,69=1/1;
 5/5=2,38=5/2;
 8/6=4,10=2/1;
 9/15=2,16=-3/6;
 10/5=1/2;
 7/12=2/1,2,3,16;
 1/18=20,19=15/3(-8);
 2/9=110/2;
 6/7=2,8=2,9=2,10=2/1;
 99//99;
 Leave Link    1 at Fri Sep 17 20:09:25 2021, MaxMem=   524288000 cpu:               0.0 elap:               0.1
 (Enter /opt/gaussian/g16_legacy/l101.exe)
 -------------------------------------------------
 Conformer number 001. Energy MM = 26.346 kcal/mol
 -------------------------------------------------
 Symbolic Z-matrix:
 Charge =  0 Multiplicity = 1
 C                     2.1549    1.2289   -8.9798 
 H                     1.8386    0.1906   -9.1476 
 H                     1.984     1.7473   -9.9316 
 C                     3.6316    1.277    -8.6303 
 C                     4.3276    2.5777   -8.9283 
 H                     5.3886    2.4377   -9.1545 
 H                     3.8898    3.0624   -9.8076 
 H                     4.2339    3.2623   -8.0793 
 C                     4.2345    0.2057   -8.0786 
 H                     3.641    -0.6917   -7.9047 
 C                     5.6487    0.1003   -7.604 
 H                     6.2211    1.0222   -7.7273 
 H                     5.6559   -0.1509   -6.5385 
 H                     6.1646   -0.6988   -8.1457 
 C                    -2.5956    2.1262   -7.6952 
 H                    -2.742     1.7419   -8.7108 
 H                    -3.142     1.4702   -7.0092 
 H                    -3.0436    3.1253   -7.6513 
 C                    -1.1436    2.1895   -7.315 
 C                    -0.8749    2.6667   -5.9108 
 H                     0.1305    3.0812   -5.7952 
 H                    -1.5766    3.4616   -5.6337 
 H                    -0.9935    1.8402   -5.2029 
 C                    -0.1719    1.8445   -8.1843 
 H                    -0.4552    1.5267   -9.1845 
 C                     1.3013    1.8535   -7.8668 
 H                     1.6225    2.888    -7.7018 
 H                     1.4703    1.2935   -6.9386 
 
 ITRead=  0  0  0  0  0  0  0  0  0  0  0  0  0  0  0  0  0  0  0  0
 ITRead=  0  0  0  0  0  0  0  0
 MicOpt= -1 -1 -1 -1 -1 -1 -1 -1 -1 -1 -1 -1 -1 -1 -1 -1 -1 -1 -1 -1
 MicOpt= -1 -1 -1 -1 -1 -1 -1 -1
 NAtoms=     28 NQM=       28 NQMF=       0 NMMI=      0 NMMIF=      0
                NMic=       0 NMicF=      0.
                    Isotopes and Nuclear Properties:
 (Nuclear quadrupole moments (NQMom) in fm**2, nuclear magnetic moments (NMagM)
  in nuclear magnetons)

  Atom         1           2           3           4           5           6           7           8           9          10
 IAtWgt=          12           1           1          12          12           1           1           1          12           1
 AtmWgt=  12.0000000   1.0078250   1.0078250  12.0000000  12.0000000   1.0078250   1.0078250   1.0078250  12.0000000   1.0078250
 NucSpn=           0           1           1           0           0           1           1           1           0           1
 AtZEff=  -0.0000000  -0.0000000  -0.0000000  -0.0000000  -0.0000000  -0.0000000  -0.0000000  -0.0000000  -0.0000000  -0.0000000
 NQMom=    0.0000000   0.0000000   0.0000000   0.0000000   0.0000000   0.0000000   0.0000000   0.0000000   0.0000000   0.0000000
 NMagM=    0.0000000   2.7928460   2.7928460   0.0000000   0.0000000   2.7928460   2.7928460   2.7928460   0.0000000   2.7928460
 AtZNuc=   6.0000000   1.0000000   1.0000000   6.0000000   6.0000000   1.0000000   1.0000000   1.0000000   6.0000000   1.0000000

  Atom        11          12          13          14          15          16          17          18          19          20
 IAtWgt=          12           1           1           1          12           1           1           1          12          12
 AtmWgt=  12.0000000   1.0078250   1.0078250   1.0078250  12.0000000   1.0078250   1.0078250   1.0078250  12.0000000  12.0000000
 NucSpn=           0           1           1           1           0           1           1           1           0           0
 AtZEff=  -0.0000000  -0.0000000  -0.0000000  -0.0000000  -0.0000000  -0.0000000  -0.0000000  -0.0000000  -0.0000000  -0.0000000
 NQMom=    0.0000000   0.0000000   0.0000000   0.0000000   0.0000000   0.0000000   0.0000000   0.0000000   0.0000000   0.0000000
 NMagM=    0.0000000   2.7928460   2.7928460   2.7928460   0.0000000   2.7928460   2.7928460   2.7928460   0.0000000   0.0000000
 AtZNuc=   6.0000000   1.0000000   1.0000000   1.0000000   6.0000000   1.0000000   1.0000000   1.0000000   6.0000000   6.0000000

  Atom        21          22          23          24          25          26          27          28
 IAtWgt=           1           1           1          12           1          12           1           1
 AtmWgt=   1.0078250   1.0078250   1.0078250  12.0000000   1.0078250  12.0000000   1.0078250   1.0078250
 NucSpn=           1           1           1           0           1           0           1           1
 AtZEff=  -0.0000000  -0.0000000  -0.0000000  -0.0000000  -0.0000000  -0.0000000  -0.0000000  -0.0000000
 NQMom=    0.0000000   0.0000000   0.0000000   0.0000000   0.0000000   0.0000000   0.0000000   0.0000000
 NMagM=    2.7928460   2.7928460   2.7928460   0.0000000   2.7928460   0.0000000   2.7928460   2.7928460
 AtZNuc=   1.0000000   1.0000000   1.0000000   6.0000000   1.0000000   6.0000000   1.0000000   1.0000000
 Leave Link  101 at Fri Sep 17 20:09:25 2021, MaxMem=   524288000 cpu:               0.1 elap:               0.1
 (Enter /opt/gaussian/g16_legacy/l103.exe)

 GradGradGradGradGradGradGradGradGradGradGradGradGradGradGradGradGradGrad
 Berny optimization.
 Initialization pass.
                           ----------------------------
                           !    Initial Parameters    !
                           ! (Angstroms and Degrees)  !
 --------------------------                            --------------------------
 ! Name  Definition              Value          Derivative Info.                !
 --------------------------------------------------------------------------------
 ! R1    R(1,2)                  1.0983         estimate D2E/DX2                !
 ! R2    R(1,3)                  1.0972         estimate D2E/DX2                !
 ! R3    R(1,4)                  1.5183         estimate D2E/DX2                !
 ! R4    R(1,26)                 1.5354         estimate D2E/DX2                !
 ! R5    R(4,5)                  1.505          estimate D2E/DX2                !
 ! R6    R(4,9)                  1.3474         estimate D2E/DX2                !
 ! R7    R(5,6)                  1.0938         estimate D2E/DX2                !
 ! R8    R(5,7)                  1.0953         estimate D2E/DX2                !
 ! R9    R(5,8)                  1.0946         estimate D2E/DX2                !
 ! R10   R(9,10)                 1.0899         estimate D2E/DX2                !
 ! R11   R(9,11)                 1.4954         estimate D2E/DX2                !
 ! R12   R(11,12)                1.0921         estimate D2E/DX2                !
 ! R13   R(11,13)                1.0947         estimate D2E/DX2                !
 ! R14   R(11,14)                1.0946         estimate D2E/DX2                !
 ! R15   R(15,16)                1.0957         estimate D2E/DX2                !
 ! R16   R(15,17)                1.0952         estimate D2E/DX2                !
 ! R17   R(15,18)                1.0958         estimate D2E/DX2                !
 ! R18   R(15,19)                1.5023         estimate D2E/DX2                !
 ! R19   R(19,20)                1.5072         estimate D2E/DX2                !
 ! R20   R(19,24)                1.3487         estimate D2E/DX2                !
 ! R21   R(20,21)                1.0936         estimate D2E/DX2                !
 ! R22   R(20,22)                1.0959         estimate D2E/DX2                !
 ! R23   R(20,23)                1.0947         estimate D2E/DX2                !
 ! R24   R(24,25)                1.087          estimate D2E/DX2                !
 ! R25   R(24,26)                1.5071         estimate D2E/DX2                !
 ! R26   R(26,27)                1.0957         estimate D2E/DX2                !
 ! R27   R(26,28)                1.0971         estimate D2E/DX2                !
 ! A1    A(2,1,3)              105.6207         estimate D2E/DX2                !
 ! A2    A(2,1,4)              110.1957         estimate D2E/DX2                !
 ! A3    A(2,1,26)             109.5855         estimate D2E/DX2                !
 ! A4    A(3,1,4)              109.6466         estimate D2E/DX2                !
 ! A5    A(3,1,26)             110.4888         estimate D2E/DX2                !
 ! A6    A(4,1,26)             111.1596         estimate D2E/DX2                !
 ! A7    A(1,4,5)              115.569          estimate D2E/DX2                !
 ! A8    A(1,4,9)              120.2826         estimate D2E/DX2                !
 ! A9    A(5,4,9)              124.1451         estimate D2E/DX2                !
 ! A10   A(4,5,6)              112.2658         estimate D2E/DX2                !
 ! A11   A(4,5,7)              110.8885         estimate D2E/DX2                !
 ! A12   A(4,5,8)              110.3253         estimate D2E/DX2                !
 ! A13   A(6,5,7)              106.1601         estimate D2E/DX2                !
 ! A14   A(6,5,8)              108.8724         estimate D2E/DX2                !
 ! A15   A(7,5,8)              108.159          estimate D2E/DX2                !
 ! A16   A(4,9,10)             118.4464         estimate D2E/DX2                !
 ! A17   A(4,9,11)             127.5263         estimate D2E/DX2                !
 ! A18   A(10,9,11)            113.9731         estimate D2E/DX2                !
 ! A19   A(9,11,12)            113.5981         estimate D2E/DX2                !
 ! A20   A(9,11,13)            109.3467         estimate D2E/DX2                !
 ! A21   A(9,11,14)            109.8833         estimate D2E/DX2                !
 ! A22   A(12,11,13)           107.4656         estimate D2E/DX2                !
 ! A23   A(12,11,14)           108.2615         estimate D2E/DX2                !
 ! A24   A(13,11,14)           108.1226         estimate D2E/DX2                !
 ! A25   A(16,15,17)           107.688          estimate D2E/DX2                !
 ! A26   A(16,15,18)           107.5948         estimate D2E/DX2                !
 ! A27   A(16,15,19)           112.2407         estimate D2E/DX2                !
 ! A28   A(17,15,18)           108.4845         estimate D2E/DX2                !
 ! A29   A(17,15,19)           110.4211         estimate D2E/DX2                !
 ! A30   A(18,15,19)           110.2786         estimate D2E/DX2                !
 ! A31   A(15,19,20)           114.9251         estimate D2E/DX2                !
 ! A32   A(15,19,24)           121.4978         estimate D2E/DX2                !
 ! A33   A(20,19,24)           123.5767         estimate D2E/DX2                !
 ! A34   A(19,20,21)           112.4809         estimate D2E/DX2                !
 ! A35   A(19,20,22)           110.5525         estimate D2E/DX2                !
 ! A36   A(19,20,23)           110.128          estimate D2E/DX2                !
 ! A37   A(21,20,22)           106.6783         estimate D2E/DX2                !
 ! A38   A(21,20,23)           108.5066         estimate D2E/DX2                !
 ! A39   A(22,20,23)           108.3463         estimate D2E/DX2                !
 ! A40   A(19,24,25)           118.691          estimate D2E/DX2                !
 ! A41   A(19,24,26)           124.5401         estimate D2E/DX2                !
 ! A42   A(25,24,26)           116.7664         estimate D2E/DX2                !
 ! A43   A(1,26,24)            112.8491         estimate D2E/DX2                !
 ! A44   A(1,26,27)            109.2843         estimate D2E/DX2                !
 ! A45   A(1,26,28)            108.6625         estimate D2E/DX2                !
 ! A46   A(24,26,27)           108.9002         estimate D2E/DX2                !
 ! A47   A(24,26,28)           109.0119         estimate D2E/DX2                !
 ! A48   A(27,26,28)           108.02           estimate D2E/DX2                !
 ! D1    D(2,1,4,5)            155.5959         estimate D2E/DX2                !
 ! D2    D(2,1,4,9)            -25.0362         estimate D2E/DX2                !
 ! D3    D(3,1,4,5)             39.7493         estimate D2E/DX2                !
 ! D4    D(3,1,4,9)           -140.8828         estimate D2E/DX2                !
 ! D5    D(26,1,4,5)           -82.7108         estimate D2E/DX2                !
 ! D6    D(26,1,4,9)            96.6571         estimate D2E/DX2                !
 ! D7    D(2,1,26,24)          -58.8184         estimate D2E/DX2                !
 ! D8    D(2,1,26,27)          179.8607         estimate D2E/DX2                !
 ! D9    D(2,1,26,28)           62.2085         estimate D2E/DX2                !
 ! D10   D(3,1,26,24)           57.1613         estimate D2E/DX2                !
 ! D11   D(3,1,26,27)          -64.1596         estimate D2E/DX2                !
 ! D12   D(3,1,26,28)          178.1883         estimate D2E/DX2                !
 ! D13   D(4,1,26,24)          179.1332         estimate D2E/DX2                !
 ! D14   D(4,1,26,27)           57.8123         estimate D2E/DX2                !
 ! D15   D(4,1,26,28)          -59.8399         estimate D2E/DX2                !
 ! D16   D(1,4,5,6)           -150.7318         estimate D2E/DX2                !
 ! D17   D(1,4,5,7)            -32.1666         estimate D2E/DX2                !
 ! D18   D(1,4,5,8)             87.641          estimate D2E/DX2                !
 ! D19   D(9,4,5,6)             29.9278         estimate D2E/DX2                !
 ! D20   D(9,4,5,7)            148.4929         estimate D2E/DX2                !
 ! D21   D(9,4,5,8)            -91.6994         estimate D2E/DX2                !
 ! D22   D(1,4,9,10)             0.8088         estimate D2E/DX2                !
 ! D23   D(1,4,9,11)          -176.3362         estimate D2E/DX2                !
 ! D24   D(5,4,9,10)          -179.8802         estimate D2E/DX2                !
 ! D25   D(5,4,9,11)             2.9748         estimate D2E/DX2                !
 ! D26   D(4,9,11,12)            0.6727         estimate D2E/DX2                !
 ! D27   D(4,9,11,13)          120.7062         estimate D2E/DX2                !
 ! D28   D(4,9,11,14)         -120.7683         estimate D2E/DX2                !
 ! D29   D(10,9,11,12)        -176.5801         estimate D2E/DX2                !
 ! D30   D(10,9,11,13)         -56.5466         estimate D2E/DX2                !
 ! D31   D(10,9,11,14)          61.9789         estimate D2E/DX2                !
 ! D32   D(16,15,19,20)       -178.035          estimate D2E/DX2                !
 ! D33   D(16,15,19,24)          2.1907         estimate D2E/DX2                !
 ! D34   D(17,15,19,20)        -57.8683         estimate D2E/DX2                !
 ! D35   D(17,15,19,24)        122.3573         estimate D2E/DX2                !
 ! D36   D(18,15,19,20)         62.0146         estimate D2E/DX2                !
 ! D37   D(18,15,19,24)       -117.7598         estimate D2E/DX2                !
 ! D38   D(15,19,20,21)       -156.7916         estimate D2E/DX2                !
 ! D39   D(15,19,20,22)        -37.6567         estimate D2E/DX2                !
 ! D40   D(15,19,20,23)         82.0416         estimate D2E/DX2                !
 ! D41   D(24,19,20,21)         22.9774         estimate D2E/DX2                !
 ! D42   D(24,19,20,22)        142.1123         estimate D2E/DX2                !
 ! D43   D(24,19,20,23)        -98.1894         estimate D2E/DX2                !
 ! D44   D(15,19,24,25)          0.7807         estimate D2E/DX2                !
 ! D45   D(15,19,24,26)       -178.6181         estimate D2E/DX2                !
 ! D46   D(20,19,24,25)       -178.9737         estimate D2E/DX2                !
 ! D47   D(20,19,24,26)          1.6275         estimate D2E/DX2                !
 ! D48   D(19,24,26,1)         171.984          estimate D2E/DX2                !
 ! D49   D(19,24,26,27)        -66.4776         estimate D2E/DX2                !
 ! D50   D(19,24,26,28)         51.156          estimate D2E/DX2                !
 ! D51   D(25,24,26,1)          -7.4254         estimate D2E/DX2                !
 ! D52   D(25,24,26,27)        114.113          estimate D2E/DX2                !
 ! D53   D(25,24,26,28)       -128.2534         estimate D2E/DX2                !
 --------------------------------------------------------------------------------
 Trust Radius=3.00D-01 FncErr=1.00D-07 GrdErr=1.00D-07 EigMax=2.50D+02 EigMin=1.00D-04
 Number of steps in this run=    138 maximum allowed number of steps=    168.
 GradGradGradGradGradGradGradGradGradGradGradGradGradGradGradGradGradGrad

 Leave Link  103 at Fri Sep 17 20:09:25 2021, MaxMem=   524288000 cpu:               0.0 elap:               0.1
 (Enter /opt/gaussian/g16_legacy/l202.exe)
                          Input orientation:                          
 ---------------------------------------------------------------------
 Center     Atomic      Atomic             Coordinates (Angstroms)
 Number     Number       Type             X           Y           Z
 ---------------------------------------------------------------------
      1          6           0        2.154900    1.228900   -8.979800
      2          1           0        1.838600    0.190600   -9.147600
      3          1           0        1.984000    1.747300   -9.931600
      4          6           0        3.631600    1.277000   -8.630300
      5          6           0        4.327600    2.577700   -8.928300
      6          1           0        5.388600    2.437700   -9.154500
      7          1           0        3.889800    3.062400   -9.807600
      8          1           0        4.233900    3.262300   -8.079300
      9          6           0        4.234500    0.205700   -8.078600
     10          1           0        3.641000   -0.691700   -7.904700
     11          6           0        5.648700    0.100300   -7.604000
     12          1           0        6.221100    1.022200   -7.727300
     13          1           0        5.655900   -0.150900   -6.538500
     14          1           0        6.164600   -0.698800   -8.145700
     15          6           0       -2.595600    2.126200   -7.695200
     16          1           0       -2.742000    1.741900   -8.710800
     17          1           0       -3.142000    1.470200   -7.009200
     18          1           0       -3.043600    3.125300   -7.651300
     19          6           0       -1.143600    2.189500   -7.315000
     20          6           0       -0.874900    2.666700   -5.910800
     21          1           0        0.130500    3.081200   -5.795200
     22          1           0       -1.576600    3.461600   -5.633700
     23          1           0       -0.993500    1.840200   -5.202900
     24          6           0       -0.171900    1.844500   -8.184300
     25          1           0       -0.455200    1.526700   -9.184500
     26          6           0        1.301300    1.853500   -7.866800
     27          1           0        1.622500    2.888000   -7.701800
     28          1           0        1.470300    1.293500   -6.938600
 ---------------------------------------------------------------------
                    Distance matrix (angstroms):
                    1          2          3          4          5
     1  C    0.000000
     2  H    1.098303   0.000000
     3  H    1.097209   1.749032   0.000000
     4  C    1.518258   2.159332   2.151546   0.000000
     5  C    2.557839   3.455642   2.681163   1.505005   0.000000
     6  H    3.456665   4.201429   3.559752   2.170037   1.093841
     7  H    2.656474   3.590300   2.318822   2.154148   1.095341
     8  H    3.044315   4.039068   3.284553   2.146575   1.094650
     9  C    2.486732   2.623609   3.297710   1.347422   2.521317
    10  H    2.655756   2.360487   3.578085   2.098181   3.494017
    11  C    3.920868   4.111899   4.643313   2.550805   3.104285
    12  H    4.259749   4.681358   4.830913   2.754241   2.728978
    13  H    4.485621   4.636357   5.347816   3.242270   3.862743
    14  H    4.526527   4.528699   5.162389   3.248802   3.836989
    15  C    5.002259   5.051549   5.110556   6.354020   7.046637
    16  H    4.931040   4.855844   4.881133   6.391040   7.122156
    17  H    5.656734   5.569247   5.907037   6.967564   7.791304
    18  H    5.690839   5.889589   5.689940   6.995209   7.501012
    19  C    3.817645   4.030824   4.101709   5.036388   5.717295
    20  C    4.545956   4.896022   5.018510   5.443849   6.014918
    21  H    4.203676   4.744656   4.724887   4.852899   5.261699
    22  H    5.486841   5.891564   5.838548   6.393546   6.818742
    23  H    4.954905   5.128609   5.588805   5.784100   6.537325
    24  C    2.534913   2.775868   2.776762   3.871380   4.619158
    25  H    2.634997   2.654815   2.560570   4.131758   4.903612
    26  C    1.535424   2.166651   2.177328   2.519044   3.287817
    27  H    2.160867   3.068062   2.530590   2.737502   2.986328
    28  H    2.153915   2.496340   3.070484   2.744693   3.711097
                    6          7          8          9         10
     6  H    0.000000
     7  H    1.750197   0.000000
     8  H    1.780267   1.773524   0.000000
     9  C    2.733374   3.356932   3.056600   0.000000
    10  H    3.795952   4.216183   4.002016   1.089867   0.000000
    11  C    2.816938   4.089452   3.496543   1.495432   2.179115
    12  H    2.175683   3.731625   3.015115   2.176388   3.102554
    13  H    3.689953   4.912374   4.005756   2.125900   2.493750
    14  H    3.384891   4.699282   4.407077   2.132583   2.535091
    15  C    8.122440   6.884702   6.933998   7.105321   6.846870
    16  H    8.172372   6.850362   7.167537   7.171551   6.878582
    17  H    8.849266   7.733845   7.665549   7.560114   7.175292
    18  H    8.592695   7.261241   7.291362   7.853495   7.701791
    19  C    6.790803   5.684200   5.536475   5.782950   5.616178
    20  C    7.057299   6.167981   5.581843   6.071396   5.970581
    21  H    6.272687   5.498367   4.699766   5.506835   5.568516
    22  H    7.871367   6.889291   6.307344   7.095583   7.044905
    23  H    7.530163   6.822291   6.133658   6.186536   5.932017
    24  C    5.675591   4.540461   4.629498   4.702467   4.587885
    25  H    5.914459   4.650339   5.120687   4.996133   4.830946
    26  C    4.324983   3.453763   3.260371   3.371019   3.457409
    27  H    4.061603   3.099267   2.664961   3.762879   4.114579
    28  H    4.644619   4.148994   3.579784   3.181778   3.096176
                   11         12         13         14         15
    11  C    0.000000
    12  H    1.092128   0.000000
    13  H    1.094734   1.763196   0.000000
    14  H    1.094602   1.772030   1.772586   0.000000
    15  C    8.490057   8.885609   8.637731   9.215459   0.000000
    16  H    8.621120   9.045574   8.878418   9.252236   1.095702
    17  H    8.916660   9.401277   8.958380   9.623357   1.095210
    18  H    9.203746   9.500709   9.362324   9.982941   1.095825
    19  C    7.112216   7.468024   7.232816   7.902033   1.502286
    20  C    7.211844   7.507148   7.140324   8.116399   2.537131
    21  H    6.527484   6.713263   6.444301   7.498241   3.457405
    22  H    8.208860   8.434332   8.134979   9.140309   2.659217
    23  H    7.274019   7.687143   7.068439   8.145243   2.976589
    24  C    6.103963   6.461848   6.376012   6.827964   2.488553
    25  H    6.464533   6.852075   6.867401   7.060716   2.675580
    26  C    4.694961   4.991488   4.974389   5.499428   3.910197
    27  H    4.898073   4.962759   5.182325   5.804555   4.286345
    28  H    4.396079   4.823459   4.445854   5.240496   4.218694
                   16         17         18         19         20
    16  H    0.000000
    17  H    1.768972   0.000000
    18  H    1.768417   1.778013   0.000000
    19  C    2.168752   2.145812   2.144486   0.000000
    20  C    3.490174   2.788877   2.818318   1.507215   0.000000
    21  H    4.306472   3.844265   3.677222   2.174454   1.093619
    22  H    3.712690   2.882386   2.517121   2.152324   1.095917
    23  H    3.920750   2.831196   3.442246   2.146044   1.094665
    24  C    2.625480   3.215969   3.189232   1.348669   2.517742
    25  H    2.345241   3.457458   3.406764   2.099578   3.491828
    26  C    4.131957   4.541510   4.532336   2.528817   3.036952
    27  H    4.623904   5.018995   4.672403   2.879032   3.081179
    28  H    4.591865   4.616223   4.923284   2.788721   2.905514
                   21         22         23         24         25
    21  H    0.000000
    22  H    1.756410   0.000000
    23  H    1.776028   1.776100   0.000000
    24  C    2.707152   3.330729   3.092538   0.000000
    25  H    3.774503   4.196374   4.030036   1.087040   0.000000
    26  C    2.677601   3.981837   3.516056   1.507052   2.220005
    27  H    2.428686   3.852310   3.766410   2.131096   2.892814
    28  H    2.509641   3.960684   3.062980   2.133586   2.967490
                   26         27         28
    26  C    0.000000
    27  H    1.095712   0.000000
    28  H    1.097140   1.774280   0.000000
 Stoichiometry    C10H18
 Framework group  C1[X(C10H18)]
 Deg. of freedom    78
 Full point group                 C1      NOp   1
 Largest Abelian subgroup         C1      NOp   1
 Largest concise Abelian subgroup C1      NOp   1
                         Standard orientation:                         
 ---------------------------------------------------------------------
 Center     Atomic      Atomic             Coordinates (Angstroms)
 Number     Number       Type             X           Y           Z
 ---------------------------------------------------------------------
      1          6           0       -0.736309   -0.882627   -0.522057
      2          1           0       -0.676461   -0.785892   -1.614453
      3          1           0       -0.613779   -1.952756   -0.313066
      4          6           0       -2.094952   -0.418402   -0.028406
      5          6           0       -2.539921   -0.996238    1.288085
      6          1           0       -3.628780   -1.070551    1.361246
      7          1           0       -2.155508   -2.013657    1.417917
      8          1           0       -2.170370   -0.383608    2.116561
      9          6           0       -2.814206    0.464547   -0.748559
     10          1           0       -2.402960    0.821906   -1.692477
     11          6           0       -4.124970    1.084836   -0.383243
     12          1           0       -4.502657    0.767001    0.590963
     13          1           0       -4.015271    2.173662   -0.353822
     14          1           0       -4.876971    0.838712   -1.139597
     15          6           0        4.239098   -0.365063   -0.528945
     16          1           0        4.137841   -1.243527   -1.175946
     17          1           0        4.737198    0.419449   -1.108534
     18          1           0        4.888503   -0.643625    0.308616
     19          6           0        2.912363    0.121894   -0.019522
     20          6           0        2.977034    1.357938    0.840542
     21          1           0        2.112899    1.451208    1.504299
     22          1           0        3.865269    1.334248    1.482032
     23          1           0        3.030090    2.252220    0.211467
     24          6           0        1.764176   -0.518983   -0.319272
     25          1           0        1.811415   -1.414466   -0.933710
     26          6           0        0.395588   -0.074846    0.128963
     27          1           0        0.329768   -0.172728    1.218308
     28          1           0        0.262379    0.984074   -0.125321
 ---------------------------------------------------------------------
 Rotational constants (GHZ):           3.0003701           0.4373879           0.4271429
 Leave Link  202 at Fri Sep 17 20:09:25 2021, MaxMem=   524288000 cpu:               0.0 elap:               0.2
 (Enter /opt/gaussian/g16_legacy/l301.exe)
 Standard basis: 6-31G(d,p) (6D, 7F)
 Ernie: Thresh=  0.10000D-02 Tol=  0.10000D-05 Strict=F.
 There are   240 symmetry adapted cartesian basis functions of A   symmetry.
 There are   240 symmetry adapted basis functions of A   symmetry.
   240 basis functions,   406 primitive gaussians,   240 cartesian basis functions
    39 alpha electrons       39 beta electrons
       nuclear repulsion energy       505.6169362256 Hartrees.
 IExCor=    0 DFT=F Ex=HF Corr=None ExCW=0 ScaHFX=  1.000000
 ScaDFX=  1.000000  1.000000  1.000000  1.000000 ScalE2=  1.000000  1.000000
 IRadAn=      5 IRanWt=     -1 IRanGd=            0 ICorTp=0 IEmpDi=  4
 NAtoms=   28 NActive=   28 NUniq=   28 SFac= 1.00D+00 NAtFMM=   60 NAOKFM=F Big=F
 Integral buffers will be    131072 words long.
 Raffenetti 1 integral format.
 Two-electron integral symmetry is turned on.
 Leave Link  301 at Fri Sep 17 20:09:26 2021, MaxMem=   524288000 cpu:               0.0 elap:               0.1
 (Enter /opt/gaussian/g16_legacy/l302.exe)
 NPDir=0 NMtPBC=     1 NCelOv=     1 NCel=       1 NClECP=     1 NCelD=      1
         NCelK=      1 NCelE2=     1 NClLst=     1 CellRange=     0.0.
 One-electron integrals computed using PRISM.
 One-electron integral symmetry used in STVInt
 NBasis=   240 RedAO= T EigKep=  2.03D-03  NBF=   240
 NBsUse=   240 1.00D-06 EigRej= -1.00D+00 NBFU=   240
 Leave Link  302 at Fri Sep 17 20:09:26 2021, MaxMem=   524288000 cpu:               0.2 elap:               0.4
 (Enter /opt/gaussian/g16_legacy/l303.exe)
 DipDrv:  MaxL=1.
 Leave Link  303 at Fri Sep 17 20:09:26 2021, MaxMem=   524288000 cpu:               0.0 elap:               0.2
 (Enter /opt/gaussian/g16_legacy/l401.exe)
 ExpMin= 1.61D-01 ExpMax= 3.05D+03 ExpMxC= 4.57D+02 IAcc=3 IRadAn=         5 AccDes= 0.00D+00
 Harris functional with IExCor=  205 and IRadAn=       5 diagonalized for initial guess.
 HarFok:  IExCor=  205 AccDes= 0.00D+00 IRadAn=         5 IDoV= 1 UseB2=F ITyADJ=14
 ICtDFT=  3500011 ScaDFX=  1.000000  1.000000  1.000000  1.000000
 FoFCou: FMM=F IPFlag=           0 FMFlag=      100000 FMFlg1=           0
         NFxFlg=           0 DoJE=T BraDBF=F KetDBF=T FulRan=T
         wScrn=  0.000000 ICntrl=       500 IOpCl=  0 I1Cent=   200000004 NGrid=           0
         NMat0=    1 NMatS0=      1 NMatT0=    0 NMatD0=    1 NMtDS0=    0 NMtDT0=    0
 Petite list used in FoFCou.
 Harris En= -390.108030248368    
 JPrj=0 DoOrth=F DoCkMO=F.
 Leave Link  401 at Fri Sep 17 20:09:33 2021, MaxMem=   524288000 cpu:               6.0 elap:               6.3
 (Enter /opt/gaussian/g16_legacy/l502.exe)
 Keep R1 ints in memory in canonical form, NReq=425198025.
 FoFCou: FMM=F IPFlag=           0 FMFlag=           0 FMFlg1=           0
         NFxFlg=           0 DoJE=F BraDBF=F KetDBF=F FulRan=T
         wScrn=  0.000000 ICntrl=       600 IOpCl=  0 I1Cent=           0 NGrid=           0
         NMat0=    1 NMatS0=  28920 NMatT0=    0 NMatD0=    1 NMtDS0=    0 NMtDT0=    0
 Symmetry not used in FoFCou.
 Two-electron integral symmetry not used.
 Closed shell SCF:
 Using DIIS extrapolation, IDIIS=  1040.
 NGot=   524288000 LenX=   105970886 LenY=   105912845
 Requested convergence on RMS density matrix=1.00D-08 within 128 cycles.
 Requested convergence on MAX density matrix=1.00D-06.
 Requested convergence on             energy=1.00D-06.
 No special actions if energy rises.

 Cycle   1  Pass 1  IDiag  1:
 E= -388.529429252788    
 DIIS: error= 5.08D-02 at cycle   1 NSaved=   1.
 NSaved= 1 IEnMin= 1 EnMin= -388.529429252788     IErMin= 1 ErrMin= 5.08D-02
 ErrMax= 5.08D-02  0.00D+00 EMaxC= 1.00D-01 BMatC= 8.07D-01 BMatP= 8.07D-01
 IDIUse=3 WtCom= 4.92D-01 WtEn= 5.08D-01
 Coeff-Com:  0.100D+01
 Coeff-En:   0.100D+01
 Coeff:      0.100D+01
 Gap=     0.521 Goal=   None    Shift=    0.000
 GapD=    0.521 DampG=2.000 DampE=0.500 DampFc=1.0000 IDamp=-1.
 RMSDP=4.03D-03 MaxDP=1.14D-01              OVMax= 1.33D-01

 Cycle   2  Pass 1  IDiag  1:
 E= -389.071903490403     Delta-E=       -0.542474237615 Rises=F Damp=F
 DIIS: error= 1.29D-02 at cycle   2 NSaved=   2.
 NSaved= 2 IEnMin= 2 EnMin= -389.071903490403     IErMin= 2 ErrMin= 1.29D-02
 ErrMax= 1.29D-02  0.00D+00 EMaxC= 1.00D-01 BMatC= 8.56D-02 BMatP= 8.07D-01
 IDIUse=3 WtCom= 8.71D-01 WtEn= 1.29D-01
 Coeff-Com:  0.182D+00 0.818D+00
 Coeff-En:   0.000D+00 0.100D+01
 Coeff:      0.158D+00 0.842D+00
 Gap=     0.560 Goal=   None    Shift=    0.000
 RMSDP=1.60D-03 MaxDP=3.02D-02 DE=-5.42D-01 OVMax= 4.37D-02

 Cycle   3  Pass 1  IDiag  1:
 E= -389.148677259155     Delta-E=       -0.076773768752 Rises=F Damp=F
 DIIS: error= 2.43D-03 at cycle   3 NSaved=   3.
 NSaved= 3 IEnMin= 3 EnMin= -389.148677259155     IErMin= 3 ErrMin= 2.43D-03
 ErrMax= 2.43D-03  0.00D+00 EMaxC= 1.00D-01 BMatC= 2.83D-03 BMatP= 8.56D-02
 IDIUse=3 WtCom= 9.76D-01 WtEn= 2.43D-02
 Coeff-Com: -0.245D-01 0.976D-01 0.927D+00
 Coeff-En:   0.000D+00 0.000D+00 0.100D+01
 Coeff:     -0.239D-01 0.952D-01 0.929D+00
 Gap=     0.503 Goal=   None    Shift=    0.000
 RMSDP=2.46D-04 MaxDP=6.09D-03 DE=-7.68D-02 OVMax= 9.90D-03

 Cycle   4  Pass 1  IDiag  1:
 E= -389.151969743262     Delta-E=       -0.003292484107 Rises=F Damp=F
 DIIS: error= 4.26D-04 at cycle   4 NSaved=   4.
 NSaved= 4 IEnMin= 4 EnMin= -389.151969743262     IErMin= 4 ErrMin= 4.26D-04
 ErrMax= 4.26D-04  0.00D+00 EMaxC= 1.00D-01 BMatC= 9.26D-05 BMatP= 2.83D-03
 IDIUse=3 WtCom= 9.96D-01 WtEn= 4.26D-03
 Coeff-Com: -0.425D-02-0.154D-02 0.988D-01 0.907D+00
 Coeff-En:   0.000D+00 0.000D+00 0.000D+00 0.100D+01
 Coeff:     -0.423D-02-0.153D-02 0.984D-01 0.907D+00
 Gap=     0.503 Goal=   None    Shift=    0.000
 RMSDP=6.91D-05 MaxDP=1.67D-03 DE=-3.29D-03 OVMax= 3.18D-03

 Cycle   5  Pass 1  IDiag  1:
 E= -389.152088655691     Delta-E=       -0.000118912429 Rises=F Damp=F
 DIIS: error= 1.79D-04 at cycle   5 NSaved=   5.
 NSaved= 5 IEnMin= 5 EnMin= -389.152088655691     IErMin= 5 ErrMin= 1.79D-04
 ErrMax= 1.79D-04  0.00D+00 EMaxC= 1.00D-01 BMatC= 1.78D-05 BMatP= 9.26D-05
 IDIUse=3 WtCom= 9.98D-01 WtEn= 1.79D-03
 Coeff-Com:  0.246D-02-0.149D-01-0.106D+00 0.205D+00 0.913D+00
 Coeff-En:   0.000D+00 0.000D+00 0.000D+00 0.000D+00 0.100D+01
 Coeff:      0.245D-02-0.149D-01-0.106D+00 0.205D+00 0.913D+00
 Gap=     0.503 Goal=   None    Shift=    0.000
 RMSDP=3.04D-05 MaxDP=7.11D-04 DE=-1.19D-04 OVMax= 8.84D-04

 Cycle   6  Pass 1  IDiag  1:
 E= -389.152111591322     Delta-E=       -0.000022935631 Rises=F Damp=F
 DIIS: error= 3.02D-05 at cycle   6 NSaved=   6.
 NSaved= 6 IEnMin= 6 EnMin= -389.152111591322     IErMin= 6 ErrMin= 3.02D-05
 ErrMax= 3.02D-05  0.00D+00 EMaxC= 1.00D-01 BMatC= 4.76D-07 BMatP= 1.78D-05
 IDIUse=1 WtCom= 1.00D+00 WtEn= 0.00D+00
 Coeff-Com:  0.671D-03-0.292D-02-0.245D-01-0.524D-02 0.147D+00 0.885D+00
 Coeff:      0.671D-03-0.292D-02-0.245D-01-0.524D-02 0.147D+00 0.885D+00
 Gap=     0.503 Goal=   None    Shift=    0.000
 RMSDP=5.37D-06 MaxDP=1.27D-04 DE=-2.29D-05 OVMax= 2.61D-04

 Cycle   7  Pass 1  IDiag  1:
 E= -389.152112357494     Delta-E=       -0.000000766172 Rises=F Damp=F
 DIIS: error= 7.69D-06 at cycle   7 NSaved=   7.
 NSaved= 7 IEnMin= 7 EnMin= -389.152112357494     IErMin= 7 ErrMin= 7.69D-06
 ErrMax= 7.69D-06  0.00D+00 EMaxC= 1.00D-01 BMatC= 3.82D-08 BMatP= 4.76D-07
 IDIUse=1 WtCom= 1.00D+00 WtEn= 0.00D+00
 Coeff-Com: -0.477D-04 0.407D-03 0.287D-02-0.949D-02-0.418D-01 0.116D+00
 Coeff-Com:  0.932D+00
 Coeff:     -0.477D-04 0.407D-03 0.287D-02-0.949D-02-0.418D-01 0.116D+00
 Coeff:      0.932D+00
 Gap=     0.503 Goal=   None    Shift=    0.000
 RMSDP=1.52D-06 MaxDP=4.11D-05 DE=-7.66D-07 OVMax= 5.54D-05

 Cycle   8  Pass 1  IDiag  1:
 E= -389.152112420690     Delta-E=       -0.000000063196 Rises=F Damp=F
 DIIS: error= 3.32D-06 at cycle   8 NSaved=   8.
 NSaved= 8 IEnMin= 8 EnMin= -389.152112420690     IErMin= 8 ErrMin= 3.32D-06
 ErrMax= 3.32D-06  0.00D+00 EMaxC= 1.00D-01 BMatC= 3.68D-09 BMatP= 3.82D-08
 IDIUse=1 WtCom= 1.00D+00 WtEn= 0.00D+00
 Coeff-Com: -0.505D-04 0.206D-03 0.182D-02 0.283D-02-0.145D-01-0.729D-01
 Coeff-Com: -0.922D-01 0.117D+01
 Coeff:     -0.505D-04 0.206D-03 0.182D-02 0.283D-02-0.145D-01-0.729D-01
 Coeff:     -0.922D-01 0.117D+01
 Gap=     0.503 Goal=   None    Shift=    0.000
 RMSDP=6.46D-07 MaxDP=1.79D-05 DE=-6.32D-08 OVMax= 4.46D-05

 Cycle   9  Pass 1  IDiag  1:
 E= -389.152112430972     Delta-E=       -0.000000010282 Rises=F Damp=F
 DIIS: error= 1.04D-06 at cycle   9 NSaved=   9.
 NSaved= 9 IEnMin= 9 EnMin= -389.152112430972     IErMin= 9 ErrMin= 1.04D-06
 ErrMax= 1.04D-06  0.00D+00 EMaxC= 1.00D-01 BMatC= 5.52D-10 BMatP= 3.68D-09
 IDIUse=1 WtCom= 1.00D+00 WtEn= 0.00D+00
 Coeff-Com:  0.128D-04-0.740D-04-0.593D-03 0.111D-02 0.380D-02 0.879D-02
 Coeff-Com: -0.707D-01-0.238D+00 0.130D+01
 Coeff:      0.128D-04-0.740D-04-0.593D-03 0.111D-02 0.380D-02 0.879D-02
 Coeff:     -0.707D-01-0.238D+00 0.130D+01
 Gap=     0.503 Goal=   None    Shift=    0.000
 RMSDP=2.64D-07 MaxDP=6.88D-06 DE=-1.03D-08 OVMax= 2.14D-05

 Cycle  10  Pass 1  IDiag  1:
 E= -389.152112432641     Delta-E=       -0.000000001669 Rises=F Damp=F
 DIIS: error= 3.77D-07 at cycle  10 NSaved=  10.
 NSaved=10 IEnMin=10 EnMin= -389.152112432641     IErMin=10 ErrMin= 3.77D-07
 ErrMax= 3.77D-07  0.00D+00 EMaxC= 1.00D-01 BMatC= 6.57D-11 BMatP= 5.52D-10
 IDIUse=1 WtCom= 1.00D+00 WtEn= 0.00D+00
 Coeff-Com:  0.709D-05-0.317D-04-0.273D-03-0.871D-04 0.137D-02 0.115D-01
 Coeff-Com:  0.688D-02-0.170D+00 0.931D-01 0.106D+01
 Coeff:      0.709D-05-0.317D-04-0.273D-03-0.871D-04 0.137D-02 0.115D-01
 Coeff:      0.688D-02-0.170D+00 0.931D-01 0.106D+01
 Gap=     0.503 Goal=   None    Shift=    0.000
 RMSDP=8.41D-08 MaxDP=2.10D-06 DE=-1.67D-09 OVMax= 7.45D-06

 Cycle  11  Pass 1  IDiag  1:
 E= -389.152112432809     Delta-E=       -0.000000000168 Rises=F Damp=F
 DIIS: error= 1.06D-07 at cycle  11 NSaved=  11.
 NSaved=11 IEnMin=11 EnMin= -389.152112432809     IErMin=11 ErrMin= 1.06D-07
 ErrMax= 1.06D-07  0.00D+00 EMaxC= 1.00D-01 BMatC= 6.82D-12 BMatP= 6.57D-11
 IDIUse=1 WtCom= 1.00D+00 WtEn= 0.00D+00
 Coeff-Com: -0.723D-06 0.533D-05 0.415D-04-0.103D-03-0.503D-03 0.590D-03
 Coeff-Com:  0.969D-02 0.908D-02-0.150D+00 0.124D+00 0.101D+01
 Coeff:     -0.723D-06 0.533D-05 0.415D-04-0.103D-03-0.503D-03 0.590D-03
 Coeff:      0.969D-02 0.908D-02-0.150D+00 0.124D+00 0.101D+01
 Gap=     0.503 Goal=   None    Shift=    0.000
 RMSDP=2.59D-08 MaxDP=6.70D-07 DE=-1.68D-10 OVMax= 2.13D-06

 Cycle  12  Pass 1  IDiag  1:
 E= -389.152112432826     Delta-E=       -0.000000000017 Rises=F Damp=F
 DIIS: error= 3.31D-08 at cycle  12 NSaved=  12.
 NSaved=12 IEnMin=12 EnMin= -389.152112432826     IErMin=12 ErrMin= 3.31D-08
 ErrMax= 3.31D-08  0.00D+00 EMaxC= 1.00D-01 BMatC= 6.58D-13 BMatP= 6.82D-12
 IDIUse=1 WtCom= 1.00D+00 WtEn= 0.00D+00
 Coeff-Com: -0.875D-06 0.444D-05 0.371D-04-0.416D-06-0.272D-03-0.113D-02
 Coeff-Com:  0.867D-03 0.207D-01-0.368D-01-0.101D+00 0.179D+00 0.938D+00
 Coeff:     -0.875D-06 0.444D-05 0.371D-04-0.416D-06-0.272D-03-0.113D-02
 Coeff:      0.867D-03 0.207D-01-0.368D-01-0.101D+00 0.179D+00 0.938D+00
 Gap=     0.503 Goal=   None    Shift=    0.000
 RMSDP=7.36D-09 MaxDP=1.92D-07 DE=-1.71D-11 OVMax= 5.55D-07

 SCF Done:  E(RHF) =  -389.152112433     A.U. after   12 cycles
            NFock= 12  Conv=0.74D-08     -V/T= 2.0014
 KE= 3.886222141871D+02 PE=-1.915930848919D+03 EE= 6.325395860733D+02
 Leave Link  502 at Fri Sep 17 20:09:50 2021, MaxMem=   524288000 cpu:              17.1 elap:              17.4
 (Enter /opt/gaussian/g16_legacy/l801.exe)
 ExpMin= 1.61D-01 ExpMax= 3.05D+03 ExpMxC= 4.57D+02 IAcc=3 IRadAn=         5 AccDes= 0.00D+00
 HarFok:  IExCor=  205 AccDes= 0.00D+00 IRadAn=         5 IDoV=-2 UseB2=F ITyADJ=14
 ICtDFT= 12500011 ScaDFX=  1.000000  1.000000  1.000000  1.000000
 Largest valence mixing into a core orbital is  1.97D-04
 Largest core mixing into a valence orbital is  3.50D-05
 Range of M.O.s used for correlation:    11   240
 NBasis=   240 NAE=    39 NBE=    39 NFC=    10 NFV=     0
 NROrb=    230 NOA=    29 NOB=    29 NVA=   201 NVB=   201
 Leave Link  801 at Fri Sep 17 20:09:51 2021, MaxMem=   524288000 cpu:               1.0 elap:               1.1
 (Enter /opt/gaussian/g16_legacy/l906.exe)
 Frozen-core derivative calculation, NFC=  10 NFV=   0.
 FulOut=F Deriv=T AODrv=T NAtomX=    28
   MMem=          93  MDisk=          29 MDiskD=          29
  W3Min=     2246400 MinDsk=     2795480 NBas6D=         240
 NBas2D=       29244    NTT=       28920    LW2=     2040000
    MDV=   523636031 MDiskM=       30187 NBas2p=       23176
 Fully direct method using O(ONN) memory.
 IMap=   1   2   3   4   5   6   7   8   9  10  11  12  13  14  15  16  17  18  19  20
 IMap=  21  22  23  24  25  26  27  28  29  30  31  32  33  34  35  36  37  38  39
 JobTyp=1 Pass  1:  I=  11 to  39 NPSUse=  1 ParTrn=F ParDer=F DoDerP=T.
 Spin components of T(2) and E(2):
     alpha-alpha T2 =       0.5699825746D-01 E2=     -0.1635803197D+00
     alpha-beta  T2 =       0.3618755342D+00 E2=     -0.1089273536D+01
     beta-beta   T2 =       0.5699825746D-01 E2=     -0.1635803197D+00
 The integrals were generated   1 times.
 ANorm=    0.1214854744D+01
 E2 =    -0.1416434175D+01 EUMP2 =    -0.39056854660819D+03
 Leave Link  906 at Fri Sep 17 20:12:02 2021, MaxMem=   524288000 cpu:             130.2 elap:             130.4
 (Enter /opt/gaussian/g16_legacy/l1002.exe)
 Minotr:  Closed shell wavefunction.
          Computing MP2/KS-MP2 derivatives.
          Using Z-Vector for PSCF gradient.
          Skipping F1 and S1 gradient terms here.
          IDoAtm=1111111111111111111111111111
          Frozen-core window.
          Direct CPHF calculation.
          Differentiating once with respect to electric field.
                with respect to dipole field.
          Differentiating once with respect to nuclear coordinates.
          Requested convergence is 1.0D-10 RMS, and 1.0D-09 maximum.
          NewPWx=F KeepS1=T KeepF1=T KeepIn=T MapXYZ=F SortEE=F KeepMc=T.
 Keep R1 ints in memory in canonical form, NReq=425201067.
 FoFCou: FMM=F IPFlag=           0 FMFlag=           0 FMFlg1=           0
         NFxFlg=           0 DoJE=F BraDBF=F KetDBF=F FulRan=T
         wScrn=  0.000000 ICntrl=       600 IOpCl=  0 I1Cent=           0 NGrid=           0
         NMat0=    1 NMatS0=  28920 NMatT0=    0 NMatD0=    1 NMtDS0=    0 NMtDT0=    0
 Symmetry not used in FoFCou.
 Two-electron integral symmetry not used.
          MDV=     524288000 using IRadAn=       5.
          Solving linear equations separately, MaxMat=       0.
          There are     1 degrees of freedom in the 1st order CPHF.  IDoFFX=0 NUNeed=     1.
 LinEq1:  Iter=  0 NonCon=     1 RMS=2.53D-03 Max=3.60D-02 NDo=     1
 AX will form     1 AO Fock derivatives at one time.
 LinEq1:  Iter=  1 NonCon=     1 RMS=6.86D-04 Max=1.05D-02 NDo=     1
 LinEq1:  Iter=  2 NonCon=     1 RMS=1.59D-04 Max=3.18D-03 NDo=     1
 LinEq1:  Iter=  3 NonCon=     1 RMS=4.43D-05 Max=7.31D-04 NDo=     1
 LinEq1:  Iter=  4 NonCon=     1 RMS=1.90D-05 Max=5.62D-04 NDo=     1
 LinEq1:  Iter=  5 NonCon=     1 RMS=4.65D-06 Max=1.01D-04 NDo=     1
 LinEq1:  Iter=  6 NonCon=     1 RMS=1.41D-06 Max=1.75D-05 NDo=     1
 LinEq1:  Iter=  7 NonCon=     1 RMS=3.74D-07 Max=4.48D-06 NDo=     1
 LinEq1:  Iter=  8 NonCon=     1 RMS=8.94D-08 Max=1.48D-06 NDo=     1
 LinEq1:  Iter=  9 NonCon=     1 RMS=2.83D-08 Max=6.66D-07 NDo=     1
 LinEq1:  Iter= 10 NonCon=     1 RMS=1.10D-08 Max=3.07D-07 NDo=     1
 LinEq1:  Iter= 11 NonCon=     1 RMS=3.02D-09 Max=7.03D-08 NDo=     1
 LinEq1:  Iter= 12 NonCon=     1 RMS=9.46D-10 Max=1.72D-08 NDo=     1
 LinEq1:  Iter= 13 NonCon=     1 RMS=2.30D-10 Max=2.48D-09 NDo=     1
 LinEq1:  Iter= 14 NonCon=     0 RMS=5.35D-11 Max=6.74D-10 NDo=     1
 Linear equations converged to 1.000D-10 1.000D-09 after    14 iterations.
 End of Minotr F.D. properties file   721 does not exist.
 End of Minotr F.D. properties file   722 does not exist.
 End of Minotr F.D. properties file   788 does not exist.
 Leave Link 1002 at Fri Sep 17 20:12:21 2021, MaxMem=   524288000 cpu:              18.0 elap:              18.6
 (Enter /opt/gaussian/g16_legacy/l601.exe)
 Copying SCF densities to generalized density rwf, IOpCl= 0 IROHF=0.

 **********************************************************************

            Population analysis using the SCF density.

 **********************************************************************

 Orbital symmetries:
       Occupied  (A) (A) (A) (A) (A) (A) (A) (A) (A) (A) (A) (A)
                 (A) (A) (A) (A) (A) (A) (A) (A) (A) (A) (A) (A)
                 (A) (A) (A) (A) (A) (A) (A) (A) (A) (A) (A) (A)
                 (A) (A) (A)
       Virtual   (A) (A) (A) (A) (A) (A) (A) (A) (A) (A) (A) (A)
                 (A) (A) (A) (A) (A) (A) (A) (A) (A) (A) (A) (A)
                 (A) (A) (A) (A) (A) (A) (A) (A) (A) (A) (A) (A)
                 (A) (A) (A) (A) (A) (A) (A) (A) (A) (A) (A) (A)
                 (A) (A) (A) (A) (A) (A) (A) (A) (A) (A) (A) (A)
                 (A) (A) (A) (A) (A) (A) (A) (A) (A) (A) (A) (A)
                 (A) (A) (A) (A) (A) (A) (A) (A) (A) (A) (A) (A)
                 (A) (A) (A) (A) (A) (A) (A) (A) (A) (A) (A) (A)
                 (A) (A) (A) (A) (A) (A) (A) (A) (A) (A) (A) (A)
                 (A) (A) (A) (A) (A) (A) (A) (A) (A) (A) (A) (A)
                 (A) (A) (A) (A) (A) (A) (A) (A) (A) (A) (A) (A)
                 (A) (A) (A) (A) (A) (A) (A) (A) (A) (A) (A) (A)
                 (A) (A) (A) (A) (A) (A) (A) (A) (A) (A) (A) (A)
                 (A) (A) (A) (A) (A) (A) (A) (A) (A) (A) (A) (A)
                 (A) (A) (A) (A) (A) (A) (A) (A) (A) (A) (A) (A)
                 (A) (A) (A) (A) (A) (A) (A) (A) (A) (A) (A) (A)
                 (A) (A) (A) (A) (A) (A) (A) (A) (A)
 The electronic state is 1-A.
 Alpha  occ. eigenvalues --  -11.22669 -11.22563 -11.21872 -11.21756 -11.21695
 Alpha  occ. eigenvalues --  -11.21669 -11.21533 -11.21525 -11.21462 -11.21122
 Alpha  occ. eigenvalues --   -1.10489  -1.08301  -1.02001  -0.97383  -0.93474
 Alpha  occ. eigenvalues --   -0.92136  -0.87350  -0.81473  -0.70929  -0.69131
 Alpha  occ. eigenvalues --   -0.63334  -0.61960  -0.60373  -0.58849  -0.58295
 Alpha  occ. eigenvalues --   -0.56984  -0.55424  -0.55182  -0.53585  -0.52653
 Alpha  occ. eigenvalues --   -0.51552  -0.51028  -0.49980  -0.49010  -0.47685
 Alpha  occ. eigenvalues --   -0.46414  -0.44316  -0.32513  -0.31803
 Alpha virt. eigenvalues --    0.18529   0.18780   0.23355   0.24066   0.26793
 Alpha virt. eigenvalues --    0.27063   0.27320   0.29039   0.29482   0.30567
 Alpha virt. eigenvalues --    0.31855   0.32256   0.33064   0.33737   0.33921
 Alpha virt. eigenvalues --    0.34575   0.35743   0.36924   0.37197   0.39410
 Alpha virt. eigenvalues --    0.40175   0.42107   0.43813   0.45068   0.47528
 Alpha virt. eigenvalues --    0.49946   0.53669   0.60373   0.65225   0.69898
 Alpha virt. eigenvalues --    0.70999   0.72570   0.73877   0.75285   0.76493
 Alpha virt. eigenvalues --    0.78216   0.78600   0.79732   0.81264   0.83902
 Alpha virt. eigenvalues --    0.84617   0.85750   0.86630   0.90351   0.91074
 Alpha virt. eigenvalues --    0.94419   0.95146   0.96768   0.97685   0.99537
 Alpha virt. eigenvalues --    1.01810   1.02574   1.02933   1.04414   1.05982
 Alpha virt. eigenvalues --    1.08045   1.09394   1.10733   1.12109   1.12922
 Alpha virt. eigenvalues --    1.13043   1.13852   1.14311   1.14514   1.14843
 Alpha virt. eigenvalues --    1.16166   1.16818   1.17801   1.18355   1.20080
 Alpha virt. eigenvalues --    1.20500   1.21601   1.23195   1.24342   1.27621
 Alpha virt. eigenvalues --    1.27792   1.30913   1.40002   1.41574   1.44887
 Alpha virt. eigenvalues --    1.46570   1.51105   1.55259   1.56149   1.58098
 Alpha virt. eigenvalues --    1.62229   1.65057   1.67918   1.69620   1.71496
 Alpha virt. eigenvalues --    1.74870   1.80935   1.90156   1.94545   1.96684
 Alpha virt. eigenvalues --    2.00751   2.00829   2.03427   2.07385   2.07748
 Alpha virt. eigenvalues --    2.08181   2.09327   2.11396   2.12278   2.14764
 Alpha virt. eigenvalues --    2.17080   2.18228   2.22404   2.23786   2.27324
 Alpha virt. eigenvalues --    2.29072   2.30215   2.32519   2.35337   2.35646
 Alpha virt. eigenvalues --    2.36094   2.36418   2.37739   2.39247   2.40083
 Alpha virt. eigenvalues --    2.40788   2.41589   2.42388   2.43828   2.46012
 Alpha virt. eigenvalues --    2.47102   2.48511   2.49022   2.50971   2.53521
 Alpha virt. eigenvalues --    2.55912   2.59402   2.61274   2.63634   2.64519
 Alpha virt. eigenvalues --    2.66644   2.68735   2.70205   2.71864   2.73221
 Alpha virt. eigenvalues --    2.76001   2.78189   2.80322   2.85576   2.88005
 Alpha virt. eigenvalues --    2.88203   2.88574   2.90003   2.92368   2.95083
 Alpha virt. eigenvalues --    2.97581   3.00404   3.00832   3.02254   3.03914
 Alpha virt. eigenvalues --    3.06541   3.07181   3.11592   3.12575   3.14609
 Alpha virt. eigenvalues --    3.15218   3.16816   3.19806   3.20797   3.22027
 Alpha virt. eigenvalues --    3.22938   3.24455   3.26034   3.27135   3.37887
 Alpha virt. eigenvalues --    3.40567   3.44157   3.45309   3.55617   3.56257
 Alpha virt. eigenvalues --    3.59912   3.61782   3.64681   3.73938   3.77877
 Alpha virt. eigenvalues --    3.79071   3.79909   3.80890   3.82021   3.82350
 Alpha virt. eigenvalues --    3.82966   3.85612   3.86092   3.90204   3.91375
 Alpha virt. eigenvalues --    3.94137   4.58956   4.63274   4.74266   4.78811
 Alpha virt. eigenvalues --    4.88529   4.91669   4.92640   5.03396   5.10563
 Alpha virt. eigenvalues --    5.18143
          Condensed to atoms (all electrons):
               1          2          3          4          5          6
     1  C    4.954485   0.412069   0.408585   0.362341  -0.056046   0.003118
     2  H    0.412069   0.577898  -0.031501  -0.042526   0.003548  -0.000113
     3  H    0.408585  -0.031501   0.600267  -0.042857  -0.005509   0.000026
     4  C    0.362341  -0.042526  -0.042857   4.964760   0.337228  -0.037964
     5  C   -0.056046   0.003548  -0.005509   0.337228   4.913403   0.406702
     6  H    0.003118  -0.000113   0.000026  -0.037964   0.406702   0.566795
     7  H   -0.006661   0.000148   0.002402  -0.041406   0.404550  -0.029908
     8  H    0.001421  -0.000103   0.000031  -0.043189   0.399734  -0.026309
     9  C   -0.047447  -0.002591   0.002450   0.692100  -0.049044  -0.003245
    10  H   -0.005658   0.001967   0.000182  -0.039073   0.003306   0.000029
    11  C    0.002966   0.000105  -0.000102  -0.049626  -0.007057  -0.001904
    12  H    0.000117   0.000003   0.000002  -0.000584  -0.001594  -0.000915
    13  H   -0.000093  -0.000012  -0.000001   0.000146   0.000190  -0.000096
    14  H   -0.000117   0.000004   0.000009  -0.000947   0.000301   0.000235
    15  C   -0.000055  -0.000006  -0.000003   0.000001  -0.000000   0.000000
    16  H   -0.000006  -0.000001  -0.000000   0.000000  -0.000000   0.000000
    17  H    0.000002  -0.000000   0.000000  -0.000000   0.000000  -0.000000
    18  H    0.000001   0.000000  -0.000000  -0.000000   0.000000   0.000000
    19  C    0.002713  -0.000024  -0.000013  -0.000132   0.000004  -0.000000
    20  C    0.000184  -0.000006  -0.000004   0.000001  -0.000000   0.000000
    21  H    0.000057   0.000002  -0.000006   0.000006  -0.000001   0.000000
    22  H   -0.000003   0.000000   0.000000  -0.000000  -0.000000   0.000000
    23  H   -0.000007  -0.000002   0.000000  -0.000000   0.000000  -0.000000
    24  C   -0.045551  -0.002640  -0.002462   0.005417  -0.000187   0.000001
    25  H   -0.005704   0.001253   0.001706   0.000083  -0.000005   0.000000
    26  C    0.342748  -0.039333  -0.045724  -0.065265   0.001030  -0.000006
    27  H   -0.040959   0.004372  -0.002909  -0.003412   0.000259   0.000006
    28  H   -0.041102  -0.003266   0.004626  -0.000175   0.000135  -0.000008
               7          8          9         10         11         12
     1  C   -0.006661   0.001421  -0.047447  -0.005658   0.002966   0.000117
     2  H    0.000148  -0.000103  -0.002591   0.001967   0.000105   0.000003
     3  H    0.002402   0.000031   0.002450   0.000182  -0.000102   0.000002
     4  C   -0.041406  -0.043189   0.692100  -0.039073  -0.049626  -0.000584
     5  C    0.404550   0.399734  -0.049044   0.003306  -0.007057  -0.001594
     6  H   -0.029908  -0.026309  -0.003245   0.000029  -0.001904  -0.000915
     7  H    0.582635  -0.031530   0.002794  -0.000097   0.000141   0.000022
     8  H   -0.031530   0.577223  -0.004193  -0.000139   0.000658  -0.000215
     9  C    0.002794  -0.004193   4.943591   0.405767   0.340457  -0.041780
    10  H   -0.000097  -0.000139   0.405767   0.559173  -0.043151   0.003346
    11  C    0.000141   0.000658   0.340457  -0.043151   4.901695   0.407883
    12  H    0.000022  -0.000215  -0.041780   0.003346   0.407883   0.573676
    13  H   -0.000013   0.000158  -0.043807  -0.001901   0.402085  -0.028996
    14  H    0.000015  -0.000064  -0.044184  -0.000877   0.400529  -0.027779
    15  C    0.000000  -0.000000   0.000000  -0.000000   0.000000   0.000000
    16  H   -0.000000  -0.000000  -0.000000   0.000000   0.000000   0.000000
    17  H   -0.000000   0.000000  -0.000000   0.000000  -0.000000  -0.000000
    18  H    0.000000   0.000000   0.000000  -0.000000  -0.000000  -0.000000
    19  C    0.000000   0.000000  -0.000003   0.000000  -0.000000   0.000000
    20  C   -0.000000   0.000000  -0.000001  -0.000000   0.000000  -0.000000
    21  H   -0.000000  -0.000000   0.000000  -0.000000   0.000000  -0.000000
    22  H   -0.000000   0.000000   0.000000  -0.000000  -0.000000  -0.000000
    23  H   -0.000000  -0.000000   0.000000   0.000000   0.000000   0.000000
    24  C   -0.000015  -0.000035   0.000121  -0.000015   0.000001   0.000000
    25  H   -0.000001   0.000000  -0.000002  -0.000000  -0.000000  -0.000000
    26  C   -0.000218   0.000601  -0.007291   0.000152  -0.000078  -0.000008
    27  H    0.000305  -0.000455   0.000482  -0.000005   0.000002   0.000000
    28  H    0.000025  -0.000020   0.002472   0.000345  -0.000079   0.000001
              13         14         15         16         17         18
     1  C   -0.000093  -0.000117  -0.000055  -0.000006   0.000002   0.000001
     2  H   -0.000012   0.000004  -0.000006  -0.000001  -0.000000   0.000000
     3  H   -0.000001   0.000009  -0.000003  -0.000000   0.000000  -0.000000
     4  C    0.000146  -0.000947   0.000001   0.000000  -0.000000  -0.000000
     5  C    0.000190   0.000301  -0.000000  -0.000000   0.000000   0.000000
     6  H   -0.000096   0.000235   0.000000   0.000000  -0.000000   0.000000
     7  H   -0.000013   0.000015   0.000000  -0.000000  -0.000000   0.000000
     8  H    0.000158  -0.000064  -0.000000  -0.000000   0.000000   0.000000
     9  C   -0.043807  -0.044184   0.000000  -0.000000  -0.000000   0.000000
    10  H   -0.001901  -0.000877  -0.000000   0.000000   0.000000  -0.000000
    11  C    0.402085   0.400529   0.000000   0.000000  -0.000000  -0.000000
    12  H   -0.028996  -0.027779   0.000000   0.000000  -0.000000  -0.000000
    13  H    0.586095  -0.033608  -0.000000  -0.000000   0.000000   0.000000
    14  H   -0.033608   0.586943   0.000000  -0.000000  -0.000000   0.000000
    15  C   -0.000000   0.000000   4.895567   0.405298   0.400624   0.396628
    16  H   -0.000000  -0.000000   0.405298   0.570742  -0.027982  -0.027490
    17  H    0.000000  -0.000000   0.400624  -0.027982   0.595179  -0.035334
    18  H    0.000000   0.000000   0.396628  -0.027490  -0.035334   0.595281
    19  C    0.000000  -0.000000   0.352276  -0.041217  -0.047014  -0.043458
    20  C    0.000000  -0.000000  -0.062126   0.003786  -0.000685  -0.002558
    21  H   -0.000000   0.000000   0.003535  -0.000112  -0.000034  -0.000031
    22  H   -0.000000   0.000000  -0.004661   0.000090  -0.000626   0.002587
    23  H    0.000000  -0.000000   0.000061  -0.000130   0.001723  -0.000199
    24  C   -0.000000   0.000000  -0.042146  -0.002265  -0.001099  -0.000955
    25  H   -0.000000   0.000000  -0.006279   0.002270   0.000102   0.000213
    26  C    0.000033  -0.000006   0.002993   0.000131  -0.000074  -0.000108
    27  H   -0.000001   0.000000  -0.000109  -0.000001  -0.000010   0.000037
    28  H   -0.000010   0.000003  -0.000027   0.000001   0.000031  -0.000012
              19         20         21         22         23         24
     1  C    0.002713   0.000184   0.000057  -0.000003  -0.000007  -0.045551
     2  H   -0.000024  -0.000006   0.000002   0.000000  -0.000002  -0.002640
     3  H   -0.000013  -0.000004  -0.000006   0.000000   0.000000  -0.002462
     4  C   -0.000132   0.000001   0.000006  -0.000000  -0.000000   0.005417
     5  C    0.000004  -0.000000  -0.000001  -0.000000   0.000000  -0.000187
     6  H   -0.000000   0.000000   0.000000   0.000000  -0.000000   0.000001
     7  H    0.000000  -0.000000  -0.000000  -0.000000  -0.000000  -0.000015
     8  H    0.000000   0.000000  -0.000000   0.000000  -0.000000  -0.000035
     9  C   -0.000003  -0.000001   0.000000   0.000000   0.000000   0.000121
    10  H    0.000000  -0.000000  -0.000000  -0.000000   0.000000  -0.000015
    11  C   -0.000000   0.000000   0.000000  -0.000000   0.000000   0.000001
    12  H    0.000000  -0.000000  -0.000000  -0.000000   0.000000   0.000000
    13  H    0.000000   0.000000  -0.000000  -0.000000   0.000000  -0.000000
    14  H   -0.000000  -0.000000   0.000000   0.000000  -0.000000   0.000000
    15  C    0.352276  -0.062126   0.003535  -0.004661   0.000061  -0.042146
    16  H   -0.041217   0.003786  -0.000112   0.000090  -0.000130  -0.002265
    17  H   -0.047014  -0.000685  -0.000034  -0.000626   0.001723  -0.001099
    18  H   -0.043458  -0.002558  -0.000031   0.002587  -0.000199  -0.000955
    19  C    4.941898   0.345705  -0.037583  -0.042831  -0.041527   0.700722
    20  C    0.345705   4.917380   0.406175   0.403941   0.397046  -0.048348
    21  H   -0.037583   0.406175   0.565927  -0.029515  -0.026799  -0.003782
    22  H   -0.042831   0.403941  -0.029515   0.583791  -0.031248   0.002197
    23  H   -0.041527   0.397046  -0.026799  -0.031248   0.576572  -0.003046
    24  C    0.700722  -0.048348  -0.003782   0.002197  -0.003046   4.948222
    25  H   -0.036447   0.003371   0.000064  -0.000103  -0.000122   0.404298
    26  C   -0.056879  -0.006846  -0.001241   0.000128   0.000502   0.339912
    27  H   -0.005669  -0.000154   0.001038   0.000148  -0.000254  -0.042904
    28  H   -0.005612  -0.000473  -0.001835  -0.000066   0.001053  -0.043034
              25         26         27         28
     1  C   -0.005704   0.342748  -0.040959  -0.041102
     2  H    0.001253  -0.039333   0.004372  -0.003266
     3  H    0.001706  -0.045724  -0.002909   0.004626
     4  C    0.000083  -0.065265  -0.003412  -0.000175
     5  C   -0.000005   0.001030   0.000259   0.000135
     6  H    0.000000  -0.000006   0.000006  -0.000008
     7  H   -0.000001  -0.000218   0.000305   0.000025
     8  H    0.000000   0.000601  -0.000455  -0.000020
     9  C   -0.000002  -0.007291   0.000482   0.002472
    10  H   -0.000000   0.000152  -0.000005   0.000345
    11  C   -0.000000  -0.000078   0.000002  -0.000079
    12  H   -0.000000  -0.000008   0.000000   0.000001
    13  H   -0.000000   0.000033  -0.000001  -0.000010
    14  H    0.000000  -0.000006   0.000000   0.000003
    15  C   -0.006279   0.002993  -0.000109  -0.000027
    16  H    0.002270   0.000131  -0.000001   0.000001
    17  H    0.000102  -0.000074  -0.000010   0.000031
    18  H    0.000213  -0.000108   0.000037  -0.000012
    19  C   -0.036447  -0.056879  -0.005669  -0.005612
    20  C    0.003371  -0.006846  -0.000154  -0.000473
    21  H    0.000064  -0.001241   0.001038  -0.001835
    22  H   -0.000103   0.000128   0.000148  -0.000066
    23  H   -0.000122   0.000502  -0.000254   0.001053
    24  C    0.404298   0.339912  -0.042904  -0.043034
    25  H    0.553702  -0.043481   0.002960   0.003004
    26  C   -0.043481   4.980790   0.407159   0.409741
    27  H    0.002960   0.407159   0.589214  -0.029916
    28  H    0.003004   0.409741  -0.029916   0.576377
 Mulliken charges:
               1
     1  C   -0.241397
     2  H    0.120757
     3  H    0.110807
     4  C    0.005073
     5  C   -0.350949
     6  H    0.123556
     7  H    0.116813
     8  H    0.126426
     9  C   -0.146647
    10  H    0.116650
    11  C   -0.354525
    12  H    0.116820
    13  H    0.119831
    14  H    0.119544
    15  C   -0.341570
    16  H    0.116886
    17  H    0.115196
    18  H    0.115399
    19  C    0.015090
    20  C   -0.356388
    21  H    0.124136
    22  H    0.116171
    23  H    0.126377
    24  C   -0.162409
    25  H    0.119117
    26  C   -0.219362
    27  H    0.120775
    28  H    0.127821
 Sum of Mulliken charges =  -0.00000
 Mulliken charges with hydrogens summed into heavy atoms:
               1
     1  C   -0.009832
     4  C    0.005073
     5  C    0.015847
     9  C   -0.029997
    11  C    0.001670
    15  C    0.005911
    19  C    0.015090
    20  C    0.010296
    24  C   -0.043292
    26  C    0.029235
 Electronic spatial extent (au):  <R**2>=           2809.1538
 Charge=             -0.0000 electrons
 Dipole moment (field-independent basis, Debye):
    X=              0.0992    Y=              0.1872    Z=              0.3074  Tot=              0.3734
 Quadrupole moment (field-independent basis, Debye-Ang):
   XX=            -64.1563   YY=            -65.0407   ZZ=            -65.2296
   XY=              0.2576   XZ=             -0.5255   YZ=             -0.1997
 Traceless Quadrupole moment (field-independent basis, Debye-Ang):
   XX=              0.6526   YY=             -0.2319   ZZ=             -0.4207
   XY=              0.2576   XZ=             -0.5255   YZ=             -0.1997
 Octapole moment (field-independent basis, Debye-Ang**2):
  XXX=              4.0821  YYY=             -0.2981  ZZZ=              0.3824  XYY=              1.1829
  XXY=              5.0504  XXZ=              3.8797  XZZ=             -1.3573  YZZ=              1.0906
  YYZ=             -1.6524  XYZ=              4.1054
 Hexadecapole moment (field-independent basis, Debye-Ang**3):
 XXXX=          -3216.0751 YYYY=           -376.7404 ZZZZ=           -300.3785 XXXY=              5.9453
 XXXZ=              1.2346 YYYX=             -0.9121 YYYZ=             -2.4931 ZZZX=              4.6323
 ZZZY=              1.2038 XXYY=           -609.5346 XXZZ=           -587.3718 YYZZ=           -114.8315
 XXYZ=             -5.9711 YYXZ=             -6.7557 ZZXY=             -4.0337
 N-N= 5.056169362256D+02 E-N=-1.915930846123D+03  KE= 3.886222141871D+02
 No NMR shielding tensors so no spin-rotation constants.
 Leave Link  601 at Fri Sep 17 20:12:21 2021, MaxMem=   524288000 cpu:               0.2 elap:               0.4
 (Enter /opt/gaussian/g16_legacy/l701.exe)
 ... and contract with generalized density number  2.
 Compute integral first derivatives.
 Leave Link  701 at Fri Sep 17 20:12:21 2021, MaxMem=   524288000 cpu:               0.2 elap:               0.3
 (Enter /opt/gaussian/g16_legacy/l702.exe)
 L702 exits ... SP integral derivatives will be done elsewhere.
 Leave Link  702 at Fri Sep 17 20:12:22 2021, MaxMem=   524288000 cpu:               0.0 elap:               0.1
 (Enter /opt/gaussian/g16_legacy/l703.exe)
 Integral derivatives from FoFJK, PRISM(SPDF).
 Compute integral first derivatives, UseDBF=F ICtDFT=           0.
 Calling FoFJK, ICntrl=  10002127 FMM=F ISym2X=0 I1Cent= 0 IOpClX= 0 NMat=1 NMatS=1 NMatT=0.
 FoFJK:  IHMeth= 1 ICntrl=10002127 DoSepK=F KAlg= 0 I1Cent=           0 FoldK=F
 IRaf=         0 NMat=       1 IRICut=       1 DoRegI=T DoRafI=F ISym2E= 0 IDoP0=0 IntGTp=1.
 FoFCou: FMM=F IPFlag=           0 FMFlag=      100000 FMFlg1=         800
         NFxFlg=           0 DoJE=F BraDBF=F KetDBF=F FulRan=T
         wScrn=  0.000000 ICntrl=  10002127 IOpCl=  0 I1Cent=           0 NGrid=           0
         NMat0=    1 NMatS0=      1 NMatT0=    0 NMatD0=    1 NMtDS0=    0 NMtDT0=    0
 Symmetry not used in FoFCou.
 Leave Link  703 at Fri Sep 17 20:12:40 2021, MaxMem=   524288000 cpu:              18.0 elap:              18.1
 (Enter /opt/gaussian/g16_legacy/l716.exe)
 Dipole        = 2.74321474D-03 8.88374742D-02 1.08330445D-01
 ***** Axes restored to original set *****
 -------------------------------------------------------------------
 Center     Atomic                   Forces (Hartrees/Bohr)
 Number     Number              X              Y              Z
 -------------------------------------------------------------------
      1        6           0.003888782   -0.004459537    0.002487463
      2        1           0.001068028    0.002613922    0.003312928
      3        1          -0.000503271    0.001138848    0.003259353
      4        6          -0.004650768   -0.006295253   -0.008348715
      5        6           0.003574371    0.002380943   -0.000470341
      6        1          -0.002808923    0.000720929    0.003885808
      7        1          -0.000705667   -0.001415502    0.004143056
      8        1           0.001918801    0.001255798   -0.003275511
      9        6          -0.003123984    0.002165182    0.001386368
     10        1          -0.000897538    0.002581018   -0.002244030
     11        6           0.002771820    0.000497312    0.000235123
     12        1          -0.002700760   -0.002269111   -0.000509016
     13        1           0.002107221   -0.000787635   -0.002546095
     14        1           0.000761202    0.001230085    0.003160266
     15        6          -0.001925159   -0.001137109   -0.004389866
     16        1           0.002084152    0.001036641    0.003758135
     17        1          -0.000534413    0.003167057   -0.000735299
     18        1          -0.000857208   -0.003284671    0.001769810
     19        6           0.000858094    0.001631357   -0.005778362
     20        6           0.003230521    0.002063964   -0.000602592
     21        1          -0.002003991   -0.003607948   -0.000451310
     22        1           0.000637785   -0.004270191   -0.000489685
     23        1          -0.000206463    0.002882052    0.000827752
     24        6          -0.002753460    0.000805111    0.004457355
     25        1          -0.000711975   -0.000296406    0.000714770
     26        6          -0.004327568   -0.000061319   -0.003284898
     27        1           0.002654256   -0.001609414    0.002036492
     28        1           0.003156116    0.003323876   -0.002308961
 -------------------------------------------------------------------
 Cartesian Forces:  Max     0.008348715 RMS     0.002715620
 Leave Link  716 at Fri Sep 17 20:12:40 2021, MaxMem=   524288000 cpu:               0.0 elap:               0.4
 (Enter /opt/gaussian/g16_legacy/l103.exe)

 GradGradGradGradGradGradGradGradGradGradGradGradGradGradGradGradGradGrad
 Berny optimization.
 FormGI is forming the generalized inverse of G from B-inverse, IUseBI=4.
 Internal  Forces:  Max     0.005239440 RMS     0.002019095
 Search for a local minimum.
 Step number   1 out of a maximum of  138
 All quantities printed in internal units (Hartrees-Bohrs-Radians)
 RMS Force = .20191D-02 SwitMx=.10000D-02 MixMth= 1
 Mixed Optimization -- RFO/linear search
 Second derivative matrix not updated -- first step.
 ITU=  0
     Eigenvalues ---    0.00297   0.00524   0.00671   0.00673   0.00700
     Eigenvalues ---    0.00736   0.00826   0.01212   0.01277   0.01529
     Eigenvalues ---    0.01649   0.02768   0.02784   0.04108   0.04120
     Eigenvalues ---    0.05351   0.05430   0.07032   0.07054   0.07072
     Eigenvalues ---    0.07128   0.07257   0.07283   0.07316   0.07513
     Eigenvalues ---    0.09157   0.09366   0.12703   0.12837   0.15990
     Eigenvalues ---    0.15999   0.16000   0.16000   0.16000   0.16000
     Eigenvalues ---    0.16000   0.16000   0.16000   0.16000   0.16000
     Eigenvalues ---    0.16000   0.16000   0.16000   0.21864   0.22000
     Eigenvalues ---    0.22003   0.22004   0.24998   0.24999   0.25000
     Eigenvalues ---    0.25000   0.28928   0.30535   0.31632   0.31649
     Eigenvalues ---    0.31858   0.32139   0.32861   0.33870   0.33993
     Eigenvalues ---    0.34000   0.34138   0.34148   0.34161   0.34162
     Eigenvalues ---    0.34203   0.34217   0.34271   0.34279   0.34281
     Eigenvalues ---    0.34286   0.34373   0.34398   0.34568   0.34828
     Eigenvalues ---    0.35157   0.55305   0.55574
 RFO step:  Lambda=-3.66724786D-03 EMin= 2.97354797D-03
 Linear search not attempted -- first point.
 Iteration  1 RMS(Cart)=  0.06762993 RMS(Int)=  0.00128486
 Iteration  2 RMS(Cart)=  0.00292789 RMS(Int)=  0.00013305
 Iteration  3 RMS(Cart)=  0.00000554 RMS(Int)=  0.00013302
 Iteration  4 RMS(Cart)=  0.00000000 RMS(Int)=  0.00013302
 ITry= 1 IFail=0 DXMaxC= 2.18D-01 DCOld= 1.00D+10 DXMaxT= 3.00D-01 DXLimC= 3.00D+00 Rises=F
 Variable       Old X    -DE/DX   Delta X   Delta X   Delta X     New X
                                 (Linear)    (Quad)   (Total)
    R1        2.07549  -0.00328   0.00000  -0.00959  -0.00959   2.06590
    R2        2.07343  -0.00221   0.00000  -0.00643  -0.00643   2.06699
    R3        2.86909  -0.00470   0.00000  -0.01522  -0.01522   2.85387
    R4        2.90153  -0.00259   0.00000  -0.00886  -0.00886   2.89267
    R5        2.84405   0.00261   0.00000   0.00810   0.00810   2.85215
    R6        2.54626  -0.00341   0.00000  -0.00610  -0.00610   2.54016
    R7        2.06706  -0.00362   0.00000  -0.01042  -0.01042   2.05664
    R8        2.06989  -0.00367   0.00000  -0.01062  -0.01062   2.05928
    R9        2.06859  -0.00192   0.00000  -0.00554  -0.00554   2.06305
   R10        2.05955  -0.00199   0.00000  -0.00567  -0.00567   2.05388
   R11        2.82596   0.00298   0.00000   0.00897   0.00897   2.83493
   R12        2.06382  -0.00327   0.00000  -0.00937  -0.00937   2.05445
   R13        2.06875  -0.00228   0.00000  -0.00659  -0.00659   2.06216
   R14        2.06850  -0.00210   0.00000  -0.00607  -0.00607   2.06243
   R15        2.07058  -0.00413   0.00000  -0.01195  -0.01195   2.05863
   R16        2.06965  -0.00209   0.00000  -0.00605  -0.00605   2.06360
   R17        2.07081  -0.00257   0.00000  -0.00746  -0.00746   2.06335
   R18        2.83891   0.00110   0.00000   0.00338   0.00338   2.84229
   R19        2.84822  -0.00130   0.00000  -0.00406  -0.00406   2.84416
   R20        2.54862  -0.00524   0.00000  -0.00941  -0.00941   2.53920
   R21        2.06664  -0.00326   0.00000  -0.00937  -0.00937   2.05727
   R22        2.07098  -0.00363   0.00000  -0.01052  -0.01052   2.06046
   R23        2.06862  -0.00162   0.00000  -0.00467  -0.00467   2.06395
   R24        2.05421  -0.00039   0.00000  -0.00109  -0.00109   2.05312
   R25        2.84792   0.00233   0.00000   0.00729   0.00729   2.85520
   R26        2.07060  -0.00043   0.00000  -0.00126  -0.00126   2.06934
   R27        2.07329  -0.00316   0.00000  -0.00921  -0.00921   2.06409
    A1        1.84343   0.00222   0.00000   0.02057   0.02049   1.86392
    A2        1.92328  -0.00154   0.00000  -0.00262  -0.00262   1.92065
    A3        1.91263  -0.00125   0.00000  -0.00469  -0.00473   1.90789
    A4        1.91369  -0.00028   0.00000  -0.00020  -0.00011   1.91359
    A5        1.92839  -0.00374   0.00000  -0.03009  -0.03008   1.89831
    A6        1.94010   0.00442   0.00000   0.01686   0.01690   1.95700
    A7        2.01706   0.00310   0.00000   0.01205   0.01143   2.02849
    A8        2.09933  -0.00153   0.00000  -0.00624  -0.00683   2.09250
    A9        2.16674  -0.00158   0.00000  -0.00645  -0.00704   2.15970
   A10        1.95941  -0.00042   0.00000  -0.00076  -0.00075   1.95866
   A11        1.93537  -0.00208   0.00000  -0.01118  -0.01113   1.92424
   A12        1.92554   0.00465   0.00000   0.02512   0.02517   1.95071
   A13        1.85284   0.00243   0.00000   0.02109   0.02111   1.87395
   A14        1.90018  -0.00283   0.00000  -0.01998  -0.01997   1.88021
   A15        1.88773  -0.00199   0.00000  -0.01559  -0.01551   1.87222
   A16        2.06728  -0.00257   0.00000  -0.01570  -0.01584   2.05144
   A17        2.22575  -0.00056   0.00000  -0.00225  -0.00239   2.22337
   A18        1.98921   0.00316   0.00000   0.01920   0.01907   2.00827
   A19        1.98266  -0.00299   0.00000  -0.01817  -0.01809   1.96457
   A20        1.90846   0.00288   0.00000   0.01790   0.01785   1.92631
   A21        1.91783   0.00340   0.00000   0.02038   0.02034   1.93817
   A22        1.87563   0.00008   0.00000   0.00124   0.00132   1.87694
   A23        1.88952  -0.00043   0.00000  -0.00314  -0.00306   1.88646
   A24        1.88710  -0.00313   0.00000  -0.01931  -0.01947   1.86762
   A25        1.87951   0.00068   0.00000   0.00591   0.00593   1.88544
   A26        1.87788   0.00090   0.00000   0.00957   0.00960   1.88748
   A27        1.95897  -0.00241   0.00000  -0.01168  -0.01165   1.94732
   A28        1.89341  -0.00302   0.00000  -0.02441  -0.02440   1.86901
   A29        1.92721   0.00169   0.00000   0.00817   0.00819   1.93540
   A30        1.92472   0.00205   0.00000   0.01162   0.01163   1.93636
   A31        2.00582   0.00261   0.00000   0.01033   0.01017   2.01599
   A32        2.12054   0.00094   0.00000   0.00375   0.00359   2.12413
   A33        2.15682  -0.00355   0.00000  -0.01397  -0.01412   2.14270
   A34        1.96316  -0.00108   0.00000  -0.00397  -0.00396   1.95920
   A35        1.92950  -0.00081   0.00000  -0.00403  -0.00402   1.92549
   A36        1.92210   0.00303   0.00000   0.01492   0.01495   1.93704
   A37        1.86189   0.00220   0.00000   0.02016   0.02017   1.88205
   A38        1.89380  -0.00136   0.00000  -0.00989  -0.00987   1.88393
   A39        1.89100  -0.00209   0.00000  -0.01801  -0.01798   1.87302
   A40        2.07155  -0.00215   0.00000  -0.01098  -0.01098   2.06056
   A41        2.17363   0.00263   0.00000   0.01177   0.01177   2.18540
   A42        2.03796  -0.00048   0.00000  -0.00076  -0.00076   2.03720
   A43        1.96959  -0.00215   0.00000  -0.00396  -0.00391   1.96568
   A44        1.90737  -0.00011   0.00000  -0.00569  -0.00579   1.90158
   A45        1.89652  -0.00102   0.00000  -0.01417  -0.01424   1.88228
   A46        1.90067   0.00225   0.00000   0.02348   0.02345   1.92411
   A47        1.90262   0.00283   0.00000   0.02622   0.02620   1.92881
   A48        1.88531  -0.00182   0.00000  -0.02719  -0.02761   1.85770
    D1        2.71566   0.00183   0.00000   0.13900   0.13909   2.85475
    D2       -0.43696   0.00085   0.00000   0.07723   0.07713  -0.35983
    D3        0.69376   0.00020   0.00000   0.11572   0.11581   0.80957
    D4       -2.45887  -0.00078   0.00000   0.05395   0.05386  -2.40501
    D5       -1.44358   0.00216   0.00000   0.14261   0.14270  -1.30088
    D6        1.68698   0.00118   0.00000   0.08083   0.08074   1.76772
    D7       -1.02658   0.00006   0.00000  -0.00173  -0.00176  -1.02833
    D8        3.13916  -0.00130   0.00000  -0.02498  -0.02491   3.11425
    D9        1.08574   0.00153   0.00000   0.01898   0.01888   1.10462
   D10        0.99765  -0.00015   0.00000   0.00308   0.00313   1.00078
   D11       -1.11980  -0.00151   0.00000  -0.02016  -0.02003  -1.13982
   D12        3.10997   0.00132   0.00000   0.02380   0.02376   3.13373
   D13        3.12646  -0.00008   0.00000  -0.00641  -0.00644   3.12003
   D14        1.00901  -0.00143   0.00000  -0.02965  -0.02959   0.97942
   D15       -1.04440   0.00140   0.00000   0.01430   0.01419  -1.03021
[...]
                 (A) (A) (A) (A) (A) (A) (A) (A) (A) (A) (A) (A)
                 (A) (A) (A) (A) (A) (A) (A) (A) (A) (A) (A) (A)
                 (A) (A) (A) (A) (A) (A) (A) (A) (A) (A) (A) (A)
                 (A) (A) (A) (A) (A) (A) (A) (A) (A) (A) (A) (A)
                 (A) (A) (A) (A) (A) (A) (A) (A) (A) (A) (A) (A)
                 (A) (A) (A) (A) (A) (A) (A) (A) (A) (A) (A) (A)
                 (A) (A) (A) (A) (A) (A) (A) (A) (A) (A) (A) (A)
                 (A) (A) (A) (A) (A) (A) (A) (A) (A) (A) (A) (A)
                 (A) (A) (A) (A) (A) (A) (A) (A) (A) (A) (A) (A)
                 (A) (A) (A) (A) (A) (A) (A) (A) (A) (A) (A) (A)
                 (A) (A) (A) (A) (A) (A) (A) (A) (A) (A) (A) (A)
                 (A) (A) (A) (A) (A) (A) (A) (A) (A) (A) (A) (A)
                 (A) (A) (A) (A) (A) (A) (A) (A) (A) (A) (A) (A)
                 (A) (A) (A) (A) (A) (A) (A) (A) (A) (A) (A) (A)
                 (A) (A) (A) (A) (A) (A) (A) (A) (A)
 The electronic state is 1-A.
 Alpha  occ. eigenvalues --  -11.22919 -11.22524 -11.21711 -11.21627 -11.21570
 Alpha  occ. eigenvalues --  -11.21559 -11.21513 -11.21455 -11.21402 -11.21298
 Alpha  occ. eigenvalues --   -1.10712  -1.08439  -1.02116  -0.97412  -0.93716
 Alpha  occ. eigenvalues --   -0.92410  -0.87777  -0.81711  -0.70460  -0.69695
 Alpha  occ. eigenvalues --   -0.64283  -0.63079  -0.59595  -0.58686  -0.58536
 Alpha  occ. eigenvalues --   -0.56929  -0.55095  -0.54873  -0.53177  -0.52751
 Alpha  occ. eigenvalues --   -0.51785  -0.51129  -0.50640  -0.49304  -0.47959
 Alpha  occ. eigenvalues --   -0.46341  -0.44583  -0.33431  -0.31446
 Alpha virt. eigenvalues --    0.18430   0.19805   0.22980   0.24450   0.26533
 Alpha virt. eigenvalues --    0.26924   0.27866   0.28939   0.30370   0.30757
 Alpha virt. eigenvalues --    0.31381   0.32419   0.33235   0.33546   0.34254
 Alpha virt. eigenvalues --    0.35153   0.36557   0.37268   0.39454   0.40453
 Alpha virt. eigenvalues --    0.40962   0.41220   0.43372   0.45137   0.46015
 Alpha virt. eigenvalues --    0.51706   0.53975   0.61424   0.63252   0.69548
 Alpha virt. eigenvalues --    0.70315   0.72641   0.74369   0.75422   0.76004
 Alpha virt. eigenvalues --    0.76704   0.79260   0.79788   0.81056   0.83233
 Alpha virt. eigenvalues --    0.83663   0.86107   0.86958   0.89759   0.91482
 Alpha virt. eigenvalues --    0.92987   0.95842   0.97288   0.98168   0.99165
 Alpha virt. eigenvalues --    1.00335   1.01337   1.02594   1.03561   1.06171
 Alpha virt. eigenvalues --    1.07935   1.08691   1.09875   1.12094   1.12363
 Alpha virt. eigenvalues --    1.12801   1.13719   1.15070   1.15405   1.15905
 Alpha virt. eigenvalues --    1.16701   1.17164   1.18344   1.19116   1.21281
 Alpha virt. eigenvalues --    1.21574   1.22268   1.23290   1.25415   1.26012
 Alpha virt. eigenvalues --    1.27735   1.40330   1.41437   1.45089   1.45474
 Alpha virt. eigenvalues --    1.48274   1.50136   1.55126   1.57541   1.58265
 Alpha virt. eigenvalues --    1.62784   1.65296   1.66670   1.70802   1.71733
 Alpha virt. eigenvalues --    1.74454   1.78828   1.90790   1.91746   1.96721
 Alpha virt. eigenvalues --    1.99425   2.00996   2.02385   2.06229   2.07918
 Alpha virt. eigenvalues --    2.08296   2.09425   2.10015   2.12601   2.14713
 Alpha virt. eigenvalues --    2.15054   2.16245   2.20420   2.23166   2.26762
 Alpha virt. eigenvalues --    2.29405   2.30321   2.31917   2.35425   2.35743
 Alpha virt. eigenvalues --    2.35907   2.36761   2.38592   2.40305   2.41096
 Alpha virt. eigenvalues --    2.42819   2.43841   2.44279   2.44976   2.45975
 Alpha virt. eigenvalues --    2.48190   2.49766   2.50422   2.51450   2.55699
 Alpha virt. eigenvalues --    2.56874   2.59085   2.62403   2.63240   2.65642
 Alpha virt. eigenvalues --    2.66756   2.68853   2.69737   2.70729   2.74863
 Alpha virt. eigenvalues --    2.76040   2.77544   2.80886   2.83059   2.84035
 Alpha virt. eigenvalues --    2.85493   2.89108   2.90664   2.93109   2.96179
 Alpha virt. eigenvalues --    2.97206   3.01024   3.01641   3.03339   3.05318
 Alpha virt. eigenvalues --    3.06668   3.08278   3.11710   3.13086   3.14954
 Alpha virt. eigenvalues --    3.17809   3.19102   3.19614   3.20912   3.22175
 Alpha virt. eigenvalues --    3.23975   3.24524   3.27507   3.28237   3.39543
 Alpha virt. eigenvalues --    3.40255   3.44788   3.45714   3.56212   3.57270
 Alpha virt. eigenvalues --    3.61586   3.63337   3.65750   3.74105   3.78514
 Alpha virt. eigenvalues --    3.79730   3.80789   3.82169   3.83482   3.84031
 Alpha virt. eigenvalues --    3.84542   3.86462   3.88024   3.90708   3.92025
 Alpha virt. eigenvalues --    3.96723   4.58867   4.62029   4.74190   4.83743
 Alpha virt. eigenvalues --    4.89802   4.91252   4.92627   5.05536   5.10470
 Alpha virt. eigenvalues --    5.16507
          Condensed to atoms (all electrons):
               1          2          3          4          5          6
     1  C    4.978101   0.412957   0.405154   0.356499  -0.058467   0.003389
     2  H    0.412957   0.574333  -0.026782  -0.046931   0.003627  -0.000095
     3  H    0.405154  -0.026782   0.603716  -0.044483  -0.003428  -0.000072
     4  C    0.356499  -0.046931  -0.044483   4.939512   0.341386  -0.037457
     5  C   -0.058467   0.003627  -0.003428   0.341386   4.908283   0.407676
     6  H    0.003389  -0.000095  -0.000072  -0.037457   0.407676   0.568008
     7  H   -0.004028   0.000059   0.003259  -0.044063   0.401456  -0.027666
     8  H   -0.001137  -0.000108  -0.000091  -0.040631   0.401479  -0.027792
     9  C   -0.042010  -0.002368   0.000392   0.700349  -0.045098  -0.003039
    10  H   -0.007112   0.002237   0.000238  -0.040166   0.003560   0.000035
    11  C    0.003168   0.000203  -0.000115  -0.047937  -0.007863  -0.002315
    12  H    0.000099   0.000005   0.000001  -0.000136  -0.002091  -0.001265
    13  H   -0.000088  -0.000012  -0.000003  -0.000063   0.000213  -0.000066
    14  H   -0.000113  -0.000005   0.000015  -0.001033   0.000313   0.000111
    15  C   -0.000092  -0.000046   0.000000   0.000002  -0.000000  -0.000000
    16  H   -0.000004  -0.000002   0.000002   0.000000  -0.000000  -0.000000
    17  H    0.000023  -0.000007  -0.000002  -0.000000   0.000000  -0.000000
    18  H   -0.000005   0.000002   0.000000   0.000000  -0.000000   0.000000
    19  C   -0.004107   0.001436   0.000667   0.000043  -0.000001   0.000000
    20  C    0.000567   0.000164  -0.000024  -0.000030   0.000000   0.000000
    21  H   -0.000010   0.000105  -0.000010   0.000001   0.000000   0.000000
    22  H   -0.000038   0.000013   0.000000   0.000001  -0.000000   0.000000
    23  H    0.000105  -0.000088  -0.000001  -0.000004   0.000000  -0.000000
    24  C   -0.060557  -0.001014  -0.001458   0.005612  -0.000201   0.000002
    25  H   -0.000309   0.000177   0.001114  -0.000136   0.000007  -0.000000
    26  C    0.331281  -0.040790  -0.051740  -0.062498  -0.000718   0.000072
    27  H   -0.045633   0.004447  -0.002334  -0.002384  -0.000608   0.000039
    28  H   -0.043830  -0.002514   0.004995   0.001115   0.000074  -0.000024
               7          8          9         10         11         12
     1  C   -0.004028  -0.001137  -0.042010  -0.007112   0.003168   0.000099
     2  H    0.000059  -0.000108  -0.002368   0.002237   0.000203   0.000005
     3  H    0.003259  -0.000091   0.000392   0.000238  -0.000115   0.000001
     4  C   -0.044063  -0.040631   0.700349  -0.040166  -0.047937  -0.000136
     5  C    0.401456   0.401479  -0.045098   0.003560  -0.007863  -0.002091
     6  H   -0.027666  -0.027792  -0.003039   0.000035  -0.002315  -0.001265
     7  H    0.588030  -0.035086   0.001818  -0.000112   0.000170   0.000010
     8  H   -0.035086   0.580994  -0.002518  -0.000126   0.000479  -0.000118
     9  C    0.001818  -0.002518   4.936392   0.405693   0.340188  -0.043567
    10  H   -0.000112  -0.000126   0.405693   0.560702  -0.041921   0.003340
    11  C    0.000170   0.000479   0.340188  -0.041921   4.897834   0.408428
    12  H    0.000010  -0.000118  -0.043567   0.003340   0.408428   0.576149
    13  H   -0.000017   0.000088  -0.042127  -0.001490   0.402078  -0.028782
    14  H    0.000028  -0.000040  -0.042074  -0.000905   0.401094  -0.027823
    15  C   -0.000000   0.000000   0.000000  -0.000000   0.000000   0.000000
    16  H   -0.000000   0.000000  -0.000000  -0.000000   0.000000   0.000000
    17  H   -0.000000  -0.000000   0.000000   0.000000  -0.000000  -0.000000
    18  H    0.000000   0.000000  -0.000000  -0.000000   0.000000  -0.000000
    19  C    0.000001  -0.000001   0.000000  -0.000004  -0.000000  -0.000000
    20  C   -0.000000   0.000000  -0.000004   0.000000   0.000000  -0.000000
    21  H   -0.000000  -0.000001   0.000008   0.000018   0.000000   0.000000
    22  H    0.000000   0.000000   0.000000  -0.000000   0.000000   0.000000
    23  H   -0.000000   0.000000  -0.000000   0.000001  -0.000000  -0.000000
    24  C   -0.000037  -0.000012  -0.000014  -0.000020   0.000001   0.000000
    25  H   -0.000003   0.000006  -0.000001   0.000000  -0.000000  -0.000000
    26  C   -0.001037   0.001060  -0.004809   0.000241  -0.000080  -0.000004
    27  H    0.000466  -0.001759   0.000333  -0.000011   0.000003  -0.000000
    28  H    0.000095   0.000046   0.001716   0.000087  -0.000046   0.000001
              13         14         15         16         17         18
     1  C   -0.000088  -0.000113  -0.000092  -0.000004   0.000023  -0.000005
     2  H   -0.000012  -0.000005  -0.000046  -0.000002  -0.000007   0.000002
     3  H   -0.000003   0.000015   0.000000   0.000002  -0.000002   0.000000
     4  C   -0.000063  -0.001033   0.000002   0.000000  -0.000000   0.000000
     5  C    0.000213   0.000313  -0.000000  -0.000000   0.000000  -0.000000
     6  H   -0.000066   0.000111  -0.000000  -0.000000  -0.000000   0.000000
     7  H   -0.000017   0.000028  -0.000000  -0.000000  -0.000000   0.000000
     8  H    0.000088  -0.000040   0.000000   0.000000  -0.000000   0.000000
     9  C   -0.042127  -0.042074   0.000000  -0.000000   0.000000  -0.000000
    10  H   -0.001490  -0.000905  -0.000000  -0.000000   0.000000  -0.000000
    11  C    0.402078   0.401094   0.000000   0.000000  -0.000000   0.000000
    12  H   -0.028782  -0.027823   0.000000   0.000000  -0.000000  -0.000000
    13  H    0.586042  -0.035775  -0.000000  -0.000000   0.000000  -0.000000
    14  H   -0.035775   0.585756   0.000000  -0.000000  -0.000000   0.000000
    15  C   -0.000000   0.000000   4.901216   0.406135   0.398169   0.398642
    16  H   -0.000000  -0.000000   0.406135   0.566561  -0.026685  -0.026616
    17  H    0.000000  -0.000000   0.398169  -0.026685   0.594851  -0.037891
    18  H   -0.000000   0.000000   0.398642  -0.026616  -0.037891   0.594389
    19  C   -0.000000   0.000000   0.353594  -0.041716  -0.043869  -0.044242
    20  C    0.000000  -0.000000  -0.065284   0.003787  -0.001953  -0.001209
    21  H   -0.000000  -0.000000   0.003740  -0.000114  -0.000068  -0.000031
    22  H   -0.000000   0.000000  -0.002240  -0.000053  -0.000461   0.002781
    23  H    0.000000  -0.000000  -0.002652  -0.000029   0.002800  -0.000495
    24  C   -0.000000   0.000000  -0.044608  -0.002561  -0.000499  -0.001259
    25  H    0.000000  -0.000000  -0.007128   0.002350   0.000196   0.000189
    26  C    0.000021  -0.000004   0.003217   0.000153  -0.000076  -0.000129
    27  H   -0.000000   0.000000  -0.000098  -0.000010  -0.000002   0.000011
    28  H   -0.000007   0.000001   0.000073   0.000007  -0.000004   0.000005
              19         20         21         22         23         24
     1  C   -0.004107   0.000567  -0.000010  -0.000038   0.000105  -0.060557
     2  H    0.001436   0.000164   0.000105   0.000013  -0.000088  -0.001014
     3  H    0.000667  -0.000024  -0.000010   0.000000  -0.000001  -0.001458
     4  C    0.000043  -0.000030   0.000001   0.000001  -0.000004   0.005612
     5  C   -0.000001   0.000000   0.000000  -0.000000   0.000000  -0.000201
     6  H    0.000000   0.000000   0.000000   0.000000  -0.000000   0.000002
     7  H    0.000001  -0.000000  -0.000000   0.000000  -0.000000  -0.000037
     8  H   -0.000001   0.000000  -0.000001   0.000000   0.000000  -0.000012
     9  C    0.000000  -0.000004   0.000008   0.000000  -0.000000  -0.000014
    10  H   -0.000004   0.000000   0.000018  -0.000000   0.000001  -0.000020
    11  C   -0.000000   0.000000   0.000000   0.000000  -0.000000   0.000001
    12  H   -0.000000  -0.000000   0.000000   0.000000  -0.000000   0.000000
    13  H   -0.000000   0.000000  -0.000000  -0.000000   0.000000  -0.000000
    14  H    0.000000  -0.000000  -0.000000   0.000000  -0.000000   0.000000
    15  C    0.353594  -0.065284   0.003740  -0.002240  -0.002652  -0.044608
    16  H   -0.041716   0.003787  -0.000114  -0.000053  -0.000029  -0.002561
    17  H   -0.043869  -0.001953  -0.000068  -0.000461   0.002800  -0.000499
    18  H   -0.044242  -0.001209  -0.000031   0.002781  -0.000495  -0.001259
    19  C    4.911981   0.350276  -0.037742  -0.043786  -0.043584   0.701049
    20  C    0.350276   4.905351   0.407414   0.400134   0.400862  -0.043276
    21  H   -0.037742   0.407414   0.565823  -0.026561  -0.027854  -0.002857
    22  H   -0.043786   0.400134  -0.026561   0.586454  -0.036016  -0.000438
    23  H   -0.043584   0.400862  -0.027854  -0.036016   0.588065  -0.000111
    24  C    0.701049  -0.043276  -0.002857  -0.000438  -0.000111   4.947537
    25  H   -0.038249   0.003553   0.000052  -0.000122  -0.000121   0.402918
    26  C   -0.049118  -0.008319  -0.002641   0.000163   0.000371   0.347386
    27  H    0.001120   0.000195   0.000058   0.000027  -0.000015  -0.041941
    28  H    0.000862  -0.002775  -0.001368   0.000056  -0.000064  -0.043932
              25         26         27         28
     1  C   -0.000309   0.331281  -0.045633  -0.043830
     2  H    0.000177  -0.040790   0.004447  -0.002514
     3  H    0.001114  -0.051740  -0.002334   0.004995
     4  C   -0.000136  -0.062498  -0.002384   0.001115
     5  C    0.000007  -0.000718  -0.000608   0.000074
     6  H   -0.000000   0.000072   0.000039  -0.000024
     7  H   -0.000003  -0.001037   0.000466   0.000095
     8  H    0.000006   0.001060  -0.001759   0.000046
     9  C   -0.000001  -0.004809   0.000333   0.001716
    10  H    0.000000   0.000241  -0.000011   0.000087
    11  C   -0.000000  -0.000080   0.000003  -0.000046
    12  H   -0.000000  -0.000004  -0.000000   0.000001
    13  H    0.000000   0.000021  -0.000000  -0.000007
    14  H   -0.000000  -0.000004   0.000000   0.000001
    15  C   -0.007128   0.003217  -0.000098   0.000073
    16  H    0.002350   0.000153  -0.000010   0.000007
    17  H    0.000196  -0.000076  -0.000002  -0.000004
    18  H    0.000189  -0.000129   0.000011   0.000005
    19  C   -0.038249  -0.049118   0.001120   0.000862
    20  C    0.003553  -0.008319   0.000195  -0.002775
    21  H    0.000052  -0.002641   0.000058  -0.001368
    22  H   -0.000122   0.000163   0.000027   0.000056
    23  H   -0.000121   0.000371  -0.000015  -0.000064
    24  C    0.402918   0.347386  -0.041941  -0.043932
    25  H    0.559704  -0.040134  -0.003177   0.003225
    26  C   -0.040134   4.998770   0.411893   0.410710
    27  H   -0.003177   0.411893   0.591362  -0.029248
    28  H    0.003225   0.410710  -0.029248   0.579040
 Mulliken charges:
               1
     1  C   -0.223805
     2  H    0.120996
     3  H    0.110989
     4  C    0.023432
     5  C   -0.349599
     6  H    0.120459
     7  H    0.116657
     8  H    0.125267
     9  C   -0.159258
    10  H    0.115715
    11  C   -0.353368
    12  H    0.115753
    13  H    0.119988
    14  H    0.120452
    15  C   -0.342640
    16  H    0.118796
    17  H    0.115478
    18  H    0.115860
    19  C    0.025392
    20  C   -0.349429
    21  H    0.122037
    22  H    0.120086
    23  H    0.118829
    24  C   -0.159710
    25  H    0.115891
    26  C   -0.243241
    27  H    0.117268
    28  H    0.121706
 Sum of Mulliken charges =  -0.00000
 Mulliken charges with hydrogens summed into heavy atoms:
               1
     1  C    0.008180
     4  C    0.023432
     5  C    0.012783
     9  C   -0.043543
    11  C    0.002825
    15  C    0.007494
    19  C    0.025392
    20  C    0.011523
    24  C   -0.043819
    26  C   -0.004267
 Electronic spatial extent (au):  <R**2>=           2683.1767
 Charge=             -0.0000 electrons
 Dipole moment (field-independent basis, Debye):
    X=              0.0902    Y=              0.0785    Z=              0.1304  Tot=              0.1769
 Quadrupole moment (field-independent basis, Debye-Ang):
   XX=            -63.7660   YY=            -63.3639   ZZ=            -67.0598
   XY=              1.0238   XZ=             -1.2582   YZ=              0.0091
 Traceless Quadrupole moment (field-independent basis, Debye-Ang):
   XX=              0.9639   YY=              1.3660   ZZ=             -2.3299
   XY=              1.0238   XZ=             -1.2582   YZ=              0.0091
 Octapole moment (field-independent basis, Debye-Ang**2):
  XXX=              1.0962  YYY=             -1.1160  ZZZ=              1.6582  XYY=             -0.4016
  XXY=              4.0423  XXZ=              1.6913  XZZ=              0.8941  YZZ=              1.3812
  YYZ=             -2.4828  XYZ=              3.0357
 Hexadecapole moment (field-independent basis, Debye-Ang**3):
 XXXX=          -3006.7529 YYYY=           -509.2399 ZZZZ=           -197.3578 XXXY=             12.2106
 XXXZ=             -5.1243 YYYX=             -7.9592 YYYZ=              1.9907 ZZZX=             -2.9115
 ZZZY=             -1.1091 XXYY=           -586.0368 XXZZ=           -546.4935 YYZZ=           -114.4483
 XXYZ=             -0.5369 YYXZ=             -3.8633 ZZXY=              2.9796
 N-N= 5.101728096851D+02 E-N=-1.925090318188D+03  KE= 3.887438370236D+02
 No NMR shielding tensors so no spin-rotation constants.
 Leave Link  601 at Fri Sep 17 21:26:50 2021, MaxMem=   524288000 cpu:               0.2 elap:               0.4
 (Enter /opt/gaussian/g16_legacy/l9999.exe)
 1\1\GINC-TRUENO95\FOpt\RMP2-FC\6-31G(d,p)\C10H18\JRAMOS\17-Sep-2021\0\
 \#p opt mp2/6-31g(d,p)\\Conformer number 001. Energy MM = 26.346 kcal/
 mol\\0,1\C,2.0332847839,1.2665190789,-8.6765241821\H,1.593944177,0.393
 2270623,-8.1888394968\H,1.7710658767,1.2017819277,-9.7384796047\C,3.53
 18453351,1.243640453,-8.5190263597\C,4.2803166532,2.3064044568,-9.2793
 009969\H,5.3439982717,2.0954870697,-9.3562044318\H,3.8833053043,2.3904
 404272,-10.2926545706\H,4.1684614309,3.2855611255,-8.8099848942\C,4.10
 98344802,0.3318865588,-7.7141670222\H,3.4526564351,-0.3821695485,-7.22
 51181704\C,5.566410011,0.171029079,-7.4013110212\H,6.1854743951,0.9198
 608978,-7.8886295379\H,5.7370766695,0.2505138557,-6.3261872324\H,5.923
 5170952,-0.8140631817,-7.7071764574\C,-2.5041944342,2.2309457154,-7.71
 98617765\H,-2.6566869649,2.513681621,-8.7603313698\H,-2.954578814,1.24
 83464447,-7.5621271595\H,-3.0525361464,2.9350563667,-7.0898866404\C,-1
 .0441167531,2.2154343146,-7.3591346445\C,-0.7551427104,1.8366952756,-5
 .9331090762\H,0.3078080228,1.7986006125,-5.7100248021\H,-1.2231883039,
 2.5460210215,-5.2469143949\H,-1.1808689387,0.8557176024,-5.7114636606\
 C,-0.1054232427,2.5267799773,-8.2726682024\H,-0.4471106806,2.765041800
 7,-9.2770910214\C,1.3823176142,2.5306311156,-8.0859672357\H,1.79897649
 92,3.4154907294,-8.5737975841\H,1.6540539337,2.6011381408,-7.031918453
 4\\Version=EM64L-G16RevA.03\State=1-A\HF=-389.1569432\MP2=-390.5732618
 \RMSD=2.186e-09\RMSF=2.151e-06\Dipole=0.0106619,0.0189286,0.0619673\PG
 =C01 [X(C10H18)]\\@


 LOGIC IS A SYSTEMATIC METHOD OF COMING TO THE
 WRONG CONCLUSION WITH CONFIDENCE.
 Job cpu time:       0 days  1 hours 17 minutes 13.9 seconds.
 Elapsed time:       0 days  1 hours 17 minutes 20.8 seconds.
 File lengths (MBytes):  RWF=     32 Int=      0 D2E=      0 Chk=      7 Scr=      1
 Normal termination of Gaussian 16 at Fri Sep 17 21:26:51 2021.
