 Entering Gaussian System, Link 0=/opt/gaussian/g16_legacy/g16
 Input=02-IsoP_042_gaussian.com
 Output=02-IsoP_042_gaussian.log
 Initial command:
 /opt/gaussian/g16_legacy/l1.exe "/scratch-local/jramos/2661530/Gau-12132.inp" -scrdir="/scratch-local/jramos/2661530/"
 Entering Link 1 = /opt/gaussian/g16_legacy/l1.exe PID=     12133.
  
 Copyright (c) 1988,1990,1992,1993,1995,1998,2003,2009,2016,
            Gaussian, Inc.  All Rights Reserved.
  
 This is part of the Gaussian(R) 16 program.  It is based on
 the Gaussian(R) 09 system (copyright 2009, Gaussian, Inc.),
 the Gaussian(R) 03 system (copyright 2003, Gaussian, Inc.),
 the Gaussian(R) 98 system (copyright 1998, Gaussian, Inc.),
 the Gaussian(R) 94 system (copyright 1995, Gaussian, Inc.),
 the Gaussian 92(TM) system (copyright 1992, Gaussian, Inc.),
 the Gaussian 90(TM) system (copyright 1990, Gaussian, Inc.),
 the Gaussian 88(TM) system (copyright 1988, Gaussian, Inc.),
 the Gaussian 86(TM) system (copyright 1986, Carnegie Mellon
 University), and the Gaussian 82(TM) system (copyright 1983,
 Carnegie Mellon University). Gaussian is a federally registered
 trademark of Gaussian, Inc.
  
 This software contains proprietary and confidential information,
 including trade secrets, belonging to Gaussian, Inc.
  
 This software is provided under written license and may be
 used, copied, transmitted, or stored only in accord with that
 written license.
  
 The following legend is applicable only to US Government
 contracts under FAR:
  
                    RESTRICTED RIGHTS LEGEND
  
 Use, reproduction and disclosure by the US Government is
 subject to restrictions as set forth in subparagraphs (a)
 and (c) of the Commercial Computer Software - Restricted
 Rights clause in FAR 52.227-19.
  
 Gaussian, Inc.
 340 Quinnipiac St., Bldg. 40, Wallingford CT 06492
  
  
 ---------------------------------------------------------------
 Warning -- This program may not be used in any manner that
 competes with the business of Gaussian, Inc. or will provide
 assistance to any competitor of Gaussian, Inc.  The licensee
 of this program is prohibited from giving any competitor of
 Gaussian, Inc. access to this program.  By using this program,
 the user acknowledges that Gaussian, Inc. is engaged in the
 business of creating and licensing software in the field of
 computational chemistry and represents and warrants to the
 licensee that it is not a competitor of Gaussian, Inc. and that
 it will not use this program in any manner prohibited above.
 ---------------------------------------------------------------
  

 Cite this work as:
 Gaussian 16, Revision A.03,
 M. J. Frisch, G. W. Trucks, H. B. Schlegel, G. E. Scuseria, 
 M. A. Robb, J. R. Cheeseman, G. Scalmani, V. Barone, 
 G. A. Petersson, H. Nakatsuji, X. Li, M. Caricato, A. V. Marenich, 
 J. Bloino, B. G. Janesko, R. Gomperts, B. Mennucci, H. P. Hratchian, 
 J. V. Ortiz, A. F. Izmaylov, J. L. Sonnenberg, D. Williams-Young, 
 F. Ding, F. Lipparini, F. Egidi, J. Goings, B. Peng, A. Petrone, 
 T. Henderson, D. Ranasinghe, V. G. Zakrzewski, J. Gao, N. Rega, 
 G. Zheng, W. Liang, M. Hada, M. Ehara, K. Toyota, R. Fukuda, 
 J. Hasegawa, M. Ishida, T. Nakajima, Y. Honda, O. Kitao, H. Nakai, 
 T. Vreven, K. Throssell, J. A. Montgomery, Jr., J. E. Peralta, 
 F. Ogliaro, M. J. Bearpark, J. J. Heyd, E. N. Brothers, K. N. Kudin, 
 V. N. Staroverov, T. A. Keith, R. Kobayashi, J. Normand, 
 K. Raghavachari, A. P. Rendell, J. C. Burant, S. S. Iyengar, 
 J. Tomasi, M. Cossi, J. M. Millam, M. Klene, C. Adamo, R. Cammi, 
 J. W. Ochterski, R. L. Martin, K. Morokuma, O. Farkas, 
 J. B. Foresman, and D. J. Fox, Gaussian, Inc., Wallingford CT, 2016.
 
 ******************************************
 Gaussian 16:  EM64L-G16RevA.03 25-Dec-2016
                17-Sep-2021 
 ******************************************
 %chk=02-IsoP_042_gaussian.chk
 %nproc=1
 Will use up to    1 processors via shared memory.
 %mem=4000Mb
 ---------------------
 #p opt mp2/6-31g(d,p)
 ---------------------
 1/18=20,19=15,38=1/1,3;
 2/9=110,12=2,17=6,18=5,40=1/2;
 3/5=1,6=6,7=101,11=9,25=1,30=1,71=1/1,2,3;
 4//1;
 5/5=2,38=5/2;
 8/6=4,10=2/1;
 9/15=2,16=-3/6;
 10/5=1/2;
 6/7=2,8=2,9=2,10=2/1;
 7/12=2/1,2,3,16;
 1/18=20,19=15/3(2);
 2/9=110/2;
 99//99;
 2/9=110/2;
 3/5=1,6=6,7=101,11=9,25=1,30=1,71=1/1,2,3;
 4/5=5,16=3,69=1/1;
 5/5=2,38=5/2;
 8/6=4,10=2/1;
 9/15=2,16=-3/6;
 10/5=1/2;
 7/12=2/1,2,3,16;
 1/18=20,19=15/3(-8);
 2/9=110/2;
 6/7=2,8=2,9=2,10=2/1;
 99//99;
 Leave Link    1 at Fri Sep 17 20:09:28 2021, MaxMem=   524288000 cpu:               0.0 elap:               0.1
 (Enter /opt/gaussian/g16_legacy/l101.exe)
 -------------------------------------------------
 Conformer number 042. Energy MM = 29.637 kcal/mol
 -------------------------------------------------
 Symbolic Z-matrix:
 Charge =  0 Multiplicity = 1
 C                     2.2787    1.1967   -8.9235 
 H                     1.9286    0.1809   -9.1522 
 H                     2.2027    1.7382   -9.8729 
 C                     3.7442    1.1318   -8.5155 
 C                     4.3287   -0.2533   -8.4407 
 H                     5.197    -0.309    -7.7802 
 H                     3.5963   -0.9663   -8.0498 
 H                     4.6284   -0.5816   -9.4415 
 C                     4.4601    2.2526   -8.3048 
 H                     3.9726    3.2165   -8.4188 
 C                     5.9085    2.3769   -7.9462 
 H                     6.4536    1.4321   -7.9938 
 H                     6.3942    3.0729   -8.6384 
 H                     6.0046    2.7841   -6.9346 
 C                     1.6799    5.6812   -8.0064 
 H                     2.0478    5.727    -6.9762 
 H                     2.475     6.065    -8.6566 
 H                     0.8143    6.3437   -8.0851 
 C                     1.3148    4.2808   -8.4202 
 C                     0.8279    4.1481   -9.8361 
 H                     0.2814    3.216    -10.0052 
 H                     0.1436    4.9652   -10.0848 
 H                     1.6747    4.1856   -10.5291 
 C                     1.4746    3.2457   -7.5715 
 H                     1.8392    3.4471   -6.5644 
 C                     1.2994    1.7806   -7.8806 
 H                     1.3998    1.218    -6.9433 
 H                     0.2686    1.6119   -8.2163 
 
 ITRead=  0  0  0  0  0  0  0  0  0  0  0  0  0  0  0  0  0  0  0  0
 ITRead=  0  0  0  0  0  0  0  0
 MicOpt= -1 -1 -1 -1 -1 -1 -1 -1 -1 -1 -1 -1 -1 -1 -1 -1 -1 -1 -1 -1
 MicOpt= -1 -1 -1 -1 -1 -1 -1 -1
 NAtoms=     28 NQM=       28 NQMF=       0 NMMI=      0 NMMIF=      0
                NMic=       0 NMicF=      0.
                    Isotopes and Nuclear Properties:
 (Nuclear quadrupole moments (NQMom) in fm**2, nuclear magnetic moments (NMagM)
  in nuclear magnetons)

  Atom         1           2           3           4           5           6           7           8           9          10
 IAtWgt=          12           1           1          12          12           1           1           1          12           1
 AtmWgt=  12.0000000   1.0078250   1.0078250  12.0000000  12.0000000   1.0078250   1.0078250   1.0078250  12.0000000   1.0078250
 NucSpn=           0           1           1           0           0           1           1           1           0           1
 AtZEff=  -0.0000000  -0.0000000  -0.0000000  -0.0000000  -0.0000000  -0.0000000  -0.0000000  -0.0000000  -0.0000000  -0.0000000
 NQMom=    0.0000000   0.0000000   0.0000000   0.0000000   0.0000000   0.0000000   0.0000000   0.0000000   0.0000000   0.0000000
 NMagM=    0.0000000   2.7928460   2.7928460   0.0000000   0.0000000   2.7928460   2.7928460   2.7928460   0.0000000   2.7928460
 AtZNuc=   6.0000000   1.0000000   1.0000000   6.0000000   6.0000000   1.0000000   1.0000000   1.0000000   6.0000000   1.0000000

  Atom        11          12          13          14          15          16          17          18          19          20
 IAtWgt=          12           1           1           1          12           1           1           1          12          12
 AtmWgt=  12.0000000   1.0078250   1.0078250   1.0078250  12.0000000   1.0078250   1.0078250   1.0078250  12.0000000  12.0000000
 NucSpn=           0           1           1           1           0           1           1           1           0           0
 AtZEff=  -0.0000000  -0.0000000  -0.0000000  -0.0000000  -0.0000000  -0.0000000  -0.0000000  -0.0000000  -0.0000000  -0.0000000
 NQMom=    0.0000000   0.0000000   0.0000000   0.0000000   0.0000000   0.0000000   0.0000000   0.0000000   0.0000000   0.0000000
 NMagM=    0.0000000   2.7928460   2.7928460   2.7928460   0.0000000   2.7928460   2.7928460   2.7928460   0.0000000   0.0000000
 AtZNuc=   6.0000000   1.0000000   1.0000000   1.0000000   6.0000000   1.0000000   1.0000000   1.0000000   6.0000000   6.0000000

  Atom        21          22          23          24          25          26          27          28
 IAtWgt=           1           1           1          12           1          12           1           1
 AtmWgt=   1.0078250   1.0078250   1.0078250  12.0000000   1.0078250  12.0000000   1.0078250   1.0078250
 NucSpn=           1           1           1           0           1           0           1           1
 AtZEff=  -0.0000000  -0.0000000  -0.0000000  -0.0000000  -0.0000000  -0.0000000  -0.0000000  -0.0000000
 NQMom=    0.0000000   0.0000000   0.0000000   0.0000000   0.0000000   0.0000000   0.0000000   0.0000000
 NMagM=    2.7928460   2.7928460   2.7928460   0.0000000   2.7928460   0.0000000   2.7928460   2.7928460
 AtZNuc=   1.0000000   1.0000000   1.0000000   6.0000000   1.0000000   6.0000000   1.0000000   1.0000000
 Leave Link  101 at Fri Sep 17 20:09:28 2021, MaxMem=   524288000 cpu:               0.3 elap:               0.3
 (Enter /opt/gaussian/g16_legacy/l103.exe)

 GradGradGradGradGradGradGradGradGradGradGradGradGradGradGradGradGradGrad
 Berny optimization.
 Initialization pass.
                           ----------------------------
                           !    Initial Parameters    !
                           ! (Angstroms and Degrees)  !
 --------------------------                            --------------------------
 ! Name  Definition              Value          Derivative Info.                !
 --------------------------------------------------------------------------------
 ! R1    R(1,2)                  1.0985         estimate D2E/DX2                !
 ! R2    R(1,3)                  1.0956         estimate D2E/DX2                !
 ! R3    R(1,4)                  1.5226         estimate D2E/DX2                !
 ! R4    R(1,26)                 1.5452         estimate D2E/DX2                !
 ! R5    R(4,5)                  1.5052         estimate D2E/DX2                !
 ! R6    R(4,9)                  1.3465         estimate D2E/DX2                !
 ! R7    R(5,6)                  1.0924         estimate D2E/DX2                !
 ! R8    R(5,7)                  1.0943         estimate D2E/DX2                !
 ! R9    R(5,8)                  1.0951         estimate D2E/DX2                !
 ! R10   R(9,10)                 1.0862         estimate D2E/DX2                !
 ! R11   R(9,11)                 1.4973         estimate D2E/DX2                !
 ! R12   R(11,12)                1.0918         estimate D2E/DX2                !
 ! R13   R(11,13)                1.0952         estimate D2E/DX2                !
 ! R14   R(11,14)                1.0947         estimate D2E/DX2                !
 ! R15   R(15,16)                1.0949         estimate D2E/DX2                !
 ! R16   R(15,17)                1.0965         estimate D2E/DX2                !
 ! R17   R(15,18)                1.0929         estimate D2E/DX2                !
 ! R18   R(15,19)                1.5052         estimate D2E/DX2                !
 ! R19   R(19,20)                1.5031         estimate D2E/DX2                !
 ! R20   R(19,24)                1.3481         estimate D2E/DX2                !
 ! R21   R(20,21)                1.0936         estimate D2E/DX2                !
 ! R22   R(20,22)                1.0944         estimate D2E/DX2                !
 ! R23   R(20,23)                1.0949         estimate D2E/DX2                !
 ! R24   R(24,25)                1.0898         estimate D2E/DX2                !
 ! R25   R(24,26)                1.5076         estimate D2E/DX2                !
 ! R26   R(26,27)                1.0978         estimate D2E/DX2                !
 ! R27   R(26,28)                1.0971         estimate D2E/DX2                !
 ! A1    A(2,1,3)              104.745          estimate D2E/DX2                !
 ! A2    A(2,1,4)              108.8518         estimate D2E/DX2                !
 ! A3    A(2,1,26)             106.7358         estimate D2E/DX2                !
 ! A4    A(3,1,4)              108.6649         estimate D2E/DX2                !
 ! A5    A(3,1,26)             110.7404         estimate D2E/DX2                !
 ! A6    A(4,1,26)             116.4394         estimate D2E/DX2                !
 ! A7    A(1,4,5)              115.2318         estimate D2E/DX2                !
 ! A8    A(1,4,9)              121.2099         estimate D2E/DX2                !
 ! A9    A(5,4,9)              123.4843         estimate D2E/DX2                !
 ! A10   A(4,5,6)              112.6823         estimate D2E/DX2                !
 ! A11   A(4,5,7)              110.9407         estimate D2E/DX2                !
 ! A12   A(4,5,8)              109.6775         estimate D2E/DX2                !
 ! A13   A(6,5,7)              106.4258         estimate D2E/DX2                !
 ! A14   A(6,5,8)              108.6484         estimate D2E/DX2                !
 ! A15   A(7,5,8)              108.3176         estimate D2E/DX2                !
 ! A16   A(4,9,10)             118.9224         estimate D2E/DX2                !
 ! A17   A(4,9,11)             128.3806         estimate D2E/DX2                !
 ! A18   A(10,9,11)            112.6831         estimate D2E/DX2                !
 ! A19   A(9,11,12)            113.6206         estimate D2E/DX2                !
 ! A20   A(9,11,13)            109.2921         estimate D2E/DX2                !
 ! A21   A(9,11,14)            109.7012         estimate D2E/DX2                !
 ! A22   A(12,11,13)           107.5155         estimate D2E/DX2                !
 ! A23   A(12,11,14)           108.5629         estimate D2E/DX2                !
 ! A24   A(13,11,14)           107.9827         estimate D2E/DX2                !
 ! A25   A(16,15,17)           107.4371         estimate D2E/DX2                !
 ! A26   A(16,15,18)           107.9714         estimate D2E/DX2                !
 ! A27   A(16,15,19)           112.2776         estimate D2E/DX2                !
 ! A28   A(17,15,18)           108.6299         estimate D2E/DX2                !
 ! A29   A(17,15,19)           109.7872         estimate D2E/DX2                !
 ! A30   A(18,15,19)           110.6145         estimate D2E/DX2                !
 ! A31   A(15,19,20)           114.8131         estimate D2E/DX2                !
 ! A32   A(15,19,24)           120.8339         estimate D2E/DX2                !
 ! A33   A(20,19,24)           124.308          estimate D2E/DX2                !
 ! A34   A(19,20,21)           112.5041         estimate D2E/DX2                !
 ! A35   A(19,20,22)           110.5286         estimate D2E/DX2                !
 ! A36   A(19,20,23)           110.0392         estimate D2E/DX2                !
 ! A37   A(21,20,22)           106.7823         estimate D2E/DX2                !
 ! A38   A(21,20,23)           108.5305         estimate D2E/DX2                !
 ! A39   A(22,20,23)           108.3118         estimate D2E/DX2                !
 ! A40   A(19,24,25)           118.6552         estimate D2E/DX2                !
 ! A41   A(19,24,26)           127.1107         estimate D2E/DX2                !
 ! A42   A(25,24,26)           114.0754         estimate D2E/DX2                !
 ! A43   A(1,26,24)            115.5925         estimate D2E/DX2                !
 ! A44   A(1,26,27)            108.9439         estimate D2E/DX2                !
 ! A45   A(1,26,28)            109.3194         estimate D2E/DX2                !
 ! A46   A(24,26,27)           108.2017         estimate D2E/DX2                !
 ! A47   A(24,26,28)           108.7449         estimate D2E/DX2                !
 ! A48   A(27,26,28)           105.5675         estimate D2E/DX2                !
 ! D1    D(2,1,4,5)             -3.4184         estimate D2E/DX2                !
 ! D2    D(2,1,4,9)            173.561          estimate D2E/DX2                !
 ! D3    D(3,1,4,5)           -116.9472         estimate D2E/DX2                !
 ! D4    D(3,1,4,9)             60.0322         estimate D2E/DX2                !
 ! D5    D(26,1,4,5)           117.2194         estimate D2E/DX2                !
 ! D6    D(26,1,4,9)           -65.8012         estimate D2E/DX2                !
 ! D7    D(2,1,26,24)         -171.4079         estimate D2E/DX2                !
 ! D8    D(2,1,26,27)           66.548          estimate D2E/DX2                !
 ! D9    D(2,1,26,28)          -48.3499         estimate D2E/DX2                !
 ! D10   D(3,1,26,24)          -57.9512         estimate D2E/DX2                !
 ! D11   D(3,1,26,27)         -179.9953         estimate D2E/DX2                !
 ! D12   D(3,1,26,28)           65.1068         estimate D2E/DX2                !
 ! D13   D(4,1,26,24)           66.8328         estimate D2E/DX2                !
 ! D14   D(4,1,26,27)          -55.2113         estimate D2E/DX2                !
 ! D15   D(4,1,26,28)         -170.1092         estimate D2E/DX2                !
 ! D16   D(1,4,5,6)           -156.4061         estimate D2E/DX2                !
 ! D17   D(1,4,5,7)            -37.191          estimate D2E/DX2                !
 ! D18   D(1,4,5,8)             82.428          estimate D2E/DX2                !
 ! D19   D(9,4,5,6)             26.6915         estimate D2E/DX2                !
 ! D20   D(9,4,5,7)            145.9067         estimate D2E/DX2                !
 ! D21   D(9,4,5,8)            -94.4744         estimate D2E/DX2                !
 ! D22   D(1,4,9,10)             0.7203         estimate D2E/DX2                !
 ! D23   D(1,4,9,11)          -177.813          estimate D2E/DX2                !
 ! D24   D(5,4,9,10)           177.4439         estimate D2E/DX2                !
 ! D25   D(5,4,9,11)            -1.0895         estimate D2E/DX2                !
 ! D26   D(4,9,11,12)            8.4406         estimate D2E/DX2                !
 ! D27   D(4,9,11,13)          128.5139         estimate D2E/DX2                !
 ! D28   D(4,9,11,14)         -113.2715         estimate D2E/DX2                !
 ! D29   D(10,9,11,12)        -170.168          estimate D2E/DX2                !
 ! D30   D(10,9,11,13)         -50.0948         estimate D2E/DX2                !
 ! D31   D(10,9,11,14)          68.1198         estimate D2E/DX2                !
 ! D32   D(16,15,19,20)       -178.8352         estimate D2E/DX2                !
 ! D33   D(16,15,19,24)         -1.1749         estimate D2E/DX2                !
 ! D34   D(17,15,19,20)        -59.3935         estimate D2E/DX2                !
 ! D35   D(17,15,19,24)        118.2668         estimate D2E/DX2                !
 ! D36   D(18,15,19,20)         60.478          estimate D2E/DX2                !
 ! D37   D(18,15,19,24)       -121.8617         estimate D2E/DX2                !
 ! D38   D(15,19,20,21)       -161.6731         estimate D2E/DX2                !
 ! D39   D(15,19,20,22)        -42.4071         estimate D2E/DX2                !
 ! D40   D(15,19,20,23)         77.1765         estimate D2E/DX2                !
 ! D41   D(24,19,20,21)         20.7592         estimate D2E/DX2                !
 ! D42   D(24,19,20,22)        140.0251         estimate D2E/DX2                !
 ! D43   D(24,19,20,23)       -100.3913         estimate D2E/DX2                !
 ! D44   D(15,19,24,25)          2.2548         estimate D2E/DX2                !
 ! D45   D(15,19,24,26)       -172.875          estimate D2E/DX2                !
 ! D46   D(20,19,24,25)        179.6836         estimate D2E/DX2                !
 ! D47   D(20,19,24,26)          4.5538         estimate D2E/DX2                !
 ! D48   D(19,24,26,1)          63.558          estimate D2E/DX2                !
 ! D49   D(19,24,26,27)       -174.0025         estimate D2E/DX2                !
 ! D50   D(19,24,26,28)        -59.8028         estimate D2E/DX2                !
 ! D51   D(25,24,26,1)        -111.7616         estimate D2E/DX2                !
 ! D52   D(25,24,26,27)         10.6779         estimate D2E/DX2                !
 ! D53   D(25,24,26,28)        124.8776         estimate D2E/DX2                !
 --------------------------------------------------------------------------------
 Trust Radius=3.00D-01 FncErr=1.00D-07 GrdErr=1.00D-07 EigMax=2.50D+02 EigMin=1.00D-04
 Number of steps in this run=    138 maximum allowed number of steps=    168.
 GradGradGradGradGradGradGradGradGradGradGradGradGradGradGradGradGradGrad

 Leave Link  103 at Fri Sep 17 20:09:28 2021, MaxMem=   524288000 cpu:               0.0 elap:               0.0
 (Enter /opt/gaussian/g16_legacy/l202.exe)
                          Input orientation:                          
 ---------------------------------------------------------------------
 Center     Atomic      Atomic             Coordinates (Angstroms)
 Number     Number       Type             X           Y           Z
 ---------------------------------------------------------------------
      1          6           0        2.278700    1.196700   -8.923500
      2          1           0        1.928600    0.180900   -9.152200
      3          1           0        2.202700    1.738200   -9.872900
      4          6           0        3.744200    1.131800   -8.515500
      5          6           0        4.328700   -0.253300   -8.440700
      6          1           0        5.197000   -0.309000   -7.780200
      7          1           0        3.596300   -0.966300   -8.049800
      8          1           0        4.628400   -0.581600   -9.441500
      9          6           0        4.460100    2.252600   -8.304800
     10          1           0        3.972600    3.216500   -8.418800
     11          6           0        5.908500    2.376900   -7.946200
     12          1           0        6.453600    1.432100   -7.993800
     13          1           0        6.394200    3.072900   -8.638400
     14          1           0        6.004600    2.784100   -6.934600
     15          6           0        1.679900    5.681200   -8.006400
     16          1           0        2.047800    5.727000   -6.976200
     17          1           0        2.475000    6.065000   -8.656600
     18          1           0        0.814300    6.343700   -8.085100
     19          6           0        1.314800    4.280800   -8.420200
     20          6           0        0.827900    4.148100   -9.836100
     21          1           0        0.281400    3.216000  -10.005200
     22          1           0        0.143600    4.965200  -10.084800
     23          1           0        1.674700    4.185600  -10.529100
     24          6           0        1.474600    3.245700   -7.571500
     25          1           0        1.839200    3.447100   -6.564400
     26          6           0        1.299400    1.780600   -7.880600
     27          1           0        1.399800    1.218000   -6.943300
     28          1           0        0.268600    1.611900   -8.216300
 ---------------------------------------------------------------------
                    Distance matrix (angstroms):
                    1          2          3          4          5
     1  C    0.000000
     2  H    1.098510   0.000000
     3  H    1.095609   1.737735   0.000000
     4  C    1.522618   2.146160   2.141606   0.000000
     5  C    2.556970   2.540717   3.246097   1.505237   0.000000
     6  H    3.477174   3.578383   4.187631   2.174212   1.092386
     7  H    2.679177   2.304903   3.546849   2.154246   1.094341
     8  H    2.991950   2.820287   3.384021   2.138931   1.095081
     9  C    2.501244   3.379130   2.796319   1.346514   2.513020
    10  H    2.683954   3.732382   2.726229   2.099403   3.488094
    11  C    3.939979   4.702814   4.225289   2.560971   3.107773
    12  H    4.283637   4.835599   4.657775   2.775464   2.748726
    13  H    4.531970   5.345020   4.568817   3.287168   3.920329
    14  H    4.511972   5.320543   4.917515   3.215392   3.781901
    15  C    4.616316   5.623879   4.393676   5.021709   6.513298
    16  H    4.936488   5.958893   4.932078   5.134499   6.565916
    17  H    4.879561   5.930161   4.502747   5.095806   6.588151
    18  H    5.416548   6.352989   5.131716   5.994452   7.483172
    19  C    3.270181   4.209721   3.059987   3.978350   5.444454
    20  C    3.412978   4.173480   2.774716   4.398506   5.794399
    21  H    3.039219   3.557065   2.427507   4.307445   5.555568
    22  H    4.484291   5.190905   3.833839   5.488349   6.888459
    23  H    3.446199   4.242398   2.588271   4.202750   5.577541
    24  C    2.583192   3.478179   2.845897   3.242035   4.598304
    25  H    3.289804   4.168065   3.741476   3.577210   4.838499
    26  C    1.545189   2.138200   2.187923   2.607889   3.691493
    27  H    2.166590   2.496887   3.081852   2.824085   3.603524
    28  H    2.170950   2.383122   2.549709   3.521337   4.473672
                    6          7          8          9         10
     6  H    0.000000
     7  H    1.751276   0.000000
     8  H    1.776945   1.774839   0.000000
     9  C    2.716619   3.342528   3.058284   0.000000
    10  H    3.786306   4.215872   3.987675   1.086165   0.000000
    11  C    2.783495   4.066201   3.553491   1.497300   2.162403
    12  H    2.157799   3.730901   3.079315   2.178069   3.085461
    13  H    3.688773   4.948720   4.137438   2.127187   2.435773
    14  H    3.306739   4.594462   4.416606   2.131999   2.553203
    15  C    6.950083   6.918362   7.069358   4.424235   3.391356
    16  H    6.855448   6.953469   7.248147   4.433489   3.476861
    17  H    6.986075   7.145957   7.030682   4.312630   3.226966
    18  H    7.972417   7.821564   8.021656   5.484271   4.457084
    19  C    6.045440   5.733629   5.972096   3.744306   2.862977
    20  C    6.571263   6.083748   6.080261   4.373863   3.572920
    21  H    6.445105   5.683642   5.799649   4.613137   4.017664
    22  H    7.659322   7.158565   7.162001   5.399886   4.527113
    23  H    6.337545   6.031712   5.712566   4.054929   3.266935
    24  C    5.151282   4.740393   5.300149   3.230664   2.637949
    25  H    5.182787   4.977139   5.682232   3.365255   2.836084
    26  C    4.423550   3.584667   4.370199   3.223779   3.081796
    27  H    4.177422   3.289395   4.461325   3.505641   3.576367
    28  H    5.307463   4.212888   5.031939   4.241108   4.041703
                   11         12         13         14         15
    11  C    0.000000
    12  H    1.091809   0.000000
    13  H    1.095199   1.763877   0.000000
    14  H    1.094706   1.775221   1.771476   0.000000
    15  C    5.366850   6.390870   5.424691   5.314600   0.000000
    16  H    5.202795   6.236405   5.357084   4.931395   1.094879
    17  H    5.088779   6.142664   4.930834   5.117388   1.096470
    18  H    6.457993   7.478894   6.491499   6.397938   1.092869
    19  C    4.995157   5.891025   5.225604   5.142115   1.505207
    20  C    5.702751   6.513004   5.794328   6.089123   2.534581
    21  H    6.050440   6.732316   6.265377   6.509235   3.468172
    22  H    6.671355   7.528026   6.689011   7.002305   2.681906
    23  H    5.278999   6.070205   5.204472   5.799368   2.932723
    24  C    4.533727   5.315818   5.036924   4.597784   2.482528
    25  H    4.428758   5.234128   5.018917   4.234049   2.663821
    26  C    4.647976   5.167209   5.310488   4.903145   3.921133
    27  H    4.762062   5.166264   5.590890   4.863839   4.596607
    28  H    5.697951   6.191612   6.311550   5.993205   4.312195
                   16         17         18         19         20
    16  H    0.000000
    17  H    1.766490   0.000000
    18  H    1.769605   1.778261   0.000000
    19  C    2.171156   2.141336   2.149034   0.000000
    20  C    3.487135   2.789026   2.808353   1.503148   0.000000
    21  H    4.312787   3.840235   3.708541   2.171161   1.093649
    22  H    3.724206   2.946989   2.519703   2.147325   1.094427
    23  H    3.890786   2.771079   3.372065   2.141507   1.094863
    24  C    2.615299   3.182247   3.208954   1.348058   2.522094
    25  H    2.326164   3.411003   3.428300   2.100963   3.495447
    26  C    4.117295   4.510022   4.593367   2.557813   3.106662
    27  H    4.555444   5.252129   5.283873   3.401353   4.157024
    28  H    4.651607   4.989205   4.764969   2.873871   3.060862
                   21         22         23         24         25
    21  H    0.000000
    22  H    1.756424   0.000000
    23  H    1.776480   1.774668   0.000000
    24  C    2.710628   3.323390   3.109799   0.000000
    25  H    3.784079   4.192005   4.036247   1.089837   0.000000
    26  C    2.758736   4.041788   3.597142   1.507566   2.191116
    27  H    3.823356   5.048620   4.662637   2.124099   2.303372
    28  H    2.402803   3.840773   3.734982   2.130612   2.926349
                   26         27         28
    26  C    0.000000
    27  H    1.097784   0.000000
    28  H    1.097134   1.747942   0.000000
 Stoichiometry    C10H18
 Framework group  C1[X(C10H18)]
 Deg. of freedom    78
 Full point group                 C1      NOp   1
 Largest Abelian subgroup         C1      NOp   1
 Largest concise Abelian subgroup C1      NOp   1
                         Standard orientation:                         
 ---------------------------------------------------------------------
 Center     Atomic      Atomic             Coordinates (Angstroms)
 Number     Number       Type             X           Y           Z
 ---------------------------------------------------------------------
      1          6           0       -0.657872   -1.392438    0.291707
      2          1           0       -1.143618   -2.375554    0.356965
      3          1           0       -0.158993   -1.263170    1.258541
      4          6           0       -1.731197   -0.321777    0.150194
      5          6           0       -3.142187   -0.836746    0.051949
      6          1           0       -3.814171   -0.132305   -0.443538
      7          1           0       -3.180938   -1.762806   -0.529852
      8          1           0       -3.529766   -1.043970    1.054966
      9          6           0       -1.418549    0.987634    0.178355
     10          1           0       -0.377879    1.276872    0.292827
     11          6           0       -2.339888    2.165297    0.099931
     12          1           0       -3.397035    1.898167    0.155861
     13          1           0       -2.127690    2.846676    0.930688
     14          1           0       -2.166529    2.707875   -0.834915
     15          6           0        2.959780    1.415060   -0.292180
     16          1           0        2.683369    1.907351   -1.230266
     17          1           0        2.730912    2.110757    0.523830
     18          1           0        4.038257    1.239063   -0.308761
     19          6           0        2.215178    0.123503   -0.084578
     20          6           0        2.531551   -0.587323    1.201536
     21          1           0        2.237742   -1.640565    1.180924
     22          1           0        3.607818   -0.563288    1.398621
     23          1           0        2.018012   -0.099094    2.036183
     24          6           0        1.305849   -0.302096   -0.984159
     25          1           0        1.146081    0.289221   -1.885581
     26          6           0        0.378346   -1.483090   -0.850940
     27          1           0       -0.151893   -1.611845   -1.803515
     28          1           0        0.980251   -2.391532   -0.723867
 ---------------------------------------------------------------------
 Rotational constants (GHZ):           1.8534804           0.7318002           0.6026848
 Leave Link  202 at Fri Sep 17 20:09:28 2021, MaxMem=   524288000 cpu:               0.1 elap:               0.2
 (Enter /opt/gaussian/g16_legacy/l301.exe)
 Standard basis: 6-31G(d,p) (6D, 7F)
 Ernie: Thresh=  0.10000D-02 Tol=  0.10000D-05 Strict=F.
 There are   240 symmetry adapted cartesian basis functions of A   symmetry.
 There are   240 symmetry adapted basis functions of A   symmetry.
   240 basis functions,   406 primitive gaussians,   240 cartesian basis functions
    39 alpha electrons       39 beta electrons
       nuclear repulsion energy       529.7652290032 Hartrees.
 IExCor=    0 DFT=F Ex=HF Corr=None ExCW=0 ScaHFX=  1.000000
 ScaDFX=  1.000000  1.000000  1.000000  1.000000 ScalE2=  1.000000  1.000000
 IRadAn=      5 IRanWt=     -1 IRanGd=            0 ICorTp=0 IEmpDi=  4
 NAtoms=   28 NActive=   28 NUniq=   28 SFac= 1.00D+00 NAtFMM=   60 NAOKFM=F Big=F
 Integral buffers will be    131072 words long.
 Raffenetti 1 integral format.
 Two-electron integral symmetry is turned on.
 Leave Link  301 at Fri Sep 17 20:09:29 2021, MaxMem=   524288000 cpu:               0.1 elap:               0.3
 (Enter /opt/gaussian/g16_legacy/l302.exe)
 NPDir=0 NMtPBC=     1 NCelOv=     1 NCel=       1 NClECP=     1 NCelD=      1
         NCelK=      1 NCelE2=     1 NClLst=     1 CellRange=     0.0.
 One-electron integrals computed using PRISM.
 One-electron integral symmetry used in STVInt
 NBasis=   240 RedAO= T EigKep=  2.39D-03  NBF=   240
 NBsUse=   240 1.00D-06 EigRej= -1.00D+00 NBFU=   240
 Leave Link  302 at Fri Sep 17 20:09:30 2021, MaxMem=   524288000 cpu:               0.3 elap:               0.7
 (Enter /opt/gaussian/g16_legacy/l303.exe)
 DipDrv:  MaxL=1.
 Leave Link  303 at Fri Sep 17 20:09:30 2021, MaxMem=   524288000 cpu:               0.1 elap:               0.3
 (Enter /opt/gaussian/g16_legacy/l401.exe)
 ExpMin= 1.61D-01 ExpMax= 3.05D+03 ExpMxC= 4.57D+02 IAcc=3 IRadAn=         5 AccDes= 0.00D+00
 Harris functional with IExCor=  205 and IRadAn=       5 diagonalized for initial guess.
 HarFok:  IExCor=  205 AccDes= 0.00D+00 IRadAn=         5 IDoV= 1 UseB2=F ITyADJ=14
 ICtDFT=  3500011 ScaDFX=  1.000000  1.000000  1.000000  1.000000
 FoFCou: FMM=F IPFlag=           0 FMFlag=      100000 FMFlg1=           0
         NFxFlg=           0 DoJE=T BraDBF=F KetDBF=T FulRan=T
         wScrn=  0.000000 ICntrl=       500 IOpCl=  0 I1Cent=   200000004 NGrid=           0
         NMat0=    1 NMatS0=      1 NMatT0=    0 NMatD0=    1 NMtDS0=    0 NMtDT0=    0
 Petite list used in FoFCou.
 Harris En= -390.104094131856    
 JPrj=0 DoOrth=F DoCkMO=F.
 Leave Link  401 at Fri Sep 17 20:09:42 2021, MaxMem=   524288000 cpu:              11.4 elap:              11.8
 (Enter /opt/gaussian/g16_legacy/l502.exe)
 Keep R1 ints in memory in canonical form, NReq=425198025.
 FoFCou: FMM=F IPFlag=           0 FMFlag=           0 FMFlg1=           0
         NFxFlg=           0 DoJE=F BraDBF=F KetDBF=F FulRan=T
         wScrn=  0.000000 ICntrl=       600 IOpCl=  0 I1Cent=           0 NGrid=           0
         NMat0=    1 NMatS0=  28920 NMatT0=    0 NMatD0=    1 NMtDS0=    0 NMtDT0=    0
 Symmetry not used in FoFCou.
 Two-electron integral symmetry not used.
 Closed shell SCF:
 Using DIIS extrapolation, IDIIS=  1040.
 NGot=   524288000 LenX=   105970886 LenY=   105912845
 Requested convergence on RMS density matrix=1.00D-08 within 128 cycles.
 Requested convergence on MAX density matrix=1.00D-06.
 Requested convergence on             energy=1.00D-06.
 No special actions if energy rises.

 Cycle   1  Pass 1  IDiag  1:
 E= -388.521925302105    
 DIIS: error= 4.70D-02 at cycle   1 NSaved=   1.
 NSaved= 1 IEnMin= 1 EnMin= -388.521925302105     IErMin= 1 ErrMin= 4.70D-02
 ErrMax= 4.70D-02  0.00D+00 EMaxC= 1.00D-01 BMatC= 8.09D-01 BMatP= 8.09D-01
 IDIUse=3 WtCom= 5.30D-01 WtEn= 4.70D-01
 Coeff-Com:  0.100D+01
 Coeff-En:   0.100D+01
 Coeff:      0.100D+01
 Gap=     0.495 Goal=   None    Shift=    0.000
 GapD=    0.495 DampG=2.000 DampE=0.500 DampFc=1.0000 IDamp=-1.
 RMSDP=4.05D-03 MaxDP=1.15D-01              OVMax= 1.37D-01

 Cycle   2  Pass 1  IDiag  1:
 E= -389.059772345256     Delta-E=       -0.537847043151 Rises=F Damp=F
 DIIS: error= 1.39D-02 at cycle   2 NSaved=   2.
 NSaved= 2 IEnMin= 2 EnMin= -389.059772345256     IErMin= 2 ErrMin= 1.39D-02
 ErrMax= 1.39D-02  0.00D+00 EMaxC= 1.00D-01 BMatC= 9.00D-02 BMatP= 8.09D-01
 IDIUse=3 WtCom= 8.61D-01 WtEn= 1.39D-01
 Coeff-Com:  0.187D+00 0.813D+00
 Coeff-En:   0.000D+00 0.100D+01
 Coeff:      0.161D+00 0.839D+00
 Gap=     0.552 Goal=   None    Shift=    0.000
 RMSDP=1.76D-03 MaxDP=3.44D-02 DE=-5.38D-01 OVMax= 4.62D-02

 Cycle   3  Pass 1  IDiag  1:
 E= -389.140791043508     Delta-E=       -0.081018698252 Rises=F Damp=F
 DIIS: error= 2.72D-03 at cycle   3 NSaved=   3.
 NSaved= 3 IEnMin= 3 EnMin= -389.140791043508     IErMin= 3 ErrMin= 2.72D-03
 ErrMax= 2.72D-03  0.00D+00 EMaxC= 1.00D-01 BMatC= 3.25D-03 BMatP= 9.00D-02
 IDIUse=3 WtCom= 9.73D-01 WtEn= 2.72D-02
 Coeff-Com: -0.246D-01 0.106D+00 0.918D+00
 Coeff-En:   0.000D+00 0.000D+00 0.100D+01
 Coeff:     -0.239D-01 0.103D+00 0.921D+00
 Gap=     0.489 Goal=   None    Shift=    0.000
 RMSDP=2.67D-04 MaxDP=5.64D-03 DE=-8.10D-02 OVMax= 1.04D-02

 Cycle   4  Pass 1  IDiag  1:
 E= -389.144580713965     Delta-E=       -0.003789670457 Rises=F Damp=F
 DIIS: error= 4.91D-04 at cycle   4 NSaved=   4.
 NSaved= 4 IEnMin= 4 EnMin= -389.144580713965     IErMin= 4 ErrMin= 4.91D-04
 ErrMax= 4.91D-04  0.00D+00 EMaxC= 1.00D-01 BMatC= 7.52D-05 BMatP= 3.25D-03
 IDIUse=3 WtCom= 9.95D-01 WtEn= 4.91D-03
 Coeff-Com: -0.293D-02-0.788D-02 0.432D-01 0.968D+00
 Coeff-En:   0.000D+00 0.000D+00 0.000D+00 0.100D+01
 Coeff:     -0.292D-02-0.784D-02 0.430D-01 0.968D+00
 Gap=     0.490 Goal=   None    Shift=    0.000
 RMSDP=8.27D-05 MaxDP=1.85D-03 DE=-3.79D-03 OVMax= 2.35D-03

 Cycle   5  Pass 1  IDiag  1:
 E= -389.144697914868     Delta-E=       -0.000117200903 Rises=F Damp=F
 DIIS: error= 1.39D-04 at cycle   5 NSaved=   5.
 NSaved= 5 IEnMin= 5 EnMin= -389.144697914868     IErMin= 5 ErrMin= 1.39D-04
 ErrMax= 1.39D-04  0.00D+00 EMaxC= 1.00D-01 BMatC= 1.10D-05 BMatP= 7.52D-05
 IDIUse=3 WtCom= 9.99D-01 WtEn= 1.39D-03
 Coeff-Com:  0.226D-02-0.134D-01-0.916D-01 0.130D+00 0.973D+00
 Coeff-En:   0.000D+00 0.000D+00 0.000D+00 0.000D+00 0.100D+01
 Coeff:      0.226D-02-0.134D-01-0.914D-01 0.130D+00 0.973D+00
 Gap=     0.490 Goal=   None    Shift=    0.000
 RMSDP=2.70D-05 MaxDP=4.60D-04 DE=-1.17D-04 OVMax= 9.40D-04

 Cycle   6  Pass 1  IDiag  1:
 E= -389.144714722662     Delta-E=       -0.000016807794 Rises=F Damp=F
 DIIS: error= 4.15D-05 at cycle   6 NSaved=   6.
 NSaved= 6 IEnMin= 6 EnMin= -389.144714722662     IErMin= 6 ErrMin= 4.15D-05
 ErrMax= 4.15D-05  0.00D+00 EMaxC= 1.00D-01 BMatC= 4.05D-07 BMatP= 1.10D-05
 IDIUse=1 WtCom= 1.00D+00 WtEn= 0.00D+00
 Coeff-Com:  0.488D-03-0.200D-02-0.163D-01-0.221D-01 0.134D+00 0.906D+00
 Coeff:      0.488D-03-0.200D-02-0.163D-01-0.221D-01 0.134D+00 0.906D+00
 Gap=     0.490 Goal=   None    Shift=    0.000
 RMSDP=5.32D-06 MaxDP=1.93D-04 DE=-1.68D-05 OVMax= 4.17D-04

 Cycle   7  Pass 1  IDiag  1:
 E= -389.144715506885     Delta-E=       -0.000000784223 Rises=F Damp=F
 DIIS: error= 1.70D-05 at cycle   7 NSaved=   7.
 NSaved= 7 IEnMin= 7 EnMin= -389.144715506885     IErMin= 7 ErrMin= 1.70D-05
 ErrMax= 1.70D-05  0.00D+00 EMaxC= 1.00D-01 BMatC= 7.27D-08 BMatP= 4.05D-07
 IDIUse=1 WtCom= 1.00D+00 WtEn= 0.00D+00
 Coeff-Com: -0.592D-04 0.507D-03 0.336D-02-0.119D-01-0.522D-01 0.195D+00
 Coeff-Com:  0.865D+00
 Coeff:     -0.592D-04 0.507D-03 0.336D-02-0.119D-01-0.522D-01 0.195D+00
 Coeff:      0.865D+00
 Gap=     0.490 Goal=   None    Shift=    0.000
 RMSDP=1.91D-06 MaxDP=6.08D-05 DE=-7.84D-07 OVMax= 1.44D-04

 Cycle   8  Pass 1  IDiag  1:
 E= -389.144715636653     Delta-E=       -0.000000129769 Rises=F Damp=F
 DIIS: error= 5.66D-06 at cycle   8 NSaved=   8.
 NSaved= 8 IEnMin= 8 EnMin= -389.144715636653     IErMin= 8 ErrMin= 5.66D-06
 ErrMax= 5.66D-06  0.00D+00 EMaxC= 1.00D-01 BMatC= 9.45D-09 BMatP= 7.27D-08
 IDIUse=1 WtCom= 1.00D+00 WtEn= 0.00D+00
 Coeff-Com: -0.806D-04 0.328D-03 0.279D-02 0.532D-02-0.277D-01-0.139D+00
 Coeff-Com: -0.702D-01 0.123D+01
 Coeff:     -0.806D-04 0.328D-03 0.279D-02 0.532D-02-0.277D-01-0.139D+00
 Coeff:     -0.702D-01 0.123D+01
 Gap=     0.490 Goal=   None    Shift=    0.000
 RMSDP=1.19D-06 MaxDP=4.19D-05 DE=-1.30D-07 OVMax= 1.10D-04

 Cycle   9  Pass 1  IDiag  1:
 E= -389.144715673157     Delta-E=       -0.000000036504 Rises=F Damp=F
 DIIS: error= 1.96D-06 at cycle   9 NSaved=   9.
 NSaved= 9 IEnMin= 9 EnMin= -389.144715673157     IErMin= 9 ErrMin= 1.96D-06
 ErrMax= 1.96D-06  0.00D+00 EMaxC= 1.00D-01 BMatC= 1.34D-09 BMatP= 9.45D-09
 IDIUse=1 WtCom= 1.00D+00 WtEn= 0.00D+00
 Coeff-Com:  0.126D-04-0.918D-04-0.656D-03 0.166D-02 0.742D-02-0.770D-02
 Coeff-Com: -0.134D+00-0.736D-01 0.121D+01
 Coeff:      0.126D-04-0.918D-04-0.656D-03 0.166D-02 0.742D-02-0.770D-02
 Coeff:     -0.134D+00-0.736D-01 0.121D+01
 Gap=     0.490 Goal=   None    Shift=    0.000
 RMSDP=4.65D-07 MaxDP=1.14D-05 DE=-3.65D-08 OVMax= 4.45D-05

 Cycle  10  Pass 1  IDiag  1:
 E= -389.144715677883     Delta-E=       -0.000000004726 Rises=F Damp=F
 DIIS: error= 4.14D-07 at cycle  10 NSaved=  10.
 NSaved=10 IEnMin=10 EnMin= -389.144715677883     IErMin=10 ErrMin= 4.14D-07
 ErrMax= 4.14D-07  0.00D+00 EMaxC= 1.00D-01 BMatC= 9.77D-11 BMatP= 1.34D-09
 IDIUse=1 WtCom= 1.00D+00 WtEn= 0.00D+00
 Coeff-Com:  0.965D-05-0.430D-04-0.356D-03-0.465D-03 0.318D-02 0.178D-01
 Coeff-Com: -0.126D-02-0.139D+00 0.299D-01 0.109D+01
 Coeff:      0.965D-05-0.430D-04-0.356D-03-0.465D-03 0.318D-02 0.178D-01
 Coeff:     -0.126D-02-0.139D+00 0.299D-01 0.109D+01
 Gap=     0.490 Goal=   None    Shift=    0.000
 RMSDP=1.30D-07 MaxDP=4.03D-06 DE=-4.73D-09 OVMax= 1.04D-05

 Cycle  11  Pass 1  IDiag  1:
 E= -389.144715678195     Delta-E=       -0.000000000313 Rises=F Damp=F
 DIIS: error= 1.18D-07 at cycle  11 NSaved=  11.
 NSaved=11 IEnMin=11 EnMin= -389.144715678195     IErMin=11 ErrMin= 1.18D-07
 ErrMax= 1.18D-07  0.00D+00 EMaxC= 1.00D-01 BMatC= 6.05D-12 BMatP= 9.77D-11
 IDIUse=1 WtCom= 1.00D+00 WtEn= 0.00D+00
 Coeff-Com: -0.174D-06 0.332D-05 0.220D-04-0.124D-03-0.386D-03 0.178D-02
 Coeff-Com:  0.833D-02 0.582D-03-0.786D-01 0.671D-01 0.100D+01
 Coeff:     -0.174D-06 0.332D-05 0.220D-04-0.124D-03-0.386D-03 0.178D-02
 Coeff:      0.833D-02 0.582D-03-0.786D-01 0.671D-01 0.100D+01
 Gap=     0.490 Goal=   None    Shift=    0.000
 RMSDP=2.26D-08 MaxDP=5.40D-07 DE=-3.13D-10 OVMax= 1.57D-06

 Cycle  12  Pass 1  IDiag  1:
 E= -389.144715678204     Delta-E=       -0.000000000009 Rises=F Damp=F
 DIIS: error= 3.43D-08 at cycle  12 NSaved=  12.
 NSaved=12 IEnMin=12 EnMin= -389.144715678204     IErMin=12 ErrMin= 3.43D-08
 ErrMax= 3.43D-08  0.00D+00 EMaxC= 1.00D-01 BMatC= 7.89D-13 BMatP= 6.05D-12
 IDIUse=1 WtCom= 1.00D+00 WtEn= 0.00D+00
 Coeff-Com: -0.892D-06 0.451D-05 0.361D-04 0.243D-04-0.361D-03-0.144D-02
 Coeff-Com:  0.975D-03 0.122D-01-0.170D-01-0.971D-01 0.131D+00 0.972D+00
 Coeff:     -0.892D-06 0.451D-05 0.361D-04 0.243D-04-0.361D-03-0.144D-02
 Coeff:      0.975D-03 0.122D-01-0.170D-01-0.971D-01 0.131D+00 0.972D+00
 Gap=     0.490 Goal=   None    Shift=    0.000
 RMSDP=9.79D-09 MaxDP=2.78D-07 DE=-8.75D-12 OVMax= 6.08D-07

 SCF Done:  E(RHF) =  -389.144715678     A.U. after   12 cycles
            NFock= 12  Conv=0.98D-08     -V/T= 2.0013
 KE= 3.886283274338D+02 PE=-1.964308807554D+03 EE= 6.567705354391D+02
 Leave Link  502 at Fri Sep 17 20:10:19 2021, MaxMem=   524288000 cpu:              36.7 elap:              36.9
 (Enter /opt/gaussian/g16_legacy/l801.exe)
 ExpMin= 1.61D-01 ExpMax= 3.05D+03 ExpMxC= 4.57D+02 IAcc=3 IRadAn=         5 AccDes= 0.00D+00
 HarFok:  IExCor=  205 AccDes= 0.00D+00 IRadAn=         5 IDoV=-2 UseB2=F ITyADJ=14
 ICtDFT= 12500011 ScaDFX=  1.000000  1.000000  1.000000  1.000000
 Largest valence mixing into a core orbital is  1.96D-04
 Largest core mixing into a valence orbital is  3.54D-05
 Range of M.O.s used for correlation:    11   240
 NBasis=   240 NAE=    39 NBE=    39 NFC=    10 NFV=     0
 NROrb=    230 NOA=    29 NOB=    29 NVA=   201 NVB=   201
 Leave Link  801 at Fri Sep 17 20:10:20 2021, MaxMem=   524288000 cpu:               1.7 elap:               1.7
 (Enter /opt/gaussian/g16_legacy/l906.exe)
 Frozen-core derivative calculation, NFC=  10 NFV=   0.
 FulOut=F Deriv=T AODrv=T NAtomX=    28
   MMem=          86  MDisk=          29 MDiskD=          29
  W3Min=     2246400 MinDsk=     2795480 NBas6D=         240
 NBas2D=       29244    NTT=       28920    LW2=     2040000
    MDV=   523620102 MDiskM=       30186 NBas2p=       24989
 Fully direct method using O(ONN) memory.
 IMap=   1   2   3   4   5   6   7   8   9  10  11  12  13  14  15  16  17  18  19  20
 IMap=  21  22  23  24  25  26  27  28  29  30  31  32  33  34  35  36  37  38  39
 JobTyp=1 Pass  1:  I=  11 to  39 NPSUse=  1 ParTrn=F ParDer=F DoDerP=T.
 Spin components of T(2) and E(2):
     alpha-alpha T2 =       0.5739419714D-01 E2=     -0.1642972777D+00
     alpha-beta  T2 =       0.3630651987D+00 E2=     -0.1091382509D+01
     beta-beta   T2 =       0.5739419714D-01 E2=     -0.1642972777D+00
 The integrals were generated   1 times.
 ANorm=    0.1215670018D+01
 E2 =    -0.1419977064D+01 EUMP2 =    -0.39056469274233D+03
 Leave Link  906 at Fri Sep 17 20:15:09 2021, MaxMem=   524288000 cpu:             288.7 elap:             288.8
 (Enter /opt/gaussian/g16_legacy/l1002.exe)
 Minotr:  Closed shell wavefunction.
          Computing MP2/KS-MP2 derivatives.
          Using Z-Vector for PSCF gradient.
          Skipping F1 and S1 gradient terms here.
          IDoAtm=1111111111111111111111111111
          Frozen-core window.
          Direct CPHF calculation.
          Differentiating once with respect to electric field.
                with respect to dipole field.
          Differentiating once with respect to nuclear coordinates.
          Requested convergence is 1.0D-10 RMS, and 1.0D-09 maximum.
          NewPWx=F KeepS1=T KeepF1=T KeepIn=T MapXYZ=F SortEE=F KeepMc=T.
 Keep R1 ints in memory in canonical form, NReq=425201067.
 FoFCou: FMM=F IPFlag=           0 FMFlag=           0 FMFlg1=           0
         NFxFlg=           0 DoJE=F BraDBF=F KetDBF=F FulRan=T
         wScrn=  0.000000 ICntrl=       600 IOpCl=  0 I1Cent=           0 NGrid=           0
         NMat0=    1 NMatS0=  28920 NMatT0=    0 NMatD0=    1 NMtDS0=    0 NMtDT0=    0
 Symmetry not used in FoFCou.
 Two-electron integral symmetry not used.
          MDV=     524288000 using IRadAn=       5.
          Solving linear equations separately, MaxMat=       0.
          There are     1 degrees of freedom in the 1st order CPHF.  IDoFFX=0 NUNeed=     1.
 LinEq1:  Iter=  0 NonCon=     1 RMS=2.53D-03 Max=2.89D-02 NDo=     1
 AX will form     1 AO Fock derivatives at one time.
 LinEq1:  Iter=  1 NonCon=     1 RMS=6.90D-04 Max=1.07D-02 NDo=     1
 LinEq1:  Iter=  2 NonCon=     1 RMS=1.62D-04 Max=3.50D-03 NDo=     1
 LinEq1:  Iter=  3 NonCon=     1 RMS=3.86D-05 Max=5.99D-04 NDo=     1
 LinEq1:  Iter=  4 NonCon=     1 RMS=1.63D-05 Max=6.89D-04 NDo=     1
 LinEq1:  Iter=  5 NonCon=     1 RMS=4.48D-06 Max=7.36D-05 NDo=     1
 LinEq1:  Iter=  6 NonCon=     1 RMS=1.61D-06 Max=3.79D-05 NDo=     1
 LinEq1:  Iter=  7 NonCon=     1 RMS=4.62D-07 Max=7.00D-06 NDo=     1
 LinEq1:  Iter=  8 NonCon=     1 RMS=1.12D-07 Max=1.47D-06 NDo=     1
 LinEq1:  Iter=  9 NonCon=     1 RMS=2.39D-08 Max=3.36D-07 NDo=     1
 LinEq1:  Iter= 10 NonCon=     1 RMS=7.23D-09 Max=1.69D-07 NDo=     1
 LinEq1:  Iter= 11 NonCon=     1 RMS=2.21D-09 Max=4.06D-08 NDo=     1
 LinEq1:  Iter= 12 NonCon=     1 RMS=9.09D-10 Max=3.61D-08 NDo=     1
 LinEq1:  Iter= 13 NonCon=     1 RMS=2.84D-10 Max=4.54D-09 NDo=     1
 LinEq1:  Iter= 14 NonCon=     1 RMS=8.66D-11 Max=2.08D-09 NDo=     1
 LinEq1:  Iter= 15 NonCon=     0 RMS=2.25D-11 Max=2.61D-10 NDo=     1
 Linear equations converged to 1.000D-10 1.000D-09 after    15 iterations.
 End of Minotr F.D. properties file   721 does not exist.
 End of Minotr F.D. properties file   722 does not exist.
 End of Minotr F.D. properties file   788 does not exist.
 Leave Link 1002 at Fri Sep 17 20:15:46 2021, MaxMem=   524288000 cpu:              36.5 elap:              36.6
 (Enter /opt/gaussian/g16_legacy/l601.exe)
 Copying SCF densities to generalized density rwf, IOpCl= 0 IROHF=0.

 **********************************************************************

            Population analysis using the SCF density.

 **********************************************************************

 Orbital symmetries:
       Occupied  (A) (A) (A) (A) (A) (A) (A) (A) (A) (A) (A) (A)
                 (A) (A) (A) (A) (A) (A) (A) (A) (A) (A) (A) (A)
                 (A) (A) (A) (A) (A) (A) (A) (A) (A) (A) (A) (A)
                 (A) (A) (A)
       Virtual   (A) (A) (A) (A) (A) (A) (A) (A) (A) (A) (A) (A)
                 (A) (A) (A) (A) (A) (A) (A) (A) (A) (A) (A) (A)
                 (A) (A) (A) (A) (A) (A) (A) (A) (A) (A) (A) (A)
                 (A) (A) (A) (A) (A) (A) (A) (A) (A) (A) (A) (A)
                 (A) (A) (A) (A) (A) (A) (A) (A) (A) (A) (A) (A)
                 (A) (A) (A) (A) (A) (A) (A) (A) (A) (A) (A) (A)
                 (A) (A) (A) (A) (A) (A) (A) (A) (A) (A) (A) (A)
                 (A) (A) (A) (A) (A) (A) (A) (A) (A) (A) (A) (A)
                 (A) (A) (A) (A) (A) (A) (A) (A) (A) (A) (A) (A)
                 (A) (A) (A) (A) (A) (A) (A) (A) (A) (A) (A) (A)
                 (A) (A) (A) (A) (A) (A) (A) (A) (A) (A) (A) (A)
                 (A) (A) (A) (A) (A) (A) (A) (A) (A) (A) (A) (A)
                 (A) (A) (A) (A) (A) (A) (A) (A) (A) (A) (A) (A)
                 (A) (A) (A) (A) (A) (A) (A) (A) (A) (A) (A) (A)
                 (A) (A) (A) (A) (A) (A) (A) (A) (A) (A) (A) (A)
                 (A) (A) (A) (A) (A) (A) (A) (A) (A) (A) (A) (A)
                 (A) (A) (A) (A) (A) (A) (A) (A) (A)
 The electronic state is 1-A.
 Alpha  occ. eigenvalues --  -11.22799 -11.22237 -11.22040 -11.21826 -11.21817
 Alpha  occ. eigenvalues --  -11.21629 -11.21380 -11.21222 -11.21214 -11.20825
 Alpha  occ. eigenvalues --   -1.10389  -1.07898  -1.01603  -0.97373  -0.93677
 Alpha  occ. eigenvalues --   -0.91849  -0.87532  -0.81976  -0.70050  -0.68744
 Alpha  occ. eigenvalues --   -0.64040  -0.61032  -0.60561  -0.58933  -0.57973
 Alpha  occ. eigenvalues --   -0.56746  -0.55088  -0.54099  -0.53750  -0.52861
 Alpha  occ. eigenvalues --   -0.52335  -0.51424  -0.50101  -0.48926  -0.47916
 Alpha  occ. eigenvalues --   -0.44756  -0.44519  -0.32174  -0.31657
 Alpha virt. eigenvalues --    0.17389   0.19403   0.22753   0.24742   0.25974
 Alpha virt. eigenvalues --    0.27211   0.28387   0.29078   0.29773   0.31068
 Alpha virt. eigenvalues --    0.31710   0.32232   0.32639   0.33976   0.34731
 Alpha virt. eigenvalues --    0.35805   0.36461   0.37672   0.38766   0.39378
 Alpha virt. eigenvalues --    0.40220   0.42131   0.43436   0.44635   0.46864
 Alpha virt. eigenvalues --    0.51986   0.52146   0.59391   0.61590   0.70069
 Alpha virt. eigenvalues --    0.70560   0.72013   0.73702   0.76001   0.77021
 Alpha virt. eigenvalues --    0.77897   0.79394   0.81351   0.82091   0.84265
 Alpha virt. eigenvalues --    0.84594   0.85193   0.86682   0.89745   0.91843
 Alpha virt. eigenvalues --    0.92628   0.95626   0.98047   0.98574   0.99993
 Alpha virt. eigenvalues --    1.01018   1.01870   1.03555   1.04874   1.07268
 Alpha virt. eigenvalues --    1.08592   1.09514   1.10789   1.12351   1.12955
 Alpha virt. eigenvalues --    1.13809   1.14048   1.14526   1.15023   1.15957
 Alpha virt. eigenvalues --    1.16271   1.17650   1.18409   1.20086   1.20281
 Alpha virt. eigenvalues --    1.21161   1.21869   1.23738   1.24412   1.27146
 Alpha virt. eigenvalues --    1.29527   1.32611   1.39172   1.42211   1.44606
 Alpha virt. eigenvalues --    1.46589   1.53512   1.55979   1.57639   1.57747
 Alpha virt. eigenvalues --    1.61834   1.67702   1.69369   1.70932   1.71969
 Alpha virt. eigenvalues --    1.73237   1.84266   1.90970   1.92969   1.95739
 Alpha virt. eigenvalues --    1.97988   1.99402   2.03217   2.07041   2.07936
 Alpha virt. eigenvalues --    2.08631   2.10063   2.11454   2.14174   2.15303
 Alpha virt. eigenvalues --    2.17973   2.18404   2.21805   2.28119   2.28640
 Alpha virt. eigenvalues --    2.29768   2.31197   2.35072   2.35422   2.35910
 Alpha virt. eigenvalues --    2.35931   2.36294   2.36942   2.40067   2.40586
 Alpha virt. eigenvalues --    2.41454   2.42001   2.43913   2.44389   2.45510
 Alpha virt. eigenvalues --    2.46670   2.49117   2.50413   2.51284   2.54715
 Alpha virt. eigenvalues --    2.57084   2.57621   2.59848   2.62376   2.64746
 Alpha virt. eigenvalues --    2.65915   2.68968   2.70081   2.71257   2.73592
 Alpha virt. eigenvalues --    2.76600   2.77712   2.77878   2.83302   2.83794
 Alpha virt. eigenvalues --    2.88015   2.89192   2.90244   2.91694   2.93816
 Alpha virt. eigenvalues --    2.97219   2.99085   3.00024   3.02112   3.03884
 Alpha virt. eigenvalues --    3.05550   3.06452   3.10919   3.12675   3.13642
 Alpha virt. eigenvalues --    3.17198   3.17847   3.19411   3.19890   3.22159
 Alpha virt. eigenvalues --    3.22813   3.24568   3.25709   3.28397   3.37957
 Alpha virt. eigenvalues --    3.40094   3.45053   3.46412   3.55748   3.56371
 Alpha virt. eigenvalues --    3.60537   3.61309   3.67524   3.70387   3.79199
 Alpha virt. eigenvalues --    3.79495   3.80608   3.81570   3.82505   3.82927
 Alpha virt. eigenvalues --    3.83975   3.85618   3.85893   3.88025   3.93770
 Alpha virt. eigenvalues --    3.96400   4.59776   4.63099   4.76275   4.81609
 Alpha virt. eigenvalues --    4.91604   4.92365   4.93799   5.04683   5.12556
 Alpha virt. eigenvalues --    5.15449
          Condensed to atoms (all electrons):
               1          2          3          4          5          6
     1  C    4.975403   0.414502   0.410141   0.333578  -0.051509   0.003857
     2  H    0.414502   0.605047  -0.033581  -0.048628  -0.006877   0.000303
     3  H    0.410141  -0.033581   0.580167  -0.039749   0.003092  -0.000132
     4  C    0.333578  -0.048628  -0.039749   4.979645   0.351053  -0.039879
     5  C   -0.051509  -0.006877   0.003092   0.351053   4.901798   0.406570
     6  H    0.003857   0.000303  -0.000132  -0.039879   0.406570   0.574218
     7  H   -0.006040   0.000144   0.000197  -0.041808   0.403882  -0.030720
     8  H    0.000281   0.000332  -0.000001  -0.043675   0.400322  -0.027190
     9  C   -0.056594   0.004139  -0.005636   0.687153  -0.052474  -0.002539
    10  H   -0.004237   0.000077   0.000768  -0.036493   0.003238   0.000057
    11  C    0.002688  -0.000078  -0.000065  -0.047514  -0.007231  -0.002005
    12  H    0.000070  -0.000001   0.000004   0.000040  -0.001607  -0.001512
    13  H   -0.000121   0.000002   0.000025   0.000544   0.000206  -0.000065
    14  H   -0.000049   0.000002  -0.000011  -0.001855   0.000305   0.000251
    15  C   -0.000100   0.000002  -0.000032   0.000004   0.000000   0.000000
    16  H    0.000001   0.000000  -0.000001  -0.000000   0.000000   0.000000
    17  H    0.000026  -0.000001   0.000007   0.000002   0.000000  -0.000000
    18  H   -0.000004   0.000000   0.000001  -0.000000  -0.000000   0.000000
    19  C   -0.003829   0.000049   0.000386   0.000115  -0.000013   0.000000
    20  C   -0.002050   0.000020  -0.002242   0.000122   0.000001   0.000000
    21  H   -0.001950   0.000136  -0.000743   0.000071   0.000000   0.000000
    22  H    0.000051   0.000001   0.000118  -0.000002  -0.000000  -0.000000
    23  H   -0.000041  -0.000041   0.000048  -0.000043   0.000001  -0.000000
    24  C   -0.048299   0.005230  -0.004582  -0.004291  -0.000115   0.000007
    25  H    0.002253  -0.000108   0.000010   0.000737   0.000005  -0.000001
    26  C    0.342384  -0.042159  -0.036476  -0.045020   0.001558  -0.000136
    27  H   -0.041651  -0.002341   0.004186  -0.002983   0.000294  -0.000042
    28  H   -0.041469  -0.004483  -0.001989   0.005027  -0.000076   0.000002
               7          8          9         10         11         12
     1  C   -0.006040   0.000281  -0.056594  -0.004237   0.002688   0.000070
     2  H    0.000144   0.000332   0.004139   0.000077  -0.000078  -0.000001
     3  H    0.000197  -0.000001  -0.005636   0.000768  -0.000065   0.000004
     4  C   -0.041808  -0.043675   0.687153  -0.036493  -0.047514   0.000040
     5  C    0.403882   0.400322  -0.052474   0.003238  -0.007231  -0.001607
     6  H   -0.030720  -0.027190  -0.002539   0.000057  -0.002005  -0.001512
     7  H    0.588919  -0.031878   0.002755  -0.000100   0.000152  -0.000014
     8  H   -0.031878   0.580410  -0.004285  -0.000142   0.000595   0.000003
     9  C    0.002755  -0.004285   4.963061   0.406161   0.338818  -0.042156
    10  H   -0.000100  -0.000142   0.406161   0.540418  -0.043312   0.003319
    11  C    0.000152   0.000595   0.338818  -0.043312   4.901031   0.407004
    12  H   -0.000014   0.000003  -0.042156   0.003319   0.407004   0.576962
    13  H   -0.000011   0.000107  -0.043085  -0.002624   0.402275  -0.028997
    14  H    0.000023  -0.000068  -0.045110  -0.000416   0.401016  -0.027877
    15  C   -0.000000  -0.000000   0.000092  -0.000229  -0.000002   0.000000
    16  H    0.000000  -0.000000   0.000000   0.000015  -0.000000   0.000000
    17  H    0.000000   0.000000   0.000152  -0.000057  -0.000006   0.000000
    18  H   -0.000000  -0.000000  -0.000004   0.000019   0.000000  -0.000000
    19  C    0.000001  -0.000000  -0.003579   0.001792   0.000061  -0.000001
    20  C   -0.000000   0.000000   0.000001  -0.000150   0.000000  -0.000000
    21  H   -0.000000   0.000000  -0.000011   0.000007   0.000000  -0.000000
    22  H    0.000000  -0.000000  -0.000004   0.000014   0.000000  -0.000000
    23  H   -0.000000  -0.000000   0.000320  -0.000091  -0.000004   0.000000
    24  C   -0.000004  -0.000000  -0.005434   0.003876   0.000127  -0.000006
    25  H   -0.000001   0.000000  -0.000373  -0.000119  -0.000010  -0.000000
    26  C    0.000357  -0.000035  -0.002643  -0.000883  -0.000056  -0.000002
    27  H    0.000275   0.000005   0.001048   0.000102  -0.000013   0.000001
    28  H   -0.000054   0.000005  -0.000066   0.000025   0.000001   0.000000
              13         14         15         16         17         18
     1  C   -0.000121  -0.000049  -0.000100   0.000001   0.000026  -0.000004
     2  H    0.000002   0.000002   0.000002   0.000000  -0.000001   0.000000
     3  H    0.000025  -0.000011  -0.000032  -0.000001   0.000007   0.000001
     4  C    0.000544  -0.001855   0.000004  -0.000000   0.000002  -0.000000
     5  C    0.000206   0.000305   0.000000   0.000000   0.000000  -0.000000
     6  H   -0.000065   0.000251   0.000000   0.000000  -0.000000   0.000000
     7  H   -0.000011   0.000023  -0.000000   0.000000   0.000000  -0.000000
     8  H    0.000107  -0.000068  -0.000000  -0.000000   0.000000  -0.000000
     9  C   -0.043085  -0.045110   0.000092   0.000000   0.000152  -0.000004
    10  H   -0.002624  -0.000416  -0.000229   0.000015  -0.000057   0.000019
    11  C    0.402275   0.401016  -0.000002  -0.000000  -0.000006   0.000000
    12  H   -0.028997  -0.027877   0.000000   0.000000   0.000000  -0.000000
    13  H    0.589357  -0.034048   0.000001  -0.000000  -0.000000   0.000000
    14  H   -0.034048   0.588615  -0.000001   0.000001   0.000000  -0.000000
    15  C    0.000001  -0.000001   4.897669   0.405493   0.400194   0.396853
    16  H   -0.000000   0.000001   0.405493   0.567674  -0.028258  -0.026831
    17  H   -0.000000   0.000000   0.400194  -0.028258   0.597393  -0.035101
    18  H    0.000000  -0.000000   0.396853  -0.026831  -0.035101   0.592678
    19  C   -0.000002   0.000003   0.354223  -0.040762  -0.047766  -0.043416
    20  C    0.000000  -0.000000  -0.063403   0.003751  -0.000881  -0.002331
    21  H    0.000000  -0.000000   0.003655  -0.000112  -0.000042  -0.000041
    22  H    0.000000  -0.000000  -0.005063   0.000066  -0.000550   0.002837
    23  H   -0.000000   0.000000  -0.000173  -0.000119   0.002065  -0.000288
    24  C    0.000002   0.000012  -0.044773  -0.002241  -0.001622  -0.000215
    25  H    0.000000   0.000005  -0.006556   0.002222   0.000106   0.000250
    26  C   -0.000003   0.000013   0.003195   0.000130  -0.000061  -0.000136
    27  H    0.000001  -0.000005  -0.000094  -0.000009   0.000002   0.000003
    28  H    0.000000  -0.000000  -0.000056   0.000003  -0.000010   0.000022
              19         20         21         22         23         24
     1  C   -0.003829  -0.002050  -0.001950   0.000051  -0.000041  -0.048299
     2  H    0.000049   0.000020   0.000136   0.000001  -0.000041   0.005230
     3  H    0.000386  -0.002242  -0.000743   0.000118   0.000048  -0.004582
     4  C    0.000115   0.000122   0.000071  -0.000002  -0.000043  -0.004291
     5  C   -0.000013   0.000001   0.000000  -0.000000   0.000001  -0.000115
     6  H    0.000000   0.000000   0.000000  -0.000000  -0.000000   0.000007
     7  H    0.000001  -0.000000  -0.000000   0.000000  -0.000000  -0.000004
     8  H   -0.000000   0.000000   0.000000  -0.000000  -0.000000  -0.000000
     9  C   -0.003579   0.000001  -0.000011  -0.000004   0.000320  -0.005434
    10  H    0.001792  -0.000150   0.000007   0.000014  -0.000091   0.003876
    11  C    0.000061   0.000000   0.000000   0.000000  -0.000004   0.000127
    12  H   -0.000001  -0.000000  -0.000000  -0.000000   0.000000  -0.000006
    13  H   -0.000002   0.000000   0.000000   0.000000  -0.000000   0.000002
    14  H    0.000003  -0.000000  -0.000000  -0.000000   0.000000   0.000012
    15  C    0.354223  -0.063403   0.003655  -0.005063  -0.000173  -0.044773
    16  H   -0.040762   0.003751  -0.000112   0.000066  -0.000119  -0.002241
    17  H   -0.047766  -0.000881  -0.000042  -0.000550   0.002065  -0.001622
    18  H   -0.043416  -0.002331  -0.000041   0.002837  -0.000288  -0.000215
    19  C    4.940709   0.346372  -0.038189  -0.042651  -0.042872   0.691865
    20  C    0.346372   4.916896   0.406470   0.404327   0.397224  -0.048116
    21  H   -0.038189   0.406470   0.567248  -0.029080  -0.027430  -0.003577
    22  H   -0.042651   0.404327  -0.029080   0.582684  -0.031943   0.002058
    23  H   -0.042872   0.397224  -0.027430  -0.031943   0.580421  -0.002692
    24  C    0.691865  -0.048116  -0.003577   0.002058  -0.002692   4.971154
    25  H   -0.039491   0.003407   0.000068  -0.000104  -0.000140   0.409304
    26  C   -0.056955  -0.004315  -0.000570  -0.000073   0.000583   0.335847
    27  H    0.003570   0.000063   0.000020   0.000003  -0.000009  -0.040847
    28  H   -0.003258  -0.000094   0.000796   0.000106  -0.000260  -0.046785
              25         26         27         28
     1  C    0.002253   0.342384  -0.041651  -0.041469
     2  H   -0.000108  -0.042159  -0.002341  -0.004483
     3  H    0.000010  -0.036476   0.004186  -0.001989
     4  C    0.000737  -0.045020  -0.002983   0.005027
     5  C    0.000005   0.001558   0.000294  -0.000076
     6  H   -0.000001  -0.000136  -0.000042   0.000002
     7  H   -0.000001   0.000357   0.000275  -0.000054
     8  H    0.000000  -0.000035   0.000005   0.000005
     9  C   -0.000373  -0.002643   0.001048  -0.000066
    10  H   -0.000119  -0.000883   0.000102   0.000025
    11  C   -0.000010  -0.000056  -0.000013   0.000001
    12  H   -0.000000  -0.000002   0.000001   0.000000
    13  H    0.000000  -0.000003   0.000001   0.000000
    14  H    0.000005   0.000013  -0.000005  -0.000000
    15  C   -0.006556   0.003195  -0.000094  -0.000056
    16  H    0.002222   0.000130  -0.000009   0.000003
    17  H    0.000106  -0.000061   0.000002  -0.000010
    18  H    0.000250  -0.000136   0.000003   0.000022
    19  C   -0.039491  -0.056955   0.003570  -0.003258
    20  C    0.003407  -0.004315   0.000063  -0.000094
    21  H    0.000068  -0.000570   0.000020   0.000796
    22  H   -0.000104  -0.000073   0.000003   0.000106
    23  H   -0.000140   0.000583  -0.000009  -0.000260
    24  C    0.409304   0.335847  -0.040847  -0.046785
    25  H    0.551725  -0.041912  -0.006304   0.003370
    26  C   -0.041912   4.952989   0.412269   0.408029
    27  H   -0.006304   0.412269   0.586175  -0.030383
    28  H    0.003370   0.408029  -0.030383   0.593656
 Mulliken charges:
               1
     1  C   -0.227291
     2  H    0.108313
     3  H    0.126092
     4  C   -0.006150
     5  C   -0.352424
     6  H    0.118953
     7  H    0.113925
     8  H    0.125213
     9  C   -0.139708
    10  H    0.128967
    11  C   -0.353472
    12  H    0.114769
    13  H    0.116439
    14  H    0.119194
    15  C   -0.340900
    16  H    0.118979
    17  H    0.114409
    18  H    0.115704
    19  C    0.023639
    20  C   -0.355071
    21  H    0.123274
    22  H    0.117207
    23  H    0.125484
    24  C   -0.165884
    25  H    0.121654
    26  C   -0.225919
    27  H    0.116664
    28  H    0.117940
 Sum of Mulliken charges =  -0.00000
 Mulliken charges with hydrogens summed into heavy atoms:
               1
     1  C    0.007114
     4  C   -0.006150
     5  C    0.005667
     9  C   -0.010741
    11  C   -0.003070
    15  C    0.008192
    19  C    0.023639
    20  C    0.010894
    24  C   -0.044230
    26  C    0.008686
 Electronic spatial extent (au):  <R**2>=           2089.2259
 Charge=              0.0000 electrons
 Dipole moment (field-independent basis, Debye):
    X=              0.0919    Y=             -0.0890    Z=              0.2575  Tot=              0.2875
 Quadrupole moment (field-independent basis, Debye-Ang):
   XX=            -64.5814   YY=            -64.2652   ZZ=            -65.8120
   XY=              1.0363   XZ=              1.5040   YZ=             -0.3911
 Traceless Quadrupole moment (field-independent basis, Debye-Ang):
   XX=              0.3048   YY=              0.6210   ZZ=             -0.9258
   XY=              1.0363   XZ=              1.5040   YZ=             -0.3911
 Octapole moment (field-independent basis, Debye-Ang**2):
  XXX=             -0.9303  YYY=             -1.4818  ZZZ=             -1.4586  XYY=             -0.7655
  XXY=              0.9796  XXZ=              3.7253  XZZ=             -0.0655  YZZ=              1.5326
  YYZ=              0.1027  XYZ=             -1.2848
 Hexadecapole moment (field-independent basis, Debye-Ang**3):
 XXXX=          -1900.7926 YYYY=           -721.7344 ZZZZ=           -270.3278 XXXY=              0.0414
 XXXZ=             12.8356 YYYX=              0.8760 YYYZ=              1.2966 ZZZX=              0.2226
 ZZZY=             -2.0684 XXYY=           -447.5978 XXZZ=           -374.5351 YYZZ=           -163.1776
 XXYZ=             -5.0127 YYXZ=              1.5860 ZZXY=              4.8843
 N-N= 5.297652290032D+02 E-N=-1.964308806883D+03  KE= 3.886283274338D+02
 No NMR shielding tensors so no spin-rotation constants.
 Leave Link  601 at Fri Sep 17 20:15:46 2021, MaxMem=   524288000 cpu:               0.3 elap:               0.3
 (Enter /opt/gaussian/g16_legacy/l701.exe)
 ... and contract with generalized density number  2.
 Compute integral first derivatives.
 Leave Link  701 at Fri Sep 17 20:15:46 2021, MaxMem=   524288000 cpu:               0.3 elap:               0.3
 (Enter /opt/gaussian/g16_legacy/l702.exe)
 L702 exits ... SP integral derivatives will be done elsewhere.
 Leave Link  702 at Fri Sep 17 20:15:47 2021, MaxMem=   524288000 cpu:               0.1 elap:               0.1
 (Enter /opt/gaussian/g16_legacy/l703.exe)
 Integral derivatives from FoFJK, PRISM(SPDF).
 Compute integral first derivatives, UseDBF=F ICtDFT=           0.
 Calling FoFJK, ICntrl=  10002127 FMM=F ISym2X=0 I1Cent= 0 IOpClX= 0 NMat=1 NMatS=1 NMatT=0.
 FoFJK:  IHMeth= 1 ICntrl=10002127 DoSepK=F KAlg= 0 I1Cent=           0 FoldK=F
 IRaf=         0 NMat=       1 IRICut=       1 DoRegI=T DoRafI=F ISym2E= 0 IDoP0=0 IntGTp=1.
 FoFCou: FMM=F IPFlag=           0 FMFlag=      100000 FMFlg1=         800
         NFxFlg=           0 DoJE=F BraDBF=F KetDBF=F FulRan=T
         wScrn=  0.000000 ICntrl=  10002127 IOpCl=  0 I1Cent=           0 NGrid=           0
         NMat0=    1 NMatS0=      1 NMatT0=    0 NMatD0=    1 NMtDS0=    0 NMtDT0=    0
 Symmetry not used in FoFCou.
 Leave Link  703 at Fri Sep 17 20:16:25 2021, MaxMem=   524288000 cpu:              38.0 elap:              38.0
 (Enter /opt/gaussian/g16_legacy/l716.exe)
 Dipole        = 3.27660165D-02-1.45634992D-02 9.66056746D-02
 ***** Axes restored to original set *****
 -------------------------------------------------------------------
 Center     Atomic                   Forces (Hartrees/Bohr)
 Number     Number              X              Y              Z
 -------------------------------------------------------------------
      1        6          -0.001171803   -0.002768364   -0.005334626
      2        1           0.002551551    0.002300134    0.001155349
      3        1          -0.002348003    0.002218421    0.003763580
      4        6          -0.004777054    0.001678596    0.003774442
      5        6           0.002743658   -0.001812642    0.004382487
      6        1          -0.000522274    0.000810435   -0.003735790
      7        1           0.000917451    0.001907161   -0.002708465
      8        1          -0.000741554   -0.002447210    0.002735457
      9        6          -0.000509256    0.003012657   -0.003054540
     10        1          -0.003828080   -0.002969995   -0.000108695
     11        6           0.002123413   -0.002708771    0.000253496
     12        1          -0.002010638    0.002163732    0.000888061
     13        1          -0.000043430   -0.001255056    0.003349448
     14        1           0.002690883   -0.000087767   -0.002292864
     15        6           0.001310432   -0.000543988    0.003352166
     16        1          -0.001697265   -0.001793703   -0.003303986
     17        1          -0.003655523    0.001260275    0.000759867
     18        1           0.002114144    0.001428925   -0.001589208
     19        6          -0.000426578   -0.000186758    0.005535980
     20        6          -0.003068696   -0.003905693   -0.000562400
     21        1           0.003613895    0.001435434    0.000690191
     22        1           0.003228424   -0.000310780    0.000150671
     23        1          -0.002856339    0.000692456   -0.000834388
     24        6           0.007852497   -0.002116576    0.002698045
     25        1          -0.000078933    0.004173277   -0.003759159
     26        6          -0.004323035    0.001168459    0.000531826
     27        1           0.000733498    0.000872951   -0.004236844
     28        1           0.002178614   -0.002215610   -0.002500104
 -------------------------------------------------------------------
 Cartesian Forces:  Max     0.007852497 RMS     0.002630764
 Leave Link  716 at Fri Sep 17 20:16:25 2021, MaxMem=   524288000 cpu:               0.1 elap:               0.1
 (Enter /opt/gaussian/g16_legacy/l103.exe)

 GradGradGradGradGradGradGradGradGradGradGradGradGradGradGradGradGradGrad
 Berny optimization.
 FormGI is forming the generalized inverse of G from B-inverse, IUseBI=4.
 Internal  Forces:  Max     0.007313105 RMS     0.002238448
 Search for a local minimum.
 Step number   1 out of a maximum of  138
 All quantities printed in internal units (Hartrees-Bohrs-Radians)
 RMS Force = .22384D-02 SwitMx=.10000D-02 MixMth= 1
 Mixed Optimization -- RFO/linear search
 Second derivative matrix not updated -- first step.
 ITU=  0
     Eigenvalues ---    0.00230   0.00467   0.00666   0.00697   0.00697
     Eigenvalues ---    0.00724   0.00802   0.01201   0.01290   0.01560
     Eigenvalues ---    0.01651   0.02776   0.02796   0.03522   0.03709
     Eigenvalues ---    0.05238   0.05273   0.07015   0.07048   0.07085
     Eigenvalues ---    0.07098   0.07299   0.07325   0.07333   0.07527
     Eigenvalues ---    0.09872   0.09949   0.13166   0.13251   0.15971
     Eigenvalues ---    0.15998   0.16000   0.16000   0.16000   0.16000
     Eigenvalues ---    0.16000   0.16000   0.16000   0.16000   0.16000
     Eigenvalues ---    0.16000   0.16000   0.16000   0.21946   0.21963
     Eigenvalues ---    0.22001   0.22009   0.24958   0.24974   0.24978
     Eigenvalues ---    0.24987   0.28064   0.30116   0.31596   0.31834
     Eigenvalues ---    0.31837   0.32049   0.32662   0.33847   0.33928
     Eigenvalues ---    0.34001   0.34076   0.34172   0.34219   0.34232
     Eigenvalues ---    0.34255   0.34257   0.34274   0.34306   0.34316
     Eigenvalues ---    0.34394   0.34483   0.34538   0.34604   0.34831
     Eigenvalues ---    0.35260   0.55437   0.55770
 RFO step:  Lambda=-5.30805007D-03 EMin= 2.30000000D-03
 Linear search not attempted -- first point.
 Iteration  1 RMS(Cart)=  0.12593233 RMS(Int)=  0.00433346
 Iteration  2 RMS(Cart)=  0.00702958 RMS(Int)=  0.00023583
 Iteration  3 RMS(Cart)=  0.00002709 RMS(Int)=  0.00023551
 Iteration  4 RMS(Cart)=  0.00000001 RMS(Int)=  0.00023551
 ITry= 1 IFail=0 DXMaxC= 3.63D-01 DCOld= 1.00D+10 DXMaxT= 3.00D-01 DXLimC= 3.00D+00 Rises=F
 Variable       Old X    -DE/DX   Delta X   Delta X   Delta X     New X
                                 (Linear)    (Quad)   (Total)
    R1        2.07588  -0.00318   0.00000  -0.00925  -0.00925   2.06663
    R2        2.07040  -0.00200   0.00000  -0.00577  -0.00577   2.06463
    R3        2.87733  -0.00280   0.00000  -0.00914  -0.00914   2.86819
    R4        2.91998  -0.00521   0.00000  -0.01821  -0.01821   2.90177
    R5        2.84448   0.00238   0.00000   0.00736   0.00736   2.85185
    R6        2.54454  -0.00253   0.00000  -0.00449  -0.00449   2.54006
    R7        2.06431  -0.00272   0.00000  -0.00774  -0.00774   2.05657
    R8        2.06800  -0.00282   0.00000  -0.00810  -0.00810   2.05990
    R9        2.06940  -0.00197   0.00000  -0.00566  -0.00566   2.06374
   R10        2.05256  -0.00091   0.00000  -0.00253  -0.00253   2.05002
   R11        2.82949   0.00304   0.00000   0.00916   0.00916   2.83864
   R12        2.06322  -0.00291   0.00000  -0.00830  -0.00830   2.05492
   R13        2.06963  -0.00293   0.00000  -0.00844  -0.00844   2.06118
   R14        2.06869  -0.00192   0.00000  -0.00550  -0.00550   2.06319
   R15        2.06902  -0.00375   0.00000  -0.01079  -0.01079   2.05823
   R16        2.07203  -0.00266   0.00000  -0.00769  -0.00769   2.06434
   R17        2.06522  -0.00069   0.00000  -0.00198  -0.00198   2.06324
   R18        2.84443  -0.00036   0.00000  -0.00110  -0.00110   2.84333
   R19        2.84054   0.00041   0.00000   0.00126   0.00126   2.84180
   R20        2.54746  -0.00395   0.00000  -0.00706  -0.00706   2.54040
   R21        2.06670  -0.00314   0.00000  -0.00898  -0.00898   2.05772
   R22        2.06817  -0.00228   0.00000  -0.00656  -0.00656   2.06161
   R23        2.06899  -0.00166   0.00000  -0.00476  -0.00476   2.06423
   R24        2.05949  -0.00273   0.00000  -0.00772  -0.00772   2.05178
   R25        2.84889   0.00151   0.00000   0.00470   0.00470   2.85358
   R26        2.07451  -0.00400   0.00000  -0.01160  -0.01160   2.06291
   R27        2.07328  -0.00094   0.00000  -0.00273  -0.00273   2.07056
    A1        1.82814   0.00042   0.00000   0.02233   0.02230   1.85045
    A2        1.89982   0.00028   0.00000  -0.00625  -0.00642   1.89340
    A3        1.86289   0.00266   0.00000   0.00993   0.00976   1.87266
    A4        1.89656   0.00472   0.00000   0.02852   0.02818   1.92474
    A5        1.93278  -0.00137   0.00000  -0.01666  -0.01651   1.91628
    A6        2.03225  -0.00612   0.00000  -0.03258  -0.03274   1.99951
    A7        2.01118   0.00284   0.00000   0.01131   0.01128   2.02245
    A8        2.11551  -0.00166   0.00000  -0.00630  -0.00633   2.10918
    A9        2.15521  -0.00116   0.00000  -0.00432  -0.00435   2.15086
   A10        1.96668  -0.00027   0.00000   0.00110   0.00109   1.96776
   A11        1.93628  -0.00131   0.00000  -0.00771  -0.00768   1.92860
   A12        1.91423   0.00379   0.00000   0.02002   0.02004   1.93427
   A13        1.85748   0.00185   0.00000   0.01658   0.01658   1.87406
   A14        1.89627  -0.00199   0.00000  -0.01228  -0.01230   1.88397
   A15        1.89050  -0.00229   0.00000  -0.01914  -0.01909   1.87141
   A16        2.07559  -0.00295   0.00000  -0.02062  -0.02073   2.05486
   A17        2.24066  -0.00371   0.00000  -0.01633  -0.01644   2.22422
   A18        1.96669   0.00667   0.00000   0.03752   0.03741   2.00410
   A19        1.98305  -0.00166   0.00000  -0.00991  -0.00987   1.97319
   A20        1.90751   0.00210   0.00000   0.01325   0.01320   1.92070
   A21        1.91465   0.00372   0.00000   0.02183   0.02179   1.93644
   A22        1.87650  -0.00009   0.00000   0.00068   0.00071   1.87721
   A23        1.89478  -0.00140   0.00000  -0.00938  -0.00933   1.88545
   A24        1.88465  -0.00289   0.00000  -0.01776  -0.01789   1.86676
   A25        1.87513   0.00099   0.00000   0.00931   0.00935   1.88448
   A26        1.88446   0.00063   0.00000   0.00629   0.00633   1.89078
   A27        1.95961  -0.00266   0.00000  -0.01305  -0.01302   1.94660
   A28        1.89595  -0.00329   0.00000  -0.02593  -0.02593   1.87002
   A29        1.91615   0.00190   0.00000   0.01019   0.01021   1.92636
   A30        1.93059   0.00231   0.00000   0.01228   0.01230   1.94289
   A31        2.00387   0.00208   0.00000   0.00844   0.00833   2.01220
   A32        2.10895   0.00207   0.00000   0.00845   0.00835   2.11730
   A33        2.16958  -0.00414   0.00000  -0.01588  -0.01599   2.15359
   A34        1.96357  -0.00123   0.00000  -0.00502  -0.00500   1.95857
   A35        1.92909  -0.00074   0.00000  -0.00381  -0.00379   1.92530
   A36        1.92055   0.00311   0.00000   0.01574   0.01577   1.93631
   A37        1.86370   0.00211   0.00000   0.01849   0.01849   1.88220
   A38        1.89421  -0.00124   0.00000  -0.00857  -0.00855   1.88566
   A39        1.89040  -0.00213   0.00000  -0.01766  -0.01763   1.87277
   A40        2.07092  -0.00265   0.00000  -0.01770  -0.01856   2.05236
   A41        2.21850  -0.00456   0.00000  -0.01909  -0.01995   2.19855
   A42        1.99099   0.00731   0.00000   0.04215   0.04128   2.03228
   A43        2.01747  -0.00053   0.00000  -0.00339  -0.00337   2.01410
   A44        1.90143  -0.00185   0.00000  -0.02314  -0.02322   1.87821
   A45        1.90798  -0.00201   0.00000  -0.01527  -0.01531   1.89267
   A46        1.88848   0.00126   0.00000   0.00758   0.00739   1.89587
   A47        1.89796   0.00254   0.00000   0.02718   0.02715   1.92510
   A48        1.84250   0.00075   0.00000   0.00838   0.00795   1.85045
    D1       -0.05966   0.00012   0.00000  -0.08748  -0.08753  -0.14719
    D2        3.02921   0.00034   0.00000  -0.07349  -0.07351   2.95570
    D3       -2.04111  -0.00297   0.00000  -0.12533  -0.12556  -2.16668
    D4        1.04776  -0.00275   0.00000  -0.11134  -0.11155   0.93621
    D5        2.04586  -0.00041   0.00000  -0.10184  -0.10160   1.94426
    D6       -1.14845  -0.00019   0.00000  -0.08785  -0.08759  -1.23604
    D7       -2.99163  -0.00135   0.00000  -0.00883  -0.00876  -3.00039
    D8        1.16148  -0.00119   0.00000   0.00164   0.00169   1.16317
    D9       -0.84387   0.00002   0.00000   0.01257   0.01252  -0.83134
   D10       -1.01144  -0.00009   0.00000   0.01465   0.01454  -0.99690
   D11       -3.14151   0.00008   0.00000   0.02512   0.02498  -3.11653
   D12        1.13633   0.00129   0.00000   0.03605   0.03582   1.17215
   D13        1.16645   0.00029   0.00000   0.01318   0.01337   1.17982
   D14       -0.96362   0.00045   0.00000   0.02366   0.02382  -0.93980
[...]
                 (A) (A) (A) (A) (A) (A) (A) (A) (A) (A) (A) (A)
                 (A) (A) (A) (A) (A) (A) (A) (A) (A) (A) (A) (A)
                 (A) (A) (A) (A) (A) (A) (A) (A) (A) (A) (A) (A)
                 (A) (A) (A) (A) (A) (A) (A) (A) (A) (A) (A) (A)
                 (A) (A) (A) (A) (A) (A) (A) (A) (A) (A) (A) (A)
                 (A) (A) (A) (A) (A) (A) (A) (A) (A) (A) (A) (A)
                 (A) (A) (A) (A) (A) (A) (A) (A) (A) (A) (A) (A)
                 (A) (A) (A) (A) (A) (A) (A) (A) (A) (A) (A) (A)
                 (A) (A) (A) (A) (A) (A) (A) (A) (A) (A) (A) (A)
                 (A) (A) (A) (A) (A) (A) (A) (A) (A) (A) (A) (A)
                 (A) (A) (A) (A) (A) (A) (A) (A) (A) (A) (A) (A)
                 (A) (A) (A) (A) (A) (A) (A) (A) (A) (A) (A) (A)
                 (A) (A) (A) (A) (A) (A) (A) (A) (A) (A) (A) (A)
                 (A) (A) (A) (A) (A) (A) (A) (A) (A)
 The electronic state is 1-A.
 Alpha  occ. eigenvalues --  -11.22657 -11.22363 -11.21748 -11.21670 -11.21500
 Alpha  occ. eigenvalues --  -11.21497 -11.21446 -11.21331 -11.21284 -11.21036
 Alpha  occ. eigenvalues --   -1.10816  -1.08118  -1.01964  -0.97250  -0.93597
 Alpha  occ. eigenvalues --   -0.92320  -0.88045  -0.81481  -0.70820  -0.68868
 Alpha  occ. eigenvalues --   -0.64503  -0.61556  -0.61322  -0.58562  -0.57647
 Alpha  occ. eigenvalues --   -0.56815  -0.55131  -0.54445  -0.53424  -0.53049
 Alpha  occ. eigenvalues --   -0.52428  -0.51153  -0.50316  -0.49160  -0.47823
 Alpha  occ. eigenvalues --   -0.45859  -0.44503  -0.32351  -0.32071
 Alpha virt. eigenvalues --    0.18842   0.19294   0.22636   0.24633   0.26787
 Alpha virt. eigenvalues --    0.26963   0.27967   0.29128   0.30476   0.30672
 Alpha virt. eigenvalues --    0.31911   0.32313   0.33193   0.33626   0.34737
 Alpha virt. eigenvalues --    0.35183   0.36575   0.38550   0.39932   0.40169
 Alpha virt. eigenvalues --    0.41046   0.42109   0.43159   0.43695   0.46278
 Alpha virt. eigenvalues --    0.51171   0.52625   0.62517   0.63989   0.69743
 Alpha virt. eigenvalues --    0.70652   0.72266   0.73668   0.74392   0.76100
 Alpha virt. eigenvalues --    0.76346   0.78202   0.80631   0.81897   0.83123
 Alpha virt. eigenvalues --    0.84722   0.86721   0.87300   0.89951   0.91730
 Alpha virt. eigenvalues --    0.92496   0.95358   0.96534   0.98396   0.99408
 Alpha virt. eigenvalues --    1.01135   1.01813   1.03412   1.05971   1.07183
 Alpha virt. eigenvalues --    1.08339   1.08801   1.10035   1.11350   1.12516
 Alpha virt. eigenvalues --    1.12955   1.14178   1.14621   1.15610   1.15809
 Alpha virt. eigenvalues --    1.16472   1.17692   1.18727   1.19287   1.21095
 Alpha virt. eigenvalues --    1.21433   1.22546   1.24480   1.25415   1.26923
 Alpha virt. eigenvalues --    1.28913   1.32302   1.40984   1.42400   1.45068
 Alpha virt. eigenvalues --    1.46547   1.48787   1.54910   1.57016   1.59055
 Alpha virt. eigenvalues --    1.61089   1.67400   1.70369   1.72096   1.73690
 Alpha virt. eigenvalues --    1.76061   1.76455   1.91437   1.91912   1.97248
 Alpha virt. eigenvalues --    1.98843   2.01837   2.04105   2.06649   2.07501
 Alpha virt. eigenvalues --    2.08417   2.10509   2.11541   2.13631   2.14549
 Alpha virt. eigenvalues --    2.16208   2.18584   2.21563   2.25782   2.27888
 Alpha virt. eigenvalues --    2.30102   2.32022   2.33615   2.34831   2.35550
 Alpha virt. eigenvalues --    2.35937   2.35991   2.37898   2.40429   2.41631
 Alpha virt. eigenvalues --    2.43144   2.43583   2.44134   2.44418   2.46276
 Alpha virt. eigenvalues --    2.47264   2.49192   2.50151   2.53008   2.54428
 Alpha virt. eigenvalues --    2.56615   2.58422   2.61260   2.62541   2.64325
 Alpha virt. eigenvalues --    2.68504   2.69188   2.70412   2.71417   2.74001
 Alpha virt. eigenvalues --    2.76828   2.78375   2.79199   2.83627   2.84874
 Alpha virt. eigenvalues --    2.86111   2.88281   2.90334   2.93368   2.94635
 Alpha virt. eigenvalues --    2.95864   2.98861   2.99994   3.03399   3.04204
 Alpha virt. eigenvalues --    3.06646   3.07261   3.10795   3.12773   3.13644
 Alpha virt. eigenvalues --    3.17862   3.18777   3.19357   3.21218   3.21843
 Alpha virt. eigenvalues --    3.23250   3.24989   3.27065   3.30775   3.38791
 Alpha virt. eigenvalues --    3.41508   3.44180   3.46609   3.56331   3.57461
 Alpha virt. eigenvalues --    3.61971   3.62988   3.68449   3.71835   3.79561
 Alpha virt. eigenvalues --    3.80569   3.81856   3.82199   3.83485   3.84130
 Alpha virt. eigenvalues --    3.84915   3.86740   3.88904   3.89820   3.91371
 Alpha virt. eigenvalues --    3.95970   4.58209   4.62233   4.74428   4.84750
 Alpha virt. eigenvalues --    4.89987   4.92495   4.94774   5.08085   5.11240
 Alpha virt. eigenvalues --    5.16164
          Condensed to atoms (all electrons):
               1          2          3          4          5          6
     1  C    4.958754   0.406823   0.414969   0.367224  -0.062074   0.003505
     2  H    0.406823   0.605809  -0.027248  -0.045094  -0.004013  -0.000066
     3  H    0.414969  -0.027248   0.580406  -0.048395   0.003905  -0.000101
     4  C    0.367224  -0.045094  -0.048395   4.941212   0.344567  -0.037643
     5  C   -0.062074  -0.004013   0.003905   0.344567   4.906753   0.407753
     6  H    0.003505  -0.000066  -0.000101  -0.037643   0.407753   0.568226
     7  H   -0.001893  -0.000185  -0.000106  -0.041756   0.400467  -0.027858
     8  H   -0.002946   0.003176   0.000040  -0.044164   0.401170  -0.027474
     9  C   -0.044060   0.001039  -0.002872   0.701304  -0.044013  -0.002907
    10  H   -0.007704   0.000256   0.002267  -0.038879   0.003585   0.000045
    11  C    0.003206  -0.000108   0.000206  -0.047478  -0.008038  -0.002305
    12  H    0.000085   0.000002   0.000005  -0.000026  -0.002098  -0.001216
    13  H   -0.000113   0.000014  -0.000005  -0.000846   0.000290   0.000077
    14  H   -0.000089  -0.000003  -0.000010  -0.000402   0.000224  -0.000062
    15  C   -0.000121   0.000002  -0.000031   0.000006   0.000000  -0.000000
    16  H   -0.000006   0.000000  -0.000001  -0.000001  -0.000000  -0.000000
    17  H    0.000026  -0.000000  -0.000004   0.000005   0.000000   0.000000
    18  H   -0.000005   0.000000   0.000001  -0.000000  -0.000000   0.000000
    19  C   -0.003275  -0.000007   0.001746  -0.000855   0.000014  -0.000000
    20  C    0.000219  -0.000011   0.000095   0.000015  -0.000000   0.000000
    21  H   -0.000213   0.000031   0.000298   0.000000   0.000000  -0.000000
    22  H   -0.000041   0.000001   0.000013  -0.000001   0.000000  -0.000000
    23  H    0.000148  -0.000005  -0.000073   0.000008   0.000000  -0.000000
    24  C   -0.065651   0.006480  -0.003167  -0.006147  -0.000610  -0.000024
    25  H   -0.000237  -0.000089   0.000059   0.001719  -0.000018  -0.000002
    26  C    0.331761  -0.051021  -0.039496  -0.065055   0.000012   0.000042
    27  H   -0.042887  -0.002319   0.004487  -0.004733   0.000388   0.000009
    28  H   -0.039109  -0.002888  -0.004130   0.005026  -0.000152   0.000001
               7          8          9         10         11         12
     1  C   -0.001893  -0.002946  -0.044060  -0.007704   0.003206   0.000085
     2  H   -0.000185   0.003176   0.001039   0.000256  -0.000108   0.000002
     3  H   -0.000106   0.000040  -0.002872   0.002267   0.000206   0.000005
     4  C   -0.041756  -0.044164   0.701304  -0.038879  -0.047478  -0.000026
     5  C    0.400467   0.401170  -0.044013   0.003585  -0.008038  -0.002098
     6  H   -0.027858  -0.027474  -0.002907   0.000045  -0.002305  -0.001216
     7  H    0.588305  -0.036105  -0.002133  -0.000128   0.000438  -0.000107
     8  H   -0.036105   0.588421   0.001392  -0.000113   0.000188   0.000003
     9  C   -0.002133   0.001392   4.924626   0.405549   0.340525  -0.043479
    10  H   -0.000128  -0.000113   0.405549   0.558056  -0.042089   0.003337
    11  C    0.000438   0.000188   0.340525  -0.042089   4.899422   0.407854
    12  H   -0.000107   0.000003  -0.043479   0.003337   0.407854   0.577598
    13  H   -0.000037   0.000032  -0.042062  -0.001005   0.401016  -0.027953
    14  H    0.000086  -0.000019  -0.042219  -0.001437   0.401862  -0.028703
    15  C    0.000001  -0.000000  -0.000000   0.000000  -0.000001  -0.000000
    16  H   -0.000000   0.000000  -0.000002   0.000000  -0.000000  -0.000000
    17  H   -0.000000  -0.000000  -0.000005  -0.000001   0.000000   0.000000
    18  H    0.000000   0.000000   0.000000   0.000000   0.000000   0.000000
    19  C   -0.000008  -0.000000   0.000318   0.000143   0.000000   0.000000
    20  C    0.000000   0.000000  -0.000009   0.000001  -0.000000  -0.000000
    21  H   -0.000000   0.000000  -0.000000   0.000000  -0.000000  -0.000000
    22  H    0.000000  -0.000000   0.000000   0.000000   0.000000   0.000000
    23  H   -0.000000   0.000000  -0.000000  -0.000000  -0.000000   0.000000
    24  C   -0.000121   0.000144   0.004136   0.000343  -0.000040   0.000002
    25  H    0.000270   0.000001   0.000289  -0.000004   0.000014   0.000001
    26  C    0.001254  -0.001271  -0.005905   0.000193  -0.000087  -0.000005
    27  H   -0.001721   0.000431   0.000308  -0.000003   0.000004  -0.000000
    28  H    0.000046  -0.000028  -0.000004  -0.000011   0.000002   0.000000
              13         14         15         16         17         18
     1  C   -0.000113  -0.000089  -0.000121  -0.000006   0.000026  -0.000005
     2  H    0.000014  -0.000003   0.000002   0.000000  -0.000000   0.000000
     3  H   -0.000005  -0.000010  -0.000031  -0.000001  -0.000004   0.000001
     4  C   -0.000846  -0.000402   0.000006  -0.000001   0.000005  -0.000000
     5  C    0.000290   0.000224   0.000000  -0.000000   0.000000  -0.000000
     6  H    0.000077  -0.000062  -0.000000  -0.000000   0.000000   0.000000
     7  H   -0.000037   0.000086   0.000001  -0.000000  -0.000000   0.000000
     8  H    0.000032  -0.000019  -0.000000   0.000000  -0.000000   0.000000
     9  C   -0.042062  -0.042219  -0.000000  -0.000002  -0.000005   0.000000
    10  H   -0.001005  -0.001437   0.000000   0.000000  -0.000001   0.000000
    11  C    0.401016   0.401862  -0.000001  -0.000000   0.000000   0.000000
    12  H   -0.027953  -0.028703  -0.000000  -0.000000   0.000000   0.000000
    13  H    0.586629  -0.035943   0.000000  -0.000000   0.000000  -0.000000
    14  H   -0.035943   0.585946  -0.000000   0.000002  -0.000000   0.000000
    15  C    0.000000  -0.000000   4.898858   0.406046   0.398253   0.398553
    16  H   -0.000000   0.000002   0.406046   0.566185  -0.026721  -0.026606
    17  H    0.000000  -0.000000   0.398253  -0.026721   0.596679  -0.038234
    18  H   -0.000000   0.000000   0.398553  -0.026606  -0.038234   0.596565
    19  C   -0.000000   0.000003   0.354224  -0.041433  -0.044191  -0.044437
    20  C    0.000000   0.000000  -0.065468   0.003816  -0.001964  -0.001204
    21  H    0.000000   0.000000   0.003773  -0.000115  -0.000069  -0.000033
    22  H   -0.000000   0.000000  -0.002271  -0.000048  -0.000484   0.002825
    23  H    0.000000  -0.000000  -0.002596  -0.000037   0.002800  -0.000483
    24  C    0.000001   0.000010  -0.044010  -0.002624  -0.000372  -0.001371
    25  H    0.000000  -0.000001  -0.007045   0.002394   0.000191   0.000178
    26  C   -0.000006   0.000025   0.003207   0.000143  -0.000078  -0.000129
    27  H    0.000000  -0.000000  -0.000093  -0.000009  -0.000002   0.000009
    28  H    0.000000  -0.000000   0.000046   0.000006  -0.000005   0.000007
              19         20         21         22         23         24
     1  C   -0.003275   0.000219  -0.000213  -0.000041   0.000148  -0.065651
     2  H   -0.000007  -0.000011   0.000031   0.000001  -0.000005   0.006480
     3  H    0.001746   0.000095   0.000298   0.000013  -0.000073  -0.003167
     4  C   -0.000855   0.000015   0.000000  -0.000001   0.000008  -0.006147
     5  C    0.000014  -0.000000   0.000000   0.000000   0.000000  -0.000610
     6  H   -0.000000   0.000000  -0.000000  -0.000000  -0.000000  -0.000024
     7  H   -0.000008   0.000000  -0.000000   0.000000  -0.000000  -0.000121
     8  H   -0.000000   0.000000   0.000000  -0.000000   0.000000   0.000144
     9  C    0.000318  -0.000009  -0.000000   0.000000  -0.000000   0.004136
    10  H    0.000143   0.000001   0.000000   0.000000  -0.000000   0.000343
    11  C    0.000000  -0.000000  -0.000000   0.000000  -0.000000  -0.000040
    12  H    0.000000  -0.000000  -0.000000   0.000000   0.000000   0.000002
    13  H   -0.000000   0.000000   0.000000  -0.000000   0.000000   0.000001
    14  H    0.000003   0.000000   0.000000   0.000000  -0.000000   0.000010
    15  C    0.354224  -0.065468   0.003773  -0.002271  -0.002596  -0.044010
    16  H   -0.041433   0.003816  -0.000115  -0.000048  -0.000037  -0.002624
    17  H   -0.044191  -0.001964  -0.000069  -0.000484   0.002800  -0.000372
    18  H   -0.044437  -0.001204  -0.000033   0.002825  -0.000483  -0.001371
    19  C    4.913477   0.350865  -0.037829  -0.044033  -0.043563   0.703297
    20  C    0.350865   4.905127   0.406857   0.400402   0.400689  -0.044131
    21  H   -0.037829   0.406857   0.570418  -0.026812  -0.028165  -0.002910
    22  H   -0.044033   0.400402  -0.026812   0.587742  -0.036155  -0.000422
    23  H   -0.043563   0.400689  -0.028165  -0.036155   0.588898  -0.000065
    24  C    0.703297  -0.044131  -0.002910  -0.000422  -0.000065   4.954506
    25  H   -0.037072   0.003520   0.000054  -0.000120  -0.000119   0.404542
    26  C   -0.049396  -0.007702  -0.002617   0.000146   0.000293   0.331200
    27  H    0.002010   0.000153   0.000070   0.000023  -0.000014  -0.044005
    28  H   -0.000690  -0.002352  -0.001457   0.000093  -0.000076  -0.043569
              25         26         27         28
     1  C   -0.000237   0.331761  -0.042887  -0.039109
     2  H   -0.000089  -0.051021  -0.002319  -0.002888
     3  H    0.000059  -0.039496   0.004487  -0.004130
     4  C    0.001719  -0.065055  -0.004733   0.005026
     5  C   -0.000018   0.000012   0.000388  -0.000152
     6  H   -0.000002   0.000042   0.000009   0.000001
     7  H    0.000270   0.001254  -0.001721   0.000046
     8  H    0.000001  -0.001271   0.000431  -0.000028
     9  C    0.000289  -0.005905   0.000308  -0.000004
    10  H   -0.000004   0.000193  -0.000003  -0.000011
    11  C    0.000014  -0.000087   0.000004   0.000002
    12  H    0.000001  -0.000005  -0.000000   0.000000
    13  H    0.000000  -0.000006   0.000000   0.000000
    14  H   -0.000001   0.000025  -0.000000  -0.000000
    15  C   -0.007045   0.003207  -0.000093   0.000046
    16  H    0.002394   0.000143  -0.000009   0.000006
    17  H    0.000191  -0.000078  -0.000002  -0.000005
    18  H    0.000178  -0.000129   0.000009   0.000007
    19  C   -0.037072  -0.049396   0.002010  -0.000690
    20  C    0.003520  -0.007702   0.000153  -0.002352
    21  H    0.000054  -0.002617   0.000070  -0.001457
    22  H   -0.000120   0.000146   0.000023   0.000093
    23  H   -0.000119   0.000293  -0.000014  -0.000076
    24  C    0.404542   0.331200  -0.044005  -0.043569
    25  H    0.551494  -0.039483  -0.003714   0.003255
    26  C   -0.039483   5.017098   0.412721   0.417458
    27  H   -0.003714   0.412721   0.592396  -0.029678
    28  H    0.003255   0.417458  -0.029678   0.579443
 Mulliken charges:
               1
     1  C   -0.216296
     2  H    0.109424
     3  H    0.117141
     4  C    0.020390
     5  C   -0.348111
     6  H    0.119998
     7  H    0.121290
     8  H    0.117122
     9  C   -0.149816
    10  H    0.117600
    11  C   -0.354592
    12  H    0.114701
    13  H    0.119909
    14  H    0.120733
    15  C   -0.341334
    16  H    0.119014
    17  H    0.114177
    18  H    0.114364
    19  C    0.020692
    20  C   -0.348918
    21  H    0.118719
    22  H    0.119142
    23  H    0.118517
    24  C   -0.145423
    25  H    0.119922
    26  C   -0.253301
    27  H    0.116169
    28  H    0.118766
 Sum of Mulliken charges =  -0.00000
 Mulliken charges with hydrogens summed into heavy atoms:
               1
     1  C    0.010270
     4  C    0.020390
     5  C    0.010299
     9  C   -0.032216
    11  C    0.000751
    15  C    0.006221
    19  C    0.020692
    20  C    0.007460
    24  C   -0.025501
    26  C   -0.018365
 Electronic spatial extent (au):  <R**2>=           2155.6857
 Charge=             -0.0000 electrons
 Dipole moment (field-independent basis, Debye):
    X=              0.1025    Y=             -0.0051    Z=              0.0166  Tot=              0.1039
 Quadrupole moment (field-independent basis, Debye-Ang):
   XX=            -64.6441   YY=            -64.2171   ZZ=            -65.5040
   XY=              0.3057   XZ=              2.4032   YZ=              0.0859
 Traceless Quadrupole moment (field-independent basis, Debye-Ang):
   XX=              0.1443   YY=              0.5713   ZZ=             -0.7156
   XY=              0.3057   XZ=              2.4032   YZ=              0.0859
 Octapole moment (field-independent basis, Debye-Ang**2):
  XXX=              4.9552  YYY=             -1.1287  ZZZ=              0.1415  XYY=             -1.7076
  XXY=              3.3859  XXZ=             -1.2906  XZZ=             -0.5559  YZZ=              2.5098
  YYZ=              1.8203  XYZ=             -2.0940
 Hexadecapole moment (field-independent basis, Debye-Ang**3):
 XXXX=          -1997.6970 YYYY=           -676.5093 ZZZZ=           -314.3893 XXXY=             -3.3748
 XXXZ=             12.2640 YYYX=              2.1679 YYYZ=             -0.7666 ZZZX=              5.4292
 ZZZY=              2.1344 XXYY=           -449.9359 XXZZ=           -397.1050 YYZZ=           -163.9004
 XXYZ=              1.4410 YYXZ=              1.2945 ZZXY=             -0.5712
 N-N= 5.271793623380D+02 E-N=-1.959179303757D+03  KE= 3.887483696075D+02
 No NMR shielding tensors so no spin-rotation constants.
 Leave Link  601 at Fri Sep 17 22:13:20 2021, MaxMem=   524288000 cpu:               0.3 elap:               0.7
 (Enter /opt/gaussian/g16_legacy/l9999.exe)
 1\1\GINC-TRUENO91\FOpt\RMP2-FC\6-31G(d,p)\C10H18\JRAMOS\17-Sep-2021\0\
 \#p opt mp2/6-31g(d,p)\\Conformer number 042. Energy MM = 29.637 kcal/
 mol\\0,1\C,2.6356669193,1.2371541974,-9.4046239391\H,2.4423696645,0.25
 17281431,-9.843343085\H,2.7368458613,1.9462182237,-10.2295121539\C,3.9
 180511192,1.1970237134,-8.6143070387\C,3.9757052799,0.1482354261,-7.53
 63700882\H,4.9756949988,0.0152038624,-7.1316576112\H,3.3117642157,0.39
 77298852,-6.7059774699\H,3.6439395907,-0.8142986009,-7.9307056733\C,4.
 8987265986,2.0823289949,-8.8740271838\H,4.7213029353,2.7906985241,-9.6
 784392327\C,6.2213189216,2.224646869,-8.1844550494\H,6.3556896669,1.50
 76314834,-7.3786084279\H,7.043265588,2.09557409,-8.8910147895\H,6.3235
 551686,3.224335279,-7.7582267804\C,1.50749878,5.4448710132,-7.59901275
 44\H,2.0879126573,5.2404296453,-6.7006567895\H,2.074217509,6.140615515
 ,-8.2220035975\H,0.5896946674,5.9592700149,-7.3048119808\C,1.195595386
 3,4.1818896105,-8.3534246577\C,0.3955193589,4.3832961788,-9.6103324771
 \H,0.2046769554,3.456978059,-10.1459826761\H,-0.5651840145,4.850409160
 5,-9.3822772162\H,0.9222643632,5.0598407468,-10.2869102812\C,1.6211477
 85,2.9866689379,-7.9029634931\H,2.2131306281,2.9808957128,-6.992288715
 9\C,1.4181997229,1.6508869248,-8.5545538321\H,1.2404311087,0.896435368
 2,-7.7841388403\H,0.5301985637,1.6517030217,-9.1880741651\\Version=EM6
 4L-G16RevA.03\State=1-A\HF=-389.1553915\MP2=-390.5738652\RMSD=3.242e-0
 9\RMSF=9.406e-06\Dipole=-0.0087201,0.0360451,-0.0030274\PG=C01 [X(C10H
 18)]\\@


 HE THAT IS UNAWARE OF HIS IGNORANCE WILL BE MISLED BY HIS KNOWLEDGE.

                                        -- WHATLEY
 Job cpu time:       0 days  2 hours  3 minutes 34.2 seconds.
 Elapsed time:       0 days  2 hours  3 minutes 44.9 seconds.
 File lengths (MBytes):  RWF=     37 Int=      0 D2E=      0 Chk=      7 Scr=      1
 Normal termination of Gaussian 16 at Fri Sep 17 22:13:20 2021.
