 Entering Gaussian System, Link 0=/opt/gaussian/g16_legacy/g16
 Input=02-IsoP_014_gaussian.com
 Output=02-IsoP_014_gaussian.log
 Initial command:
 /opt/gaussian/g16_legacy/l1.exe "/scratch-local/jramos/2661512/Gau-7101.inp" -scrdir="/scratch-local/jramos/2661512/"
 Entering Link 1 = /opt/gaussian/g16_legacy/l1.exe PID=      7114.
  
 Copyright (c) 1988,1990,1992,1993,1995,1998,2003,2009,2016,
            Gaussian, Inc.  All Rights Reserved.
  
 This is part of the Gaussian(R) 16 program.  It is based on
 the Gaussian(R) 09 system (copyright 2009, Gaussian, Inc.),
 the Gaussian(R) 03 system (copyright 2003, Gaussian, Inc.),
 the Gaussian(R) 98 system (copyright 1998, Gaussian, Inc.),
 the Gaussian(R) 94 system (copyright 1995, Gaussian, Inc.),
 the Gaussian 92(TM) system (copyright 1992, Gaussian, Inc.),
 the Gaussian 90(TM) system (copyright 1990, Gaussian, Inc.),
 the Gaussian 88(TM) system (copyright 1988, Gaussian, Inc.),
 the Gaussian 86(TM) system (copyright 1986, Carnegie Mellon
 University), and the Gaussian 82(TM) system (copyright 1983,
 Carnegie Mellon University). Gaussian is a federally registered
 trademark of Gaussian, Inc.
  
 This software contains proprietary and confidential information,
 including trade secrets, belonging to Gaussian, Inc.
  
 This software is provided under written license and may be
 used, copied, transmitted, or stored only in accord with that
 written license.
  
 The following legend is applicable only to US Government
 contracts under FAR:
  
                    RESTRICTED RIGHTS LEGEND
  
 Use, reproduction and disclosure by the US Government is
 subject to restrictions as set forth in subparagraphs (a)
 and (c) of the Commercial Computer Software - Restricted
 Rights clause in FAR 52.227-19.
  
 Gaussian, Inc.
 340 Quinnipiac St., Bldg. 40, Wallingford CT 06492
  
  
 ---------------------------------------------------------------
 Warning -- This program may not be used in any manner that
 competes with the business of Gaussian, Inc. or will provide
 assistance to any competitor of Gaussian, Inc.  The licensee
 of this program is prohibited from giving any competitor of
 Gaussian, Inc. access to this program.  By using this program,
 the user acknowledges that Gaussian, Inc. is engaged in the
 business of creating and licensing software in the field of
 computational chemistry and represents and warrants to the
 licensee that it is not a competitor of Gaussian, Inc. and that
 it will not use this program in any manner prohibited above.
 ---------------------------------------------------------------
  

 Cite this work as:
 Gaussian 16, Revision A.03,
 M. J. Frisch, G. W. Trucks, H. B. Schlegel, G. E. Scuseria, 
 M. A. Robb, J. R. Cheeseman, G. Scalmani, V. Barone, 
 G. A. Petersson, H. Nakatsuji, X. Li, M. Caricato, A. V. Marenich, 
 J. Bloino, B. G. Janesko, R. Gomperts, B. Mennucci, H. P. Hratchian, 
 J. V. Ortiz, A. F. Izmaylov, J. L. Sonnenberg, D. Williams-Young, 
 F. Ding, F. Lipparini, F. Egidi, J. Goings, B. Peng, A. Petrone, 
 T. Henderson, D. Ranasinghe, V. G. Zakrzewski, J. Gao, N. Rega, 
 G. Zheng, W. Liang, M. Hada, M. Ehara, K. Toyota, R. Fukuda, 
 J. Hasegawa, M. Ishida, T. Nakajima, Y. Honda, O. Kitao, H. Nakai, 
 T. Vreven, K. Throssell, J. A. Montgomery, Jr., J. E. Peralta, 
 F. Ogliaro, M. J. Bearpark, J. J. Heyd, E. N. Brothers, K. N. Kudin, 
 V. N. Staroverov, T. A. Keith, R. Kobayashi, J. Normand, 
 K. Raghavachari, A. P. Rendell, J. C. Burant, S. S. Iyengar, 
 J. Tomasi, M. Cossi, J. M. Millam, M. Klene, C. Adamo, R. Cammi, 
 J. W. Ochterski, R. L. Martin, K. Morokuma, O. Farkas, 
 J. B. Foresman, and D. J. Fox, Gaussian, Inc., Wallingford CT, 2016.
 
 ******************************************
 Gaussian 16:  EM64L-G16RevA.03 25-Dec-2016
                17-Sep-2021 
 ******************************************
 %chk=02-IsoP_014_gaussian.chk
 %nproc=1
 Will use up to    1 processors via shared memory.
 %mem=4000Mb
 ---------------------
 #p opt mp2/6-31g(d,p)
 ---------------------
 1/18=20,19=15,38=1/1,3;
 2/9=110,12=2,17=6,18=5,40=1/2;
 3/5=1,6=6,7=101,11=9,25=1,30=1,71=1/1,2,3;
 4//1;
 5/5=2,38=5/2;
 8/6=4,10=2/1;
 9/15=2,16=-3/6;
 10/5=1/2;
 6/7=2,8=2,9=2,10=2/1;
 7/12=2/1,2,3,16;
 1/18=20,19=15/3(2);
 2/9=110/2;
 99//99;
 2/9=110/2;
 3/5=1,6=6,7=101,11=9,25=1,30=1,71=1/1,2,3;
 4/5=5,16=3,69=1/1;
 5/5=2,38=5/2;
 8/6=4,10=2/1;
 9/15=2,16=-3/6;
 10/5=1/2;
 7/12=2/1,2,3,16;
 1/18=20,19=15/3(-8);
 2/9=110/2;
 6/7=2,8=2,9=2,10=2/1;
 99//99;
 Leave Link    1 at Fri Sep 17 20:09:26 2021, MaxMem=   524288000 cpu:               0.0 elap:               0.1
 (Enter /opt/gaussian/g16_legacy/l101.exe)
 -------------------------------------------------
 Conformer number 014. Energy MM = 27.220 kcal/mol
 -------------------------------------------------
 Symbolic Z-matrix:
 Charge =  0 Multiplicity = 1
 C                     2.1788    1.2808   -9.0112 
 H                     1.877     0.2581   -9.2741 
 H                     2.0317    1.8634   -9.9299 
 C                     3.6497    1.2904   -8.6315 
 C                     4.4086    2.5476   -8.9622 
 H                     5.4441    2.3395   -9.2476 
 H                     3.9582    3.0666   -9.8151 
 H                     4.4096    3.2319   -8.1084 
 C                     4.2161    0.2087   -8.0578 
 H                     3.5932   -0.6654   -7.8705 
 C                     5.6293    0.0711   -7.5894 
 H                     6.2189    0.9838   -7.7078 
 H                     5.637    -0.1876   -6.5255 
 H                     6.1269   -0.7323   -8.1412 
 C                     1.8468    5.071    -5.8594 
 H                     2.1721    5.6222   -6.7481 
 H                     0.9944    5.6022   -5.4257 
 H                     2.6743    5.093    -5.1412 
 C                     1.4714    3.6476   -6.1749 
 C                     1.0426    2.831    -4.9871 
 H                     1.2761    1.7691   -5.0938 
 H                     1.5507    3.1698   -4.0778 
 H                    -0.0358    2.9398   -4.8318 
 C                     1.5227    3.187    -7.4412 
 H                     1.8079    3.8823   -8.2296 
 C                     1.2242    1.7891   -7.9154 
 H                     1.2355    1.0716   -7.0894 
 H                     0.206     1.7816   -8.3235 
 
 ITRead=  0  0  0  0  0  0  0  0  0  0  0  0  0  0  0  0  0  0  0  0
 ITRead=  0  0  0  0  0  0  0  0
 MicOpt= -1 -1 -1 -1 -1 -1 -1 -1 -1 -1 -1 -1 -1 -1 -1 -1 -1 -1 -1 -1
 MicOpt= -1 -1 -1 -1 -1 -1 -1 -1
 NAtoms=     28 NQM=       28 NQMF=       0 NMMI=      0 NMMIF=      0
                NMic=       0 NMicF=      0.
                    Isotopes and Nuclear Properties:
 (Nuclear quadrupole moments (NQMom) in fm**2, nuclear magnetic moments (NMagM)
  in nuclear magnetons)

  Atom         1           2           3           4           5           6           7           8           9          10
 IAtWgt=          12           1           1          12          12           1           1           1          12           1
 AtmWgt=  12.0000000   1.0078250   1.0078250  12.0000000  12.0000000   1.0078250   1.0078250   1.0078250  12.0000000   1.0078250
 NucSpn=           0           1           1           0           0           1           1           1           0           1
 AtZEff=  -0.0000000  -0.0000000  -0.0000000  -0.0000000  -0.0000000  -0.0000000  -0.0000000  -0.0000000  -0.0000000  -0.0000000
 NQMom=    0.0000000   0.0000000   0.0000000   0.0000000   0.0000000   0.0000000   0.0000000   0.0000000   0.0000000   0.0000000
 NMagM=    0.0000000   2.7928460   2.7928460   0.0000000   0.0000000   2.7928460   2.7928460   2.7928460   0.0000000   2.7928460
 AtZNuc=   6.0000000   1.0000000   1.0000000   6.0000000   6.0000000   1.0000000   1.0000000   1.0000000   6.0000000   1.0000000

  Atom        11          12          13          14          15          16          17          18          19          20
 IAtWgt=          12           1           1           1          12           1           1           1          12          12
 AtmWgt=  12.0000000   1.0078250   1.0078250   1.0078250  12.0000000   1.0078250   1.0078250   1.0078250  12.0000000  12.0000000
 NucSpn=           0           1           1           1           0           1           1           1           0           0
 AtZEff=  -0.0000000  -0.0000000  -0.0000000  -0.0000000  -0.0000000  -0.0000000  -0.0000000  -0.0000000  -0.0000000  -0.0000000
 NQMom=    0.0000000   0.0000000   0.0000000   0.0000000   0.0000000   0.0000000   0.0000000   0.0000000   0.0000000   0.0000000
 NMagM=    0.0000000   2.7928460   2.7928460   2.7928460   0.0000000   2.7928460   2.7928460   2.7928460   0.0000000   0.0000000
 AtZNuc=   6.0000000   1.0000000   1.0000000   1.0000000   6.0000000   1.0000000   1.0000000   1.0000000   6.0000000   6.0000000

  Atom        21          22          23          24          25          26          27          28
 IAtWgt=           1           1           1          12           1          12           1           1
 AtmWgt=   1.0078250   1.0078250   1.0078250  12.0000000   1.0078250  12.0000000   1.0078250   1.0078250
 NucSpn=           1           1           1           0           1           0           1           1
 AtZEff=  -0.0000000  -0.0000000  -0.0000000  -0.0000000  -0.0000000  -0.0000000  -0.0000000  -0.0000000
 NQMom=    0.0000000   0.0000000   0.0000000   0.0000000   0.0000000   0.0000000   0.0000000   0.0000000
 NMagM=    2.7928460   2.7928460   2.7928460   0.0000000   2.7928460   0.0000000   2.7928460   2.7928460
 AtZNuc=   1.0000000   1.0000000   1.0000000   6.0000000   1.0000000   6.0000000   1.0000000   1.0000000
 Leave Link  101 at Fri Sep 17 20:09:26 2021, MaxMem=   524288000 cpu:               0.3 elap:               0.3
 (Enter /opt/gaussian/g16_legacy/l103.exe)

 GradGradGradGradGradGradGradGradGradGradGradGradGradGradGradGradGradGrad
 Berny optimization.
 Initialization pass.
                           ----------------------------
                           !    Initial Parameters    !
                           ! (Angstroms and Degrees)  !
 --------------------------                            --------------------------
 ! Name  Definition              Value          Derivative Info.                !
 --------------------------------------------------------------------------------
 ! R1    R(1,2)                  1.0982         estimate D2E/DX2                !
 ! R2    R(1,3)                  1.0978         estimate D2E/DX2                !
 ! R3    R(1,4)                  1.5191         estimate D2E/DX2                !
 ! R4    R(1,26)                 1.5396         estimate D2E/DX2                !
 ! R5    R(4,5)                  1.5053         estimate D2E/DX2                !
 ! R6    R(4,9)                  1.3491         estimate D2E/DX2                !
 ! R7    R(5,6)                  1.0941         estimate D2E/DX2                !
 ! R8    R(5,7)                  1.0953         estimate D2E/DX2                !
 ! R9    R(5,8)                  1.0942         estimate D2E/DX2                !
 ! R10   R(9,10)                 1.0896         estimate D2E/DX2                !
 ! R11   R(9,11)                 1.4951         estimate D2E/DX2                !
 ! R12   R(11,12)                1.093          estimate D2E/DX2                !
 ! R13   R(11,13)                1.0949         estimate D2E/DX2                !
 ! R14   R(11,14)                1.0943         estimate D2E/DX2                !
 ! R15   R(15,16)                1.0952         estimate D2E/DX2                !
 ! R16   R(15,17)                1.094          estimate D2E/DX2                !
 ! R17   R(15,18)                1.0959         estimate D2E/DX2                !
 ! R18   R(15,19)                1.5055         estimate D2E/DX2                !
 ! R19   R(19,20)                1.5039         estimate D2E/DX2                !
 ! R20   R(19,24)                1.3484         estimate D2E/DX2                !
 ! R21   R(20,21)                1.0925         estimate D2E/DX2                !
 ! R22   R(20,22)                1.0953         estimate D2E/DX2                !
 ! R23   R(20,23)                1.0949         estimate D2E/DX2                !
 ! R24   R(24,25)                1.0892         estimate D2E/DX2                !
 ! R25   R(24,26)                1.506          estimate D2E/DX2                !
 ! R26   R(26,27)                1.0942         estimate D2E/DX2                !
 ! R27   R(26,28)                1.097          estimate D2E/DX2                !
 ! A1    A(2,1,3)              104.8954         estimate D2E/DX2                !
 ! A2    A(2,1,4)              109.3777         estimate D2E/DX2                !
 ! A3    A(2,1,26)             107.9047         estimate D2E/DX2                !
 ! A4    A(3,1,4)              109.6069         estimate D2E/DX2                !
 ! A5    A(3,1,26)             109.7152         estimate D2E/DX2                !
 ! A6    A(4,1,26)             114.8569         estimate D2E/DX2                !
 ! A7    A(1,4,5)              116.0092         estimate D2E/DX2                !
 ! A8    A(1,4,9)              120.5127         estimate D2E/DX2                !
 ! A9    A(5,4,9)              123.4648         estimate D2E/DX2                !
 ! A10   A(4,5,6)              112.0624         estimate D2E/DX2                !
 ! A11   A(4,5,7)              111.0703         estimate D2E/DX2                !
 ! A12   A(4,5,8)              110.5706         estimate D2E/DX2                !
 ! A13   A(6,5,7)              106.0333         estimate D2E/DX2                !
 ! A14   A(6,5,8)              108.762          estimate D2E/DX2                !
 ! A15   A(7,5,8)              108.1591         estimate D2E/DX2                !
 ! A16   A(4,9,10)             118.446          estimate D2E/DX2                !
 ! A17   A(4,9,11)             127.1458         estimate D2E/DX2                !
 ! A18   A(10,9,11)            114.3732         estimate D2E/DX2                !
 ! A19   A(9,11,12)            113.5205         estimate D2E/DX2                !
 ! A20   A(9,11,13)            109.4384         estimate D2E/DX2                !
 ! A21   A(9,11,14)            109.8394         estimate D2E/DX2                !
 ! A22   A(12,11,13)           107.3829         estimate D2E/DX2                !
 ! A23   A(12,11,14)           108.2484         estimate D2E/DX2                !
 ! A24   A(13,11,14)           108.2578         estimate D2E/DX2                !
 ! A25   A(16,15,17)           107.9835         estimate D2E/DX2                !
 ! A26   A(16,15,18)           107.3015         estimate D2E/DX2                !
 ! A27   A(16,15,19)           112.3249         estimate D2E/DX2                !
 ! A28   A(17,15,18)           108.5886         estimate D2E/DX2                !
 ! A29   A(17,15,19)           110.357          estimate D2E/DX2                !
 ! A30   A(18,15,19)           110.157          estimate D2E/DX2                !
 ! A31   A(15,19,20)           114.7696         estimate D2E/DX2                !
 ! A32   A(15,19,24)           120.6814         estimate D2E/DX2                !
 ! A33   A(20,19,24)           124.5477         estimate D2E/DX2                !
 ! A34   A(19,20,21)           112.9369         estimate D2E/DX2                !
 ! A35   A(19,20,22)           110.8217         estimate D2E/DX2                !
 ! A36   A(19,20,23)           109.8096         estimate D2E/DX2                !
 ! A37   A(21,20,22)           106.4144         estimate D2E/DX2                !
 ! A38   A(21,20,23)           108.7197         estimate D2E/DX2                !
 ! A39   A(22,20,23)           107.962          estimate D2E/DX2                !
 ! A40   A(19,24,25)           118.1416         estimate D2E/DX2                !
 ! A41   A(19,24,26)           127.2436         estimate D2E/DX2                !
 ! A42   A(25,24,26)           114.6148         estimate D2E/DX2                !
 ! A43   A(1,26,24)            114.0579         estimate D2E/DX2                !
 ! A44   A(1,26,27)            108.3246         estimate D2E/DX2                !
 ! A45   A(1,26,28)            107.9667         estimate D2E/DX2                !
 ! A46   A(24,26,27)           111.6494         estimate D2E/DX2                !
 ! A47   A(24,26,28)           107.9062         estimate D2E/DX2                !
 ! A48   A(27,26,28)           106.6156         estimate D2E/DX2                !
 ! D1    D(2,1,4,5)            147.9017         estimate D2E/DX2                !
 ! D2    D(2,1,4,9)            -30.8192         estimate D2E/DX2                !
 ! D3    D(3,1,4,5)             33.4105         estimate D2E/DX2                !
 ! D4    D(3,1,4,9)           -145.3103         estimate D2E/DX2                !
 ! D5    D(26,1,4,5)           -90.6244         estimate D2E/DX2                !
 ! D6    D(26,1,4,9)            90.6548         estimate D2E/DX2                !
 ! D7    D(2,1,26,24)          179.5547         estimate D2E/DX2                !
 ! D8    D(2,1,26,27)           54.5627         estimate D2E/DX2                !
 ! D9    D(2,1,26,28)          -60.5288         estimate D2E/DX2                !
 ! D10   D(3,1,26,24)          -66.696          estimate D2E/DX2                !
 ! D11   D(3,1,26,27)          168.312          estimate D2E/DX2                !
 ! D12   D(3,1,26,28)           53.2206         estimate D2E/DX2                !
 ! D13   D(4,1,26,24)           57.2816         estimate D2E/DX2                !
 ! D14   D(4,1,26,27)          -67.7104         estimate D2E/DX2                !
 ! D15   D(4,1,26,28)          177.1981         estimate D2E/DX2                !
 ! D16   D(1,4,5,6)           -145.3609         estimate D2E/DX2                !
 ! D17   D(1,4,5,7)            -26.9678         estimate D2E/DX2                !
 ! D18   D(1,4,5,8)             93.1196         estimate D2E/DX2                !
 ! D19   D(9,4,5,6)             33.318          estimate D2E/DX2                !
 ! D20   D(9,4,5,7)            151.7112         estimate D2E/DX2                !
 ! D21   D(9,4,5,8)            -88.2014         estimate D2E/DX2                !
 ! D22   D(1,4,9,10)            -0.2936         estimate D2E/DX2                !
 ! D23   D(1,4,9,11)          -178.0101         estimate D2E/DX2                !
 ! D24   D(5,4,9,10)          -178.9155         estimate D2E/DX2                !
 ! D25   D(5,4,9,11)             3.368          estimate D2E/DX2                !
 ! D26   D(4,9,11,12)            2.6279         estimate D2E/DX2                !
 ! D27   D(4,9,11,13)          122.5698         estimate D2E/DX2                !
 ! D28   D(4,9,11,14)         -118.7106         estimate D2E/DX2                !
 ! D29   D(10,9,11,12)        -175.1678         estimate D2E/DX2                !
 ! D30   D(10,9,11,13)         -55.2259         estimate D2E/DX2                !
 ! D31   D(10,9,11,14)          63.4936         estimate D2E/DX2                !
 ! D32   D(16,15,19,20)        178.8043         estimate D2E/DX2                !
 ! D33   D(16,15,19,24)         -1.6057         estimate D2E/DX2                !
 ! D34   D(17,15,19,20)        -60.6411         estimate D2E/DX2                !
 ! D35   D(17,15,19,24)        118.9489         estimate D2E/DX2                !
 ! D36   D(18,15,19,20)         59.2525         estimate D2E/DX2                !
 ! D37   D(18,15,19,24)       -121.1575         estimate D2E/DX2                !
 ! D38   D(15,19,20,21)       -149.8232         estimate D2E/DX2                !
 ! D39   D(15,19,20,22)        -30.5342         estimate D2E/DX2                !
 ! D40   D(15,19,20,23)         88.6536         estimate D2E/DX2                !
 ! D41   D(24,19,20,21)         30.6049         estimate D2E/DX2                !
 ! D42   D(24,19,20,22)        149.8939         estimate D2E/DX2                !
 ! D43   D(24,19,20,23)        -90.9183         estimate D2E/DX2                !
 ! D44   D(15,19,24,25)         -2.155          estimate D2E/DX2                !
 ! D45   D(15,19,24,26)        177.9228         estimate D2E/DX2                !
 ! D46   D(20,19,24,25)        177.393          estimate D2E/DX2                !
 ! D47   D(20,19,24,26)         -2.5292         estimate D2E/DX2                !
 ! D48   D(19,24,26,1)        -140.1438         estimate D2E/DX2                !
 ! D49   D(19,24,26,27)        -16.9383         estimate D2E/DX2                !
 ! D50   D(19,24,26,28)         99.9056         estimate D2E/DX2                !
 ! D51   D(25,24,26,1)          39.9316         estimate D2E/DX2                !
 ! D52   D(25,24,26,27)        163.1371         estimate D2E/DX2                !
 ! D53   D(25,24,26,28)        -80.0189         estimate D2E/DX2                !
 --------------------------------------------------------------------------------
 Trust Radius=3.00D-01 FncErr=1.00D-07 GrdErr=1.00D-07 EigMax=2.50D+02 EigMin=1.00D-04
 Number of steps in this run=    138 maximum allowed number of steps=    168.
 GradGradGradGradGradGradGradGradGradGradGradGradGradGradGradGradGradGrad

 Leave Link  103 at Fri Sep 17 20:09:26 2021, MaxMem=   524288000 cpu:               0.0 elap:               0.1
 (Enter /opt/gaussian/g16_legacy/l202.exe)
                          Input orientation:                          
 ---------------------------------------------------------------------
 Center     Atomic      Atomic             Coordinates (Angstroms)
 Number     Number       Type             X           Y           Z
 ---------------------------------------------------------------------
      1          6           0        2.178800    1.280800   -9.011200
      2          1           0        1.877000    0.258100   -9.274100
      3          1           0        2.031700    1.863400   -9.929900
      4          6           0        3.649700    1.290400   -8.631500
      5          6           0        4.408600    2.547600   -8.962200
      6          1           0        5.444100    2.339500   -9.247600
      7          1           0        3.958200    3.066600   -9.815100
      8          1           0        4.409600    3.231900   -8.108400
      9          6           0        4.216100    0.208700   -8.057800
     10          1           0        3.593200   -0.665400   -7.870500
     11          6           0        5.629300    0.071100   -7.589400
     12          1           0        6.218900    0.983800   -7.707800
     13          1           0        5.637000   -0.187600   -6.525500
     14          1           0        6.126900   -0.732300   -8.141200
     15          6           0        1.846800    5.071000   -5.859400
     16          1           0        2.172100    5.622200   -6.748100
     17          1           0        0.994400    5.602200   -5.425700
     18          1           0        2.674300    5.093000   -5.141200
     19          6           0        1.471400    3.647600   -6.174900
     20          6           0        1.042600    2.831000   -4.987100
     21          1           0        1.276100    1.769100   -5.093800
     22          1           0        1.550700    3.169800   -4.077800
     23          1           0       -0.035800    2.939800   -4.831800
     24          6           0        1.522700    3.187000   -7.441200
     25          1           0        1.807900    3.882300   -8.229600
     26          6           0        1.224200    1.789100   -7.915400
     27          1           0        1.235500    1.071600   -7.089400
     28          1           0        0.206000    1.781600   -8.323500
 ---------------------------------------------------------------------
                    Distance matrix (angstroms):
                    1          2          3          4          5
     1  C    0.000000
     2  H    1.098233   0.000000
     3  H    1.097757   1.740975   0.000000
     4  C    1.519148   2.149661   2.152230   0.000000
     5  C    2.564993   3.427549   2.655979   1.505272   0.000000
     6  H    3.440772   4.130028   3.512361   2.167962   1.094084
     7  H    2.646054   3.537195   2.274263   2.156610   1.095290
     8  H    3.098114   4.076323   3.293184   2.149536   1.094186
     9  C    2.491779   2.636895   3.318794   1.349080   2.515044
    10  H    2.662596   2.401726   3.615832   2.099397   3.489994
    11  C    3.923116   4.117395   4.651129   2.547839   3.083462
    12  H    4.255522   4.672476   4.821210   2.747365   2.701143
    13  H    4.504892   4.678787   5.366072   3.251012   3.863650
    14  H    4.516300   4.508437   5.167956   3.235464   3.792669
    15  C    4.940616   5.901279   5.185736   5.022741   4.749498
    16  H    4.895857   5.936441   4.926676   4.949241   4.399697
    17  H    5.738738   6.644439   5.944950   5.993279   5.787415
    18  H    5.454841   6.410367   5.811618   5.252939   4.907841
    19  C    3.761217   4.610668   4.194917   4.041815   4.195972
    20  C    4.459535   5.068965   5.132820   4.738362   5.216483
    21  H    4.049608   4.485433   4.895680   4.287010   5.038168
    22  H    5.319893   5.965400   6.015407   5.354823   5.693162
    23  H    5.012396   5.530312   5.605695   5.544470   6.080026
    24  C    2.555184   3.473256   2.864372   3.088371   3.324258
    25  H    2.741581   3.772344   2.648974   3.204949   3.013597
    26  C    1.539613   2.148528   2.171586   2.577703   3.436789
    27  H    2.151022   2.417895   3.054394   2.873031   3.969196
    28  H    2.148411   2.452944   2.433186   3.492164   4.319322
                    6          7          8          9         10
     6  H    0.000000
     7  H    1.748894   0.000000
     8  H    1.778860   1.773108   0.000000
     9  C    2.732017   3.364849   3.029809   0.000000
    10  H    3.788358   4.224041   3.988991   1.089558   0.000000
    11  C    2.815948   4.088928   3.427490   1.495148   2.183381
    12  H    2.192994   3.726866   2.913417   2.175888   3.104937
    13  H    3.719311   4.922363   3.962961   2.126959   2.492877
    14  H    3.335610   4.683678   4.320310   2.131571   2.548998
    15  C    5.646376   4.911537   3.874046   5.838536   6.324612
    16  H    5.265891   4.373526   3.545470   5.932894   6.543181
    17  H    6.712076   5.871985   4.947605   6.811545   7.212047
    18  H    5.667105   5.253574   3.908866   5.894072   6.438371
    19  C    5.189890   4.446661   3.541786   4.785888   5.096966
    20  C    6.145456   5.644981   4.608679   5.135831   5.200420
    21  H    5.911991   5.582817   4.587638   4.456876   4.359565
    22  H    6.524936   6.222806   4.941953   5.631418   5.767594
    23  H    7.063211   6.387597   5.530191   5.995385   5.949858
    24  C    4.399854   3.403169   2.963337   4.062619   4.394571
    25  H    4.079033   2.793379   2.684502   4.395939   4.898757
    26  C    4.459288   3.565897   3.502241   3.386651   3.411561
    27  H    4.896704   4.338498   3.972426   3.250596   3.030847
    28  H    5.348168   4.237346   4.451954   4.315729   4.203111
                   11         12         13         14         15
    11  C    0.000000
    12  H    1.093009   0.000000
    13  H    1.094928   1.763128   0.000000
    14  H    1.094322   1.772371   1.774031   0.000000
    15  C    6.503784   6.263948   6.516301   7.563343   0.000000
    16  H    6.593537   6.229957   6.768224   7.613202   1.095185
    17  H    7.533722   7.337097   7.502338   8.593159   1.094009
    18  H    6.320221   6.003095   6.211169   7.406387   1.095925
    19  C    5.663947   5.655472   5.673086   6.687566   1.505501
    20  C    5.952044   6.132572   5.708514   6.963875   2.534807
    21  H    5.297318   5.646323   4.989578   6.250913   3.437206
    22  H    6.210334   6.304569   5.827625   7.258045   2.622277
    23  H    6.922944   7.156716   6.695514   7.900337   3.023600
    24  C    5.157030   5.194176   5.399435   6.086836   2.481247
    25  H    5.434906   5.303819   5.842093   6.321084   2.651861
    26  C    4.739484   5.063461   5.031100   5.517691   3.922453
    27  H    4.533925   5.022390   4.612675   5.318471   4.228686
    28  H    5.733838   6.096765   6.050315   6.435059   4.425400
                   16         17         18         19         20
    16  H    0.000000
    17  H    1.770909   0.000000
    18  H    1.764762   1.778283   0.000000
    19  C    2.172230   2.146926   2.145853   0.000000
    20  C    3.488221   2.806108   2.793356   1.503853   0.000000
    21  H    4.287879   3.857741   3.606317   2.176162   1.092492
    22  H    3.678438   2.835996   2.468197   2.152303   1.095344
    23  H    3.967656   2.915888   3.475146   2.139287   1.094944
    24  C    2.613868   3.189754   3.201409   1.348443   2.525834
    25  H    2.314030   3.388465   3.428507   2.095259   3.493526
    26  C    4.117494   4.559731   4.551344   2.558216   3.113435
    27  H    4.658505   4.832428   4.694389   2.743672   2.748156
    28  H    4.593217   4.859609   5.213915   3.114430   3.596207
                   21         22         23         24         25
    21  H    0.000000
    22  H    1.752034   0.000000
    23  H    1.777713   1.771552   0.000000
    24  C    2.753459   3.363561   3.049426   0.000000
    25  H    3.818595   4.220338   3.979018   1.089200   0.000000
    26  C    2.822148   4.091468   3.524245   1.506019   2.195658
    27  H    2.114373   3.683956   3.194234   2.163600   3.086702
    28  H    3.402386   4.664899   3.686714   2.118325   2.643453
                   26         27         28
    26  C    0.000000
    27  H    1.094171   0.000000
    28  H    1.096965   1.756978   0.000000
 Stoichiometry    C10H18
 Framework group  C1[X(C10H18)]
 Deg. of freedom    78
 Full point group                 C1      NOp   1
 Largest Abelian subgroup         C1      NOp   1
 Largest concise Abelian subgroup C1      NOp   1
                         Standard orientation:                         
 ---------------------------------------------------------------------
 Center     Atomic      Atomic             Coordinates (Angstroms)
 Number     Number       Type             X           Y           Z
 ---------------------------------------------------------------------
      1          6           0        0.966870    1.661893    0.061937
      2          1           0        1.531494    2.287288   -0.642475
      3          1           0        0.950863    2.235139    0.997995
      4          6           0        1.706589    0.352791    0.278452
      5          6           0        1.566495   -0.266650    1.643190
      6          1           0        2.481544   -0.776545    1.958959
      7          1           0        1.367620    0.496351    2.403413
      8          1           0        0.740972   -0.984686    1.656583
      9          6           0        2.457381   -0.180860   -0.707216
     10          1           0        2.515047    0.346273   -1.659026
     11          6           0        3.209420   -1.472593   -0.670732
     12          1           0        3.074369   -2.029821    0.259819
     13          1           0        2.869383   -2.115446   -1.489257
     14          1           0        4.278924   -1.283604   -0.804844
     15          6           0       -3.070416   -1.039013    0.964771
     16          1           0       -2.784035   -0.818006    1.998489
     17          1           0       -4.139548   -0.832569    0.858975
     18          1           0       -2.903636   -2.109905    0.802213
     19          6           0       -2.280363   -0.233727   -0.032156
     20          6           0       -2.610156   -0.514981   -1.472193
     21          1           0       -1.758570   -0.367953   -2.140567
     22          1           0       -2.930069   -1.554427   -1.602520
     23          1           0       -3.429377    0.133931   -1.798833
     24          6           0       -1.364217    0.665307    0.381019
     25          1           0       -1.239365    0.816190    1.452468
     26          6           0       -0.466266    1.513362   -0.480711
     27          1           0       -0.408686    1.129677   -1.503785
     28          1           0       -0.908949    2.514927   -0.545771
 ---------------------------------------------------------------------
 Rotational constants (GHZ):           1.8213630           0.6358064           0.6170181
 Leave Link  202 at Fri Sep 17 20:09:26 2021, MaxMem=   524288000 cpu:               0.0 elap:               0.0
 (Enter /opt/gaussian/g16_legacy/l301.exe)
 Standard basis: 6-31G(d,p) (6D, 7F)
 Ernie: Thresh=  0.10000D-02 Tol=  0.10000D-05 Strict=F.
 There are   240 symmetry adapted cartesian basis functions of A   symmetry.
 There are   240 symmetry adapted basis functions of A   symmetry.
   240 basis functions,   406 primitive gaussians,   240 cartesian basis functions
    39 alpha electrons       39 beta electrons
       nuclear repulsion energy       524.1816350117 Hartrees.
 IExCor=    0 DFT=F Ex=HF Corr=None ExCW=0 ScaHFX=  1.000000
 ScaDFX=  1.000000  1.000000  1.000000  1.000000 ScalE2=  1.000000  1.000000
 IRadAn=      5 IRanWt=     -1 IRanGd=            0 ICorTp=0 IEmpDi=  4
 NAtoms=   28 NActive=   28 NUniq=   28 SFac= 1.00D+00 NAtFMM=   60 NAOKFM=F Big=F
 Integral buffers will be    131072 words long.
 Raffenetti 1 integral format.
 Two-electron integral symmetry is turned on.
 Leave Link  301 at Fri Sep 17 20:09:26 2021, MaxMem=   524288000 cpu:               0.1 elap:               0.1
 (Enter /opt/gaussian/g16_legacy/l302.exe)
 NPDir=0 NMtPBC=     1 NCelOv=     1 NCel=       1 NClECP=     1 NCelD=      1
         NCelK=      1 NCelE2=     1 NClLst=     1 CellRange=     0.0.
 One-electron integrals computed using PRISM.
 One-electron integral symmetry used in STVInt
 NBasis=   240 RedAO= T EigKep=  2.07D-03  NBF=   240
 NBsUse=   240 1.00D-06 EigRej= -1.00D+00 NBFU=   240
 Leave Link  302 at Fri Sep 17 20:09:27 2021, MaxMem=   524288000 cpu:               0.3 elap:               0.3
 (Enter /opt/gaussian/g16_legacy/l303.exe)
 DipDrv:  MaxL=1.
 Leave Link  303 at Fri Sep 17 20:09:27 2021, MaxMem=   524288000 cpu:               0.1 elap:               0.3
 (Enter /opt/gaussian/g16_legacy/l401.exe)
 ExpMin= 1.61D-01 ExpMax= 3.05D+03 ExpMxC= 4.57D+02 IAcc=3 IRadAn=         5 AccDes= 0.00D+00
 Harris functional with IExCor=  205 and IRadAn=       5 diagonalized for initial guess.
 HarFok:  IExCor=  205 AccDes= 0.00D+00 IRadAn=         5 IDoV= 1 UseB2=F ITyADJ=14
 ICtDFT=  3500011 ScaDFX=  1.000000  1.000000  1.000000  1.000000
 FoFCou: FMM=F IPFlag=           0 FMFlag=      100000 FMFlg1=           0
         NFxFlg=           0 DoJE=T BraDBF=F KetDBF=T FulRan=T
         wScrn=  0.000000 ICntrl=       500 IOpCl=  0 I1Cent=   200000004 NGrid=           0
         NMat0=    1 NMatS0=      1 NMatT0=    0 NMatD0=    1 NMtDS0=    0 NMtDT0=    0
 Petite list used in FoFCou.
 Harris En= -390.107403032886    
 JPrj=0 DoOrth=F DoCkMO=F.
 Leave Link  401 at Fri Sep 17 20:09:38 2021, MaxMem=   524288000 cpu:              11.3 elap:              11.6
 (Enter /opt/gaussian/g16_legacy/l502.exe)
 Keep R1 ints in memory in canonical form, NReq=425198025.
 FoFCou: FMM=F IPFlag=           0 FMFlag=           0 FMFlg1=           0
         NFxFlg=           0 DoJE=F BraDBF=F KetDBF=F FulRan=T
         wScrn=  0.000000 ICntrl=       600 IOpCl=  0 I1Cent=           0 NGrid=           0
         NMat0=    1 NMatS0=  28920 NMatT0=    0 NMatD0=    1 NMtDS0=    0 NMtDT0=    0
 Symmetry not used in FoFCou.
 Two-electron integral symmetry not used.
 Closed shell SCF:
 Using DIIS extrapolation, IDIIS=  1040.
 NGot=   524288000 LenX=   105970886 LenY=   105912845
 Requested convergence on RMS density matrix=1.00D-08 within 128 cycles.
 Requested convergence on MAX density matrix=1.00D-06.
 Requested convergence on             energy=1.00D-06.
 No special actions if energy rises.

 Cycle   1  Pass 1  IDiag  1:
 E= -388.525135040159    
 DIIS: error= 4.77D-02 at cycle   1 NSaved=   1.
 NSaved= 1 IEnMin= 1 EnMin= -388.525135040159     IErMin= 1 ErrMin= 4.77D-02
 ErrMax= 4.77D-02  0.00D+00 EMaxC= 1.00D-01 BMatC= 8.11D-01 BMatP= 8.11D-01
 IDIUse=3 WtCom= 5.23D-01 WtEn= 4.77D-01
 Coeff-Com:  0.100D+01
 Coeff-En:   0.100D+01
 Coeff:      0.100D+01
 Gap=     0.508 Goal=   None    Shift=    0.000
 GapD=    0.508 DampG=2.000 DampE=0.500 DampFc=1.0000 IDamp=-1.
 RMSDP=4.05D-03 MaxDP=1.16D-01              OVMax= 1.34D-01

 Cycle   2  Pass 1  IDiag  1:
 E= -389.063225766273     Delta-E=       -0.538090726115 Rises=F Damp=F
 DIIS: error= 1.30D-02 at cycle   2 NSaved=   2.
 NSaved= 2 IEnMin= 2 EnMin= -389.063225766273     IErMin= 2 ErrMin= 1.30D-02
 ErrMax= 1.30D-02  0.00D+00 EMaxC= 1.00D-01 BMatC= 9.20D-02 BMatP= 8.11D-01
 IDIUse=3 WtCom= 8.70D-01 WtEn= 1.30D-01
 Coeff-Com:  0.189D+00 0.811D+00
 Coeff-En:   0.000D+00 0.100D+01
 Coeff:      0.164D+00 0.836D+00
 Gap=     0.547 Goal=   None    Shift=    0.000
 RMSDP=1.76D-03 MaxDP=3.05D-02 DE=-5.38D-01 OVMax= 4.71D-02

 Cycle   3  Pass 1  IDiag  1:
 E= -389.145914780892     Delta-E=       -0.082689014619 Rises=F Damp=F
 DIIS: error= 3.03D-03 at cycle   3 NSaved=   3.
 NSaved= 3 IEnMin= 3 EnMin= -389.145914780892     IErMin= 3 ErrMin= 3.03D-03
 ErrMax= 3.03D-03  0.00D+00 EMaxC= 1.00D-01 BMatC= 3.60D-03 BMatP= 9.20D-02
 IDIUse=3 WtCom= 9.70D-01 WtEn= 3.03D-02
 Coeff-Com: -0.232D-01 0.112D+00 0.911D+00
 Coeff-En:   0.000D+00 0.000D+00 0.100D+01
 Coeff:     -0.225D-01 0.109D+00 0.913D+00
 Gap=     0.493 Goal=   None    Shift=    0.000
 RMSDP=2.86D-04 MaxDP=7.18D-03 DE=-8.27D-02 OVMax= 1.07D-02

 Cycle   4  Pass 1  IDiag  1:
 E= -389.149951849178     Delta-E=       -0.004037068286 Rises=F Damp=F
 DIIS: error= 4.63D-04 at cycle   4 NSaved=   4.
 NSaved= 4 IEnMin= 4 EnMin= -389.149951849178     IErMin= 4 ErrMin= 4.63D-04
 ErrMax= 4.63D-04  0.00D+00 EMaxC= 1.00D-01 BMatC= 1.48D-04 BMatP= 3.60D-03
 IDIUse=3 WtCom= 9.95D-01 WtEn= 4.63D-03
 Coeff-Com: -0.649D-02 0.574D-02 0.165D+00 0.835D+00
 Coeff-En:   0.000D+00 0.000D+00 0.000D+00 0.100D+01
 Coeff:     -0.646D-02 0.572D-02 0.165D+00 0.836D+00
 Gap=     0.493 Goal=   None    Shift=    0.000
 RMSDP=8.61D-05 MaxDP=2.08D-03 DE=-4.04D-03 OVMax= 4.32D-03

 Cycle   5  Pass 1  IDiag  1:
 E= -389.150123373486     Delta-E=       -0.000171524308 Rises=F Damp=F
 DIIS: error= 1.59D-04 at cycle   5 NSaved=   5.
 NSaved= 5 IEnMin= 5 EnMin= -389.150123373486     IErMin= 5 ErrMin= 1.59D-04
 ErrMax= 1.59D-04  0.00D+00 EMaxC= 1.00D-01 BMatC= 2.07D-05 BMatP= 1.48D-04
 IDIUse=3 WtCom= 9.98D-01 WtEn= 1.59D-03
 Coeff-Com:  0.177D-02-0.139D-01-0.829D-01 0.151D+00 0.944D+00
 Coeff-En:   0.000D+00 0.000D+00 0.000D+00 0.000D+00 0.100D+01
 Coeff:      0.176D-02-0.139D-01-0.828D-01 0.151D+00 0.944D+00
 Gap=     0.493 Goal=   None    Shift=    0.000
 RMSDP=3.38D-05 MaxDP=8.16D-04 DE=-1.72D-04 OVMax= 1.41D-03

 Cycle   6  Pass 1  IDiag  1:
 E= -389.150151665656     Delta-E=       -0.000028292170 Rises=F Damp=F
 DIIS: error= 4.19D-05 at cycle   6 NSaved=   6.
 NSaved= 6 IEnMin= 6 EnMin= -389.150151665656     IErMin= 6 ErrMin= 4.19D-05
 ErrMax= 4.19D-05  0.00D+00 EMaxC= 1.00D-01 BMatC= 1.12D-06 BMatP= 2.07D-05
 IDIUse=1 WtCom= 1.00D+00 WtEn= 0.00D+00
 Coeff-Com:  0.873D-03-0.393D-02-0.310D-01-0.251D-01 0.200D+00 0.859D+00
 Coeff:      0.873D-03-0.393D-02-0.310D-01-0.251D-01 0.200D+00 0.859D+00
 Gap=     0.493 Goal=   None    Shift=    0.000
 RMSDP=7.85D-06 MaxDP=1.82D-04 DE=-2.83D-05 OVMax= 3.90D-04

 Cycle   7  Pass 1  IDiag  1:
 E= -389.150153234835     Delta-E=       -0.000001569179 Rises=F Damp=F
 DIIS: error= 9.82D-06 at cycle   7 NSaved=   7.
 NSaved= 7 IEnMin= 7 EnMin= -389.150153234835     IErMin= 7 ErrMin= 9.82D-06
 ErrMax= 9.82D-06  0.00D+00 EMaxC= 1.00D-01 BMatC= 4.53D-08 BMatP= 1.12D-06
 IDIUse=1 WtCom= 1.00D+00 WtEn= 0.00D+00
 Coeff-Com:  0.431D-04 0.201D-04-0.442D-03-0.872D-02-0.190D-01 0.109D+00
 Coeff-Com:  0.919D+00
 Coeff:      0.431D-04 0.201D-04-0.442D-03-0.872D-02-0.190D-01 0.109D+00
 Coeff:      0.919D+00
 Gap=     0.493 Goal=   None    Shift=    0.000
 RMSDP=1.72D-06 MaxDP=4.23D-05 DE=-1.57D-06 OVMax= 1.21D-04

 Cycle   8  Pass 1  IDiag  1:
 E= -389.150153319221     Delta-E=       -0.000000084386 Rises=F Damp=F
 DIIS: error= 4.19D-06 at cycle   8 NSaved=   8.
 NSaved= 8 IEnMin= 8 EnMin= -389.150153319221     IErMin= 8 ErrMin= 4.19D-06
 ErrMax= 4.19D-06  0.00D+00 EMaxC= 1.00D-01 BMatC= 7.85D-09 BMatP= 4.53D-08
 IDIUse=1 WtCom= 1.00D+00 WtEn= 0.00D+00
 Coeff-Com: -0.762D-04 0.365D-03 0.293D-02 0.229D-02-0.235D-01-0.738D-01
 Coeff-Com:  0.125D+00 0.967D+00
 Coeff:     -0.762D-04 0.365D-03 0.293D-02 0.229D-02-0.235D-01-0.738D-01
 Coeff:      0.125D+00 0.967D+00
 Gap=     0.493 Goal=   None    Shift=    0.000
 RMSDP=7.36D-07 MaxDP=1.87D-05 DE=-8.44D-08 OVMax= 3.51D-05

 Cycle   9  Pass 1  IDiag  1:
 E= -389.150153333753     Delta-E=       -0.000000014532 Rises=F Damp=F
 DIIS: error= 1.54D-06 at cycle   9 NSaved=   9.
 NSaved= 9 IEnMin= 9 EnMin= -389.150153333753     IErMin= 9 ErrMin= 1.54D-06
 ErrMax= 1.54D-06  0.00D+00 EMaxC= 1.00D-01 BMatC= 7.88D-10 BMatP= 7.85D-09
 IDIUse=1 WtCom= 1.00D+00 WtEn= 0.00D+00
 Coeff-Com: -0.133D-04 0.356D-04 0.360D-03 0.171D-02-0.111D-02-0.206D-01
 Coeff-Com: -0.728D-01 0.194D-01 0.107D+01
 Coeff:     -0.133D-04 0.356D-04 0.360D-03 0.171D-02-0.111D-02-0.206D-01
 Coeff:     -0.728D-01 0.194D-01 0.107D+01
 Gap=     0.493 Goal=   None    Shift=    0.000
 RMSDP=2.93D-07 MaxDP=1.01D-05 DE=-1.45D-08 OVMax= 3.07D-05

 Cycle  10  Pass 1  IDiag  1:
 E= -389.150153336574     Delta-E=       -0.000000002821 Rises=F Damp=F
 DIIS: error= 6.71D-07 at cycle  10 NSaved=  10.
 NSaved=10 IEnMin=10 EnMin= -389.150153336574     IErMin=10 ErrMin= 6.71D-07
 ErrMax= 6.71D-07  0.00D+00 EMaxC= 1.00D-01 BMatC= 2.25D-10 BMatP= 7.88D-10
 IDIUse=1 WtCom= 1.00D+00 WtEn= 0.00D+00
 Coeff-Com:  0.118D-04-0.588D-04-0.472D-03-0.189D-03 0.321D-02 0.122D-01
 Coeff-Com: -0.703D-02-0.216D+00 0.765D-01 0.113D+01
 Coeff:      0.118D-04-0.588D-04-0.472D-03-0.189D-03 0.321D-02 0.122D-01
 Coeff:     -0.703D-02-0.216D+00 0.765D-01 0.113D+01
 Gap=     0.493 Goal=   None    Shift=    0.000
 RMSDP=1.58D-07 MaxDP=4.59D-06 DE=-2.82D-09 OVMax= 1.19D-05

 Cycle  11  Pass 1  IDiag  1:
 E= -389.150153337152     Delta-E=       -0.000000000578 Rises=F Damp=F
 DIIS: error= 1.57D-07 at cycle  11 NSaved=  11.
 NSaved=11 IEnMin=11 EnMin= -389.150153337152     IErMin=11 ErrMin= 1.57D-07
 ErrMax= 1.57D-07  0.00D+00 EMaxC= 1.00D-01 BMatC= 1.34D-11 BMatP= 2.25D-10
 IDIUse=1 WtCom= 1.00D+00 WtEn= 0.00D+00
 Coeff-Com:  0.190D-05-0.614D-05-0.556D-04-0.163D-03 0.389D-04 0.284D-02
 Coeff-Com:  0.123D-01-0.185D-01-0.925D-01-0.206D-01 0.112D+01
 Coeff:      0.190D-05-0.614D-05-0.556D-04-0.163D-03 0.389D-04 0.284D-02
 Coeff:      0.123D-01-0.185D-01-0.925D-01-0.206D-01 0.112D+01
 Gap=     0.493 Goal=   None    Shift=    0.000
 RMSDP=4.38D-08 MaxDP=1.37D-06 DE=-5.78D-10 OVMax= 4.06D-06

 Cycle  12  Pass 1  IDiag  1:
 E= -389.150153337196     Delta-E=       -0.000000000044 Rises=F Damp=F
 DIIS: error= 4.33D-08 at cycle  12 NSaved=  12.
 NSaved=12 IEnMin=12 EnMin= -389.150153337196     IErMin=12 ErrMin= 4.33D-08
 ErrMax= 4.33D-08  0.00D+00 EMaxC= 1.00D-01 BMatC= 1.29D-12 BMatP= 1.34D-11
 IDIUse=1 WtCom= 1.00D+00 WtEn= 0.00D+00
 Coeff-Com: -0.116D-05 0.584D-05 0.474D-04 0.361D-04-0.349D-03-0.130D-02
 Coeff-Com:  0.510D-03 0.191D-01 0.280D-02-0.126D+00-0.470D-01 0.115D+01
 Coeff:     -0.116D-05 0.584D-05 0.474D-04 0.361D-04-0.349D-03-0.130D-02
 Coeff:      0.510D-03 0.191D-01 0.280D-02-0.126D+00-0.470D-01 0.115D+01
 Gap=     0.493 Goal=   None    Shift=    0.000
 RMSDP=1.40D-08 MaxDP=3.77D-07 DE=-4.45D-11 OVMax= 1.05D-06

 Cycle  13  Pass 1  IDiag  1:
 E= -389.150153337203     Delta-E=       -0.000000000006 Rises=F Damp=F
 DIIS: error= 9.49D-09 at cycle  13 NSaved=  13.
 NSaved=13 IEnMin=13 EnMin= -389.150153337203     IErMin=13 ErrMin= 9.49D-09
 ErrMax= 9.49D-09  0.00D+00 EMaxC= 1.00D-01 BMatC= 5.54D-14 BMatP= 1.29D-12
 IDIUse=1 WtCom= 1.00D+00 WtEn= 0.00D+00
 Coeff-Com: -0.182D-06 0.751D-06 0.624D-05 0.148D-04-0.301D-04-0.248D-03
 Coeff-Com: -0.701D-03 0.204D-02 0.731D-02-0.652D-02-0.720D-01 0.796D-01
 Coeff-Com:  0.991D+00
 Coeff:     -0.182D-06 0.751D-06 0.624D-05 0.148D-04-0.301D-04-0.248D-03
 Coeff:     -0.701D-03 0.204D-02 0.731D-02-0.652D-02-0.720D-01 0.796D-01
 Coeff:      0.991D+00
 Gap=     0.493 Goal=   None    Shift=    0.000
 RMSDP=2.26D-09 MaxDP=5.25D-08 DE=-6.37D-12 OVMax= 1.24D-07

 SCF Done:  E(RHF) =  -389.150153337     A.U. after   13 cycles
            NFock= 13  Conv=0.23D-08     -V/T= 2.0014
 KE= 3.886129459104D+02 PE=-1.953100069342D+03 EE= 6.511553350828D+02
 Leave Link  502 at Fri Sep 17 20:10:20 2021, MaxMem=   524288000 cpu:              41.3 elap:              41.4
 (Enter /opt/gaussian/g16_legacy/l801.exe)
 ExpMin= 1.61D-01 ExpMax= 3.05D+03 ExpMxC= 4.57D+02 IAcc=3 IRadAn=         5 AccDes= 0.00D+00
 HarFok:  IExCor=  205 AccDes= 0.00D+00 IRadAn=         5 IDoV=-2 UseB2=F ITyADJ=14
 ICtDFT= 12500011 ScaDFX=  1.000000  1.000000  1.000000  1.000000
 Largest valence mixing into a core orbital is  1.99D-04
 Largest core mixing into a valence orbital is  3.53D-05
 Range of M.O.s used for correlation:    11   240
 NBasis=   240 NAE=    39 NBE=    39 NFC=    10 NFV=     0
 NROrb=    230 NOA=    29 NOB=    29 NVA=   201 NVB=   201
 Leave Link  801 at Fri Sep 17 20:10:22 2021, MaxMem=   524288000 cpu:               1.7 elap:               1.7
 (Enter /opt/gaussian/g16_legacy/l906.exe)
 Frozen-core derivative calculation, NFC=  10 NFV=   0.
 FulOut=F Deriv=T AODrv=T NAtomX=    28
   MMem=          87  MDisk=          29 MDiskD=          29
  W3Min=     2246400 MinDsk=     2795480 NBas6D=         240
 NBas2D=       29244    NTT=       28920    LW2=     2040000
    MDV=   523623438 MDiskM=       30186 NBas2p=       24706
 Fully direct method using O(ONN) memory.
 IMap=   1   2   3   4   5   6   7   8   9  10  11  12  13  14  15  16  17  18  19  20
 IMap=  21  22  23  24  25  26  27  28  29  30  31  32  33  34  35  36  37  38  39
 JobTyp=1 Pass  1:  I=  11 to  39 NPSUse=  1 ParTrn=F ParDer=F DoDerP=T.
 Spin components of T(2) and E(2):
     alpha-alpha T2 =       0.5727952420D-01 E2=     -0.1640213316D+00
     alpha-beta  T2 =       0.3625362379D+00 E2=     -0.1090316672D+01
     beta-beta   T2 =       0.5727952420D-01 E2=     -0.1640213316D+00
 The integrals were generated   1 times.
 ANorm=    0.1215358090D+01
 E2 =    -0.1418359335D+01 EUMP2 =    -0.39056851267214D+03
 Leave Link  906 at Fri Sep 17 20:15:22 2021, MaxMem=   524288000 cpu:             299.6 elap:             299.9
 (Enter /opt/gaussian/g16_legacy/l1002.exe)
 Minotr:  Closed shell wavefunction.
          Computing MP2/KS-MP2 derivatives.
          Using Z-Vector for PSCF gradient.
          Skipping F1 and S1 gradient terms here.
          IDoAtm=1111111111111111111111111111
          Frozen-core window.
          Direct CPHF calculation.
          Differentiating once with respect to electric field.
                with respect to dipole field.
          Differentiating once with respect to nuclear coordinates.
          Requested convergence is 1.0D-10 RMS, and 1.0D-09 maximum.
          NewPWx=F KeepS1=T KeepF1=T KeepIn=T MapXYZ=F SortEE=F KeepMc=T.
 Keep R1 ints in memory in canonical form, NReq=425201067.
 FoFCou: FMM=F IPFlag=           0 FMFlag=           0 FMFlg1=           0
         NFxFlg=           0 DoJE=F BraDBF=F KetDBF=F FulRan=T
         wScrn=  0.000000 ICntrl=       600 IOpCl=  0 I1Cent=           0 NGrid=           0
         NMat0=    1 NMatS0=  28920 NMatT0=    0 NMatD0=    1 NMtDS0=    0 NMtDT0=    0
 Symmetry not used in FoFCou.
 Two-electron integral symmetry not used.
          MDV=     524288000 using IRadAn=       5.
          Solving linear equations separately, MaxMat=       0.
          There are     1 degrees of freedom in the 1st order CPHF.  IDoFFX=0 NUNeed=     1.
 LinEq1:  Iter=  0 NonCon=     1 RMS=2.53D-03 Max=3.90D-02 NDo=     1
 AX will form     1 AO Fock derivatives at one time.
 LinEq1:  Iter=  1 NonCon=     1 RMS=6.97D-04 Max=1.08D-02 NDo=     1
 LinEq1:  Iter=  2 NonCon=     1 RMS=1.72D-04 Max=4.35D-03 NDo=     1
 LinEq1:  Iter=  3 NonCon=     1 RMS=4.60D-05 Max=7.94D-04 NDo=     1
 LinEq1:  Iter=  4 NonCon=     1 RMS=2.18D-05 Max=8.61D-04 NDo=     1
 LinEq1:  Iter=  5 NonCon=     1 RMS=6.29D-06 Max=1.44D-04 NDo=     1
 LinEq1:  Iter=  6 NonCon=     1 RMS=2.04D-06 Max=6.19D-05 NDo=     1
 LinEq1:  Iter=  7 NonCon=     1 RMS=6.92D-07 Max=1.81D-05 NDo=     1
 LinEq1:  Iter=  8 NonCon=     1 RMS=2.23D-07 Max=3.67D-06 NDo=     1
 LinEq1:  Iter=  9 NonCon=     1 RMS=6.01D-08 Max=7.72D-07 NDo=     1
 LinEq1:  Iter= 10 NonCon=     1 RMS=1.61D-08 Max=2.58D-07 NDo=     1
 LinEq1:  Iter= 11 NonCon=     1 RMS=4.34D-09 Max=6.81D-08 NDo=     1
 LinEq1:  Iter= 12 NonCon=     1 RMS=1.12D-09 Max=1.65D-08 NDo=     1
 LinEq1:  Iter= 13 NonCon=     1 RMS=3.33D-10 Max=6.51D-09 NDo=     1
 LinEq1:  Iter= 14 NonCon=     1 RMS=8.62D-11 Max=1.07D-09 NDo=     1
 LinEq1:  Iter= 15 NonCon=     0 RMS=2.01D-11 Max=2.07D-10 NDo=     1
 Linear equations converged to 1.000D-10 1.000D-09 after    15 iterations.
 End of Minotr F.D. properties file   721 does not exist.
 End of Minotr F.D. properties file   722 does not exist.
 End of Minotr F.D. properties file   788 does not exist.
 Leave Link 1002 at Fri Sep 17 20:16:01 2021, MaxMem=   524288000 cpu:              38.9 elap:              39.0
 (Enter /opt/gaussian/g16_legacy/l601.exe)
 Copying SCF densities to generalized density rwf, IOpCl= 0 IROHF=0.

 **********************************************************************

            Population analysis using the SCF density.

 **********************************************************************

 Orbital symmetries:
       Occupied  (A) (A) (A) (A) (A) (A) (A) (A) (A) (A) (A) (A)
                 (A) (A) (A) (A) (A) (A) (A) (A) (A) (A) (A) (A)
                 (A) (A) (A) (A) (A) (A) (A) (A) (A) (A) (A) (A)
                 (A) (A) (A)
       Virtual   (A) (A) (A) (A) (A) (A) (A) (A) (A) (A) (A) (A)
                 (A) (A) (A) (A) (A) (A) (A) (A) (A) (A) (A) (A)
                 (A) (A) (A) (A) (A) (A) (A) (A) (A) (A) (A) (A)
                 (A) (A) (A) (A) (A) (A) (A) (A) (A) (A) (A) (A)
                 (A) (A) (A) (A) (A) (A) (A) (A) (A) (A) (A) (A)
                 (A) (A) (A) (A) (A) (A) (A) (A) (A) (A) (A) (A)
                 (A) (A) (A) (A) (A) (A) (A) (A) (A) (A) (A) (A)
                 (A) (A) (A) (A) (A) (A) (A) (A) (A) (A) (A) (A)
                 (A) (A) (A) (A) (A) (A) (A) (A) (A) (A) (A) (A)
                 (A) (A) (A) (A) (A) (A) (A) (A) (A) (A) (A) (A)
                 (A) (A) (A) (A) (A) (A) (A) (A) (A) (A) (A) (A)
                 (A) (A) (A) (A) (A) (A) (A) (A) (A) (A) (A) (A)
                 (A) (A) (A) (A) (A) (A) (A) (A) (A) (A) (A) (A)
                 (A) (A) (A) (A) (A) (A) (A) (A) (A) (A) (A) (A)
                 (A) (A) (A) (A) (A) (A) (A) (A) (A) (A) (A) (A)
                 (A) (A) (A) (A) (A) (A) (A) (A) (A) (A) (A) (A)
                 (A) (A) (A) (A) (A) (A) (A) (A) (A)
 The electronic state is 1-A.
 Alpha  occ. eigenvalues --  -11.22884 -11.22429 -11.21900 -11.21837 -11.21653
 Alpha  occ. eigenvalues --  -11.21597 -11.21392 -11.21324 -11.21297 -11.21216
 Alpha  occ. eigenvalues --   -1.10405  -1.08057  -1.01961  -0.97083  -0.93526
 Alpha  occ. eigenvalues --   -0.92301  -0.87325  -0.81516  -0.70646  -0.69314
 Alpha  occ. eigenvalues --   -0.63029  -0.62476  -0.59860  -0.58619  -0.57702
 Alpha  occ. eigenvalues --   -0.57214  -0.55309  -0.54494  -0.53733  -0.52749
 Alpha  occ. eigenvalues --   -0.52267  -0.51212  -0.49553  -0.48728  -0.47834
 Alpha  occ. eigenvalues --   -0.45879  -0.44298  -0.32703  -0.31500
 Alpha virt. eigenvalues --    0.17822   0.19565   0.23262   0.24847   0.25580
 Alpha virt. eigenvalues --    0.26806   0.28931   0.29540   0.29945   0.30636
 Alpha virt. eigenvalues --    0.31326   0.32439   0.33086   0.33330   0.33871
 Alpha virt. eigenvalues --    0.34649   0.36130   0.36985   0.38419   0.40523
 Alpha virt. eigenvalues --    0.40717   0.41884   0.43645   0.43888   0.46409
 Alpha virt. eigenvalues --    0.51633   0.53664   0.59180   0.64108   0.69337
 Alpha virt. eigenvalues --    0.71154   0.72088   0.73167   0.74599   0.76715
 Alpha virt. eigenvalues --    0.77662   0.79454   0.80127   0.81168   0.83228
 Alpha virt. eigenvalues --    0.85271   0.85810   0.87468   0.90650   0.92139
 Alpha virt. eigenvalues --    0.93841   0.94761   0.96272   0.98408   0.98769
 Alpha virt. eigenvalues --    1.02142   1.02563   1.03717   1.05334   1.06144
 Alpha virt. eigenvalues --    1.07494   1.08743   1.10446   1.11162   1.12954
 Alpha virt. eigenvalues --    1.13600   1.14199   1.14282   1.14711   1.15835
 Alpha virt. eigenvalues --    1.16760   1.17349   1.18141   1.19384   1.19889
 Alpha virt. eigenvalues --    1.21568   1.22866   1.23191   1.24859   1.25214
 Alpha virt. eigenvalues --    1.28067   1.28332   1.41449   1.42225   1.46209
 Alpha virt. eigenvalues --    1.47296   1.49846   1.53155   1.56634   1.59168
 Alpha virt. eigenvalues --    1.62613   1.65312   1.68650   1.69967   1.71430
 Alpha virt. eigenvalues --    1.74720   1.79131   1.90907   1.92840   1.94959
 Alpha virt. eigenvalues --    1.98190   2.00336   2.03517   2.07108   2.07628
 Alpha virt. eigenvalues --    2.08744   2.10117   2.11243   2.13167   2.14384
 Alpha virt. eigenvalues --    2.17703   2.19788   2.20614   2.24510   2.28962
 Alpha virt. eigenvalues --    2.30498   2.31304   2.33208   2.35264   2.35651
 Alpha virt. eigenvalues --    2.35835   2.36441   2.37514   2.40052   2.40413
 Alpha virt. eigenvalues --    2.41415   2.42722   2.43806   2.45148   2.46093
 Alpha virt. eigenvalues --    2.47770   2.48404   2.48938   2.52077   2.54628
 Alpha virt. eigenvalues --    2.55735   2.58123   2.59720   2.61949   2.64604
 Alpha virt. eigenvalues --    2.65768   2.68073   2.70002   2.72362   2.73030
 Alpha virt. eigenvalues --    2.76524   2.77736   2.79560   2.83463   2.85065
 Alpha virt. eigenvalues --    2.86759   2.88856   2.89999   2.91439   2.94027
 Alpha virt. eigenvalues --    2.95377   2.98492   3.00615   3.01653   3.02958
 Alpha virt. eigenvalues --    3.05375   3.07438   3.10965   3.11640   3.14563
 Alpha virt. eigenvalues --    3.16130   3.19049   3.19856   3.20155   3.21733
 Alpha virt. eigenvalues --    3.22560   3.24856   3.25603   3.26615   3.38333
 Alpha virt. eigenvalues --    3.39246   3.43798   3.45756   3.55558   3.56446
 Alpha virt. eigenvalues --    3.60534   3.62074   3.66081   3.70462   3.79081
 Alpha virt. eigenvalues --    3.79396   3.81056   3.81502   3.82312   3.82952
 Alpha virt. eigenvalues --    3.84341   3.85770   3.86548   3.89162   3.92098
 Alpha virt. eigenvalues --    3.94381   4.58138   4.61660   4.74695   4.84576
 Alpha virt. eigenvalues --    4.88841   4.91779   4.92210   5.04893   5.11240
 Alpha virt. eigenvalues --    5.17771
          Condensed to atoms (all electrons):
               1          2          3          4          5          6
     1  C    4.984493   0.414403   0.409368   0.344035  -0.053814   0.003009
     2  H    0.414403   0.579771  -0.031287  -0.042587   0.003666  -0.000143
     3  H    0.409368  -0.031287   0.604557  -0.046078  -0.006322   0.000137
     4  C    0.344035  -0.042587  -0.046078   4.961062   0.339767  -0.039261
     5  C   -0.053814   0.003666  -0.006322   0.339767   4.923521   0.404477
     6  H    0.003009  -0.000143   0.000137  -0.039261   0.404477   0.575079
     7  H   -0.006947   0.000179   0.001895  -0.041663   0.405172  -0.030395
     8  H    0.001897  -0.000096   0.000066  -0.040962   0.397623  -0.025827
     9  C   -0.049400  -0.004179   0.003061   0.690783  -0.050698  -0.003962
    10  H   -0.005471   0.001939   0.000158  -0.039415   0.003368   0.000027
    11  C    0.002956   0.000083  -0.000099  -0.049072  -0.007246  -0.001964
    12  H    0.000117   0.000003   0.000001  -0.000849  -0.001665  -0.001263
    13  H   -0.000091  -0.000013  -0.000001   0.000455   0.000182  -0.000095
    14  H   -0.000114   0.000010   0.000008  -0.001306   0.000338   0.000335
    15  C   -0.000074   0.000001   0.000000  -0.000016   0.000002  -0.000000
    16  H   -0.000006   0.000000  -0.000000  -0.000004   0.000006  -0.000000
    17  H   -0.000003   0.000000  -0.000000   0.000000  -0.000001   0.000000
    18  H    0.000011  -0.000000   0.000000  -0.000003   0.000016  -0.000000
    19  C    0.000365  -0.000045  -0.000012   0.000639  -0.000498   0.000014
    20  C    0.000212   0.000000  -0.000007  -0.000073   0.000003  -0.000000
    21  H    0.000126   0.000004  -0.000001   0.000034   0.000002  -0.000000
    22  H    0.000006  -0.000000   0.000000  -0.000003   0.000001  -0.000000
    23  H   -0.000035   0.000001  -0.000000   0.000004  -0.000000   0.000000
    24  C   -0.054612   0.004711  -0.003742  -0.002574  -0.004054   0.000177
    25  H   -0.002338  -0.000052   0.002009  -0.000281  -0.000722   0.000027
    26  C    0.341804  -0.039333  -0.042893  -0.057886   0.002459  -0.000093
    27  H   -0.038626  -0.004482   0.004737  -0.002578  -0.000000   0.000002
    28  H   -0.048228  -0.002449  -0.003500   0.005833  -0.000154   0.000004
               7          8          9         10         11         12
     1  C   -0.006947   0.001897  -0.049400  -0.005471   0.002956   0.000117
     2  H    0.000179  -0.000096  -0.004179   0.001939   0.000083   0.000003
     3  H    0.001895   0.000066   0.003061   0.000158  -0.000099   0.000001
     4  C   -0.041663  -0.040962   0.690783  -0.039415  -0.049072  -0.000849
     5  C    0.405172   0.397623  -0.050698   0.003368  -0.007246  -0.001665
     6  H   -0.030395  -0.025827  -0.003962   0.000027  -0.001964  -0.001263
     7  H    0.587504  -0.030636   0.003037  -0.000101   0.000163   0.000024
     8  H   -0.030636   0.563873  -0.004368  -0.000141   0.000651  -0.000186
     9  C    0.003037  -0.004368   4.950627   0.405112   0.340630  -0.041445
    10  H   -0.000101  -0.000141   0.405112   0.562731  -0.042854   0.003324
    11  C    0.000163   0.000651   0.340630  -0.042854   4.900242   0.408460
    12  H    0.000024  -0.000186  -0.041445   0.003324   0.408460   0.572044
    13  H   -0.000012   0.000164  -0.043408  -0.002127   0.401895  -0.028991
    14  H    0.000013  -0.000077  -0.044653  -0.000607   0.400420  -0.027965
    15  C   -0.000003   0.000042   0.000000  -0.000000   0.000000  -0.000000
    16  H   -0.000000   0.000087  -0.000000  -0.000000   0.000000  -0.000000
    17  H   -0.000000   0.000005  -0.000000  -0.000000   0.000000  -0.000000
    18  H   -0.000000  -0.000052   0.000000   0.000000  -0.000000   0.000000
    19  C   -0.000006   0.001178  -0.000042  -0.000003  -0.000001  -0.000001
    20  C    0.000000  -0.000011  -0.000025  -0.000001   0.000000   0.000000
    21  H    0.000000  -0.000008   0.000049   0.000003  -0.000001  -0.000000
    22  H   -0.000000  -0.000003   0.000000   0.000000   0.000000   0.000000
    23  H    0.000000   0.000001   0.000000  -0.000000  -0.000000  -0.000000
    24  C   -0.000440   0.002342  -0.000389   0.000017   0.000002  -0.000001
    25  H    0.000500  -0.000391   0.000043  -0.000001  -0.000000   0.000000
    26  C    0.000108   0.000186  -0.004690   0.000112  -0.000075  -0.000005
    27  H    0.000010  -0.000039   0.002674   0.000418  -0.000046   0.000001
    28  H   -0.000005   0.000012   0.000001  -0.000022   0.000001   0.000000
              13         14         15         16         17         18
     1  C   -0.000091  -0.000114  -0.000074  -0.000006  -0.000003   0.000011
     2  H   -0.000013   0.000010   0.000001   0.000000   0.000000  -0.000000
     3  H   -0.000001   0.000008   0.000000  -0.000000  -0.000000   0.000000
     4  C    0.000455  -0.001306  -0.000016  -0.000004   0.000000  -0.000003
     5  C    0.000182   0.000338   0.000002   0.000006  -0.000001   0.000016
     6  H   -0.000095   0.000335  -0.000000  -0.000000   0.000000  -0.000000
     7  H   -0.000012   0.000013  -0.000003  -0.000000  -0.000000  -0.000000
     8  H    0.000164  -0.000077   0.000042   0.000087   0.000005  -0.000052
     9  C   -0.043408  -0.044653   0.000000  -0.000000  -0.000000   0.000000
    10  H   -0.002127  -0.000607  -0.000000  -0.000000  -0.000000   0.000000
    11  C    0.401895   0.400420   0.000000   0.000000   0.000000  -0.000000
    12  H   -0.028991  -0.027965  -0.000000  -0.000000  -0.000000   0.000000
    13  H    0.586581  -0.033470   0.000000   0.000000   0.000000   0.000000
    14  H   -0.033470   0.588226  -0.000000  -0.000000  -0.000000  -0.000000
    15  C    0.000000  -0.000000   4.897189   0.405447   0.398551   0.398800
    16  H    0.000000  -0.000000   0.405447   0.572094  -0.027312  -0.028372
    17  H    0.000000  -0.000000   0.398551  -0.027312   0.594933  -0.034787
    18  H    0.000000  -0.000000   0.398800  -0.028372  -0.034787   0.592518
    19  C    0.000000   0.000000   0.352824  -0.041712  -0.047284  -0.042780
    20  C    0.000000  -0.000000  -0.060615   0.003825   0.000478  -0.003740
    21  H   -0.000000   0.000000   0.003413  -0.000118  -0.000033  -0.000023
    22  H   -0.000000  -0.000000  -0.005131   0.000136  -0.000778   0.002612
    23  H   -0.000000   0.000000   0.000574  -0.000131   0.001369  -0.000127
    24  C   -0.000001   0.000000  -0.044477  -0.002369  -0.001274  -0.000589
    25  H   -0.000000   0.000000  -0.006681   0.002237   0.000134   0.000228
    26  C    0.000026  -0.000005   0.003162   0.000140  -0.000122  -0.000085
    27  H   -0.000006   0.000002   0.000091   0.000005  -0.000010   0.000012
    28  H   -0.000000   0.000000  -0.000128  -0.000007   0.000028  -0.000006
              19         20         21         22         23         24
     1  C    0.000365   0.000212   0.000126   0.000006  -0.000035  -0.054612
     2  H   -0.000045   0.000000   0.000004  -0.000000   0.000001   0.004711
     3  H   -0.000012  -0.000007  -0.000001   0.000000  -0.000000  -0.003742
     4  C    0.000639  -0.000073   0.000034  -0.000003   0.000004  -0.002574
     5  C   -0.000498   0.000003   0.000002   0.000001  -0.000000  -0.004054
     6  H    0.000014  -0.000000  -0.000000  -0.000000   0.000000   0.000177
     7  H   -0.000006   0.000000   0.000000  -0.000000   0.000000  -0.000440
     8  H    0.001178  -0.000011  -0.000008  -0.000003   0.000001   0.002342
     9  C   -0.000042  -0.000025   0.000049   0.000000   0.000000  -0.000389
    10  H   -0.000003  -0.000001   0.000003   0.000000  -0.000000   0.000017
    11  C   -0.000001   0.000000  -0.000001   0.000000  -0.000000   0.000002
    12  H   -0.000001   0.000000  -0.000000   0.000000  -0.000000  -0.000001
    13  H    0.000000   0.000000  -0.000000  -0.000000  -0.000000  -0.000001
    14  H    0.000000  -0.000000   0.000000  -0.000000   0.000000   0.000000
    15  C    0.352824  -0.060615   0.003413  -0.005131   0.000574  -0.044477
    16  H   -0.041712   0.003825  -0.000118   0.000136  -0.000131  -0.002369
    17  H   -0.047284   0.000478  -0.000033  -0.000778   0.001369  -0.001274
    18  H   -0.042780  -0.003740  -0.000023   0.002612  -0.000127  -0.000589
    19  C    4.929686   0.341532  -0.036709  -0.043317  -0.041980   0.702360
    20  C    0.341532   4.917663   0.404048   0.404549   0.399184  -0.047751
    21  H   -0.036709   0.404048   0.563779  -0.029551  -0.025898  -0.002868
    22  H   -0.043317   0.404549  -0.029551   0.586313  -0.032047   0.002670
    23  H   -0.041980   0.399184  -0.025898  -0.032047   0.575043  -0.004236
    24  C    0.702360  -0.047751  -0.002868   0.002670  -0.004236   4.950687
    25  H   -0.034880   0.003356   0.000022  -0.000097  -0.000136   0.401693
    26  C   -0.048099  -0.007935  -0.001712   0.000181   0.000497   0.346528
    27  H   -0.000882  -0.001977   0.000273   0.000108  -0.000475  -0.045083
    28  H   -0.003364   0.000419  -0.000258  -0.000026   0.000380  -0.047408
              25         26         27         28
     1  C   -0.002338   0.341804  -0.038626  -0.048228
     2  H   -0.000052  -0.039333  -0.004482  -0.002449
     3  H    0.002009  -0.042893   0.004737  -0.003500
     4  C   -0.000281  -0.057886  -0.002578   0.005833
     5  C   -0.000722   0.002459  -0.000000  -0.000154
     6  H    0.000027  -0.000093   0.000002   0.000004
     7  H    0.000500   0.000108   0.000010  -0.000005
     8  H   -0.000391   0.000186  -0.000039   0.000012
     9  C    0.000043  -0.004690   0.002674   0.000001
    10  H   -0.000001   0.000112   0.000418  -0.000022
    11  C   -0.000000  -0.000075  -0.000046   0.000001
    12  H    0.000000  -0.000005   0.000001   0.000000
    13  H   -0.000000   0.000026  -0.000006  -0.000000
    14  H    0.000000  -0.000005   0.000002   0.000000
    15  C   -0.006681   0.003162   0.000091  -0.000128
    16  H    0.002237   0.000140   0.000005  -0.000007
    17  H    0.000134  -0.000122  -0.000010   0.000028
    18  H    0.000228  -0.000085   0.000012  -0.000006
    19  C   -0.034880  -0.048099  -0.000882  -0.003364
    20  C    0.003356  -0.007935  -0.001977   0.000419
    21  H    0.000022  -0.001712   0.000273  -0.000258
    22  H   -0.000097   0.000181   0.000108  -0.000026
    23  H   -0.000136   0.000497  -0.000475   0.000380
    24  C    0.401693   0.346528  -0.045083  -0.047408
    25  H    0.558378  -0.044784   0.003358   0.000980
    26  C   -0.044784   4.956376   0.410046   0.406633
    27  H    0.003358   0.410046   0.584832  -0.029040
    28  H    0.000980   0.406633  -0.029040   0.601927
 Mulliken charges:
               1
     1  C   -0.243042
     2  H    0.119894
     3  H    0.107946
     4  C    0.022000
     5  C   -0.355429
     6  H    0.119717
     7  H    0.111602
     8  H    0.134671
     9  C   -0.148757
    10  H    0.113534
    11  C   -0.354146
    12  H    0.118396
    13  H    0.118912
    14  H    0.118847
    15  C   -0.342972
    16  H    0.116056
    17  H    0.116105
    18  H    0.116367
    19  C    0.013018
    20  C   -0.353134
    21  H    0.125429
    22  H    0.114376
    23  H    0.128015
    24  C   -0.149320
    25  H    0.117401
    26  C   -0.220539
    27  H    0.116675
    28  H    0.118377
 Sum of Mulliken charges =  -0.00000
 Mulliken charges with hydrogens summed into heavy atoms:
               1
     1  C   -0.015202
     4  C    0.022000
     5  C    0.010561
     9  C   -0.035222
    11  C    0.002009
    15  C    0.005556
    19  C    0.013018
    20  C    0.014686
    24  C   -0.031919
    26  C    0.014513
 Electronic spatial extent (au):  <R**2>=           2174.2717
 Charge=             -0.0000 electrons
 Dipole moment (field-independent basis, Debye):
    X=             -0.2845    Y=             -0.1551    Z=             -0.0868  Tot=              0.3355
 Quadrupole moment (field-independent basis, Debye-Ang):
   XX=            -65.9489   YY=            -65.1441   ZZ=            -63.6309
   XY=              0.2843   XZ=              0.0684   YZ=             -0.0381
 Traceless Quadrupole moment (field-independent basis, Debye-Ang):
   XX=             -1.0410   YY=             -0.2361   ZZ=              1.2771
   XY=              0.2843   XZ=              0.0684   YZ=             -0.0381
 Octapole moment (field-independent basis, Debye-Ang**2):
  XXX=             -5.8769  YYY=             -0.6576  ZZZ=             -0.0891  XYY=             -0.1164
  XXY=             -6.6814  XXZ=             -3.9616  XZZ=              1.7910  YZZ=              1.2848
  YYZ=             -0.1770  XYZ=             -0.9017
 Hexadecapole moment (field-independent basis, Debye-Ang**3):
 XXXX=          -2024.9508 YYYY=           -534.4180 ZZZZ=           -473.6379 XXXY=             -6.7781
 XXXZ=              2.7456 YYYX=              4.7558 YYYZ=              0.3891 ZZZX=             -5.5753
 ZZZY=              2.7870 XXYY=           -434.6828 XXZZ=           -414.1847 YYZZ=           -167.4951
 XXYZ=             -5.0805 YYXZ=              2.8008 ZZXY=             -0.6162
 N-N= 5.241816350117D+02 E-N=-1.953100068848D+03  KE= 3.886129459104D+02
 No NMR shielding tensors so no spin-rotation constants.
 Leave Link  601 at Fri Sep 17 20:16:01 2021, MaxMem=   524288000 cpu:               0.3 elap:               0.3
 (Enter /opt/gaussian/g16_legacy/l701.exe)
 ... and contract with generalized density number  2.
 Compute integral first derivatives.
 Leave Link  701 at Fri Sep 17 20:16:01 2021, MaxMem=   524288000 cpu:               0.3 elap:               0.3
 (Enter /opt/gaussian/g16_legacy/l702.exe)
 L702 exits ... SP integral derivatives will be done elsewhere.
 Leave Link  702 at Fri Sep 17 20:16:01 2021, MaxMem=   524288000 cpu:               0.1 elap:               0.0
 (Enter /opt/gaussian/g16_legacy/l703.exe)
 Integral derivatives from FoFJK, PRISM(SPDF).
 Compute integral first derivatives, UseDBF=F ICtDFT=           0.
 Calling FoFJK, ICntrl=  10002127 FMM=F ISym2X=0 I1Cent= 0 IOpClX= 0 NMat=1 NMatS=1 NMatT=0.
 FoFJK:  IHMeth= 1 ICntrl=10002127 DoSepK=F KAlg= 0 I1Cent=           0 FoldK=F
 IRaf=         0 NMat=       1 IRICut=       1 DoRegI=T DoRafI=F ISym2E= 0 IDoP0=0 IntGTp=1.
 FoFCou: FMM=F IPFlag=           0 FMFlag=      100000 FMFlg1=         800
         NFxFlg=           0 DoJE=F BraDBF=F KetDBF=F FulRan=T
         wScrn=  0.000000 ICntrl=  10002127 IOpCl=  0 I1Cent=           0 NGrid=           0
         NMat0=    1 NMatS0=      1 NMatT0=    0 NMatD0=    1 NMtDS0=    0 NMtDT0=    0
 Symmetry not used in FoFCou.
 Leave Link  703 at Fri Sep 17 20:16:37 2021, MaxMem=   524288000 cpu:              35.8 elap:              35.8
 (Enter /opt/gaussian/g16_legacy/l716.exe)
 Dipole        =-7.85136539D-02-7.09777720D-02-4.85685554D-02
 ***** Axes restored to original set *****
 -------------------------------------------------------------------
 Center     Atomic                   Forces (Hartrees/Bohr)
 Number     Number              X              Y              Z
 -------------------------------------------------------------------
      1        6           0.000391397   -0.005658074   -0.002368337
      2        1           0.001048656    0.002082749    0.002666724
      3        1           0.000964358    0.001079416    0.003600999
      4        6          -0.005231018   -0.003910076   -0.004975117
      5        6           0.004982313    0.003183561   -0.000712327
      6        1          -0.002198516    0.000609351    0.003569239
      7        1          -0.000389968   -0.001559551    0.004361202
      8        1           0.000900345    0.000738778   -0.003036221
      9        6          -0.004922849    0.004149078    0.000384802
     10        1          -0.000640291    0.002127638   -0.001884462
     11        6           0.002806173    0.000940596    0.000714456
     12        1          -0.003202904   -0.002734105   -0.000519746
     13        1           0.002047336   -0.000956580   -0.002790899
     14        1           0.001035496    0.000848015    0.003238188
     15        6           0.000024748    0.002373018   -0.003415920
     16        1          -0.002381934   -0.002989976    0.001927665
     17        1           0.002746674    0.000604462    0.001809595
     18        1          -0.003842579    0.000770872    0.000016121
     19        6           0.006354728    0.001053945   -0.004414933
     20        6           0.001451493   -0.002967686    0.002786477
     21        1          -0.002978511    0.002269560   -0.001784962
     22        1          -0.002500475    0.000771655   -0.002922675
     23        1           0.002216887   -0.001633531    0.001846959
     24        6           0.004195299   -0.004663791    0.000454459
     25        1          -0.000418763    0.000323326    0.001934224
     26        6          -0.002986043    0.003198921    0.000045564
     27        1           0.000461162    0.002761419   -0.000458899
     28        1           0.000066787   -0.002812988   -0.000072178
 -------------------------------------------------------------------
 Cartesian Forces:  Max     0.006354728 RMS     0.002639095
 Leave Link  716 at Fri Sep 17 20:16:37 2021, MaxMem=   524288000 cpu:               0.1 elap:               0.1
 (Enter /opt/gaussian/g16_legacy/l103.exe)

 GradGradGradGradGradGradGradGradGradGradGradGradGradGradGradGradGradGrad
 Berny optimization.
 FormGI is forming the generalized inverse of G from B-inverse, IUseBI=4.
 Internal  Forces:  Max     0.006158716 RMS     0.002196841
 Search for a local minimum.
 Step number   1 out of a maximum of  138
 All quantities printed in internal units (Hartrees-Bohrs-Radians)
 RMS Force = .21968D-02 SwitMx=.10000D-02 MixMth= 1
 Mixed Optimization -- RFO/linear search
 Second derivative matrix not updated -- first step.
 ITU=  0
     Eigenvalues ---    0.00242   0.00513   0.00686   0.00693   0.00696
     Eigenvalues ---    0.00715   0.00830   0.01195   0.01282   0.01551
     Eigenvalues ---    0.01638   0.02762   0.02771   0.03709   0.03901
     Eigenvalues ---    0.05288   0.05422   0.07015   0.07049   0.07079
     Eigenvalues ---    0.07098   0.07218   0.07309   0.07316   0.07506
     Eigenvalues ---    0.09531   0.09698   0.12991   0.13092   0.15994
     Eigenvalues ---    0.16000   0.16000   0.16000   0.16000   0.16000
     Eigenvalues ---    0.16000   0.16000   0.16000   0.16000   0.16000
     Eigenvalues ---    0.16000   0.16000   0.16000   0.21922   0.21974
     Eigenvalues ---    0.22000   0.22002   0.24993   0.24996   0.24999
     Eigenvalues ---    0.25000   0.28553   0.30449   0.31754   0.31807
     Eigenvalues ---    0.31830   0.31976   0.32892   0.33878   0.33931
     Eigenvalues ---    0.34020   0.34137   0.34202   0.34208   0.34220
     Eigenvalues ---    0.34248   0.34249   0.34318   0.34333   0.34335
     Eigenvalues ---    0.34345   0.34353   0.34467   0.34526   0.34864
     Eigenvalues ---    0.34905   0.55218   0.55354
 RFO step:  Lambda=-4.94189746D-03 EMin= 2.41945626D-03
 Linear search not attempted -- first point.
 Iteration  1 RMS(Cart)=  0.16659636 RMS(Int)=  0.00603702
 Iteration  2 RMS(Cart)=  0.00986603 RMS(Int)=  0.00023157
 Iteration  3 RMS(Cart)=  0.00002991 RMS(Int)=  0.00023094
 Iteration  4 RMS(Cart)=  0.00000001 RMS(Int)=  0.00023094
 ITry= 1 IFail=0 DXMaxC= 5.99D-01 DCOld= 1.00D+10 DXMaxT= 3.00D-01 DXLimC= 3.00D+00 Rises=F
 Variable       Old X    -DE/DX   Delta X   Delta X   Delta X     New X
                                 (Linear)    (Quad)   (Total)
    R1        2.07536  -0.00287   0.00000  -0.00834  -0.00834   2.06702
    R2        2.07446  -0.00257   0.00000  -0.00747  -0.00747   2.06700
    R3        2.87077  -0.00505   0.00000  -0.01633  -0.01633   2.85445
    R4        2.90945  -0.00340   0.00000  -0.01172  -0.01172   2.89772
    R5        2.84455   0.00322   0.00000   0.00997   0.00997   2.85453
    R6        2.54939  -0.00508   0.00000  -0.00912  -0.00912   2.54027
    R7        2.06752  -0.00313   0.00000  -0.00898  -0.00898   2.05854
    R8        2.06980  -0.00397   0.00000  -0.01145  -0.01145   2.05834
    R9        2.06771  -0.00191   0.00000  -0.00547  -0.00547   2.06224
   R10        2.05897  -0.00166   0.00000  -0.00471  -0.00471   2.05426
   R11        2.82542   0.00292   0.00000   0.00873   0.00873   2.83415
   R12        2.06549  -0.00395   0.00000  -0.01131  -0.01131   2.05418
   R13        2.06911  -0.00247   0.00000  -0.00711  -0.00711   2.06200
   R14        2.06797  -0.00178   0.00000  -0.00513  -0.00513   2.06284
   R15        2.06960  -0.00378   0.00000  -0.01088  -0.01088   2.05872
   R16        2.06738  -0.00113   0.00000  -0.00324  -0.00324   2.06414
   R17        2.07100  -0.00288   0.00000  -0.00830  -0.00830   2.06270
   R18        2.84498  -0.00007   0.00000  -0.00023  -0.00023   2.84476
   R19        2.84187   0.00130   0.00000   0.00402   0.00402   2.84589
   R20        2.54819  -0.00385   0.00000  -0.00690  -0.00690   2.54129
   R21        2.06451  -0.00267   0.00000  -0.00762  -0.00762   2.05689
   R22        2.06990  -0.00335   0.00000  -0.00965  -0.00965   2.06025
   R23        2.06914  -0.00208   0.00000  -0.00600  -0.00600   2.06315
   R24        2.05829  -0.00130   0.00000  -0.00368  -0.00368   2.05461
   R25        2.84596  -0.00338   0.00000  -0.01050  -0.01050   2.83547
   R26        2.06768  -0.00215   0.00000  -0.00618  -0.00618   2.06150
   R27        2.07296  -0.00002   0.00000  -0.00005  -0.00005   2.07292
    A1        1.83077   0.00075   0.00000   0.02927   0.02922   1.85999
    A2        1.90900   0.00133   0.00000   0.00471   0.00472   1.91372
    A3        1.88329   0.00205   0.00000   0.01106   0.01107   1.89436
    A4        1.91300   0.00235   0.00000   0.00446   0.00393   1.91693
    A5        1.91489   0.00029   0.00000  -0.00878  -0.00908   1.90581
    A6        2.00463  -0.00616   0.00000  -0.03469  -0.03495   1.96968
    A7        2.02474   0.00597   0.00000   0.02387   0.02289   2.04763
    A8        2.10334  -0.00480   0.00000  -0.01831  -0.01922   2.08412
    A9        2.15487  -0.00114   0.00000  -0.00394  -0.00489   2.14998
   A10        1.95586  -0.00030   0.00000   0.00070   0.00070   1.95656
   A11        1.93854  -0.00191   0.00000  -0.01066  -0.01063   1.92792
   A12        1.92982   0.00335   0.00000   0.01689   0.01691   1.94673
   A13        1.85063   0.00235   0.00000   0.02076   0.02078   1.87141
   A14        1.89825  -0.00197   0.00000  -0.01353  -0.01353   1.88472
   A15        1.88773  -0.00167   0.00000  -0.01497  -0.01493   1.87281
   A16        2.06727  -0.00238   0.00000  -0.01411  -0.01417   2.05310
   A17        2.21911   0.00010   0.00000   0.00057   0.00051   2.21963
   A18        1.99619   0.00230   0.00000   0.01419   0.01414   2.01032
   A19        1.98131  -0.00316   0.00000  -0.01876  -0.01867   1.96264
   A20        1.91006   0.00280   0.00000   0.01701   0.01697   1.92703
   A21        1.91706   0.00367   0.00000   0.02184   0.02181   1.93887
   A22        1.87419   0.00023   0.00000   0.00221   0.00229   1.87647
   A23        1.88929  -0.00040   0.00000  -0.00248  -0.00239   1.88690
   A24        1.88945  -0.00334   0.00000  -0.02106  -0.02122   1.86823
   A25        1.88467   0.00014   0.00000   0.00276   0.00281   1.88747
   A26        1.87277   0.00163   0.00000   0.01405   0.01407   1.88684
   A27        1.96044  -0.00262   0.00000  -0.01272  -0.01269   1.94775
   A28        1.89523  -0.00315   0.00000  -0.02535  -0.02533   1.86990
   A29        1.92609   0.00294   0.00000   0.01564   0.01567   1.94176
   A30        1.92260   0.00094   0.00000   0.00475   0.00477   1.92738
   A31        2.00311   0.00196   0.00000   0.00763   0.00740   2.01051
   A32        2.10629   0.00084   0.00000   0.00321   0.00297   2.10926
   A33        2.17377  -0.00281   0.00000  -0.01110  -0.01132   2.16245
   A34        1.97112  -0.00138   0.00000  -0.00732  -0.00730   1.96382
   A35        1.93420  -0.00124   0.00000  -0.00532  -0.00530   1.92891
   A36        1.91654   0.00346   0.00000   0.01773   0.01777   1.93431
   A37        1.85728   0.00249   0.00000   0.02111   0.02112   1.87840
   A38        1.89752  -0.00190   0.00000  -0.01544  -0.01540   1.88211
   A39        1.88429  -0.00155   0.00000  -0.01147  -0.01144   1.87285
   A40        2.06196  -0.00139   0.00000  -0.00871  -0.00881   2.05315
   A41        2.22082  -0.00031   0.00000  -0.00138  -0.00149   2.21933
   A42        2.00041   0.00170   0.00000   0.01006   0.00996   2.01036
   A43        1.99069  -0.00578   0.00000  -0.02729  -0.02754   1.96314
   A44        1.89062   0.00203   0.00000  -0.00228  -0.00287   1.88775
   A45        1.88437   0.00116   0.00000   0.01348   0.01368   1.89805
   A46        1.94865   0.00030   0.00000  -0.01550  -0.01594   1.93271
   A47        1.88332   0.00359   0.00000   0.03406   0.03428   1.91759
   A48        1.86079  -0.00100   0.00000   0.00045   0.00056   1.86136
    D1        2.58137   0.00254   0.00000   0.12472   0.12477   2.70614
    D2       -0.53790   0.00122   0.00000   0.04645   0.04643  -0.49146
    D3        0.58312  -0.00037   0.00000   0.08470   0.08471   0.66783
[...]
                 (A) (A) (A) (A) (A) (A) (A) (A) (A) (A) (A) (A)
                 (A) (A) (A) (A) (A) (A) (A) (A) (A) (A) (A) (A)
                 (A) (A) (A) (A) (A) (A) (A) (A) (A) (A) (A) (A)
                 (A) (A) (A) (A) (A) (A) (A) (A) (A) (A) (A) (A)
                 (A) (A) (A) (A) (A) (A) (A) (A) (A) (A) (A) (A)
                 (A) (A) (A) (A) (A) (A) (A) (A) (A) (A) (A) (A)
                 (A) (A) (A) (A) (A) (A) (A) (A) (A) (A) (A) (A)
                 (A) (A) (A) (A) (A) (A) (A) (A) (A) (A) (A) (A)
                 (A) (A) (A) (A) (A) (A) (A) (A) (A) (A) (A) (A)
                 (A) (A) (A) (A) (A) (A) (A) (A) (A) (A) (A) (A)
                 (A) (A) (A) (A) (A) (A) (A) (A) (A) (A) (A) (A)
                 (A) (A) (A) (A) (A) (A) (A) (A) (A) (A) (A) (A)
                 (A) (A) (A) (A) (A) (A) (A) (A) (A) (A) (A) (A)
                 (A) (A) (A) (A) (A) (A) (A) (A) (A)
 The electronic state is 1-A.
 Alpha  occ. eigenvalues --  -11.22905 -11.22417 -11.21815 -11.21726 -11.21476
 Alpha  occ. eigenvalues --  -11.21353 -11.21281 -11.21253 -11.21241 -11.20944
 Alpha  occ. eigenvalues --   -1.10826  -1.08027  -1.01971  -0.97278  -0.93554
 Alpha  occ. eigenvalues --   -0.92408  -0.87489  -0.81946  -0.70430  -0.69260
 Alpha  occ. eigenvalues --   -0.63913  -0.62527  -0.59471  -0.59238  -0.58024
 Alpha  occ. eigenvalues --   -0.57119  -0.55205  -0.53892  -0.53053  -0.52843
 Alpha  occ. eigenvalues --   -0.52472  -0.51203  -0.50221  -0.49364  -0.47951
 Alpha  occ. eigenvalues --   -0.45451  -0.44722  -0.33173  -0.31264
 Alpha virt. eigenvalues --    0.18605   0.18963   0.22659   0.25754   0.25952
 Alpha virt. eigenvalues --    0.27103   0.28219   0.29766   0.29955   0.30981
 Alpha virt. eigenvalues --    0.31948   0.32551   0.32834   0.33437   0.34116
 Alpha virt. eigenvalues --    0.35441   0.36564   0.37297   0.39977   0.40247
 Alpha virt. eigenvalues --    0.41205   0.41954   0.43404   0.43993   0.47370
 Alpha virt. eigenvalues --    0.50789   0.52610   0.61807   0.64258   0.66718
 Alpha virt. eigenvalues --    0.70383   0.71102   0.73866   0.74216   0.77046
 Alpha virt. eigenvalues --    0.77688   0.80672   0.81032   0.82164   0.83986
 Alpha virt. eigenvalues --    0.85710   0.86732   0.88404   0.89067   0.91823
 Alpha virt. eigenvalues --    0.92905   0.94843   0.97134   0.98128   1.00190
 Alpha virt. eigenvalues --    1.01163   1.02723   1.04011   1.04623   1.06351
 Alpha virt. eigenvalues --    1.08733   1.08944   1.09911   1.12408   1.12686
 Alpha virt. eigenvalues --    1.13344   1.13880   1.15518   1.15713   1.16326
 Alpha virt. eigenvalues --    1.17648   1.18623   1.19520   1.20007   1.21076
 Alpha virt. eigenvalues --    1.22009   1.23357   1.24727   1.26484   1.28125
 Alpha virt. eigenvalues --    1.29171   1.31100   1.42230   1.44094   1.45998
 Alpha virt. eigenvalues --    1.46979   1.48217   1.54730   1.58396   1.59748
 Alpha virt. eigenvalues --    1.61497   1.67277   1.69432   1.70410   1.73911
 Alpha virt. eigenvalues --    1.76150   1.77708   1.90627   1.92050   1.96205
 Alpha virt. eigenvalues --    1.99316   2.01611   2.02696   2.06566   2.07061
 Alpha virt. eigenvalues --    2.09091   2.09797   2.11362   2.14309   2.15260
 Alpha virt. eigenvalues --    2.16799   2.19013   2.21111   2.26451   2.28516
 Alpha virt. eigenvalues --    2.29802   2.31414   2.33415   2.35543   2.35814
 Alpha virt. eigenvalues --    2.36024   2.36580   2.39134   2.40020   2.41943
 Alpha virt. eigenvalues --    2.43875   2.44128   2.44816   2.45324   2.46529
 Alpha virt. eigenvalues --    2.47183   2.49173   2.50865   2.52038   2.54021
 Alpha virt. eigenvalues --    2.56602   2.58267   2.59662   2.64076   2.64547
 Alpha virt. eigenvalues --    2.67468   2.69789   2.70568   2.73172   2.74168
 Alpha virt. eigenvalues --    2.75892   2.76628   2.79599   2.82901   2.84674
 Alpha virt. eigenvalues --    2.86624   2.87884   2.90363   2.93556   2.94987
 Alpha virt. eigenvalues --    2.95534   2.98970   3.00134   3.02281   3.03569
 Alpha virt. eigenvalues --    3.06312   3.07958   3.11377   3.14752   3.15173
 Alpha virt. eigenvalues --    3.18286   3.19141   3.19559   3.20427   3.22503
 Alpha virt. eigenvalues --    3.23488   3.26144   3.27285   3.27652   3.39598
 Alpha virt. eigenvalues --    3.40166   3.44371   3.45778   3.56285   3.58113
 Alpha virt. eigenvalues --    3.62761   3.63554   3.66884   3.71309   3.79632
 Alpha virt. eigenvalues --    3.80749   3.82616   3.83482   3.83811   3.84200
 Alpha virt. eigenvalues --    3.85434   3.86926   3.87416   3.90180   3.91803
 Alpha virt. eigenvalues --    3.94498   4.58876   4.64379   4.74908   4.85590
 Alpha virt. eigenvalues --    4.91792   4.92127   4.93437   5.10661   5.12449
 Alpha virt. eigenvalues --    5.16088
          Condensed to atoms (all electrons):
               1          2          3          4          5          6
     1  C    5.011978   0.411564   0.411100   0.334993  -0.052485   0.003809
     2  H    0.411564   0.575264  -0.029000  -0.039925   0.003179  -0.000118
     3  H    0.411100  -0.029000   0.595032  -0.047254  -0.004706   0.000133
     4  C    0.334993  -0.039925  -0.047254   4.953956   0.350398  -0.040963
     5  C   -0.052485   0.003179  -0.004706   0.350398   4.906025   0.405631
     6  H    0.003809  -0.000118   0.000133  -0.040963   0.405631   0.579871
     7  H   -0.004488  -0.000017   0.002100  -0.041754   0.396948  -0.028102
     8  H   -0.000516   0.000040  -0.000150  -0.044383   0.401725  -0.026163
     9  C   -0.057551  -0.004588   0.003726   0.695517  -0.043610  -0.002596
    10  H   -0.005955   0.001709   0.000141  -0.044263   0.003575   0.000033
    11  C    0.002922   0.000035  -0.000092  -0.043824  -0.008256  -0.002294
    12  H    0.000086   0.000004   0.000000   0.000008  -0.002056  -0.001377
    13  H   -0.000073  -0.000013  -0.000000  -0.000440   0.000276   0.000006
    14  H   -0.000112   0.000013   0.000005  -0.000981   0.000274  -0.000028
    15  C   -0.000090   0.000002  -0.000000  -0.000059   0.000045  -0.000006
    16  H   -0.000006   0.000000   0.000002   0.000003  -0.000006  -0.000000
    17  H   -0.000006   0.000000   0.000000   0.000001  -0.000004   0.000000
    18  H    0.000028  -0.000000  -0.000001  -0.000016   0.000166  -0.000007
    19  C   -0.004219  -0.000046   0.000482   0.003770  -0.004536   0.000213
    20  C    0.000569  -0.000005  -0.000018  -0.000760   0.000166  -0.000019
    21  H   -0.000315   0.000041   0.000001   0.001182  -0.000010  -0.000002
    22  H    0.000127  -0.000003  -0.000000  -0.000232   0.000286  -0.000023
    23  H   -0.000057   0.000001   0.000000   0.000102  -0.000011   0.000001
    24  C   -0.065788   0.005150  -0.003117  -0.003351  -0.006068   0.000078
    25  H    0.000352  -0.000123   0.001460  -0.000222   0.000046   0.000004
    26  C    0.337507  -0.038830  -0.042558  -0.055689   0.001256  -0.000121
    27  H   -0.040642  -0.003450   0.004529  -0.005536   0.000147   0.000003
    28  H   -0.047955  -0.002957  -0.002259   0.006169  -0.000173   0.000003
               7          8          9         10         11         12
     1  C   -0.004488  -0.000516  -0.057551  -0.005955   0.002922   0.000086
     2  H   -0.000017   0.000040  -0.004588   0.001709   0.000035   0.000004
     3  H    0.002100  -0.000150   0.003726   0.000141  -0.000092   0.000000
     4  C   -0.041754  -0.044383   0.695517  -0.044263  -0.043824   0.000008
     5  C    0.396948   0.401725  -0.043610   0.003575  -0.008256  -0.002056
     6  H   -0.028102  -0.026163  -0.002596   0.000033  -0.002294  -0.001377
     7  H    0.592252  -0.033839  -0.000017  -0.000119   0.000293  -0.000033
     8  H   -0.033839   0.565735  -0.000294  -0.000135   0.000263  -0.000066
     9  C   -0.000017  -0.000294   4.948164   0.406306   0.342479  -0.043725
    10  H   -0.000119  -0.000135   0.406306   0.568390  -0.041977   0.003432
    11  C    0.000293   0.000263   0.342479  -0.041977   4.889628   0.408351
    12  H   -0.000033  -0.000066  -0.043725   0.003432   0.408351   0.576331
    13  H   -0.000028   0.000047  -0.043273  -0.001320   0.401047  -0.028427
    14  H    0.000053  -0.000022  -0.042305  -0.001151   0.401912  -0.028146
    15  C   -0.000000   0.000005  -0.000001  -0.000000  -0.000000  -0.000000
    16  H    0.000000   0.000014   0.000000  -0.000000  -0.000000  -0.000000
    17  H    0.000000   0.000020  -0.000000   0.000000  -0.000000  -0.000000
    18  H   -0.000003  -0.000139  -0.000002  -0.000000   0.000000   0.000000
    19  C    0.000123   0.001553   0.000591  -0.000004  -0.000017  -0.000002
    20  C    0.000002  -0.000205  -0.001024  -0.000033   0.000011  -0.000002
    21  H    0.000003  -0.000078   0.001672   0.000028  -0.000086  -0.000003
    22  H   -0.000003  -0.000150  -0.000121  -0.000003   0.000076   0.000014
    23  H    0.000000   0.000005   0.000078   0.000001  -0.000002   0.000000
    24  C    0.000310   0.005608  -0.000377   0.000095  -0.000005   0.000003
    25  H   -0.000019   0.000105  -0.000008   0.000001  -0.000000   0.000000
    26  C    0.000057  -0.000434  -0.006091  -0.000071  -0.000061  -0.000008
    27  H   -0.000001   0.000044   0.001733   0.000720  -0.000068   0.000001
    28  H    0.000012  -0.000017   0.000121  -0.000042   0.000002   0.000000
              13         14         15         16         17         18
     1  C   -0.000073  -0.000112  -0.000090  -0.000006  -0.000006   0.000028
     2  H   -0.000013   0.000013   0.000002   0.000000   0.000000  -0.000000
     3  H   -0.000000   0.000005  -0.000000   0.000002   0.000000  -0.000001
     4  C   -0.000440  -0.000981  -0.000059   0.000003   0.000001  -0.000016
     5  C    0.000276   0.000274   0.000045  -0.000006  -0.000004   0.000166
     6  H    0.000006  -0.000028  -0.000006  -0.000000   0.000000  -0.000007
     7  H   -0.000028   0.000053  -0.000000   0.000000   0.000000  -0.000003
     8  H    0.000047  -0.000022   0.000005   0.000014   0.000020  -0.000139
     9  C   -0.043273  -0.042305  -0.000001   0.000000  -0.000000  -0.000002
    10  H   -0.001320  -0.001151  -0.000000  -0.000000   0.000000  -0.000000
    11  C    0.401047   0.401912  -0.000000  -0.000000  -0.000000   0.000000
    12  H   -0.028427  -0.028146  -0.000000  -0.000000  -0.000000   0.000000
    13  H    0.591048  -0.036624   0.000000  -0.000000   0.000000   0.000000
    14  H   -0.036624   0.588167   0.000000   0.000000  -0.000000  -0.000000
    15  C    0.000000   0.000000   4.903639   0.405822   0.398959   0.397618
    16  H   -0.000000   0.000000   0.405822   0.568120  -0.026578  -0.026898
    17  H    0.000000  -0.000000   0.398959  -0.026578   0.592387  -0.037759
    18  H    0.000000  -0.000000   0.397618  -0.026898  -0.037759   0.596100
    19  C   -0.000008   0.000000   0.353331  -0.041858  -0.043740  -0.044084
    20  C    0.000108   0.000001  -0.065396   0.003807  -0.001294  -0.001942
    21  H   -0.000030   0.000008   0.003732  -0.000113  -0.000031  -0.000074
    22  H    0.000133  -0.000000  -0.002700  -0.000026  -0.000494   0.002902
    23  H   -0.000011   0.000000  -0.002339  -0.000047   0.002720  -0.000500
    24  C    0.000001  -0.000000  -0.045065  -0.002604  -0.000963  -0.000797
    25  H    0.000000  -0.000000  -0.007040   0.002365   0.000184   0.000203
    26  C    0.000030  -0.000005   0.003183   0.000145  -0.000125  -0.000080
    27  H   -0.000000   0.000001   0.000082   0.000006   0.000005  -0.000004
    28  H   -0.000001   0.000000  -0.000103  -0.000008   0.000011  -0.000003
              19         20         21         22         23         24
     1  C   -0.004219   0.000569  -0.000315   0.000127  -0.000057  -0.065788
     2  H   -0.000046  -0.000005   0.000041  -0.000003   0.000001   0.005150
     3  H    0.000482  -0.000018   0.000001  -0.000000   0.000000  -0.003117
     4  C    0.003770  -0.000760   0.001182  -0.000232   0.000102  -0.003351
     5  C   -0.004536   0.000166  -0.000010   0.000286  -0.000011  -0.006068
     6  H    0.000213  -0.000019  -0.000002  -0.000023   0.000001   0.000078
     7  H    0.000123   0.000002   0.000003  -0.000003   0.000000   0.000310
     8  H    0.001553  -0.000205  -0.000078  -0.000150   0.000005   0.005608
     9  C    0.000591  -0.001024   0.001672  -0.000121   0.000078  -0.000377
    10  H   -0.000004  -0.000033   0.000028  -0.000003   0.000001   0.000095
    11  C   -0.000017   0.000011  -0.000086   0.000076  -0.000002  -0.000005
    12  H   -0.000002  -0.000002  -0.000003   0.000014   0.000000   0.000003
    13  H   -0.000008   0.000108  -0.000030   0.000133  -0.000011   0.000001
    14  H    0.000000   0.000001   0.000008  -0.000000   0.000000  -0.000000
    15  C    0.353331  -0.065396   0.003732  -0.002700  -0.002339  -0.045065
    16  H   -0.041858   0.003807  -0.000113  -0.000026  -0.000047  -0.002604
    17  H   -0.043740  -0.001294  -0.000031  -0.000494   0.002720  -0.000963
    18  H   -0.044084  -0.001942  -0.000074   0.002902  -0.000500  -0.000797
    19  C    4.912993   0.351788  -0.036499  -0.043404  -0.044680   0.694591
    20  C    0.351788   4.902057   0.406985   0.401435   0.396670  -0.041925
    21  H   -0.036499   0.406985   0.556707  -0.027678  -0.025718  -0.002835
    22  H   -0.043404   0.401435  -0.027678   0.588295  -0.036648  -0.000278
    23  H   -0.044680   0.396670  -0.025718  -0.036648   0.595985  -0.000461
    24  C    0.694591  -0.041925  -0.002835  -0.000278  -0.000461   4.969961
    25  H   -0.039352   0.003500   0.000035  -0.000121  -0.000128   0.403349
    26  C   -0.048655  -0.008014  -0.002718   0.000359   0.000191   0.349192
    27  H    0.000543  -0.002574  -0.001443  -0.000076   0.000077  -0.047416
    28  H    0.001517   0.000136   0.000111  -0.000016   0.000035  -0.043653
              25         26         27         28
     1  C    0.000352   0.337507  -0.040642  -0.047955
     2  H   -0.000123  -0.038830  -0.003450  -0.002957
     3  H    0.001460  -0.042558   0.004529  -0.002259
     4  C   -0.000222  -0.055689  -0.005536   0.006169
     5  C    0.000046   0.001256   0.000147  -0.000173
     6  H    0.000004  -0.000121   0.000003   0.000003
     7  H   -0.000019   0.000057  -0.000001   0.000012
     8  H    0.000105  -0.000434   0.000044  -0.000017
     9  C   -0.000008  -0.006091   0.001733   0.000121
    10  H    0.000001  -0.000071   0.000720  -0.000042
    11  C   -0.000000  -0.000061  -0.000068   0.000002
    12  H    0.000000  -0.000008   0.000001   0.000000
    13  H    0.000000   0.000030  -0.000000  -0.000001
    14  H   -0.000000  -0.000005   0.000001   0.000000
    15  C   -0.007040   0.003183   0.000082  -0.000103
    16  H    0.002365   0.000145   0.000006  -0.000008
    17  H    0.000184  -0.000125   0.000005   0.000011
    18  H    0.000203  -0.000080  -0.000004  -0.000003
    19  C   -0.039352  -0.048655   0.000543   0.001517
    20  C    0.003500  -0.008014  -0.002574   0.000136
    21  H    0.000035  -0.002718  -0.001443   0.000111
    22  H   -0.000121   0.000359  -0.000076  -0.000016
    23  H   -0.000128   0.000191   0.000077   0.000035
    24  C    0.403349   0.349192  -0.047416  -0.043653
    25  H    0.561464  -0.040938   0.003471  -0.003496
    26  C   -0.040938   4.950059   0.417782   0.410762
    27  H    0.003471   0.417782   0.583756  -0.029427
    28  H   -0.003496   0.410762  -0.029427   0.596570
 Mulliken charges:
               1
     1  C   -0.234777
     2  H    0.122073
     3  H    0.110445
     4  C    0.023552
     5  C   -0.348223
     6  H    0.112037
     7  H    0.116270
     8  H    0.131428
     9  C   -0.154803
    10  H    0.110641
    11  C   -0.350337
    12  H    0.115613
    13  H    0.117552
    14  H    0.118940
    15  C   -0.343618
    16  H    0.117861
    17  H    0.116706
    18  H    0.115292
    19  C    0.029611
    20  C   -0.344023
    21  H    0.127128
    22  H    0.118347
    23  H    0.114738
    24  C   -0.163633
    25  H    0.114909
    26  C   -0.226125
    27  H    0.117737
    28  H    0.114660
 Sum of Mulliken charges =  -0.00000
 Mulliken charges with hydrogens summed into heavy atoms:
               1
     1  C   -0.002260
     4  C    0.023552
     5  C    0.011512
     9  C   -0.044162
    11  C    0.001768
    15  C    0.006241
    19  C    0.029611
    20  C    0.016190
    24  C   -0.048723
    26  C    0.006272
 Electronic spatial extent (au):  <R**2>=           1886.1116
 Charge=             -0.0000 electrons
 Dipole moment (field-independent basis, Debye):
    X=             -0.1610    Y=             -0.1826    Z=              0.0696  Tot=              0.2531
 Quadrupole moment (field-independent basis, Debye-Ang):
   XX=            -66.8077   YY=            -63.9420   ZZ=            -64.7087
   XY=              0.0093   XZ=             -1.4126   YZ=              0.2962
 Traceless Quadrupole moment (field-independent basis, Debye-Ang):
   XX=             -1.6549   YY=              1.2108   ZZ=              0.4441
   XY=              0.0093   XZ=             -1.4126   YZ=              0.2962
 Octapole moment (field-independent basis, Debye-Ang**2):
  XXX=             -3.0916  YYY=              1.7882  ZZZ=             -1.0497  XYY=             -1.3471
  XXY=             -5.3892  XXZ=             -0.0330  XZZ=              2.5627  YZZ=              0.1161
  YYZ=              1.3478  XYZ=             -2.7207
 Hexadecapole moment (field-independent basis, Debye-Ang**3):
 XXXX=          -1566.8954 YYYY=           -662.3110 ZZZZ=           -422.5395 XXXY=             -1.0113
 XXXZ=            -11.8226 YYYX=             -2.1115 YYYZ=             -2.0729 ZZZX=             -2.5225
 ZZZY=              1.1606 XXYY=           -368.9416 XXZZ=           -325.8406 YYZZ=           -176.1373
 XXYZ=              6.5501 YYXZ=             -0.4880 ZZXY=              1.0467
 N-N= 5.399678481613D+02 E-N=-1.984780089764D+03  KE= 3.887516583189D+02
 No NMR shielding tensors so no spin-rotation constants.
 Leave Link  601 at Fri Sep 17 22:52:51 2021, MaxMem=   524288000 cpu:               0.3 elap:               0.6
 (Enter /opt/gaussian/g16_legacy/l9999.exe)
 1\1\GINC-TRUENO90\FOpt\RMP2-FC\6-31G(d,p)\C10H18\JRAMOS\17-Sep-2021\0\
 \#p opt mp2/6-31g(d,p)\\Conformer number 014. Energy MM = 27.220 kcal/
 mol\\0,1\C,2.1802499145,1.4500321354,-9.1873185663\H,1.9712835153,0.46
 61508341,-9.6150159072\H,2.1651135952,2.164082025,-10.0156055145\C,3.5
 461106756,1.4469537246,-8.5361098108\C,4.3534929112,2.7037481789,-8.70
 40489636\H,5.2986760986,2.6784626489,-8.1671743158\H,4.5712049456,2.86
 97476416,-9.7616190519\H,3.7829948259,3.5634402922,-8.3517199607\C,3.9
 424275455,0.3582833345,-7.8496192714\H,3.2572379461,-0.4866653365,-7.8
 301676129\C,5.2184712598,0.1528686005,-7.0917162072\H,5.8815603124,1.0
 123582377,-7.1467882915\H,5.0127902386,-0.0427236038,-6.0374377015\H,5
 .7613288404,-0.7129231453,-7.4752508799\C,1.7170768182,4.9360092236,-5
 .9477939076\H,1.3956708405,5.6096413438,-6.7409117217\H,1.0977483484,5
 .1235139605,-5.0676502867\H,2.7426250336,5.1936985468,-5.6732301514\C,
 1.6228071975,3.4955908343,-6.3714507769\C,2.0441005148,2.5064218247,-5
 .3209323394\H,2.0060298317,1.4777253008,-5.6669330134\H,3.0698354492,2
 .7121512527,-5.0067617363\H,1.4151001108,2.6016061261,-4.4326709058\C,
 1.1942753342,3.170585783,-7.606471395\H,0.9389572302,3.9896765661,-8.2
 754274703\C,1.052856204,1.7998392271,-8.1956654612\H,1.0337716802,1.03
 80646182,-7.4157920979\H,0.0942027819,1.7355598244,-8.719816681\\Versi
 on=EM64L-G16RevA.03\State=1-A\HF=-389.1534512\MP2=-390.5737736\RMSD=6.
 100e-09\RMSF=1.647e-06\Dipole=0.0352519,0.0310988,0.0760901\PG=C01 [X(
 C10H18)]\\@


  DISAPPOINTMENT IS THE NURSE OF WISDOM.               
                              SIR BOYLE ROCHE                 
 Job cpu time:       0 days  2 hours 42 minutes 58.3 seconds.
 Elapsed time:       0 days  2 hours 43 minutes 17.2 seconds.
 File lengths (MBytes):  RWF=     32 Int=      0 D2E=      0 Chk=      7 Scr=      1
 Normal termination of Gaussian 16 at Fri Sep 17 22:52:51 2021.
