 Entering Gaussian System, Link 0=/opt/gaussian/g16_legacy/g16
 Input=02-IsoP_015_gaussian.com
 Output=02-IsoP_015_gaussian.log
 Initial command:
 /opt/gaussian/g16_legacy/l1.exe "/scratch-local/jramos/2661513/Gau-7129.inp" -scrdir="/scratch-local/jramos/2661513/"
 Entering Link 1 = /opt/gaussian/g16_legacy/l1.exe PID=      7139.
  
 Copyright (c) 1988,1990,1992,1993,1995,1998,2003,2009,2016,
            Gaussian, Inc.  All Rights Reserved.
  
 This is part of the Gaussian(R) 16 program.  It is based on
 the Gaussian(R) 09 system (copyright 2009, Gaussian, Inc.),
 the Gaussian(R) 03 system (copyright 2003, Gaussian, Inc.),
 the Gaussian(R) 98 system (copyright 1998, Gaussian, Inc.),
 the Gaussian(R) 94 system (copyright 1995, Gaussian, Inc.),
 the Gaussian 92(TM) system (copyright 1992, Gaussian, Inc.),
 the Gaussian 90(TM) system (copyright 1990, Gaussian, Inc.),
 the Gaussian 88(TM) system (copyright 1988, Gaussian, Inc.),
 the Gaussian 86(TM) system (copyright 1986, Carnegie Mellon
 University), and the Gaussian 82(TM) system (copyright 1983,
 Carnegie Mellon University). Gaussian is a federally registered
 trademark of Gaussian, Inc.
  
 This software contains proprietary and confidential information,
 including trade secrets, belonging to Gaussian, Inc.
  
 This software is provided under written license and may be
 used, copied, transmitted, or stored only in accord with that
 written license.
  
 The following legend is applicable only to US Government
 contracts under FAR:
  
                    RESTRICTED RIGHTS LEGEND
  
 Use, reproduction and disclosure by the US Government is
 subject to restrictions as set forth in subparagraphs (a)
 and (c) of the Commercial Computer Software - Restricted
 Rights clause in FAR 52.227-19.
  
 Gaussian, Inc.
 340 Quinnipiac St., Bldg. 40, Wallingford CT 06492
  
  
 ---------------------------------------------------------------
 Warning -- This program may not be used in any manner that
 competes with the business of Gaussian, Inc. or will provide
 assistance to any competitor of Gaussian, Inc.  The licensee
 of this program is prohibited from giving any competitor of
 Gaussian, Inc. access to this program.  By using this program,
 the user acknowledges that Gaussian, Inc. is engaged in the
 business of creating and licensing software in the field of
 computational chemistry and represents and warrants to the
 licensee that it is not a competitor of Gaussian, Inc. and that
 it will not use this program in any manner prohibited above.
 ---------------------------------------------------------------
  

 Cite this work as:
 Gaussian 16, Revision A.03,
 M. J. Frisch, G. W. Trucks, H. B. Schlegel, G. E. Scuseria, 
 M. A. Robb, J. R. Cheeseman, G. Scalmani, V. Barone, 
 G. A. Petersson, H. Nakatsuji, X. Li, M. Caricato, A. V. Marenich, 
 J. Bloino, B. G. Janesko, R. Gomperts, B. Mennucci, H. P. Hratchian, 
 J. V. Ortiz, A. F. Izmaylov, J. L. Sonnenberg, D. Williams-Young, 
 F. Ding, F. Lipparini, F. Egidi, J. Goings, B. Peng, A. Petrone, 
 T. Henderson, D. Ranasinghe, V. G. Zakrzewski, J. Gao, N. Rega, 
 G. Zheng, W. Liang, M. Hada, M. Ehara, K. Toyota, R. Fukuda, 
 J. Hasegawa, M. Ishida, T. Nakajima, Y. Honda, O. Kitao, H. Nakai, 
 T. Vreven, K. Throssell, J. A. Montgomery, Jr., J. E. Peralta, 
 F. Ogliaro, M. J. Bearpark, J. J. Heyd, E. N. Brothers, K. N. Kudin, 
 V. N. Staroverov, T. A. Keith, R. Kobayashi, J. Normand, 
 K. Raghavachari, A. P. Rendell, J. C. Burant, S. S. Iyengar, 
 J. Tomasi, M. Cossi, J. M. Millam, M. Klene, C. Adamo, R. Cammi, 
 J. W. Ochterski, R. L. Martin, K. Morokuma, O. Farkas, 
 J. B. Foresman, and D. J. Fox, Gaussian, Inc., Wallingford CT, 2016.
 
 ******************************************
 Gaussian 16:  EM64L-G16RevA.03 25-Dec-2016
                17-Sep-2021 
 ******************************************
 %chk=02-IsoP_015_gaussian.chk
 %nproc=1
 Will use up to    1 processors via shared memory.
 %mem=4000Mb
 ---------------------
 #p opt mp2/6-31g(d,p)
 ---------------------
 1/18=20,19=15,38=1/1,3;
 2/9=110,12=2,17=6,18=5,40=1/2;
 3/5=1,6=6,7=101,11=9,25=1,30=1,71=1/1,2,3;
 4//1;
 5/5=2,38=5/2;
 8/6=4,10=2/1;
 9/15=2,16=-3/6;
 10/5=1/2;
 6/7=2,8=2,9=2,10=2/1;
 7/12=2/1,2,3,16;
 1/18=20,19=15/3(2);
 2/9=110/2;
 99//99;
 2/9=110/2;
 3/5=1,6=6,7=101,11=9,25=1,30=1,71=1/1,2,3;
 4/5=5,16=3,69=1/1;
 5/5=2,38=5/2;
 8/6=4,10=2/1;
 9/15=2,16=-3/6;
 10/5=1/2;
 7/12=2/1,2,3,16;
 1/18=20,19=15/3(-8);
 2/9=110/2;
 6/7=2,8=2,9=2,10=2/1;
 99//99;
 Leave Link    1 at Fri Sep 17 20:09:26 2021, MaxMem=   524288000 cpu:               0.0 elap:               0.1
 (Enter /opt/gaussian/g16_legacy/l101.exe)
 -------------------------------------------------
 Conformer number 015. Energy MM = 28.536 kcal/mol
 -------------------------------------------------
 Symbolic Z-matrix:
 Charge =  0 Multiplicity = 1
 C                     2.1586    1.2513   -8.9628 
 H                     1.8655    0.2263   -9.2235 
 H                     2.0324    1.8601   -9.8676 
 C                     3.64      1.2521   -8.5862 
 C                     4.554     0.7604   -9.6767 
 H                     5.4198    0.2236   -9.2777 
 H                     4.0353    0.0566   -10.3376 
 H                     4.9045    1.6018   -10.2828 
 C                     4.1019    1.6612   -7.3855 
 H                     3.4067    2.0043   -6.6235 
 C                     5.5204    1.7469   -6.9206 
 H                     6.2489    1.4529   -7.6786 
 H                     5.7423    2.7775   -6.6263 
 H                     5.6571    1.1066   -6.0434 
 C                    -2.6567    2.1502   -7.6941 
 H                    -2.8324    1.7707   -8.7058 
 H                    -3.2016    1.5082   -6.9945 
 H                    -3.0756    3.1602   -7.6385 
 C                    -1.1965    2.1766   -7.3432 
 C                    -0.8775    2.6638   -5.9512 
 H                     0.0948    3.1557   -5.893 
 H                    -1.6182    3.4001   -5.6168 
 H                    -0.8878    1.824    -5.2483 
 C                    -0.2463    1.7879   -8.2189 
 H                    -0.5305    1.4461   -9.2106 
 C                     1.2152    1.7787   -7.8733 
 H                     1.5114    2.8086   -7.6359 
 H                     1.3411    1.1593   -6.9745 
 
 ITRead=  0  0  0  0  0  0  0  0  0  0  0  0  0  0  0  0  0  0  0  0
 ITRead=  0  0  0  0  0  0  0  0
 MicOpt= -1 -1 -1 -1 -1 -1 -1 -1 -1 -1 -1 -1 -1 -1 -1 -1 -1 -1 -1 -1
 MicOpt= -1 -1 -1 -1 -1 -1 -1 -1
 NAtoms=     28 NQM=       28 NQMF=       0 NMMI=      0 NMMIF=      0
                NMic=       0 NMicF=      0.
                    Isotopes and Nuclear Properties:
 (Nuclear quadrupole moments (NQMom) in fm**2, nuclear magnetic moments (NMagM)
  in nuclear magnetons)

  Atom         1           2           3           4           5           6           7           8           9          10
 IAtWgt=          12           1           1          12          12           1           1           1          12           1
 AtmWgt=  12.0000000   1.0078250   1.0078250  12.0000000  12.0000000   1.0078250   1.0078250   1.0078250  12.0000000   1.0078250
 NucSpn=           0           1           1           0           0           1           1           1           0           1
 AtZEff=  -0.0000000  -0.0000000  -0.0000000  -0.0000000  -0.0000000  -0.0000000  -0.0000000  -0.0000000  -0.0000000  -0.0000000
 NQMom=    0.0000000   0.0000000   0.0000000   0.0000000   0.0000000   0.0000000   0.0000000   0.0000000   0.0000000   0.0000000
 NMagM=    0.0000000   2.7928460   2.7928460   0.0000000   0.0000000   2.7928460   2.7928460   2.7928460   0.0000000   2.7928460
 AtZNuc=   6.0000000   1.0000000   1.0000000   6.0000000   6.0000000   1.0000000   1.0000000   1.0000000   6.0000000   1.0000000

  Atom        11          12          13          14          15          16          17          18          19          20
 IAtWgt=          12           1           1           1          12           1           1           1          12          12
 AtmWgt=  12.0000000   1.0078250   1.0078250   1.0078250  12.0000000   1.0078250   1.0078250   1.0078250  12.0000000  12.0000000
 NucSpn=           0           1           1           1           0           1           1           1           0           0
 AtZEff=  -0.0000000  -0.0000000  -0.0000000  -0.0000000  -0.0000000  -0.0000000  -0.0000000  -0.0000000  -0.0000000  -0.0000000
 NQMom=    0.0000000   0.0000000   0.0000000   0.0000000   0.0000000   0.0000000   0.0000000   0.0000000   0.0000000   0.0000000
 NMagM=    0.0000000   2.7928460   2.7928460   2.7928460   0.0000000   2.7928460   2.7928460   2.7928460   0.0000000   0.0000000
 AtZNuc=   6.0000000   1.0000000   1.0000000   1.0000000   6.0000000   1.0000000   1.0000000   1.0000000   6.0000000   6.0000000

  Atom        21          22          23          24          25          26          27          28
 IAtWgt=           1           1           1          12           1          12           1           1
 AtmWgt=   1.0078250   1.0078250   1.0078250  12.0000000   1.0078250  12.0000000   1.0078250   1.0078250
 NucSpn=           1           1           1           0           1           0           1           1
 AtZEff=  -0.0000000  -0.0000000  -0.0000000  -0.0000000  -0.0000000  -0.0000000  -0.0000000  -0.0000000
 NQMom=    0.0000000   0.0000000   0.0000000   0.0000000   0.0000000   0.0000000   0.0000000   0.0000000
 NMagM=    2.7928460   2.7928460   2.7928460   0.0000000   2.7928460   0.0000000   2.7928460   2.7928460
 AtZNuc=   1.0000000   1.0000000   1.0000000   6.0000000   1.0000000   6.0000000   1.0000000   1.0000000
 Leave Link  101 at Fri Sep 17 20:09:26 2021, MaxMem=   524288000 cpu:               0.3 elap:               0.3
 (Enter /opt/gaussian/g16_legacy/l103.exe)

 GradGradGradGradGradGradGradGradGradGradGradGradGradGradGradGradGradGrad
 Berny optimization.
 Initialization pass.
                           ----------------------------
                           !    Initial Parameters    !
                           ! (Angstroms and Degrees)  !
 --------------------------                            --------------------------
 ! Name  Definition              Value          Derivative Info.                !
 --------------------------------------------------------------------------------
 ! R1    R(1,2)                  1.0975         estimate D2E/DX2                !
 ! R2    R(1,3)                  1.0978         estimate D2E/DX2                !
 ! R3    R(1,4)                  1.5285         estimate D2E/DX2                !
 ! R4    R(1,26)                 1.5347         estimate D2E/DX2                !
 ! R5    R(4,5)                  1.5054         estimate D2E/DX2                !
 ! R6    R(4,9)                  1.35           estimate D2E/DX2                !
 ! R7    R(5,6)                  1.0941         estimate D2E/DX2                !
 ! R8    R(5,7)                  1.096          estimate D2E/DX2                !
 ! R9    R(5,8)                  1.0946         estimate D2E/DX2                !
 ! R10   R(9,10)                 1.087          estimate D2E/DX2                !
 ! R11   R(9,11)                 1.4952         estimate D2E/DX2                !
 ! R12   R(11,12)                1.0917         estimate D2E/DX2                !
 ! R13   R(11,13)                1.0945         estimate D2E/DX2                !
 ! R14   R(11,14)                1.0946         estimate D2E/DX2                !
 ! R15   R(15,16)                1.0947         estimate D2E/DX2                !
 ! R16   R(15,17)                1.0948         estimate D2E/DX2                !
 ! R17   R(15,18)                1.0948         estimate D2E/DX2                !
 ! R18   R(15,19)                1.502          estimate D2E/DX2                !
 ! R19   R(19,20)                1.5089         estimate D2E/DX2                !
 ! R20   R(19,24)                1.3494         estimate D2E/DX2                !
 ! R21   R(20,21)                1.0912         estimate D2E/DX2                !
 ! R22   R(20,22)                1.0966         estimate D2E/DX2                !
 ! R23   R(20,23)                1.0952         estimate D2E/DX2                !
 ! R24   R(24,25)                1.0868         estimate D2E/DX2                !
 ! R25   R(24,26)                1.5018         estimate D2E/DX2                !
 ! R26   R(26,27)                1.0976         estimate D2E/DX2                !
 ! R27   R(26,28)                1.0988         estimate D2E/DX2                !
 ! A1    A(2,1,3)              106.9444         estimate D2E/DX2                !
 ! A2    A(2,1,4)              108.5326         estimate D2E/DX2                !
 ! A3    A(2,1,26)             108.9914         estimate D2E/DX2                !
 ! A4    A(3,1,4)              108.3114         estimate D2E/DX2                !
 ! A5    A(3,1,26)             108.8967         estimate D2E/DX2                !
 ! A6    A(4,1,26)             114.8779         estimate D2E/DX2                !
 ! A7    A(1,4,5)              114.1905         estimate D2E/DX2                !
 ! A8    A(1,4,9)              123.4294         estimate D2E/DX2                !
 ! A9    A(5,4,9)              122.3795         estimate D2E/DX2                !
 ! A10   A(4,5,6)              112.1195         estimate D2E/DX2                !
 ! A11   A(4,5,7)              111.0519         estimate D2E/DX2                !
 ! A12   A(4,5,8)              110.1477         estimate D2E/DX2                !
 ! A13   A(6,5,7)              106.2229         estimate D2E/DX2                !
 ! A14   A(6,5,8)              109.0074         estimate D2E/DX2                !
 ! A15   A(7,5,8)              108.1353         estimate D2E/DX2                !
 ! A16   A(4,9,10)             120.0203         estimate D2E/DX2                !
 ! A17   A(4,9,11)             128.2086         estimate D2E/DX2                !
 ! A18   A(10,9,11)            111.7576         estimate D2E/DX2                !
 ! A19   A(9,11,12)            113.6889         estimate D2E/DX2                !
 ! A20   A(9,11,13)            109.2633         estimate D2E/DX2                !
 ! A21   A(9,11,14)            109.5194         estimate D2E/DX2                !
 ! A22   A(12,11,13)           107.7578         estimate D2E/DX2                !
 ! A23   A(12,11,14)           108.3952         estimate D2E/DX2                !
 ! A24   A(13,11,14)           108.0591         estimate D2E/DX2                !
 ! A25   A(16,15,17)           107.9024         estimate D2E/DX2                !
 ! A26   A(16,15,18)           107.7776         estimate D2E/DX2                !
 ! A27   A(16,15,19)           112.2115         estimate D2E/DX2                !
 ! A28   A(17,15,18)           108.5476         estimate D2E/DX2                !
 ! A29   A(17,15,19)           110.1752         estimate D2E/DX2                !
 ! A30   A(18,15,19)           110.1138         estimate D2E/DX2                !
 ! A31   A(15,19,20)           115.2599         estimate D2E/DX2                !
 ! A32   A(15,19,24)           121.8639         estimate D2E/DX2                !
 ! A33   A(20,19,24)           122.8762         estimate D2E/DX2                !
 ! A34   A(19,20,21)           112.5278         estimate D2E/DX2                !
 ! A35   A(19,20,22)           110.8122         estimate D2E/DX2                !
 ! A36   A(19,20,23)           110.0295         estimate D2E/DX2                !
 ! A37   A(21,20,22)           106.4336         estimate D2E/DX2                !
 ! A38   A(21,20,23)           108.6518         estimate D2E/DX2                !
 ! A39   A(22,20,23)           108.2274         estimate D2E/DX2                !
 ! A40   A(19,24,25)           119.9104         estimate D2E/DX2                !
 ! A41   A(19,24,26)           122.5266         estimate D2E/DX2                !
 ! A42   A(25,24,26)           117.5516         estimate D2E/DX2                !
 ! A43   A(1,26,24)            115.91           estimate D2E/DX2                !
 ! A44   A(1,26,27)            108.0661         estimate D2E/DX2                !
 ! A45   A(1,26,28)            108.4547         estimate D2E/DX2                !
 ! A46   A(24,26,27)           107.8563         estimate D2E/DX2                !
 ! A47   A(24,26,28)           107.6493         estimate D2E/DX2                !
 ! A48   A(27,26,28)           108.7287         estimate D2E/DX2                !
 ! D1    D(2,1,4,5)             59.0185         estimate D2E/DX2                !
 ! D2    D(2,1,4,9)           -121.2568         estimate D2E/DX2                !
 ! D3    D(3,1,4,5)            -56.749          estimate D2E/DX2                !
 ! D4    D(3,1,4,9)            122.9758         estimate D2E/DX2                !
 ! D5    D(26,1,4,5)          -178.7202         estimate D2E/DX2                !
 ! D6    D(26,1,4,9)             1.0046         estimate D2E/DX2                !
 ! D7    D(2,1,26,24)          -57.9745         estimate D2E/DX2                !
 ! D8    D(2,1,26,27)         -179.1082         estimate D2E/DX2                !
 ! D9    D(2,1,26,28)           63.1877         estimate D2E/DX2                !
 ! D10   D(3,1,26,24)           58.3587         estimate D2E/DX2                !
 ! D11   D(3,1,26,27)          -62.7751         estimate D2E/DX2                !
 ! D12   D(3,1,26,28)          179.5208         estimate D2E/DX2                !
 ! D13   D(4,1,26,24)         -179.9877         estimate D2E/DX2                !
 ! D14   D(4,1,26,27)           58.8785         estimate D2E/DX2                !
 ! D15   D(4,1,26,28)          -58.8256         estimate D2E/DX2                !
 ! D16   D(1,4,5,6)           -146.2058         estimate D2E/DX2                !
 ! D17   D(1,4,5,7)            -27.5475         estimate D2E/DX2                !
 ! D18   D(1,4,5,8)             92.2198         estimate D2E/DX2                !
 ! D19   D(9,4,5,6)             34.0662         estimate D2E/DX2                !
 ! D20   D(9,4,5,7)            152.7245         estimate D2E/DX2                !
 ! D21   D(9,4,5,8)            -87.5082         estimate D2E/DX2                !
 ! D22   D(1,4,9,10)             0.6139         estimate D2E/DX2                !
 ! D23   D(1,4,9,11)          -177.9285         estimate D2E/DX2                !
 ! D24   D(5,4,9,10)          -179.6834         estimate D2E/DX2                !
 ! D25   D(5,4,9,11)             1.7742         estimate D2E/DX2                !
 ! D26   D(4,9,11,12)            1.2958         estimate D2E/DX2                !
 ! D27   D(4,9,11,13)          121.7028         estimate D2E/DX2                !
 ! D28   D(4,9,11,14)         -120.1138         estimate D2E/DX2                !
 ! D29   D(10,9,11,12)        -177.3454         estimate D2E/DX2                !
 ! D30   D(10,9,11,13)         -56.9384         estimate D2E/DX2                !
 ! D31   D(10,9,11,14)          61.2451         estimate D2E/DX2                !
 ! D32   D(16,15,19,20)       -178.8619         estimate D2E/DX2                !
 ! D33   D(16,15,19,24)          1.0544         estimate D2E/DX2                !
 ! D34   D(17,15,19,20)        -58.6119         estimate D2E/DX2                !
 ! D35   D(17,15,19,24)        121.3045         estimate D2E/DX2                !
 ! D36   D(18,15,19,20)         61.0882         estimate D2E/DX2                !
 ! D37   D(18,15,19,24)       -118.9955         estimate D2E/DX2                !
 ! D38   D(15,19,20,21)       -149.9557         estimate D2E/DX2                !
 ! D39   D(15,19,20,22)        -30.9226         estimate D2E/DX2                !
 ! D40   D(15,19,20,23)         88.7297         estimate D2E/DX2                !
 ! D41   D(24,19,20,21)         30.1289         estimate D2E/DX2                !
 ! D42   D(24,19,20,22)        149.162          estimate D2E/DX2                !
 ! D43   D(24,19,20,23)        -91.1857         estimate D2E/DX2                !
 ! D44   D(15,19,24,25)          0.16           estimate D2E/DX2                !
 ! D45   D(15,19,24,26)       -178.5777         estimate D2E/DX2                !
 ! D46   D(20,19,24,25)       -179.93           estimate D2E/DX2                !
 ! D47   D(20,19,24,26)          1.3323         estimate D2E/DX2                !
 ! D48   D(19,24,26,1)         177.4621         estimate D2E/DX2                !
 ! D49   D(19,24,26,27)        -61.2918         estimate D2E/DX2                !
 ! D50   D(19,24,26,28)         55.8695         estimate D2E/DX2                !
 ! D51   D(25,24,26,1)          -1.3038         estimate D2E/DX2                !
 ! D52   D(25,24,26,27)        119.9423         estimate D2E/DX2                !
 ! D53   D(25,24,26,28)       -122.8964         estimate D2E/DX2                !
 --------------------------------------------------------------------------------
 Trust Radius=3.00D-01 FncErr=1.00D-07 GrdErr=1.00D-07 EigMax=2.50D+02 EigMin=1.00D-04
 Number of steps in this run=    138 maximum allowed number of steps=    168.
 GradGradGradGradGradGradGradGradGradGradGradGradGradGradGradGradGradGrad

 Leave Link  103 at Fri Sep 17 20:09:26 2021, MaxMem=   524288000 cpu:               0.0 elap:               0.0
 (Enter /opt/gaussian/g16_legacy/l202.exe)
                          Input orientation:                          
 ---------------------------------------------------------------------
 Center     Atomic      Atomic             Coordinates (Angstroms)
 Number     Number       Type             X           Y           Z
 ---------------------------------------------------------------------
      1          6           0        2.158600    1.251300   -8.962800
      2          1           0        1.865500    0.226300   -9.223500
      3          1           0        2.032400    1.860100   -9.867600
      4          6           0        3.640000    1.252100   -8.586200
      5          6           0        4.554000    0.760400   -9.676700
      6          1           0        5.419800    0.223600   -9.277700
      7          1           0        4.035300    0.056600  -10.337600
      8          1           0        4.904500    1.601800  -10.282800
      9          6           0        4.101900    1.661200   -7.385500
     10          1           0        3.406700    2.004300   -6.623500
     11          6           0        5.520400    1.746900   -6.920600
     12          1           0        6.248900    1.452900   -7.678600
     13          1           0        5.742300    2.777500   -6.626300
     14          1           0        5.657100    1.106600   -6.043400
     15          6           0       -2.656700    2.150200   -7.694100
     16          1           0       -2.832400    1.770700   -8.705800
     17          1           0       -3.201600    1.508200   -6.994500
     18          1           0       -3.075600    3.160200   -7.638500
     19          6           0       -1.196500    2.176600   -7.343200
     20          6           0       -0.877500    2.663800   -5.951200
     21          1           0        0.094800    3.155700   -5.893000
     22          1           0       -1.618200    3.400100   -5.616800
     23          1           0       -0.887800    1.824000   -5.248300
     24          6           0       -0.246300    1.787900   -8.218900
     25          1           0       -0.530500    1.446100   -9.210600
     26          6           0        1.215200    1.778700   -7.873300
     27          1           0        1.511400    2.808600   -7.635900
     28          1           0        1.341100    1.159300   -6.974500
 ---------------------------------------------------------------------
                    Distance matrix (angstroms):
                    1          2          3          4          5
     1  C    0.000000
     2  H    1.097496   0.000000
     3  H    1.097828   1.764093   0.000000
     4  C    1.528520   2.146455   2.143835   0.000000
     5  C    2.547269   2.778252   2.757580   1.505442   0.000000
     6  H    3.433767   3.554714   3.807964   2.168795   1.094059
     7  H    2.615222   2.445005   2.735895   2.157055   1.095980
     8  H    3.066793   3.499948   2.913429   2.144692   1.094606
     9  C    2.536200   3.230893   3.237779   1.349961   2.503085
    10  H    2.756281   3.506648   3.526142   2.114811   3.490790
    11  C    3.964581   4.579723   4.567687   2.560265   3.082726
    12  H    4.291895   4.806814   4.768271   2.769552   2.710101
    13  H    4.542183   5.318237   5.011088   3.253877   3.845216
    14  H    4.558874   5.026350   5.322661   3.248953   3.812814
    15  C    5.060112   5.146916   5.176477   6.422683   7.606342
    16  H    5.024530   4.972268   5.002404   6.494245   7.518129
    17  H    5.715938   5.682184   5.981078   7.028982   8.240311
    18  H    5.726650   5.961079   5.722832   7.045443   8.253732
    19  C    3.838747   4.088403   4.110786   5.078531   6.365461
    20  C    4.503642   4.916645   4.944860   5.417004   6.855908
    21  H    4.160491   4.775876   4.607637   4.842051   6.319677
    22  H    5.484275   5.934430   5.811005   6.409361   7.845180
    23  H    4.837980   5.092693   5.465053   5.654168   7.096137
    24  C    2.573882   2.812030   2.813521   3.940218   5.120920
    25  H    2.707510   2.688660   2.677966   4.221443   5.151657
    26  C    1.534655   2.157748   2.156774   2.581703   3.928966
    27  H    2.145860   3.051907   2.480238   2.802981   4.197309
    28  H    2.151768   2.490680   3.055985   2.809116   4.217076
                    6          7          8          9         10
     6  H    0.000000
     7  H    1.751604   0.000000
     8  H    1.781908   1.773740   0.000000
     9  C    2.717347   3.360665   3.006999   0.000000
    10  H    3.777333   4.240662   3.974404   1.087044   0.000000
    11  C    2.808288   4.091274   3.421224   1.495199   2.149942
    12  H    2.180758   3.730946   2.934526   2.176903   3.081457
    13  H    3.695448   4.908247   3.931179   2.124482   2.460259
    14  H    3.361056   4.708810   4.334068   2.127783   2.491321
    15  C    8.452776   7.493605   8.010859   6.783290   6.158920
    16  H    8.415426   7.264036   7.897789   7.059724   6.581558
    17  H    9.010646   8.102850   8.748173   7.315559   6.637272
    18  H    9.136871   8.214766   8.550025   7.336724   6.662323
    19  C    7.164630   6.390036   6.796605   5.323577   4.662307
    20  C    7.528357   7.083333   7.302200   5.277959   4.386490
    21  H    6.957660   6.699734   6.694637   4.529673   3.581624
    22  H    8.545513   8.088696   8.218945   6.234711   5.311433
    23  H    7.653964   7.298054   7.677650   5.430583   4.512916
    24  C    5.972670   5.081180   5.552032   4.429159   3.992060
    25  H    6.074955   4.903812   5.541938   4.983612   4.744072
    26  C    4.697801   4.122059   4.409979   2.929982   2.532897
    27  H    4.965211   4.608987   4.469404   2.844278   2.294344
    28  H    4.776616   4.448045   4.882466   2.835990   2.259188
                   11         12         13         14         15
    11  C    0.000000
    12  H    1.091656   0.000000
    13  H    1.094527   1.765940   0.000000
    14  H    1.094601   1.773141   1.771705   0.000000
    15  C    8.223498   8.932871   8.489812   8.540093   0.000000
    16  H    8.541474   9.144733   8.880509   8.921940   1.094727
    17  H    8.725579   9.475389   9.041020   8.918657   1.094769
    18  H    8.740939   9.479598   8.884051   9.111623   1.094837
    19  C    6.743885   7.488005   7.001569   7.057352   1.502003
    20  C    6.535562   7.432077   6.655106   6.718212   2.543037
    21  H    5.698931   6.630297   5.707453   5.929638   3.438858
    22  H    7.442619   8.362647   7.455446   7.640165   2.637405
    23  H    6.623259   7.548282   6.838587   6.631935   3.036009
    24  C    5.911184   6.526237   6.275270   6.328278   2.493332
    25  H    6.476725   6.950348   6.913700   6.959368   2.704858
    26  C    4.409467   5.047989   4.800755   4.850848   3.893807
    27  H    4.208437   4.927845   4.349802   4.756016   4.220182
    28  H    4.220750   4.966735   4.702167   4.415606   4.181162
                   16         17         18         19         20
    16  H    0.000000
    17  H    1.770244   0.000000
    18  H    1.768894   1.777559   0.000000
    19  C    2.167395   2.142143   2.141422   0.000000
    20  C    3.493864   2.797379   2.815144   1.508903   0.000000
    21  H    4.289355   3.846272   3.619147   2.174666   1.091201
    22  H    3.697451   2.825685   2.503765   2.157601   1.096630
    23  H    3.967192   2.915924   3.504990   2.146678   1.095189
    24  C    2.631593   3.211103   3.197657   1.349377   2.511589
    25  H    2.378851   3.471272   3.447778   2.112905   3.496697
    26  C    4.132334   4.511494   4.513827   2.501125   2.976116
    27  H    4.592442   4.931004   4.600456   2.796036   2.926777
    28  H    4.559530   4.556123   4.894051   2.758669   2.869294
                   21         22         23         24         25
    21  H    0.000000
    22  H    1.752252   0.000000
    23  H    1.776110   1.775772   0.000000
    24  C    2.719749   3.354433   3.039291   0.000000
    25  H    3.784204   4.232801   3.996285   1.086768   0.000000
    26  C    2.659514   3.968487   3.363820   1.501834   2.224064
    27  H    2.272649   3.771079   3.525086   2.114528   2.916409
    28  H    2.590081   3.952466   2.896479   2.112702   2.930066
                   26         27         28
    26  C    0.000000
    27  H    1.097628   0.000000
    28  H    1.098794   1.785117   0.000000
 Stoichiometry    C10H18
 Framework group  C1[X(C10H18)]
 Deg. of freedom    78
 Full point group                 C1      NOp   1
 Largest Abelian subgroup         C1      NOp   1
 Largest concise Abelian subgroup C1      NOp   1
                         Standard orientation:                         
 ---------------------------------------------------------------------
 Center     Atomic      Atomic             Coordinates (Angstroms)
 Number     Number       Type             X           Y           Z
 ---------------------------------------------------------------------
      1          6           0        0.752870   -1.094424    0.003086
      2          1           0        0.654048   -1.734624    0.889018
      3          1           0        0.678375   -1.749339   -0.874846
      4          6           0        2.144284   -0.461785    0.013605
      5          6           0        3.274269   -1.456501    0.008235
      6          1           0        4.138127   -1.101717    0.578184
      7          1           0        2.968968   -2.401646    0.471556
      8          1           0        3.587022   -1.666276   -1.019549
      9          6           0        2.354953    0.871615    0.021200
     10          1           0        1.510155    1.555647    0.030078
     11          6           0        3.659208    1.602037   -0.010742
     12          1           0        4.528859    0.944548   -0.066668
     13          1           0        3.682512    2.261407   -0.884056
     14          1           0        3.752707    2.222963    0.885840
     15          6           0       -4.277800   -0.549503    0.015457
     16          1           0       -4.241516   -1.643597    0.023790
     17          1           0       -4.823651   -0.224092    0.906902
     18          1           0       -4.841965   -0.240487   -0.870487
     19          6           0       -2.906929    0.063928   -0.005238
     20          6           0       -2.876255    1.572448    0.009450
     21          1           0       -2.005501    1.977962   -0.508300
     22          1           0       -3.757695    1.985029   -0.495958
     23          1           0       -2.871241    1.937495    1.041997
     24          6           0       -1.788972   -0.691195   -0.033165
     25          1           0       -1.867265   -1.775087   -0.043848
     26          6           0       -0.410877   -0.094328   -0.022706
     27          1           0       -0.306205    0.526618   -0.921737
     28          1           0       -0.334233    0.551444    0.862988
 ---------------------------------------------------------------------
 Rotational constants (GHZ):           2.8267840           0.4703330           0.4095126
 Leave Link  202 at Fri Sep 17 20:09:26 2021, MaxMem=   524288000 cpu:               0.1 elap:               0.0
 (Enter /opt/gaussian/g16_legacy/l301.exe)
 Standard basis: 6-31G(d,p) (6D, 7F)
 Ernie: Thresh=  0.10000D-02 Tol=  0.10000D-05 Strict=F.
 There are   240 symmetry adapted cartesian basis functions of A   symmetry.
 There are   240 symmetry adapted basis functions of A   symmetry.
   240 basis functions,   406 primitive gaussians,   240 cartesian basis functions
    39 alpha electrons       39 beta electrons
       nuclear repulsion energy       506.0524946153 Hartrees.
 IExCor=    0 DFT=F Ex=HF Corr=None ExCW=0 ScaHFX=  1.000000
 ScaDFX=  1.000000  1.000000  1.000000  1.000000 ScalE2=  1.000000  1.000000
 IRadAn=      5 IRanWt=     -1 IRanGd=            0 ICorTp=0 IEmpDi=  4
 NAtoms=   28 NActive=   28 NUniq=   28 SFac= 1.00D+00 NAtFMM=   60 NAOKFM=F Big=F
 Integral buffers will be    131072 words long.
 Raffenetti 1 integral format.
 Two-electron integral symmetry is turned on.
 Leave Link  301 at Fri Sep 17 20:09:26 2021, MaxMem=   524288000 cpu:               0.1 elap:               0.1
 (Enter /opt/gaussian/g16_legacy/l302.exe)
 NPDir=0 NMtPBC=     1 NCelOv=     1 NCel=       1 NClECP=     1 NCelD=      1
         NCelK=      1 NCelE2=     1 NClLst=     1 CellRange=     0.0.
 One-electron integrals computed using PRISM.
 One-electron integral symmetry used in STVInt
 NBasis=   240 RedAO= T EigKep=  1.80D-03  NBF=   240
 NBsUse=   240 1.00D-06 EigRej= -1.00D+00 NBFU=   240
 Leave Link  302 at Fri Sep 17 20:09:27 2021, MaxMem=   524288000 cpu:               0.3 elap:               0.3
 (Enter /opt/gaussian/g16_legacy/l303.exe)
 DipDrv:  MaxL=1.
 Leave Link  303 at Fri Sep 17 20:09:27 2021, MaxMem=   524288000 cpu:               0.1 elap:               0.3
 (Enter /opt/gaussian/g16_legacy/l401.exe)
 ExpMin= 1.61D-01 ExpMax= 3.05D+03 ExpMxC= 4.57D+02 IAcc=3 IRadAn=         5 AccDes= 0.00D+00
 Harris functional with IExCor=  205 and IRadAn=       5 diagonalized for initial guess.
 HarFok:  IExCor=  205 AccDes= 0.00D+00 IRadAn=         5 IDoV= 1 UseB2=F ITyADJ=14
 ICtDFT=  3500011 ScaDFX=  1.000000  1.000000  1.000000  1.000000
 FoFCou: FMM=F IPFlag=           0 FMFlag=      100000 FMFlg1=           0
         NFxFlg=           0 DoJE=T BraDBF=F KetDBF=T FulRan=T
         wScrn=  0.000000 ICntrl=       500 IOpCl=  0 I1Cent=   200000004 NGrid=           0
         NMat0=    1 NMatS0=      1 NMatT0=    0 NMatD0=    1 NMtDS0=    0 NMtDT0=    0
 Petite list used in FoFCou.
 Harris En= -390.105946518495    
 JPrj=0 DoOrth=F DoCkMO=F.
 Leave Link  401 at Fri Sep 17 20:09:38 2021, MaxMem=   524288000 cpu:              10.7 elap:              11.0
 (Enter /opt/gaussian/g16_legacy/l502.exe)
 Keep R1 ints in memory in canonical form, NReq=425198025.
 FoFCou: FMM=F IPFlag=           0 FMFlag=           0 FMFlg1=           0
         NFxFlg=           0 DoJE=F BraDBF=F KetDBF=F FulRan=T
         wScrn=  0.000000 ICntrl=       600 IOpCl=  0 I1Cent=           0 NGrid=           0
         NMat0=    1 NMatS0=  28920 NMatT0=    0 NMatD0=    1 NMtDS0=    0 NMtDT0=    0
 Symmetry not used in FoFCou.
 Two-electron integral symmetry not used.
 Closed shell SCF:
 Using DIIS extrapolation, IDIIS=  1040.
 NGot=   524288000 LenX=   105970886 LenY=   105912845
 Requested convergence on RMS density matrix=1.00D-08 within 128 cycles.
 Requested convergence on MAX density matrix=1.00D-06.
 Requested convergence on             energy=1.00D-06.
 No special actions if energy rises.

 Cycle   1  Pass 1  IDiag  1:
 E= -388.528231102821    
 DIIS: error= 5.81D-02 at cycle   1 NSaved=   1.
 NSaved= 1 IEnMin= 1 EnMin= -388.528231102821     IErMin= 1 ErrMin= 5.81D-02
 ErrMax= 5.81D-02  0.00D+00 EMaxC= 1.00D-01 BMatC= 8.07D-01 BMatP= 8.07D-01
 IDIUse=3 WtCom= 4.19D-01 WtEn= 5.81D-01
 Coeff-Com:  0.100D+01
 Coeff-En:   0.100D+01
 Coeff:      0.100D+01
 Gap=     0.510 Goal=   None    Shift=    0.000
 GapD=    0.510 DampG=2.000 DampE=0.500 DampFc=1.0000 IDamp=-1.
 RMSDP=4.08D-03 MaxDP=1.15D-01              OVMax= 1.40D-01

 Cycle   2  Pass 1  IDiag  1:
 E= -389.070319897550     Delta-E=       -0.542088794729 Rises=F Damp=F
 DIIS: error= 1.26D-02 at cycle   2 NSaved=   2.
 NSaved= 2 IEnMin= 2 EnMin= -389.070319897550     IErMin= 2 ErrMin= 1.26D-02
 ErrMax= 1.26D-02  0.00D+00 EMaxC= 1.00D-01 BMatC= 8.45D-02 BMatP= 8.07D-01
 IDIUse=3 WtCom= 8.74D-01 WtEn= 1.26D-01
 Coeff-Com:  0.181D+00 0.819D+00
 Coeff-En:   0.000D+00 0.100D+01
 Coeff:      0.158D+00 0.842D+00
 Gap=     0.571 Goal=   None    Shift=    0.000
 RMSDP=1.59D-03 MaxDP=3.08D-02 DE=-5.42D-01 OVMax= 4.14D-02

 Cycle   3  Pass 1  IDiag  1:
 E= -389.145936171299     Delta-E=       -0.075616273749 Rises=F Damp=F
 DIIS: error= 2.76D-03 at cycle   3 NSaved=   3.
 NSaved= 3 IEnMin= 3 EnMin= -389.145936171299     IErMin= 3 ErrMin= 2.76D-03
 ErrMax= 2.76D-03  0.00D+00 EMaxC= 1.00D-01 BMatC= 2.68D-03 BMatP= 8.45D-02
 IDIUse=3 WtCom= 9.72D-01 WtEn= 2.76D-02
 Coeff-Com: -0.248D-01 0.941D-01 0.931D+00
 Coeff-En:   0.000D+00 0.000D+00 0.100D+01
 Coeff:     -0.241D-01 0.916D-01 0.933D+00
 Gap=     0.500 Goal=   None    Shift=    0.000
 RMSDP=2.44D-04 MaxDP=6.71D-03 DE=-7.56D-02 OVMax= 1.01D-02

 Cycle   4  Pass 1  IDiag  1:
 E= -389.149101921327     Delta-E=       -0.003165750028 Rises=F Damp=F
 DIIS: error= 4.35D-04 at cycle   4 NSaved=   4.
 NSaved= 4 IEnMin= 4 EnMin= -389.149101921327     IErMin= 4 ErrMin= 4.35D-04
 ErrMax= 4.35D-04  0.00D+00 EMaxC= 1.00D-01 BMatC= 9.09D-05 BMatP= 2.68D-03
 IDIUse=3 WtCom= 9.96D-01 WtEn= 4.35D-03
 Coeff-Com: -0.396D-02-0.270D-02 0.919D-01 0.915D+00
 Coeff-En:   0.000D+00 0.000D+00 0.000D+00 0.100D+01
 Coeff:     -0.395D-02-0.268D-02 0.915D-01 0.915D+00
 Gap=     0.501 Goal=   None    Shift=    0.000
 RMSDP=7.10D-05 MaxDP=2.22D-03 DE=-3.17D-03 OVMax= 3.45D-03

 Cycle   5  Pass 1  IDiag  1:
 E= -389.149219042489     Delta-E=       -0.000117121162 Rises=F Damp=F
 DIIS: error= 2.02D-04 at cycle   5 NSaved=   5.
 NSaved= 5 IEnMin= 5 EnMin= -389.149219042489     IErMin= 5 ErrMin= 2.02D-04
 ErrMax= 2.02D-04  0.00D+00 EMaxC= 1.00D-01 BMatC= 1.85D-05 BMatP= 9.09D-05
 IDIUse=3 WtCom= 9.98D-01 WtEn= 2.02D-03
 Coeff-Com:  0.266D-02-0.155D-01-0.113D+00 0.225D+00 0.901D+00
 Coeff-En:   0.000D+00 0.000D+00 0.000D+00 0.000D+00 0.100D+01
 Coeff:      0.266D-02-0.154D-01-0.113D+00 0.224D+00 0.901D+00
 Gap=     0.501 Goal=   None    Shift=    0.000
 RMSDP=3.06D-05 MaxDP=8.15D-04 DE=-1.17D-04 OVMax= 1.14D-03

 Cycle   6  Pass 1  IDiag  1:
 E= -389.149243328571     Delta-E=       -0.000024286082 Rises=F Damp=F
 DIIS: error= 4.02D-05 at cycle   6 NSaved=   6.
 NSaved= 6 IEnMin= 6 EnMin= -389.149243328571     IErMin= 6 ErrMin= 4.02D-05
 ErrMax= 4.02D-05  0.00D+00 EMaxC= 1.00D-01 BMatC= 4.53D-07 BMatP= 1.85D-05
 IDIUse=1 WtCom= 1.00D+00 WtEn= 0.00D+00
 Coeff-Com:  0.631D-03-0.270D-02-0.227D-01-0.492D-02 0.131D+00 0.898D+00
 Coeff:      0.631D-03-0.270D-02-0.227D-01-0.492D-02 0.131D+00 0.898D+00
 Gap=     0.501 Goal=   None    Shift=    0.000
 RMSDP=5.21D-06 MaxDP=1.46D-04 DE=-2.43D-05 OVMax= 2.69D-04

 Cycle   7  Pass 1  IDiag  1:
 E= -389.149244091629     Delta-E=       -0.000000763057 Rises=F Damp=F
 DIIS: error= 9.31D-06 at cycle   7 NSaved=   7.
 NSaved= 7 IEnMin= 7 EnMin= -389.149244091629     IErMin= 7 ErrMin= 9.31D-06
 ErrMax= 9.31D-06  0.00D+00 EMaxC= 1.00D-01 BMatC= 3.90D-08 BMatP= 4.53D-07
 IDIUse=1 WtCom= 1.00D+00 WtEn= 0.00D+00
 Coeff-Com: -0.968D-04 0.623D-03 0.477D-02-0.120D-01-0.491D-01 0.784D-01
 Coeff-Com:  0.977D+00
 Coeff:     -0.968D-04 0.623D-03 0.477D-02-0.120D-01-0.491D-01 0.784D-01
 Coeff:      0.977D+00
 Gap=     0.501 Goal=   None    Shift=    0.000
 RMSDP=1.74D-06 MaxDP=4.99D-05 DE=-7.63D-07 OVMax= 1.08D-04

 Cycle   8  Pass 1  IDiag  1:
 E= -389.149244176374     Delta-E=       -0.000000084745 Rises=F Damp=F
 DIIS: error= 5.86D-06 at cycle   8 NSaved=   8.
 NSaved= 8 IEnMin= 8 EnMin= -389.149244176374     IErMin= 8 ErrMin= 5.86D-06
 ErrMax= 5.86D-06  0.00D+00 EMaxC= 1.00D-01 BMatC= 5.17D-09 BMatP= 3.90D-08
 IDIUse=1 WtCom= 1.00D+00 WtEn= 0.00D+00
 Coeff-Com: -0.510D-04 0.189D-03 0.176D-02 0.357D-02-0.107D-01-0.106D+00
 Coeff-Com: -0.128D+00 0.124D+01
 Coeff:     -0.510D-04 0.189D-03 0.176D-02 0.357D-02-0.107D-01-0.106D+00
 Coeff:     -0.128D+00 0.124D+01
 Gap=     0.501 Goal=   None    Shift=    0.000
 RMSDP=8.44D-07 MaxDP=3.31D-05 DE=-8.47D-08 OVMax= 6.97D-05

 Cycle   9  Pass 1  IDiag  1:
 E= -389.149244194182     Delta-E=       -0.000000017808 Rises=F Damp=F
 DIIS: error= 1.70D-06 at cycle   9 NSaved=   9.
 NSaved= 9 IEnMin= 9 EnMin= -389.149244194182     IErMin= 9 ErrMin= 1.70D-06
 ErrMax= 1.70D-06  0.00D+00 EMaxC= 1.00D-01 BMatC= 5.92D-10 BMatP= 5.17D-09
 IDIUse=1 WtCom= 1.00D+00 WtEn= 0.00D+00
 Coeff-Com:  0.194D-04-0.107D-03-0.876D-03 0.137D-02 0.642D-02 0.919D-02
 Coeff-Com: -0.856D-01-0.235D+00 0.130D+01
 Coeff:      0.194D-04-0.107D-03-0.876D-03 0.137D-02 0.642D-02 0.919D-02
 Coeff:     -0.856D-01-0.235D+00 0.130D+01
 Gap=     0.501 Goal=   None    Shift=    0.000
 RMSDP=3.30D-07 MaxDP=1.39D-05 DE=-1.78D-08 OVMax= 2.96D-05

 Cycle  10  Pass 1  IDiag  1:
 E= -389.149244196488     Delta-E=       -0.000000002306 Rises=F Damp=F
 DIIS: error= 4.11D-07 at cycle  10 NSaved=  10.
 NSaved=10 IEnMin=10 EnMin= -389.149244196488     IErMin=10 ErrMin= 4.11D-07
 ErrMax= 4.11D-07  0.00D+00 EMaxC= 1.00D-01 BMatC= 4.25D-11 BMatP= 5.92D-10
 IDIUse=1 WtCom= 1.00D+00 WtEn= 0.00D+00
 Coeff-Com:  0.492D-05-0.200D-04-0.179D-03-0.206D-03 0.796D-03 0.100D-01
 Coeff-Com:  0.134D-01-0.121D+00 0.687D-02 0.109D+01
 Coeff:      0.492D-05-0.200D-04-0.179D-03-0.206D-03 0.796D-03 0.100D-01
 Coeff:      0.134D-01-0.121D+00 0.687D-02 0.109D+01
 Gap=     0.501 Goal=   None    Shift=    0.000
 RMSDP=8.01D-08 MaxDP=3.00D-06 DE=-2.31D-09 OVMax= 6.67D-06

 Cycle  11  Pass 1  IDiag  1:
 E= -389.149244196635     Delta-E=       -0.000000000146 Rises=F Damp=F
 DIIS: error= 1.10D-07 at cycle  11 NSaved=  11.
 NSaved=11 IEnMin=11 EnMin= -389.149244196635     IErMin=11 ErrMin= 1.10D-07
 ErrMax= 1.10D-07  0.00D+00 EMaxC= 1.00D-01 BMatC= 3.23D-12 BMatP= 4.25D-11
 IDIUse=1 WtCom= 1.00D+00 WtEn= 0.00D+00
 Coeff-Com: -0.147D-05 0.848D-05 0.692D-04-0.962D-04-0.578D-03-0.742D-03
 Coeff-Com:  0.757D-02 0.191D-01-0.111D+00 0.162D-01 0.107D+01
 Coeff:     -0.147D-05 0.848D-05 0.692D-04-0.962D-04-0.578D-03-0.742D-03
 Coeff:      0.757D-02 0.191D-01-0.111D+00 0.162D-01 0.107D+01
 Gap=     0.501 Goal=   None    Shift=    0.000
 RMSDP=1.89D-08 MaxDP=7.08D-07 DE=-1.46D-10 OVMax= 1.38D-06

 Cycle  12  Pass 1  IDiag  1:
 E= -389.149244196638     Delta-E=       -0.000000000003 Rises=F Damp=F
 DIIS: error= 2.02D-08 at cycle  12 NSaved=  12.
 NSaved=12 IEnMin=12 EnMin= -389.149244196638     IErMin=12 ErrMin= 2.02D-08
 ErrMax= 2.02D-08  0.00D+00 EMaxC= 1.00D-01 BMatC= 1.85D-13 BMatP= 3.23D-12
 IDIUse=1 WtCom= 1.00D+00 WtEn= 0.00D+00
 Coeff-Com: -0.307D-06 0.136D-05 0.117D-04 0.195D-04-0.596D-04-0.748D-03
 Coeff-Com: -0.121D-02 0.857D-02-0.470D-03-0.838D-01-0.143D-01 0.109D+01
 Coeff:     -0.307D-06 0.136D-05 0.117D-04 0.195D-04-0.596D-04-0.748D-03
 Coeff:     -0.121D-02 0.857D-02-0.470D-03-0.838D-01-0.143D-01 0.109D+01
 Gap=     0.501 Goal=   None    Shift=    0.000
 RMSDP=5.43D-09 MaxDP=1.51D-07 DE=-2.96D-12 OVMax= 2.89D-07

 SCF Done:  E(RHF) =  -389.149244197     A.U. after   12 cycles
            NFock= 12  Conv=0.54D-08     -V/T= 2.0014
 KE= 3.885942329753D+02 PE=-1.916763480562D+03 EE= 6.329675087750D+02
 Leave Link  502 at Fri Sep 17 20:10:16 2021, MaxMem=   524288000 cpu:              37.9 elap:              38.1
 (Enter /opt/gaussian/g16_legacy/l801.exe)
 ExpMin= 1.61D-01 ExpMax= 3.05D+03 ExpMxC= 4.57D+02 IAcc=3 IRadAn=         5 AccDes= 0.00D+00
 HarFok:  IExCor=  205 AccDes= 0.00D+00 IRadAn=         5 IDoV=-2 UseB2=F ITyADJ=14
 ICtDFT= 12500011 ScaDFX=  1.000000  1.000000  1.000000  1.000000
 Largest valence mixing into a core orbital is  1.98D-04
 Largest core mixing into a valence orbital is  3.49D-05
 Range of M.O.s used for correlation:    11   240
 NBasis=   240 NAE=    39 NBE=    39 NFC=    10 NFV=     0
 NROrb=    230 NOA=    29 NOB=    29 NVA=   201 NVB=   201
 Leave Link  801 at Fri Sep 17 20:10:18 2021, MaxMem=   524288000 cpu:               1.6 elap:               1.6
 (Enter /opt/gaussian/g16_legacy/l906.exe)
 Frozen-core derivative calculation, NFC=  10 NFV=   0.
 FulOut=F Deriv=T AODrv=T NAtomX=    28
   MMem=          93  MDisk=          29 MDiskD=          29
  W3Min=     2246400 MinDsk=     2795480 NBas6D=         240
 NBas2D=       29244    NTT=       28920    LW2=     2040000
    MDV=   523636887 MDiskM=       30187 NBas2p=       23184
 Fully direct method using O(ONN) memory.
 IMap=   1   2   3   4   5   6   7   8   9  10  11  12  13  14  15  16  17  18  19  20
 IMap=  21  22  23  24  25  26  27  28  29  30  31  32  33  34  35  36  37  38  39
 JobTyp=1 Pass  1:  I=  11 to  39 NPSUse=  1 ParTrn=F ParDer=F DoDerP=T.
 Spin components of T(2) and E(2):
     alpha-alpha T2 =       0.5704197048D-01 E2=     -0.1637101566D+00
     alpha-beta  T2 =       0.3620180122D+00 E2=     -0.1089587963D+01
     beta-beta   T2 =       0.5704197048D-01 E2=     -0.1637101566D+00
 The integrals were generated   1 times.
 ANorm=    0.1214949362D+01
 E2 =    -0.1417008276D+01 EUMP2 =    -0.39056625247284D+03
 Leave Link  906 at Fri Sep 17 20:14:55 2021, MaxMem=   524288000 cpu:             276.6 elap:             276.8
 (Enter /opt/gaussian/g16_legacy/l1002.exe)
 Minotr:  Closed shell wavefunction.
          Computing MP2/KS-MP2 derivatives.
          Using Z-Vector for PSCF gradient.
          Skipping F1 and S1 gradient terms here.
          IDoAtm=1111111111111111111111111111
          Frozen-core window.
          Direct CPHF calculation.
          Differentiating once with respect to electric field.
                with respect to dipole field.
          Differentiating once with respect to nuclear coordinates.
          Requested convergence is 1.0D-10 RMS, and 1.0D-09 maximum.
          NewPWx=F KeepS1=T KeepF1=T KeepIn=T MapXYZ=F SortEE=F KeepMc=T.
 Keep R1 ints in memory in canonical form, NReq=425201067.
 FoFCou: FMM=F IPFlag=           0 FMFlag=           0 FMFlg1=           0
         NFxFlg=           0 DoJE=F BraDBF=F KetDBF=F FulRan=T
         wScrn=  0.000000 ICntrl=       600 IOpCl=  0 I1Cent=           0 NGrid=           0
         NMat0=    1 NMatS0=  28920 NMatT0=    0 NMatD0=    1 NMtDS0=    0 NMtDT0=    0
 Symmetry not used in FoFCou.
 Two-electron integral symmetry not used.
          MDV=     524288000 using IRadAn=       5.
          Solving linear equations separately, MaxMat=       0.
          There are     1 degrees of freedom in the 1st order CPHF.  IDoFFX=0 NUNeed=     1.
 LinEq1:  Iter=  0 NonCon=     1 RMS=2.53D-03 Max=3.72D-02 NDo=     1
 AX will form     1 AO Fock derivatives at one time.
 LinEq1:  Iter=  1 NonCon=     1 RMS=6.83D-04 Max=8.39D-03 NDo=     1
 LinEq1:  Iter=  2 NonCon=     1 RMS=1.56D-04 Max=3.62D-03 NDo=     1
 LinEq1:  Iter=  3 NonCon=     1 RMS=4.36D-05 Max=8.85D-04 NDo=     1
 LinEq1:  Iter=  4 NonCon=     1 RMS=1.85D-05 Max=7.36D-04 NDo=     1
 LinEq1:  Iter=  5 NonCon=     1 RMS=4.61D-06 Max=1.15D-04 NDo=     1
 LinEq1:  Iter=  6 NonCon=     1 RMS=1.38D-06 Max=2.49D-05 NDo=     1
 LinEq1:  Iter=  7 NonCon=     1 RMS=3.75D-07 Max=5.67D-06 NDo=     1
 LinEq1:  Iter=  8 NonCon=     1 RMS=8.62D-08 Max=1.55D-06 NDo=     1
 LinEq1:  Iter=  9 NonCon=     1 RMS=2.74D-08 Max=6.43D-07 NDo=     1
 LinEq1:  Iter= 10 NonCon=     1 RMS=9.08D-09 Max=2.00D-07 NDo=     1
 LinEq1:  Iter= 11 NonCon=     1 RMS=2.34D-09 Max=3.09D-08 NDo=     1
 LinEq1:  Iter= 12 NonCon=     1 RMS=7.42D-10 Max=1.37D-08 NDo=     1
 LinEq1:  Iter= 13 NonCon=     1 RMS=1.88D-10 Max=4.46D-09 NDo=     1
 LinEq1:  Iter= 14 NonCon=     0 RMS=4.26D-11 Max=6.12D-10 NDo=     1
 Linear equations converged to 1.000D-10 1.000D-09 after    14 iterations.
 End of Minotr F.D. properties file   721 does not exist.
 End of Minotr F.D. properties file   722 does not exist.
 End of Minotr F.D. properties file   788 does not exist.
 Leave Link 1002 at Fri Sep 17 20:15:29 2021, MaxMem=   524288000 cpu:              34.1 elap:              34.1
 (Enter /opt/gaussian/g16_legacy/l601.exe)
 Copying SCF densities to generalized density rwf, IOpCl= 0 IROHF=0.

 **********************************************************************

            Population analysis using the SCF density.

 **********************************************************************

 Orbital symmetries:
       Occupied  (A) (A) (A) (A) (A) (A) (A) (A) (A) (A) (A) (A)
                 (A) (A) (A) (A) (A) (A) (A) (A) (A) (A) (A) (A)
                 (A) (A) (A) (A) (A) (A) (A) (A) (A) (A) (A) (A)
                 (A) (A) (A)
       Virtual   (A) (A) (A) (A) (A) (A) (A) (A) (A) (A) (A) (A)
                 (A) (A) (A) (A) (A) (A) (A) (A) (A) (A) (A) (A)
                 (A) (A) (A) (A) (A) (A) (A) (A) (A) (A) (A) (A)
                 (A) (A) (A) (A) (A) (A) (A) (A) (A) (A) (A) (A)
                 (A) (A) (A) (A) (A) (A) (A) (A) (A) (A) (A) (A)
                 (A) (A) (A) (A) (A) (A) (A) (A) (A) (A) (A) (A)
                 (A) (A) (A) (A) (A) (A) (A) (A) (A) (A) (A) (A)
                 (A) (A) (A) (A) (A) (A) (A) (A) (A) (A) (A) (A)
                 (A) (A) (A) (A) (A) (A) (A) (A) (A) (A) (A) (A)
                 (A) (A) (A) (A) (A) (A) (A) (A) (A) (A) (A) (A)
                 (A) (A) (A) (A) (A) (A) (A) (A) (A) (A) (A) (A)
                 (A) (A) (A) (A) (A) (A) (A) (A) (A) (A) (A) (A)
                 (A) (A) (A) (A) (A) (A) (A) (A) (A) (A) (A) (A)
                 (A) (A) (A) (A) (A) (A) (A) (A) (A) (A) (A) (A)
                 (A) (A) (A) (A) (A) (A) (A) (A) (A) (A) (A) (A)
                 (A) (A) (A) (A) (A) (A) (A) (A) (A) (A) (A) (A)
                 (A) (A) (A) (A) (A) (A) (A) (A) (A)
 The electronic state is 1-A.
 Alpha  occ. eigenvalues --  -11.22882 -11.22650 -11.22290 -11.21682 -11.21561
 Alpha  occ. eigenvalues --  -11.21560 -11.21515 -11.21492 -11.21408 -11.21162
 Alpha  occ. eigenvalues --   -1.10433  -1.08284  -1.01837  -0.97732  -0.93508
 Alpha  occ. eigenvalues --   -0.91979  -0.86868  -0.82273  -0.70194  -0.69211
 Alpha  occ. eigenvalues --   -0.63197  -0.62187  -0.60087  -0.59596  -0.58600
 Alpha  occ. eigenvalues --   -0.56763  -0.55524  -0.55106  -0.53748  -0.52696
 Alpha  occ. eigenvalues --   -0.51380  -0.51125  -0.49517  -0.49287  -0.48375
 Alpha  occ. eigenvalues --   -0.45178  -0.44558  -0.32596  -0.31673
 Alpha virt. eigenvalues --    0.18439   0.19472   0.23629   0.24125   0.25824
 Alpha virt. eigenvalues --    0.26422   0.28542   0.28890   0.29958   0.30698
 Alpha virt. eigenvalues --    0.31949   0.32372   0.33137   0.33688   0.33832
 Alpha virt. eigenvalues --    0.34653   0.35153   0.36397   0.37576   0.39984
 Alpha virt. eigenvalues --    0.40309   0.41053   0.43058   0.45966   0.47576
 Alpha virt. eigenvalues --    0.49353   0.53392   0.61895   0.64767   0.69646
 Alpha virt. eigenvalues --    0.72250   0.74054   0.75375   0.76067   0.78014
 Alpha virt. eigenvalues --    0.78426   0.79608   0.80177   0.81902   0.84026
 Alpha virt. eigenvalues --    0.85903   0.85934   0.88750   0.90810   0.90947
 Alpha virt. eigenvalues --    0.93596   0.94351   0.95474   0.97177   1.00275
 Alpha virt. eigenvalues --    1.00849   1.02205   1.03069   1.03981   1.06671
 Alpha virt. eigenvalues --    1.07591   1.08145   1.11821   1.12106   1.12704
 Alpha virt. eigenvalues --    1.13552   1.14071   1.14402   1.14934   1.15375
 Alpha virt. eigenvalues --    1.15591   1.17180   1.17760   1.17841   1.20066
 Alpha virt. eigenvalues --    1.20730   1.21754   1.23667   1.24367   1.25883
 Alpha virt. eigenvalues --    1.29766   1.32684   1.38573   1.43619   1.44885
 Alpha virt. eigenvalues --    1.48088   1.50699   1.54640   1.56656   1.57827
 Alpha virt. eigenvalues --    1.62303   1.65491   1.67556   1.69896   1.70388
 Alpha virt. eigenvalues --    1.71488   1.88680   1.92197   1.94011   1.96160
 Alpha virt. eigenvalues --    1.98651   2.00895   2.01717   2.07771   2.08504
 Alpha virt. eigenvalues --    2.08967   2.10433   2.11473   2.13180   2.14476
 Alpha virt. eigenvalues --    2.16869   2.22049   2.22287   2.23233   2.27743
 Alpha virt. eigenvalues --    2.29281   2.32439   2.34853   2.35361   2.35684
 Alpha virt. eigenvalues --    2.36847   2.37362   2.38890   2.39140   2.40562
 Alpha virt. eigenvalues --    2.41036   2.41295   2.42012   2.43403   2.45063
 Alpha virt. eigenvalues --    2.46074   2.47414   2.49098   2.50967   2.52110
 Alpha virt. eigenvalues --    2.53316   2.57913   2.59283   2.64377   2.65291
 Alpha virt. eigenvalues --    2.67589   2.69036   2.70586   2.73218   2.74622
 Alpha virt. eigenvalues --    2.75993   2.80397   2.83907   2.84871   2.87346
 Alpha virt. eigenvalues --    2.89211   2.90556   2.92068   2.94057   2.95631
 Alpha virt. eigenvalues --    2.98495   3.00120   3.01874   3.03128   3.04336
 Alpha virt. eigenvalues --    3.05058   3.06465   3.09646   3.14482   3.15443
 Alpha virt. eigenvalues --    3.15953   3.18475   3.20794   3.21536   3.22353
 Alpha virt. eigenvalues --    3.23995   3.24880   3.25714   3.26165   3.37829
 Alpha virt. eigenvalues --    3.39255   3.44197   3.46641   3.55690   3.56429
 Alpha virt. eigenvalues --    3.59145   3.60963   3.65936   3.75174   3.76529
 Alpha virt. eigenvalues --    3.79233   3.79416   3.81159   3.81712   3.82145
 Alpha virt. eigenvalues --    3.82851   3.85590   3.86254   3.90718   3.92350
 Alpha virt. eigenvalues --    3.93148   4.58367   4.60183   4.75015   4.77208
 Alpha virt. eigenvalues --    4.87029   4.90692   4.92613   5.00272   5.08889
 Alpha virt. eigenvalues --    5.20141
          Condensed to atoms (all electrons):
               1          2          3          4          5          6
     1  C    4.915357   0.400081   0.405716   0.365364  -0.054415   0.003115
     2  H    0.400081   0.599694  -0.035740  -0.040456  -0.004054  -0.000065
     3  H    0.405716  -0.035740   0.601744  -0.047209  -0.000808   0.000023
     4  C    0.365364  -0.040456  -0.047209   4.935201   0.338953  -0.037711
     5  C   -0.054415  -0.004054  -0.000808   0.338953   4.922991   0.405586
     6  H    0.003115  -0.000065   0.000023  -0.037711   0.405586   0.568859
     7  H   -0.004818   0.002145  -0.000386  -0.043388   0.406338  -0.030270
     8  H    0.000529  -0.000033   0.000990  -0.040481   0.397156  -0.026410
     9  C   -0.043613   0.000176  -0.000547   0.697588  -0.054001  -0.003182
    10  H   -0.005794   0.000182   0.000084  -0.035055   0.003252   0.000031
    11  C    0.002942  -0.000089  -0.000071  -0.047643  -0.007209  -0.002148
    12  H    0.000078  -0.000001  -0.000005  -0.000502  -0.001405  -0.001217
    13  H   -0.000084  -0.000003   0.000015  -0.000198   0.000174  -0.000085
    14  H   -0.000107   0.000015  -0.000003  -0.000737   0.000320   0.000283
    15  C   -0.000050  -0.000004  -0.000003   0.000001  -0.000000   0.000000
    16  H   -0.000005  -0.000000  -0.000000   0.000000  -0.000000   0.000000
    17  H    0.000001  -0.000000   0.000000  -0.000000   0.000000  -0.000000
    18  H    0.000001   0.000000  -0.000000  -0.000000   0.000000  -0.000000
    19  C    0.002739  -0.000068  -0.000034  -0.000097   0.000001  -0.000000
    20  C    0.000211  -0.000005  -0.000004   0.000007   0.000000  -0.000000
    21  H    0.000081   0.000001  -0.000006   0.000001   0.000000  -0.000000
    22  H   -0.000002   0.000000   0.000000  -0.000000  -0.000000   0.000000
    23  H   -0.000020  -0.000002   0.000001   0.000000  -0.000000   0.000000
    24  C   -0.039944  -0.002275  -0.002362   0.003464  -0.000056   0.000001
    25  H   -0.004879   0.001496   0.001532   0.000053  -0.000004   0.000000
    26  C    0.357054  -0.039341  -0.040440  -0.047156   0.003301  -0.000091
    27  H   -0.042262   0.005033  -0.004796  -0.001212  -0.000075   0.000000
    28  H   -0.041228  -0.004634   0.005012  -0.001626  -0.000044   0.000001
               7          8          9         10         11         12
     1  C   -0.004818   0.000529  -0.043613  -0.005794   0.002942   0.000078
     2  H    0.002145  -0.000033   0.000176   0.000182  -0.000089  -0.000001
     3  H   -0.000386   0.000990  -0.000547   0.000084  -0.000071  -0.000005
     4  C   -0.043388  -0.040481   0.697588  -0.035055  -0.047643  -0.000502
     5  C    0.406338   0.397156  -0.054001   0.003252  -0.007209  -0.001405
     6  H   -0.030270  -0.026410  -0.003182   0.000031  -0.002148  -0.001217
     7  H    0.582908  -0.030521   0.002885  -0.000099   0.000144   0.000021
     8  H   -0.030521   0.575194  -0.004132  -0.000135   0.000707  -0.000248
     9  C    0.002885  -0.004132   4.954268   0.406612   0.338825  -0.041948
    10  H   -0.000099  -0.000135   0.406612   0.557870  -0.046060   0.003555
    11  C    0.000144   0.000707   0.338825  -0.046060   4.902773   0.407211
    12  H    0.000021  -0.000248  -0.041948   0.003555   0.407211   0.574471
    13  H   -0.000012   0.000176  -0.044455  -0.001993   0.403723  -0.028706
    14  H    0.000012  -0.000073  -0.044586  -0.001180   0.400779  -0.027577
    15  C   -0.000000   0.000000  -0.000000   0.000000   0.000000   0.000000
    16  H   -0.000000   0.000000   0.000000  -0.000000   0.000000   0.000000
    17  H    0.000000  -0.000000   0.000000  -0.000000   0.000000  -0.000000
    18  H   -0.000000   0.000000  -0.000000  -0.000000  -0.000000  -0.000000
    19  C   -0.000000  -0.000000   0.000004   0.000005   0.000000   0.000000
    20  C    0.000000  -0.000000  -0.000012   0.000033   0.000000  -0.000000
    21  H   -0.000000   0.000000  -0.000010   0.000157  -0.000000   0.000000
    22  H   -0.000000   0.000000   0.000000  -0.000001  -0.000000  -0.000000
    23  H    0.000000  -0.000000  -0.000001  -0.000001  -0.000000  -0.000000
    24  C   -0.000005   0.000001   0.000387   0.000178  -0.000002   0.000000
    25  H    0.000001   0.000000  -0.000007  -0.000001   0.000000  -0.000000
    26  C    0.000187  -0.000096  -0.009291  -0.001434   0.000041  -0.000002
    27  H    0.000006  -0.000003   0.000038  -0.000819  -0.000041  -0.000002
    28  H   -0.000005   0.000003  -0.000477  -0.001076  -0.000019  -0.000003
              13         14         15         16         17         18
     1  C   -0.000084  -0.000107  -0.000050  -0.000005   0.000001   0.000001
     2  H   -0.000003   0.000015  -0.000004  -0.000000  -0.000000   0.000000
     3  H    0.000015  -0.000003  -0.000003  -0.000000   0.000000  -0.000000
     4  C   -0.000198  -0.000737   0.000001   0.000000  -0.000000  -0.000000
     5  C    0.000174   0.000320  -0.000000  -0.000000   0.000000   0.000000
     6  H   -0.000085   0.000283   0.000000   0.000000  -0.000000  -0.000000
     7  H   -0.000012   0.000012  -0.000000  -0.000000   0.000000  -0.000000
     8  H    0.000176  -0.000073   0.000000   0.000000  -0.000000   0.000000
     9  C   -0.044455  -0.044586  -0.000000   0.000000   0.000000  -0.000000
    10  H   -0.001993  -0.001180   0.000000  -0.000000  -0.000000  -0.000000
    11  C    0.403723   0.400779   0.000000   0.000000   0.000000  -0.000000
    12  H   -0.028706  -0.027577   0.000000   0.000000  -0.000000  -0.000000
    13  H    0.584910  -0.033722  -0.000000  -0.000000  -0.000000   0.000000
    14  H   -0.033722   0.587053  -0.000000  -0.000000   0.000000  -0.000000
    15  C   -0.000000  -0.000000   4.889877   0.405442   0.400934   0.397476
    16  H   -0.000000  -0.000000   0.405442   0.570667  -0.027846  -0.027501
    17  H   -0.000000   0.000000   0.400934  -0.027846   0.595057  -0.035321
    18  H    0.000000  -0.000000   0.397476  -0.027501  -0.035321   0.594748
    19  C   -0.000000  -0.000000   0.352592  -0.041394  -0.047511  -0.043869
    20  C   -0.000000   0.000000  -0.059656   0.003822  -0.000627  -0.002778
    21  H    0.000000  -0.000000   0.003370  -0.000115  -0.000045   0.000008
    22  H    0.000000   0.000000  -0.005095   0.000122  -0.000580   0.002377
    23  H   -0.000000   0.000000   0.000736  -0.000138   0.001382  -0.000163
    24  C   -0.000000  -0.000000  -0.042068  -0.002338  -0.001156  -0.000765
    25  H    0.000000   0.000000  -0.005754   0.002291   0.000091   0.000176
    26  C    0.000003   0.000007   0.002975   0.000118  -0.000078  -0.000103
    27  H   -0.000015   0.000010  -0.000090   0.000001  -0.000014   0.000043
    28  H    0.000011  -0.000015  -0.000054  -0.000001   0.000044  -0.000015
              19         20         21         22         23         24
     1  C    0.002739   0.000211   0.000081  -0.000002  -0.000020  -0.039944
     2  H   -0.000068  -0.000005   0.000001   0.000000  -0.000002  -0.002275
     3  H   -0.000034  -0.000004  -0.000006   0.000000   0.000001  -0.002362
     4  C   -0.000097   0.000007   0.000001  -0.000000   0.000000   0.003464
     5  C    0.000001   0.000000   0.000000  -0.000000  -0.000000  -0.000056
     6  H   -0.000000  -0.000000  -0.000000   0.000000   0.000000   0.000001
     7  H   -0.000000   0.000000  -0.000000  -0.000000   0.000000  -0.000005
     8  H   -0.000000  -0.000000   0.000000   0.000000  -0.000000   0.000001
     9  C    0.000004  -0.000012  -0.000010   0.000000  -0.000001   0.000387
    10  H    0.000005   0.000033   0.000157  -0.000001  -0.000001   0.000178
    11  C    0.000000   0.000000  -0.000000  -0.000000  -0.000000  -0.000002
    12  H    0.000000  -0.000000   0.000000  -0.000000  -0.000000   0.000000
    13  H   -0.000000  -0.000000   0.000000   0.000000  -0.000000  -0.000000
    14  H   -0.000000   0.000000  -0.000000   0.000000   0.000000  -0.000000
    15  C    0.352592  -0.059656   0.003370  -0.005095   0.000736  -0.042068
    16  H   -0.041394   0.003822  -0.000115   0.000122  -0.000138  -0.002338
    17  H   -0.047511  -0.000627  -0.000045  -0.000580   0.001382  -0.001156
    18  H   -0.043869  -0.002778   0.000008   0.002377  -0.000163  -0.000765
    19  C    4.946574   0.345293  -0.037252  -0.042126  -0.041312   0.703310
    20  C    0.345293   4.922302   0.405377   0.404958   0.397131  -0.050954
    21  H   -0.037252   0.405377   0.567020  -0.029740  -0.027133  -0.004298
    22  H   -0.042126   0.404958  -0.029740   0.581958  -0.030388   0.002617
    23  H   -0.041312   0.397131  -0.027133  -0.030388   0.574400  -0.003783
    24  C    0.703310  -0.050954  -0.004298   0.002617  -0.003783   4.932839
    25  H   -0.035049   0.003285   0.000044  -0.000094  -0.000115   0.401530
    26  C   -0.059930  -0.008705  -0.001308   0.000198   0.000448   0.354050
    27  H   -0.006500  -0.001089   0.001440   0.000173  -0.000408  -0.044940
    28  H   -0.007628  -0.000186  -0.002152  -0.000056   0.001652  -0.045803
              25         26         27         28
     1  C   -0.004879   0.357054  -0.042262  -0.041228
     2  H    0.001496  -0.039341   0.005033  -0.004634
     3  H    0.001532  -0.040440  -0.004796   0.005012
     4  C    0.000053  -0.047156  -0.001212  -0.001626
     5  C   -0.000004   0.003301  -0.000075  -0.000044
     6  H    0.000000  -0.000091   0.000000   0.000001
     7  H    0.000001   0.000187   0.000006  -0.000005
     8  H    0.000000  -0.000096  -0.000003   0.000003
     9  C   -0.000007  -0.009291   0.000038  -0.000477
    10  H   -0.000001  -0.001434  -0.000819  -0.001076
    11  C    0.000000   0.000041  -0.000041  -0.000019
    12  H   -0.000000  -0.000002  -0.000002  -0.000003
    13  H    0.000000   0.000003  -0.000015   0.000011
    14  H    0.000000   0.000007   0.000010  -0.000015
    15  C   -0.005754   0.002975  -0.000090  -0.000054
    16  H    0.002291   0.000118   0.000001  -0.000001
    17  H    0.000091  -0.000078  -0.000014   0.000044
    18  H    0.000176  -0.000103   0.000043  -0.000015
    19  C   -0.035049  -0.059930  -0.006500  -0.007628
    20  C    0.003285  -0.008705  -0.001089  -0.000186
    21  H    0.000044  -0.001308   0.001440  -0.002152
    22  H   -0.000094   0.000198   0.000173  -0.000056
    23  H   -0.000115   0.000448  -0.000408   0.001652
    24  C    0.401530   0.354050  -0.044940  -0.045803
    25  H    0.550618  -0.042072   0.003078   0.003078
    26  C   -0.042072   4.955893   0.409214   0.412153
    27  H    0.003078   0.409214   0.589488  -0.032028
    28  H    0.003078   0.412153  -0.032028   0.588647
 Mulliken charges:
               1
     1  C   -0.216047
     2  H    0.117946
     3  H    0.117297
     4  C    0.002836
     5  C   -0.356003
     6  H    0.123280
     7  H    0.114856
     8  H    0.127377
     9  C   -0.154523
    10  H    0.121688
    11  C   -0.353862
    12  H    0.116281
    13  H    0.120263
    14  H    0.119520
    15  C   -0.340630
    16  H    0.116874
    17  H    0.115668
    18  H    0.115685
    19  C    0.012251
    20  C   -0.358405
    21  H    0.124562
    22  H    0.115679
    23  H    0.127711
    24  C   -0.157628
    25  H    0.120703
    26  C   -0.245596
    27  H    0.125768
    28  H    0.126449
 Sum of Mulliken charges =  -0.00000
 Mulliken charges with hydrogens summed into heavy atoms:
               1
     1  C    0.019196
     4  C    0.002836
     5  C    0.009510
     9  C   -0.032835
    11  C    0.002202
    15  C    0.007597
    19  C    0.012251
    20  C    0.009547
    24  C   -0.036925
    26  C    0.006621
 Electronic spatial extent (au):  <R**2>=           2793.1794
 Charge=             -0.0000 electrons
 Dipole moment (field-independent basis, Debye):
    X=              0.0035    Y=              0.0895    Z=             -0.0022  Tot=              0.0896
 Quadrupole moment (field-independent basis, Debye-Ang):
   XX=            -63.5412   YY=            -63.3845   ZZ=            -67.0629
   XY=             -1.1914   XZ=             -0.1792   YZ=             -0.0239
 Traceless Quadrupole moment (field-independent basis, Debye-Ang):
   XX=              1.1217   YY=              1.2784   ZZ=             -2.4000
   XY=             -1.1914   XZ=             -0.1792   YZ=             -0.0239
 Octapole moment (field-independent basis, Debye-Ang**2):
  XXX=             -0.7882  YYY=             -1.4355  ZZZ=              0.0603  XYY=             -0.0708
  XXY=              2.0606  XXZ=              0.0512  XZZ=              0.0430  YZZ=              1.2741
  YYZ=              0.1043  XYZ=              0.1374
 Hexadecapole moment (field-independent basis, Debye-Ang**3):
 XXXX=          -3158.5244 YYYY=           -600.4768 ZZZZ=           -112.2708 XXXY=            -18.5996
 XXXZ=              6.3236 YYYX=              9.1926 YYYZ=             -2.3035 ZZZX=             -3.9845
 ZZZY=              1.9863 XXYY=           -631.0164 XXZZ=           -554.4688 YYZZ=           -115.4730
 XXYZ=             -0.3116 YYXZ=              0.7714 ZZXY=             -5.1950
 N-N= 5.060524946153D+02 E-N=-1.916763479047D+03  KE= 3.885942329753D+02
 No NMR shielding tensors so no spin-rotation constants.
 Leave Link  601 at Fri Sep 17 20:15:29 2021, MaxMem=   524288000 cpu:               0.3 elap:               0.3
 (Enter /opt/gaussian/g16_legacy/l701.exe)
 ... and contract with generalized density number  2.
 Compute integral first derivatives.
 Leave Link  701 at Fri Sep 17 20:15:30 2021, MaxMem=   524288000 cpu:               0.3 elap:               0.3
 (Enter /opt/gaussian/g16_legacy/l702.exe)
 L702 exits ... SP integral derivatives will be done elsewhere.
 Leave Link  702 at Fri Sep 17 20:15:30 2021, MaxMem=   524288000 cpu:               0.0 elap:               0.1
 (Enter /opt/gaussian/g16_legacy/l703.exe)
 Integral derivatives from FoFJK, PRISM(SPDF).
 Compute integral first derivatives, UseDBF=F ICtDFT=           0.
 Calling FoFJK, ICntrl=  10002127 FMM=F ISym2X=0 I1Cent= 0 IOpClX= 0 NMat=1 NMatS=1 NMatT=0.
 FoFJK:  IHMeth= 1 ICntrl=10002127 DoSepK=F KAlg= 0 I1Cent=           0 FoldK=F
 IRaf=         0 NMat=       1 IRICut=       1 DoRegI=T DoRafI=F ISym2E= 0 IDoP0=0 IntGTp=1.
 FoFCou: FMM=F IPFlag=           0 FMFlag=      100000 FMFlg1=         800
         NFxFlg=           0 DoJE=F BraDBF=F KetDBF=F FulRan=T
         wScrn=  0.000000 ICntrl=  10002127 IOpCl=  0 I1Cent=           0 NGrid=           0
         NMat0=    1 NMatS0=      1 NMatT0=    0 NMatD0=    1 NMtDS0=    0 NMtDT0=    0
 Symmetry not used in FoFCou.
 Leave Link  703 at Fri Sep 17 20:16:03 2021, MaxMem=   524288000 cpu:              33.0 elap:              33.0
 (Enter /opt/gaussian/g16_legacy/l716.exe)
 Dipole        = 2.37886636D-02 5.37849527D-02-8.76733278D-04
 ***** Axes restored to original set *****
 -------------------------------------------------------------------
 Center     Atomic                   Forces (Hartrees/Bohr)
 Number     Number              X              Y              Z
 -------------------------------------------------------------------
      1        6           0.001562558    0.003489263    0.008895155
      2        1           0.000788141    0.001871389   -0.001361232
      3        1           0.000098651   -0.002471481    0.000064990
      4        6          -0.006357386   -0.002090007    0.004539543
      5        6           0.002462013   -0.003388159   -0.002520065
      6        1          -0.001443003    0.004326513   -0.001559371
      7        1           0.000360511    0.004173931    0.001751392
      8        1           0.000902191   -0.003524798   -0.000865378
      9        6          -0.007025455    0.001892064   -0.001000699
     10        1          -0.002717981   -0.001279096   -0.004534705
     11        6           0.003760251   -0.002083953   -0.002399104
     12        1          -0.002214704    0.000470916    0.001774694
     13        1           0.001096458   -0.002947603    0.000775683
     14        1           0.002091764    0.002663894   -0.001016453
     15        6          -0.000876748   -0.001308544   -0.003511534
     16        1           0.001895333    0.000718811    0.003238491
     17        1          -0.001009304    0.003007830   -0.000864510
     18        1          -0.001341670   -0.002834948    0.001539295
     19        6           0.000637379    0.001901957   -0.007123973
     20        6          -0.000759257    0.001813379   -0.000289514
     21        1          -0.000032534   -0.003458482   -0.000220232
     22        1           0.001060892   -0.004747918   -0.001188052
     23        1           0.000379451    0.003128085    0.000821398
     24        6          -0.002127235   -0.000853168    0.001985369
     25        1          -0.001971378    0.000234380    0.000792705
     26        6           0.004462357   -0.000170216   -0.000116609
     27        1           0.002728095   -0.004087995    0.003648065
     28        1           0.003590608    0.005553956   -0.001255350
 -------------------------------------------------------------------
 Cartesian Forces:  Max     0.008895155 RMS     0.002818604
 Leave Link  716 at Fri Sep 17 20:16:03 2021, MaxMem=   524288000 cpu:               0.1 elap:               0.1
 (Enter /opt/gaussian/g16_legacy/l103.exe)

 GradGradGradGradGradGradGradGradGradGradGradGradGradGradGradGradGradGrad
 Berny optimization.
 FormGI is forming the generalized inverse of G from B-inverse, IUseBI=4.
 Internal  Forces:  Max     0.014021412 RMS     0.002936447
 Search for a local minimum.
 Step number   1 out of a maximum of  138
 All quantities printed in internal units (Hartrees-Bohrs-Radians)
 RMS Force = .29364D-02 SwitMx=.10000D-02 MixMth= 1
 Mixed Optimization -- RFO/linear search
 Second derivative matrix not updated -- first step.
 ITU=  0
     Eigenvalues ---    0.00308   0.00389   0.00648   0.00694   0.00739
     Eigenvalues ---    0.00742   0.00829   0.01164   0.01264   0.01571
     Eigenvalues ---    0.01664   0.02751   0.02758   0.03788   0.03869
     Eigenvalues ---    0.05304   0.05407   0.07029   0.07034   0.07090
     Eigenvalues ---    0.07144   0.07254   0.07254   0.07360   0.07558
     Eigenvalues ---    0.09639   0.09833   0.13035   0.13135   0.15998
     Eigenvalues ---    0.15998   0.16000   0.16000   0.16000   0.16000
     Eigenvalues ---    0.16000   0.16000   0.16000   0.16000   0.16000
     Eigenvalues ---    0.16000   0.16000   0.16000   0.22001   0.22001
     Eigenvalues ---    0.22003   0.22100   0.25000   0.25000   0.25000
     Eigenvalues ---    0.25000   0.28998   0.29560   0.31461   0.31813
     Eigenvalues ---    0.32168   0.32186   0.32886   0.33816   0.33923
     Eigenvalues ---    0.33946   0.33961   0.34058   0.34131   0.34220
     Eigenvalues ---    0.34260   0.34267   0.34272   0.34286   0.34286
     Eigenvalues ---    0.34295   0.34348   0.34622   0.34674   0.35156
     Eigenvalues ---    0.35189   0.55030   0.55154
 RFO step:  Lambda=-5.22486693D-03 EMin= 3.07534343D-03
 Linear search not attempted -- first point.
 Iteration  1 RMS(Cart)=  0.10022554 RMS(Int)=  0.00181549
 Iteration  2 RMS(Cart)=  0.00432425 RMS(Int)=  0.00015090
 Iteration  3 RMS(Cart)=  0.00000332 RMS(Int)=  0.00015090
 Iteration  4 RMS(Cart)=  0.00000000 RMS(Int)=  0.00015090
 ITry= 1 IFail=0 DXMaxC= 2.95D-01 DCOld= 1.00D+10 DXMaxT= 3.00D-01 DXLimC= 3.00D+00 Rises=F
 Variable       Old X    -DE/DX   Delta X   Delta X   Delta X     New X
                                 (Linear)    (Quad)   (Total)
    R1        2.07397  -0.00163   0.00000  -0.00474  -0.00474   2.06923
    R2        2.07459  -0.00144   0.00000  -0.00417  -0.00417   2.07043
    R3        2.88848  -0.01005   0.00000  -0.03341  -0.03341   2.85507
    R4        2.90008  -0.00626   0.00000  -0.02122  -0.02122   2.87885
    R5        2.84487   0.00318   0.00000   0.00983   0.00983   2.85471
    R6        2.55106  -0.00780   0.00000  -0.01403  -0.01403   2.53702
    R7        2.06747  -0.00383   0.00000  -0.01099  -0.01099   2.05648
    R8        2.07110  -0.00391   0.00000  -0.01127  -0.01127   2.05983
    R9        2.06850  -0.00194   0.00000  -0.00558  -0.00558   2.06293
   R10        2.05422  -0.00184   0.00000  -0.00517  -0.00517   2.04905
   R11        2.82552   0.00411   0.00000   0.01231   0.01231   2.83783
   R12        2.06293  -0.00284   0.00000  -0.00807  -0.00807   2.05486
   R13        2.06836  -0.00234   0.00000  -0.00673  -0.00673   2.06162
   R14        2.06850  -0.00211   0.00000  -0.00607  -0.00607   2.06243
   R15        2.06873  -0.00355   0.00000  -0.01019  -0.01019   2.05854
   R16        2.06881  -0.00181   0.00000  -0.00521  -0.00521   2.06360
   R17        2.06894  -0.00202   0.00000  -0.00582  -0.00582   2.06312
   R18        2.83837   0.00121   0.00000   0.00370   0.00370   2.84207
   R19        2.85141  -0.00173   0.00000  -0.00540  -0.00540   2.84602
   R20        2.54995  -0.00541   0.00000  -0.00972  -0.00972   2.54023
   R21        2.06207  -0.00160   0.00000  -0.00455  -0.00455   2.05753
   R22        2.07233  -0.00427   0.00000  -0.01234  -0.01234   2.05999
   R23        2.06961  -0.00188   0.00000  -0.00540  -0.00540   2.06421
   R24        2.05369  -0.00028   0.00000  -0.00079  -0.00079   2.05291
   R25        2.83806   0.00513   0.00000   0.01568   0.01568   2.85373
   R26        2.07422  -0.00231   0.00000  -0.00670  -0.00670   2.06751
   R27        2.07642  -0.00375   0.00000  -0.01091  -0.01091   2.06551
    A1        1.86653  -0.00069   0.00000  -0.02056  -0.02061   1.84592
    A2        1.89425  -0.00157   0.00000  -0.00620  -0.00636   1.88789
    A3        1.90226  -0.00017   0.00000   0.00445   0.00442   1.90667
    A4        1.89039  -0.00139   0.00000  -0.00534  -0.00548   1.88491
    A5        1.90061  -0.00040   0.00000   0.00231   0.00229   1.90290
    A6        2.00500   0.00392   0.00000   0.02217   0.02206   2.02706
    A7        1.99300   0.00007   0.00000   0.00024   0.00011   1.99311
    A8        2.15425  -0.00212   0.00000  -0.00834  -0.00847   2.14578
    A9        2.13593   0.00204   0.00000   0.00796   0.00782   2.14375
   A10        1.95685   0.00025   0.00000   0.00365   0.00364   1.96050
   A11        1.93822  -0.00210   0.00000  -0.01177  -0.01172   1.92650
   A12        1.92244   0.00414   0.00000   0.02199   0.02201   1.94445
   A13        1.85394   0.00205   0.00000   0.01813   0.01815   1.87209
   A14        1.90254  -0.00271   0.00000  -0.01809  -0.01812   1.88442
   A15        1.88732  -0.00185   0.00000  -0.01527  -0.01519   1.87213
   A16        2.09475  -0.00273   0.00000  -0.02051  -0.02053   2.07422
   A17        2.23766  -0.00506   0.00000  -0.02241  -0.02243   2.21524
   A18        1.95054   0.00779   0.00000   0.04314   0.04312   1.99366
   A19        1.98425  -0.00168   0.00000  -0.01002  -0.00999   1.97426
   A20        1.90700   0.00242   0.00000   0.01446   0.01440   1.92141
   A21        1.91147   0.00353   0.00000   0.02145   0.02140   1.93288
   A22        1.88073  -0.00050   0.00000  -0.00318  -0.00315   1.87758
   A23        1.89185  -0.00104   0.00000  -0.00596  -0.00592   1.88593
   A24        1.88599  -0.00294   0.00000  -0.01804  -0.01819   1.86780
   A25        1.88325   0.00024   0.00000   0.00273   0.00277   1.88602
   A26        1.88107   0.00060   0.00000   0.00692   0.00696   1.88803
   A27        1.95846  -0.00240   0.00000  -0.01216  -0.01212   1.94634
   A28        1.89451  -0.00329   0.00000  -0.02462  -0.02463   1.86988
   A29        1.92292   0.00233   0.00000   0.01236   0.01237   1.93529
   A30        1.92185   0.00237   0.00000   0.01372   0.01373   1.93558
   A31        2.01166   0.00198   0.00000   0.00776   0.00760   2.01927
   A32        2.12693  -0.00060   0.00000  -0.00235  -0.00250   2.12442
   A33        2.14459  -0.00139   0.00000  -0.00545  -0.00561   2.13899
   A34        1.96398  -0.00120   0.00000  -0.00535  -0.00533   1.95865
   A35        1.93404  -0.00143   0.00000  -0.00678  -0.00676   1.92728
   A36        1.92038   0.00351   0.00000   0.01746   0.01750   1.93788
   A37        1.85762   0.00268   0.00000   0.02328   0.02329   1.88090
   A38        1.89633  -0.00190   0.00000  -0.01485  -0.01482   1.88151
   A39        1.88893  -0.00178   0.00000  -0.01451  -0.01447   1.87446
   A40        2.09283  -0.00590   0.00000  -0.02965  -0.02966   2.06317
   A41        2.13849   0.00746   0.00000   0.03318   0.03316   2.17166
   A42        2.05166  -0.00156   0.00000  -0.00334  -0.00336   2.04831
   A43        2.02301  -0.01402   0.00000  -0.05656  -0.05609   1.96692
   A44        1.88611   0.00323   0.00000   0.00928   0.00986   1.89597
   A45        1.89289   0.00279   0.00000   0.00458   0.00512   1.89801
   A46        1.88245   0.00624   0.00000   0.04057   0.04046   1.92290
   A47        1.87884   0.00646   0.00000   0.04014   0.03990   1.91873
   A48        1.89767  -0.00455   0.00000  -0.03921  -0.03982   1.85786
    D1        1.03007  -0.00085   0.00000   0.01293   0.01290   1.04297
    D2       -2.11633  -0.00135   0.00000  -0.01710  -0.01697  -2.13330
    D3       -0.99046   0.00153   0.00000   0.04331   0.04319  -0.94727
    D4        2.14633   0.00103   0.00000   0.01329   0.01332   2.15965
    D5       -3.11926   0.00044   0.00000   0.02928   0.02919  -3.09006
    D6        0.01753  -0.00006   0.00000  -0.00075  -0.00068   0.01685
    D7       -1.01185   0.00057   0.00000   0.00743   0.00745  -1.00440
    D8       -3.12603  -0.00055   0.00000  -0.01426  -0.01427  -3.14030
    D9        1.10283   0.00156   0.00000   0.02467   0.02481   1.12764
   D10        1.01855  -0.00057   0.00000  -0.01336  -0.01344   1.00511
   D11       -1.09563  -0.00169   0.00000  -0.03506  -0.03515  -1.13078
   D12        3.13323   0.00042   0.00000   0.00387   0.00392   3.13715
   D13       -3.14138   0.00002   0.00000  -0.00330  -0.00335   3.13846
   D14        1.02762  -0.00110   0.00000  -0.02500  -0.02506   1.00256
   D15       -1.02670   0.00101   0.00000   0.01393   0.01401  -1.01269
[...]
                 (A) (A) (A) (A) (A) (A) (A) (A) (A) (A) (A) (A)
                 (A) (A) (A) (A) (A) (A) (A) (A) (A) (A) (A) (A)
                 (A) (A) (A) (A) (A) (A) (A) (A) (A) (A) (A) (A)
                 (A) (A) (A) (A) (A) (A) (A) (A) (A) (A) (A) (A)
                 (A) (A) (A) (A) (A) (A) (A) (A) (A) (A) (A) (A)
                 (A) (A) (A) (A) (A) (A) (A) (A) (A) (A) (A) (A)
                 (A) (A) (A) (A) (A) (A) (A) (A) (A) (A) (A) (A)
                 (A) (A) (A) (A) (A) (A) (A) (A) (A) (A) (A) (A)
                 (A) (A) (A) (A) (A) (A) (A) (A) (A) (A) (A) (A)
                 (A) (A) (A) (A) (A) (A) (A) (A) (A) (A) (A) (A)
                 (A) (A) (A) (A) (A) (A) (A) (A) (A) (A) (A) (A)
                 (A) (A) (A) (A) (A) (A) (A) (A) (A) (A) (A) (A)
                 (A) (A) (A) (A) (A) (A) (A) (A) (A)
 The electronic state is 1-A.
 Alpha  occ. eigenvalues --  -11.22919 -11.22666 -11.21834 -11.21628 -11.21588
 Alpha  occ. eigenvalues --  -11.21461 -11.21437 -11.21421 -11.21351 -11.21312
 Alpha  occ. eigenvalues --   -1.10741  -1.08418  -1.02019  -0.97869  -0.93728
 Alpha  occ. eigenvalues --   -0.92029  -0.87200  -0.82983  -0.70311  -0.69056
 Alpha  occ. eigenvalues --   -0.63960  -0.63320  -0.60086  -0.59083  -0.58549
 Alpha  occ. eigenvalues --   -0.56272  -0.55701  -0.54671  -0.53190  -0.52798
 Alpha  occ. eigenvalues --   -0.52150  -0.51319  -0.50326  -0.48691  -0.47756
 Alpha  occ. eigenvalues --   -0.46335  -0.44918  -0.32557  -0.32298
 Alpha virt. eigenvalues --    0.18976   0.19591   0.23180   0.24499   0.26349
 Alpha virt. eigenvalues --    0.26855   0.27547   0.29411   0.30214   0.31202
 Alpha virt. eigenvalues --    0.32162   0.32416   0.33141   0.33783   0.34618
 Alpha virt. eigenvalues --    0.35167   0.36307   0.37037   0.37853   0.40432
 Alpha virt. eigenvalues --    0.40775   0.41062   0.43254   0.45811   0.48813
 Alpha virt. eigenvalues --    0.52337   0.53052   0.62053   0.64746   0.70041
 Alpha virt. eigenvalues --    0.71462   0.72557   0.73078   0.74843   0.76423
 Alpha virt. eigenvalues --    0.77326   0.79049   0.80502   0.81086   0.83301
 Alpha virt. eigenvalues --    0.83766   0.86587   0.86783   0.90976   0.92601
 Alpha virt. eigenvalues --    0.93951   0.94837   0.96870   0.98044   0.98847
 Alpha virt. eigenvalues --    1.00129   1.00763   1.02859   1.03416   1.07862
 Alpha virt. eigenvalues --    1.08633   1.09607   1.10010   1.11584   1.12019
 Alpha virt. eigenvalues --    1.13300   1.14671   1.15510   1.16077   1.17263
 Alpha virt. eigenvalues --    1.17355   1.17463   1.18586   1.19188   1.20276
 Alpha virt. eigenvalues --    1.21124   1.21787   1.23889   1.25285   1.27025
 Alpha virt. eigenvalues --    1.31025   1.34274   1.38607   1.42617   1.45549
 Alpha virt. eigenvalues --    1.47683   1.48138   1.55138   1.58134   1.59881
 Alpha virt. eigenvalues --    1.64685   1.67263   1.68481   1.69638   1.74002
 Alpha virt. eigenvalues --    1.76945   1.81986   1.89695   1.92185   1.98408
 Alpha virt. eigenvalues --    1.99748   2.01124   2.03283   2.05147   2.08089
 Alpha virt. eigenvalues --    2.08352   2.09857   2.10978   2.12107   2.15144
 Alpha virt. eigenvalues --    2.16650   2.18833   2.20493   2.22868   2.26767
 Alpha virt. eigenvalues --    2.28261   2.31146   2.35246   2.35596   2.35656
 Alpha virt. eigenvalues --    2.35777   2.35960   2.39965   2.40345   2.40679
 Alpha virt. eigenvalues --    2.42076   2.43383   2.44733   2.45275   2.46050
 Alpha virt. eigenvalues --    2.46541   2.47658   2.50590   2.51508   2.53404
 Alpha virt. eigenvalues --    2.54803   2.57691   2.62115   2.63358   2.65371
 Alpha virt. eigenvalues --    2.68561   2.69647   2.71657   2.73151   2.74227
 Alpha virt. eigenvalues --    2.75502   2.80070   2.80534   2.84414   2.84947
 Alpha virt. eigenvalues --    2.87372   2.87826   2.91432   2.93563   2.96510
 Alpha virt. eigenvalues --    2.97501   3.01862   3.03152   3.05474   3.05959
 Alpha virt. eigenvalues --    3.06727   3.07492   3.11128   3.13562   3.16824
 Alpha virt. eigenvalues --    3.17862   3.18686   3.20087   3.20940   3.23832
 Alpha virt. eigenvalues --    3.24435   3.25846   3.27068   3.28043   3.39375
 Alpha virt. eigenvalues --    3.40766   3.45073   3.46247   3.56248   3.57370
 Alpha virt. eigenvalues --    3.60658   3.62583   3.67770   3.74315   3.77230
 Alpha virt. eigenvalues --    3.79601   3.80411   3.82055   3.83424   3.84053
 Alpha virt. eigenvalues --    3.84713   3.87680   3.88453   3.91178   3.91468
 Alpha virt. eigenvalues --    3.95360   4.58222   4.60475   4.74858   4.82306
 Alpha virt. eigenvalues --    4.88748   4.91469   4.92458   5.02375   5.11075
 Alpha virt. eigenvalues --    5.19150
          Condensed to atoms (all electrons):
               1          2          3          4          5          6
     1  C    4.969849   0.401292   0.405789   0.352856  -0.063779   0.003808
     2  H    0.401292   0.599340  -0.037167  -0.043832  -0.003012  -0.000036
     3  H    0.405789  -0.037167   0.605596  -0.046727  -0.002936  -0.000019
     4  C    0.352856  -0.043832  -0.046727   4.922461   0.352256  -0.038174
     5  C   -0.063779  -0.003012  -0.002936   0.352256   4.903524   0.406788
     6  H    0.003808  -0.000036  -0.000019  -0.038174   0.406788   0.570707
     7  H   -0.002961   0.002576  -0.000352  -0.043750   0.401073  -0.027509
     8  H   -0.002995  -0.000255   0.002612  -0.043228   0.400369  -0.027296
     9  C   -0.044681  -0.000468   0.000053   0.702134  -0.042760  -0.002211
    10  H   -0.007238   0.000191   0.000164  -0.039754   0.003424   0.000047
    11  C    0.003095  -0.000090  -0.000088  -0.044792  -0.008655  -0.002550
    12  H    0.000068  -0.000003  -0.000003   0.000371  -0.002338  -0.001605
    13  H   -0.000093  -0.000004   0.000015  -0.000740   0.000277  -0.000002
    14  H   -0.000101   0.000016  -0.000004  -0.000786   0.000299   0.000002
    15  C   -0.000095  -0.000042  -0.000003   0.000001  -0.000000   0.000000
    16  H   -0.000003  -0.000003   0.000003   0.000000  -0.000000   0.000000
    17  H    0.000023  -0.000007  -0.000001  -0.000000   0.000000  -0.000000
    18  H   -0.000005   0.000002   0.000000   0.000000  -0.000000   0.000000
    19  C   -0.003906   0.000981   0.000827   0.000068  -0.000002   0.000000
    20  C    0.000515   0.000195  -0.000019  -0.000020   0.000000  -0.000000
    21  H   -0.000051   0.000204  -0.000015  -0.000002  -0.000001   0.000000
    22  H   -0.000037   0.000013  -0.000000   0.000001  -0.000000   0.000000
    23  H    0.000108  -0.000083  -0.000001  -0.000004   0.000000  -0.000000
    24  C   -0.061305  -0.000795  -0.002155   0.004678  -0.000101   0.000001
    25  H   -0.000788   0.000224   0.001129  -0.000088   0.000002  -0.000000
    26  C    0.343363  -0.038838  -0.041456  -0.042294   0.003154  -0.000084
    27  H   -0.048199   0.005093  -0.003751  -0.000137  -0.000058   0.000001
    28  H   -0.041964  -0.004483   0.004865  -0.001167  -0.000036   0.000001
               7          8          9         10         11         12
     1  C   -0.002961  -0.002995  -0.044681  -0.007238   0.003095   0.000068
     2  H    0.002576  -0.000255  -0.000468   0.000191  -0.000090  -0.000003
     3  H   -0.000352   0.002612   0.000053   0.000164  -0.000088  -0.000003
     4  C   -0.043750  -0.043228   0.702134  -0.039754  -0.044792   0.000371
     5  C    0.401073   0.400369  -0.042760   0.003424  -0.008655  -0.002338
     6  H   -0.027509  -0.027296  -0.002211   0.000047  -0.002550  -0.001605
     7  H    0.587558  -0.035920  -0.000168  -0.000122   0.000286  -0.000037
     8  H   -0.035920   0.587232  -0.000310  -0.000122   0.000310  -0.000042
     9  C   -0.000168  -0.000310   4.942103   0.408074   0.340082  -0.043931
    10  H   -0.000122  -0.000122   0.408074   0.556733  -0.041829   0.003333
    11  C    0.000286   0.000310   0.340082  -0.041829   4.893191   0.408511
    12  H   -0.000037  -0.000042  -0.043931   0.003333   0.408511   0.577547
    13  H   -0.000025   0.000052  -0.042692  -0.001220   0.402198  -0.028365
    14  H    0.000050  -0.000026  -0.042560  -0.001122   0.401714  -0.028313
    15  C    0.000000  -0.000000   0.000000  -0.000000   0.000000   0.000000
    16  H   -0.000000   0.000000   0.000000   0.000000   0.000000   0.000000
    17  H    0.000000  -0.000000   0.000000  -0.000000  -0.000000   0.000000
    18  H   -0.000000   0.000000  -0.000000   0.000000   0.000000  -0.000000
    19  C   -0.000001   0.000000  -0.000005  -0.000004   0.000000  -0.000000
    20  C   -0.000000  -0.000000   0.000001  -0.000002  -0.000000   0.000000
    21  H    0.000000  -0.000000  -0.000006  -0.000005  -0.000000   0.000000
    22  H   -0.000000  -0.000000  -0.000000   0.000000   0.000000  -0.000000
    23  H    0.000000  -0.000000   0.000000  -0.000000  -0.000000   0.000000
    24  C   -0.000005   0.000002   0.000309   0.000187  -0.000001   0.000000
    25  H    0.000000  -0.000001  -0.000002  -0.000000   0.000000  -0.000000
    26  C    0.000013  -0.000019  -0.009100  -0.001313   0.000045  -0.000000
    27  H    0.000004  -0.000005  -0.000959  -0.000686  -0.000044  -0.000002
    28  H   -0.000007   0.000004  -0.000422  -0.000913  -0.000030  -0.000002
              13         14         15         16         17         18
     1  C   -0.000093  -0.000101  -0.000095  -0.000003   0.000023  -0.000005
     2  H   -0.000004   0.000016  -0.000042  -0.000003  -0.000007   0.000002
     3  H    0.000015  -0.000004  -0.000003   0.000003  -0.000001   0.000000
     4  C   -0.000740  -0.000786   0.000001   0.000000  -0.000000   0.000000
     5  C    0.000277   0.000299  -0.000000  -0.000000   0.000000  -0.000000
     6  H   -0.000002   0.000002   0.000000   0.000000  -0.000000   0.000000
     7  H   -0.000025   0.000050   0.000000  -0.000000   0.000000  -0.000000
     8  H    0.000052  -0.000026  -0.000000   0.000000  -0.000000   0.000000
     9  C   -0.042692  -0.042560   0.000000   0.000000   0.000000  -0.000000
    10  H   -0.001220  -0.001122  -0.000000   0.000000  -0.000000   0.000000
    11  C    0.402198   0.401714   0.000000   0.000000  -0.000000   0.000000
    12  H   -0.028365  -0.028313   0.000000   0.000000   0.000000  -0.000000
    13  H    0.587091  -0.036104  -0.000000   0.000000   0.000000   0.000000
    14  H   -0.036104   0.587640   0.000000  -0.000000   0.000000  -0.000000
    15  C   -0.000000   0.000000   4.900750   0.406171   0.398125   0.398805
    16  H    0.000000  -0.000000   0.406171   0.566458  -0.026696  -0.026600
    17  H    0.000000   0.000000   0.398125  -0.026696   0.595056  -0.037888
    18  H    0.000000  -0.000000   0.398805  -0.026600  -0.037888   0.594234
    19  C    0.000000  -0.000000   0.353325  -0.041724  -0.043790  -0.044357
    20  C   -0.000000   0.000000  -0.065138   0.003786  -0.001949  -0.001225
    21  H   -0.000000   0.000000   0.003732  -0.000114  -0.000071  -0.000028
    22  H   -0.000000   0.000000  -0.002236  -0.000053  -0.000464   0.002783
    23  H   -0.000000   0.000000  -0.002641  -0.000030   0.002790  -0.000490
    24  C   -0.000000  -0.000000  -0.044430  -0.002554  -0.000531  -0.001229
    25  H   -0.000000   0.000000  -0.007031   0.002336   0.000192   0.000189
    26  C    0.000003   0.000002   0.003147   0.000154  -0.000080  -0.000122
    27  H   -0.000014   0.000009  -0.000096  -0.000010  -0.000002   0.000010
    28  H    0.000009  -0.000013   0.000073   0.000006  -0.000003   0.000003
              19         20         21         22         23         24
     1  C   -0.003906   0.000515  -0.000051  -0.000037   0.000108  -0.061305
     2  H    0.000981   0.000195   0.000204   0.000013  -0.000083  -0.000795
     3  H    0.000827  -0.000019  -0.000015  -0.000000  -0.000001  -0.002155
     4  C    0.000068  -0.000020  -0.000002   0.000001  -0.000004   0.004678
     5  C   -0.000002   0.000000  -0.000001  -0.000000   0.000000  -0.000101
     6  H    0.000000  -0.000000   0.000000   0.000000  -0.000000   0.000001
     7  H   -0.000001  -0.000000   0.000000  -0.000000   0.000000  -0.000005
     8  H    0.000000  -0.000000  -0.000000  -0.000000  -0.000000   0.000002
     9  C   -0.000005   0.000001  -0.000006  -0.000000   0.000000   0.000309
    10  H   -0.000004  -0.000002  -0.000005   0.000000  -0.000000   0.000187
    11  C    0.000000  -0.000000  -0.000000   0.000000  -0.000000  -0.000001
    12  H   -0.000000   0.000000   0.000000  -0.000000   0.000000   0.000000
    13  H    0.000000  -0.000000  -0.000000  -0.000000  -0.000000  -0.000000
    14  H   -0.000000   0.000000   0.000000   0.000000   0.000000  -0.000000
    15  C    0.353325  -0.065138   0.003732  -0.002236  -0.002641  -0.044430
    16  H   -0.041724   0.003786  -0.000114  -0.000053  -0.000030  -0.002554
    17  H   -0.043790  -0.001949  -0.000071  -0.000464   0.002790  -0.000531
    18  H   -0.044357  -0.001225  -0.000028   0.002783  -0.000490  -0.001229
    19  C    4.916534   0.350204  -0.037907  -0.043822  -0.043531   0.697658
    20  C    0.350204   4.905231   0.407412   0.399981   0.401027  -0.043319
    21  H   -0.037907   0.407412   0.566145  -0.026494  -0.027896  -0.002676
    22  H   -0.043822   0.399981  -0.026494   0.586552  -0.035976  -0.000417
    23  H   -0.043531   0.401027  -0.027896  -0.035976   0.587592  -0.000122
    24  C    0.697658  -0.043319  -0.002676  -0.000417  -0.000122   4.946780
    25  H   -0.038823   0.003521   0.000051  -0.000120  -0.000121   0.403095
    26  C   -0.049376  -0.008227  -0.002834   0.000202   0.000347   0.355777
    27  H    0.001118   0.000197   0.000086   0.000027  -0.000015  -0.041455
    28  H    0.000748  -0.002474  -0.001576   0.000013  -0.000052  -0.044282
              25         26         27         28
     1  C   -0.000788   0.343363  -0.048199  -0.041964
     2  H    0.000224  -0.038838   0.005093  -0.004483
     3  H    0.001129  -0.041456  -0.003751   0.004865
     4  C   -0.000088  -0.042294  -0.000137  -0.001167
     5  C    0.000002   0.003154  -0.000058  -0.000036
     6  H   -0.000000  -0.000084   0.000001   0.000001
     7  H    0.000000   0.000013   0.000004  -0.000007
     8  H   -0.000001  -0.000019  -0.000005   0.000004
     9  C   -0.000002  -0.009100  -0.000959  -0.000422
    10  H   -0.000000  -0.001313  -0.000686  -0.000913
    11  C    0.000000   0.000045  -0.000044  -0.000030
    12  H   -0.000000  -0.000000  -0.000002  -0.000002
    13  H   -0.000000   0.000003  -0.000014   0.000009
    14  H    0.000000   0.000002   0.000009  -0.000013
    15  C   -0.007031   0.003147  -0.000096   0.000073
    16  H    0.002336   0.000154  -0.000010   0.000006
    17  H    0.000192  -0.000080  -0.000002  -0.000003
    18  H    0.000189  -0.000122   0.000010   0.000003
    19  C   -0.038823  -0.049376   0.001118   0.000748
    20  C    0.003521  -0.008227   0.000197  -0.002474
    21  H    0.000051  -0.002834   0.000086  -0.001576
    22  H   -0.000120   0.000202   0.000027   0.000013
    23  H   -0.000121   0.000347  -0.000015  -0.000052
    24  C    0.403095   0.355777  -0.041455  -0.044282
    25  H    0.558505  -0.039578  -0.003179   0.003308
    26  C   -0.039578   4.950054   0.414871   0.416325
    27  H   -0.003179   0.414871   0.587459  -0.032544
    28  H    0.003308   0.416325  -0.032544   0.584159
 Mulliken charges:
               1
     1  C   -0.202566
     2  H    0.118991
     3  H    0.113644
     4  C    0.010671
     5  C   -0.347487
     6  H    0.118134
     7  H    0.119295
     8  H    0.119639
     9  C   -0.162481
    10  H    0.122177
    11  C   -0.351352
    12  H    0.114810
    13  H    0.119614
    14  H    0.119296
    15  C   -0.342415
    16  H    0.118872
    17  H    0.115297
    18  H    0.115916
    19  C    0.025784
    20  C   -0.349697
    21  H    0.122044
    22  H    0.120048
    23  H    0.119096
    24  C   -0.163110
    25  H    0.117180
    26  C   -0.254134
    27  H    0.122281
    28  H    0.120453
 Sum of Mulliken charges =  -0.00000
 Mulliken charges with hydrogens summed into heavy atoms:
               1
     1  C    0.030069
     4  C    0.010671
     5  C    0.009581
     9  C   -0.040304
    11  C    0.002368
    15  C    0.007670
    19  C    0.025784
    20  C    0.011491
    24  C   -0.045930
    26  C   -0.011400
 Electronic spatial extent (au):  <R**2>=           2701.2588
 Charge=             -0.0000 electrons
 Dipole moment (field-independent basis, Debye):
    X=             -0.1356    Y=             -0.1080    Z=              0.2641  Tot=              0.3159
 Quadrupole moment (field-independent basis, Debye-Ang):
   XX=            -63.5778   YY=            -64.7768   ZZ=            -65.7462
   XY=             -0.0908   XZ=             -0.6118   YZ=              0.3816
 Traceless Quadrupole moment (field-independent basis, Debye-Ang):
   XX=              1.1225   YY=             -0.0765   ZZ=             -1.0460
   XY=             -0.0908   XZ=             -0.6118   YZ=              0.3816
 Octapole moment (field-independent basis, Debye-Ang**2):
  XXX=             -1.9743  YYY=              1.4894  ZZZ=             -0.0325  XYY=              2.2715
  XXY=              0.4448  XXZ=              4.8933  XZZ=             -2.4346  YZZ=             -2.4789
  YYZ=             -0.6906  XYZ=             -3.3681
 Hexadecapole moment (field-independent basis, Debye-Ang**3):
 XXXX=          -3032.5014 YYYY=           -437.9387 ZZZZ=           -262.1381 XXXY=             -9.6488
 XXXZ=             -2.9545 YYYX=              0.2449 YYYZ=              4.5748 ZZZX=             -1.7616
 ZZZY=             -1.1543 XXYY=           -581.6440 XXZZ=           -561.3206 YYZZ=           -114.6455
 XXYZ=             -0.5033 YYXZ=             -1.6587 ZZXY=              8.3706
 N-N= 5.096714898398D+02 E-N=-1.924076157792D+03  KE= 3.887401141436D+02
 No NMR shielding tensors so no spin-rotation constants.
 Leave Link  601 at Fri Sep 17 23:06:58 2021, MaxMem=   524288000 cpu:               0.3 elap:               1.3
 (Enter /opt/gaussian/g16_legacy/l9999.exe)
 1\1\GINC-TRUENO90\FOpt\RMP2-FC\6-31G(d,p)\C10H18\JRAMOS\17-Sep-2021\0\
 \#p opt mp2/6-31g(d,p)\\Conformer number 015. Energy MM = 28.536 kcal/
 mol\\0,1\C,2.0669260314,1.4256098606,-8.582289007\H,1.571092755,0.4854
 864852,-8.3145391412\H,1.8696012746,1.5556939258,-9.6530203394\C,3.556
 7573581,1.2578725336,-8.3894689185\C,4.1321208113,0.1297038817,-9.2032
 814238\H,5.1991347554,-0.0089470514,-9.053016246\H,3.6325321507,-0.808
 6963114,-8.9536859438\H,3.9616518538,0.3053578026,-10.2675693856\C,4.2
 700438539,2.0475993486,-7.565852575\H,3.7420276322,2.8286395332,-7.030
 7772969\C,5.7413276401,1.9904912317,-7.2818621121\H,6.2512257269,1.205
 1735547,-7.8333036711\H,6.2174925988,2.9390589049,-7.5364295894\H,5.92
 05228448,1.8216093154,-6.2184739383\C,-2.5221273586,2.3481646821,-7.92
 03076267\H,-2.5543959254,2.8301495124,-8.8962262093\H,-3.0059057352,1.
 3723643962,-8.0037509133\H,-3.1223960589,2.9405121041,-7.2259579285\C,
 -1.110768386,2.2058321934,-7.4202249138\C,-0.9868847268,1.5499961721,-
 6.0729314579\H,0.0441448353,1.4294523484,-5.7510692903\H,-1.5157039401
 ,2.131849194,-5.3147459868\H,-1.4507984474,0.5615399029,-6.0922950845\
 C,-0.0724458646,2.6481750184,-8.1539597066\H,-0.2978179585,3.088890957
 9,-9.1220724539\C,1.3865080908,2.5620012709,-7.8156430973\H,1.86864050
 68,3.5085752097,-8.0736501015\H,1.5342936818,2.4195440223,-6.744995641
 5\\Version=EM64L-G16RevA.03\State=1-A\HF=-389.1560468\MP2=-390.5722039
 \RMSD=2.491e-09\RMSF=1.917e-06\Dipole=-0.034882,-0.0870438,0.0266938\P
 G=C01 [X(C10H18)]\\@


 MORNING PEOPLE ARE USUALLY ADMIRED AS EARLY BIRDS.
 RECALL BEN FRANKLIN'S APHORISM THAT THE EARLY BIRD GETS THE WORM.
 I IDENTIFY WITH THE WORM. --  CRAIG JAGGER, MINNEAPOLIS, KS.
 Job cpu time:       0 days  2 hours 57 minutes  9.0 seconds.
 Elapsed time:       0 days  2 hours 57 minutes 25.1 seconds.
 File lengths (MBytes):  RWF=     32 Int=      0 D2E=      0 Chk=      7 Scr=      1
 Normal termination of Gaussian 16 at Fri Sep 17 23:06:59 2021.
