 Entering Gaussian System, Link 0=/opt/gaussian/g16_legacy/g16
 Input=02-IsoP_028_gaussian.com
 Output=02-IsoP_028_gaussian.log
 Initial command:
 /opt/gaussian/g16_legacy/l1.exe "/scratch-local/jramos/2661520/Gau-7250.inp" -scrdir="/scratch-local/jramos/2661520/"
 Entering Link 1 = /opt/gaussian/g16_legacy/l1.exe PID=      7257.
  
 Copyright (c) 1988,1990,1992,1993,1995,1998,2003,2009,2016,
            Gaussian, Inc.  All Rights Reserved.
  
 This is part of the Gaussian(R) 16 program.  It is based on
 the Gaussian(R) 09 system (copyright 2009, Gaussian, Inc.),
 the Gaussian(R) 03 system (copyright 2003, Gaussian, Inc.),
 the Gaussian(R) 98 system (copyright 1998, Gaussian, Inc.),
 the Gaussian(R) 94 system (copyright 1995, Gaussian, Inc.),
 the Gaussian 92(TM) system (copyright 1992, Gaussian, Inc.),
 the Gaussian 90(TM) system (copyright 1990, Gaussian, Inc.),
 the Gaussian 88(TM) system (copyright 1988, Gaussian, Inc.),
 the Gaussian 86(TM) system (copyright 1986, Carnegie Mellon
 University), and the Gaussian 82(TM) system (copyright 1983,
 Carnegie Mellon University). Gaussian is a federally registered
 trademark of Gaussian, Inc.
  
 This software contains proprietary and confidential information,
 including trade secrets, belonging to Gaussian, Inc.
  
 This software is provided under written license and may be
 used, copied, transmitted, or stored only in accord with that
 written license.
  
 The following legend is applicable only to US Government
 contracts under FAR:
  
                    RESTRICTED RIGHTS LEGEND
  
 Use, reproduction and disclosure by the US Government is
 subject to restrictions as set forth in subparagraphs (a)
 and (c) of the Commercial Computer Software - Restricted
 Rights clause in FAR 52.227-19.
  
 Gaussian, Inc.
 340 Quinnipiac St., Bldg. 40, Wallingford CT 06492
  
  
 ---------------------------------------------------------------
 Warning -- This program may not be used in any manner that
 competes with the business of Gaussian, Inc. or will provide
 assistance to any competitor of Gaussian, Inc.  The licensee
 of this program is prohibited from giving any competitor of
 Gaussian, Inc. access to this program.  By using this program,
 the user acknowledges that Gaussian, Inc. is engaged in the
 business of creating and licensing software in the field of
 computational chemistry and represents and warrants to the
 licensee that it is not a competitor of Gaussian, Inc. and that
 it will not use this program in any manner prohibited above.
 ---------------------------------------------------------------
  

 Cite this work as:
 Gaussian 16, Revision A.03,
 M. J. Frisch, G. W. Trucks, H. B. Schlegel, G. E. Scuseria, 
 M. A. Robb, J. R. Cheeseman, G. Scalmani, V. Barone, 
 G. A. Petersson, H. Nakatsuji, X. Li, M. Caricato, A. V. Marenich, 
 J. Bloino, B. G. Janesko, R. Gomperts, B. Mennucci, H. P. Hratchian, 
 J. V. Ortiz, A. F. Izmaylov, J. L. Sonnenberg, D. Williams-Young, 
 F. Ding, F. Lipparini, F. Egidi, J. Goings, B. Peng, A. Petrone, 
 T. Henderson, D. Ranasinghe, V. G. Zakrzewski, J. Gao, N. Rega, 
 G. Zheng, W. Liang, M. Hada, M. Ehara, K. Toyota, R. Fukuda, 
 J. Hasegawa, M. Ishida, T. Nakajima, Y. Honda, O. Kitao, H. Nakai, 
 T. Vreven, K. Throssell, J. A. Montgomery, Jr., J. E. Peralta, 
 F. Ogliaro, M. J. Bearpark, J. J. Heyd, E. N. Brothers, K. N. Kudin, 
 V. N. Staroverov, T. A. Keith, R. Kobayashi, J. Normand, 
 K. Raghavachari, A. P. Rendell, J. C. Burant, S. S. Iyengar, 
 J. Tomasi, M. Cossi, J. M. Millam, M. Klene, C. Adamo, R. Cammi, 
 J. W. Ochterski, R. L. Martin, K. Morokuma, O. Farkas, 
 J. B. Foresman, and D. J. Fox, Gaussian, Inc., Wallingford CT, 2016.
 
 ******************************************
 Gaussian 16:  EM64L-G16RevA.03 25-Dec-2016
                17-Sep-2021 
 ******************************************
 %chk=02-IsoP_028_gaussian.chk
 %nproc=1
 Will use up to    1 processors via shared memory.
 %mem=4000Mb
 ---------------------
 #p opt mp2/6-31g(d,p)
 ---------------------
 1/18=20,19=15,38=1/1,3;
 2/9=110,12=2,17=6,18=5,40=1/2;
 3/5=1,6=6,7=101,11=9,25=1,30=1,71=1/1,2,3;
 4//1;
 5/5=2,38=5/2;
 8/6=4,10=2/1;
 9/15=2,16=-3/6;
 10/5=1/2;
 6/7=2,8=2,9=2,10=2/1;
 7/12=2/1,2,3,16;
 1/18=20,19=15/3(2);
 2/9=110/2;
 99//99;
 2/9=110/2;
 3/5=1,6=6,7=101,11=9,25=1,30=1,71=1/1,2,3;
 4/5=5,16=3,69=1/1;
 5/5=2,38=5/2;
 8/6=4,10=2/1;
 9/15=2,16=-3/6;
 10/5=1/2;
 7/12=2/1,2,3,16;
 1/18=20,19=15/3(-8);
 2/9=110/2;
 6/7=2,8=2,9=2,10=2/1;
 99//99;
 Leave Link    1 at Fri Sep 17 20:09:27 2021, MaxMem=   524288000 cpu:               0.0 elap:               0.1
 (Enter /opt/gaussian/g16_legacy/l101.exe)
 -------------------------------------------------
 Conformer number 028. Energy MM = 26.187 kcal/mol
 -------------------------------------------------
 Symbolic Z-matrix:
 Charge =  0 Multiplicity = 1
 C                     2.1661    1.2032   -8.9719 
 H                     1.8515    0.1782   -9.2068 
 H                     2.0158    1.7767   -9.8972 
 C                     3.6401    1.1871   -8.6024 
 C                     4.0382    0.2802   -7.4714 
 H                     4.7273    0.7804   -6.7819 
 H                     3.1747   -0.0308   -6.8782 
 H                     4.5108   -0.6279   -7.8585 
 C                     4.5211    1.9609   -9.2685 
 H                     4.1566    2.5933   -10.0776 
 C                     5.9916    2.072    -9.0206 
 H                     6.3427    1.4433   -8.1983 
 H                     6.5408    1.7822   -9.9218 
 H                     6.2465    3.1101   -8.7834 
 C                     2.4839    4.9145   -5.8938 
 H                     2.3488    5.5773   -6.7534 
 H                     1.8927    5.3147   -5.0642 
 H                     3.5421    4.9478   -5.6146 
 C                     2.0739    3.4975   -6.1944 
 C                     2.2124    2.5489   -5.0344 
 H                     2.3995    1.5197   -5.3487 
 H                     3.0599    2.8329   -4.4005 
 H                     1.3064    2.565    -4.4222 
 C                     1.6488    3.1478   -7.4215 
 H                     1.5969    3.9177   -8.1946 
 C                     1.2356    1.7771   -7.8896 
 H                     1.1512    1.0725   -7.0577 
 H                     0.2225    1.8527   -8.3074 
 
 ITRead=  0  0  0  0  0  0  0  0  0  0  0  0  0  0  0  0  0  0  0  0
 ITRead=  0  0  0  0  0  0  0  0
 MicOpt= -1 -1 -1 -1 -1 -1 -1 -1 -1 -1 -1 -1 -1 -1 -1 -1 -1 -1 -1 -1
 MicOpt= -1 -1 -1 -1 -1 -1 -1 -1
 NAtoms=     28 NQM=       28 NQMF=       0 NMMI=      0 NMMIF=      0
                NMic=       0 NMicF=      0.
                    Isotopes and Nuclear Properties:
 (Nuclear quadrupole moments (NQMom) in fm**2, nuclear magnetic moments (NMagM)
  in nuclear magnetons)

  Atom         1           2           3           4           5           6           7           8           9          10
 IAtWgt=          12           1           1          12          12           1           1           1          12           1
 AtmWgt=  12.0000000   1.0078250   1.0078250  12.0000000  12.0000000   1.0078250   1.0078250   1.0078250  12.0000000   1.0078250
 NucSpn=           0           1           1           0           0           1           1           1           0           1
 AtZEff=  -0.0000000  -0.0000000  -0.0000000  -0.0000000  -0.0000000  -0.0000000  -0.0000000  -0.0000000  -0.0000000  -0.0000000
 NQMom=    0.0000000   0.0000000   0.0000000   0.0000000   0.0000000   0.0000000   0.0000000   0.0000000   0.0000000   0.0000000
 NMagM=    0.0000000   2.7928460   2.7928460   0.0000000   0.0000000   2.7928460   2.7928460   2.7928460   0.0000000   2.7928460
 AtZNuc=   6.0000000   1.0000000   1.0000000   6.0000000   6.0000000   1.0000000   1.0000000   1.0000000   6.0000000   1.0000000

  Atom        11          12          13          14          15          16          17          18          19          20
 IAtWgt=          12           1           1           1          12           1           1           1          12          12
 AtmWgt=  12.0000000   1.0078250   1.0078250   1.0078250  12.0000000   1.0078250   1.0078250   1.0078250  12.0000000  12.0000000
 NucSpn=           0           1           1           1           0           1           1           1           0           0
 AtZEff=  -0.0000000  -0.0000000  -0.0000000  -0.0000000  -0.0000000  -0.0000000  -0.0000000  -0.0000000  -0.0000000  -0.0000000
 NQMom=    0.0000000   0.0000000   0.0000000   0.0000000   0.0000000   0.0000000   0.0000000   0.0000000   0.0000000   0.0000000
 NMagM=    0.0000000   2.7928460   2.7928460   2.7928460   0.0000000   2.7928460   2.7928460   2.7928460   0.0000000   0.0000000
 AtZNuc=   6.0000000   1.0000000   1.0000000   1.0000000   6.0000000   1.0000000   1.0000000   1.0000000   6.0000000   6.0000000

  Atom        21          22          23          24          25          26          27          28
 IAtWgt=           1           1           1          12           1          12           1           1
 AtmWgt=   1.0078250   1.0078250   1.0078250  12.0000000   1.0078250  12.0000000   1.0078250   1.0078250
 NucSpn=           1           1           1           0           1           0           1           1
 AtZEff=  -0.0000000  -0.0000000  -0.0000000  -0.0000000  -0.0000000  -0.0000000  -0.0000000  -0.0000000
 NQMom=    0.0000000   0.0000000   0.0000000   0.0000000   0.0000000   0.0000000   0.0000000   0.0000000
 NMagM=    2.7928460   2.7928460   2.7928460   0.0000000   2.7928460   0.0000000   2.7928460   2.7928460
 AtZNuc=   1.0000000   1.0000000   1.0000000   6.0000000   1.0000000   6.0000000   1.0000000   1.0000000
 Leave Link  101 at Fri Sep 17 20:09:27 2021, MaxMem=   524288000 cpu:               0.3 elap:               0.3
 (Enter /opt/gaussian/g16_legacy/l103.exe)

 GradGradGradGradGradGradGradGradGradGradGradGradGradGradGradGradGradGrad
 Berny optimization.
 Initialization pass.
                           ----------------------------
                           !    Initial Parameters    !
                           ! (Angstroms and Degrees)  !
 --------------------------                            --------------------------
 ! Name  Definition              Value          Derivative Info.                !
 --------------------------------------------------------------------------------
 ! R1    R(1,2)                  1.0976         estimate D2E/DX2                !
 ! R2    R(1,3)                  1.0989         estimate D2E/DX2                !
 ! R3    R(1,4)                  1.5197         estimate D2E/DX2                !
 ! R4    R(1,26)                 1.5384         estimate D2E/DX2                !
 ! R5    R(4,5)                  1.5034         estimate D2E/DX2                !
 ! R6    R(4,9)                  1.3486         estimate D2E/DX2                !
 ! R7    R(5,6)                  1.0957         estimate D2E/DX2                !
 ! R8    R(5,7)                  1.0928         estimate D2E/DX2                !
 ! R9    R(5,8)                  1.0945         estimate D2E/DX2                !
 ! R10   R(9,10)                 1.0897         estimate D2E/DX2                !
 ! R11   R(9,11)                 1.4954         estimate D2E/DX2                !
 ! R12   R(11,12)                1.093          estimate D2E/DX2                !
 ! R13   R(11,13)                1.0944         estimate D2E/DX2                !
 ! R14   R(11,14)                1.0949         estimate D2E/DX2                !
 ! R15   R(15,16)                1.0938         estimate D2E/DX2                !
 ! R16   R(15,17)                1.0945         estimate D2E/DX2                !
 ! R17   R(15,18)                1.0949         estimate D2E/DX2                !
 ! R18   R(15,19)                1.5054         estimate D2E/DX2                !
 ! R19   R(19,20)                1.5049         estimate D2E/DX2                !
 ! R20   R(19,24)                1.3449         estimate D2E/DX2                !
 ! R21   R(20,21)                1.0923         estimate D2E/DX2                !
 ! R22   R(20,22)                1.0958         estimate D2E/DX2                !
 ! R23   R(20,23)                1.0936         estimate D2E/DX2                !
 ! R24   R(24,25)                1.0923         estimate D2E/DX2                !
 ! R25   R(24,26)                1.5062         estimate D2E/DX2                !
 ! R26   R(26,27)                1.0935         estimate D2E/DX2                !
 ! R27   R(26,28)                1.0985         estimate D2E/DX2                !
 ! A1    A(2,1,3)              105.542          estimate D2E/DX2                !
 ! A2    A(2,1,4)              108.6715         estimate D2E/DX2                !
 ! A3    A(2,1,26)             109.0003         estimate D2E/DX2                !
 ! A4    A(3,1,4)              110.0541         estimate D2E/DX2                !
 ! A5    A(3,1,26)             108.3585         estimate D2E/DX2                !
 ! A6    A(4,1,26)             114.8074         estimate D2E/DX2                !
 ! A7    A(1,4,5)              116.4971         estimate D2E/DX2                !
 ! A8    A(1,4,9)              120.4956         estimate D2E/DX2                !
 ! A9    A(5,4,9)              123.0068         estimate D2E/DX2                !
 ! A10   A(4,5,6)              111.3816         estimate D2E/DX2                !
 ! A11   A(4,5,7)              111.7653         estimate D2E/DX2                !
 ! A12   A(4,5,8)              110.4132         estimate D2E/DX2                !
 ! A13   A(6,5,7)              106.576          estimate D2E/DX2                !
 ! A14   A(6,5,8)              109.256          estimate D2E/DX2                !
 ! A15   A(7,5,8)              107.2813         estimate D2E/DX2                !
 ! A16   A(4,9,10)             118.7654         estimate D2E/DX2                !
 ! A17   A(4,9,11)             127.097          estimate D2E/DX2                !
 ! A18   A(10,9,11)            114.136          estimate D2E/DX2                !
 ! A19   A(9,11,12)            113.4441         estimate D2E/DX2                !
 ! A20   A(9,11,13)            109.7115         estimate D2E/DX2                !
 ! A21   A(9,11,14)            109.5894         estimate D2E/DX2                !
 ! A22   A(12,11,13)           107.8177         estimate D2E/DX2                !
 ! A23   A(12,11,14)           107.9133         estimate D2E/DX2                !
 ! A24   A(13,11,14)           108.2169         estimate D2E/DX2                !
 ! A25   A(16,15,17)           107.9018         estimate D2E/DX2                !
 ! A26   A(16,15,18)           107.5376         estimate D2E/DX2                !
 ! A27   A(16,15,19)           112.3207         estimate D2E/DX2                !
 ! A28   A(17,15,18)           108.5204         estimate D2E/DX2                !
 ! A29   A(17,15,19)           110.39           estimate D2E/DX2                !
 ! A30   A(18,15,19)           110.0448         estimate D2E/DX2                !
 ! A31   A(15,19,20)           114.4779         estimate D2E/DX2                !
 ! A32   A(15,19,24)           120.8646         estimate D2E/DX2                !
 ! A33   A(20,19,24)           124.6456         estimate D2E/DX2                !
 ! A34   A(19,20,21)           112.8249         estimate D2E/DX2                !
 ! A35   A(19,20,22)           110.7155         estimate D2E/DX2                !
 ! A36   A(19,20,23)           110.2427         estimate D2E/DX2                !
 ! A37   A(21,20,22)           106.1521         estimate D2E/DX2                !
 ! A38   A(21,20,23)           108.4741         estimate D2E/DX2                !
 ! A39   A(22,20,23)           108.2461         estimate D2E/DX2                !
 ! A40   A(19,24,25)           118.5236         estimate D2E/DX2                !
 ! A41   A(19,24,26)           127.3652         estimate D2E/DX2                !
 ! A42   A(25,24,26)           114.1064         estimate D2E/DX2                !
 ! A43   A(1,26,24)            113.092          estimate D2E/DX2                !
 ! A44   A(1,26,27)            109.9713         estimate D2E/DX2                !
 ! A45   A(1,26,28)            108.4176         estimate D2E/DX2                !
 ! A46   A(24,26,27)           111.7859         estimate D2E/DX2                !
 ! A47   A(24,26,28)           107.9738         estimate D2E/DX2                !
 ! A48   A(27,26,28)           105.2201         estimate D2E/DX2                !
 ! D1    D(2,1,4,5)            -56.3943         estimate D2E/DX2                !
 ! D2    D(2,1,4,9)            123.8671         estimate D2E/DX2                !
 ! D3    D(3,1,4,5)           -171.5096         estimate D2E/DX2                !
 ! D4    D(3,1,4,9)              8.7518         estimate D2E/DX2                !
 ! D5    D(26,1,4,5)            65.9356         estimate D2E/DX2                !
 ! D6    D(26,1,4,9)          -113.803          estimate D2E/DX2                !
 ! D7    D(2,1,26,24)          175.6614         estimate D2E/DX2                !
 ! D8    D(2,1,26,27)           49.9131         estimate D2E/DX2                !
 ! D9    D(2,1,26,28)          -64.6325         estimate D2E/DX2                !
 ! D10   D(3,1,26,24)          -69.9547         estimate D2E/DX2                !
 ! D11   D(3,1,26,27)          164.2969         estimate D2E/DX2                !
 ! D12   D(3,1,26,28)           49.7514         estimate D2E/DX2                !
 ! D13   D(4,1,26,24)           53.5093         estimate D2E/DX2                !
 ! D14   D(4,1,26,27)          -72.239          estimate D2E/DX2                !
 ! D15   D(4,1,26,28)          173.2154         estimate D2E/DX2                !
 ! D16   D(1,4,5,6)           -135.6127         estimate D2E/DX2                !
 ! D17   D(1,4,5,7)            -16.5205         estimate D2E/DX2                !
 ! D18   D(1,4,5,8)            102.8129         estimate D2E/DX2                !
 ! D19   D(9,4,5,6)             44.1188         estimate D2E/DX2                !
 ! D20   D(9,4,5,7)            163.2109         estimate D2E/DX2                !
 ! D21   D(9,4,5,8)            -77.4557         estimate D2E/DX2                !
 ! D22   D(1,4,9,10)            -0.2458         estimate D2E/DX2                !
 ! D23   D(1,4,9,11)           179.2699         estimate D2E/DX2                !
 ! D24   D(5,4,9,10)          -179.9669         estimate D2E/DX2                !
 ! D25   D(5,4,9,11)            -0.4512         estimate D2E/DX2                !
 ! D26   D(4,9,11,12)           -0.3103         estimate D2E/DX2                !
 ! D27   D(4,9,11,13)          120.3303         estimate D2E/DX2                !
 ! D28   D(4,9,11,14)         -120.9858         estimate D2E/DX2                !
 ! D29   D(10,9,11,12)         179.2245         estimate D2E/DX2                !
 ! D30   D(10,9,11,13)         -60.135          estimate D2E/DX2                !
 ! D31   D(10,9,11,14)          58.5489         estimate D2E/DX2                !
 ! D32   D(16,15,19,20)       -178.7585         estimate D2E/DX2                !
 ! D33   D(16,15,19,24)          2.442          estimate D2E/DX2                !
 ! D34   D(17,15,19,20)        -58.2879         estimate D2E/DX2                !
 ! D35   D(17,15,19,24)        122.9126         estimate D2E/DX2                !
 ! D36   D(18,15,19,20)         61.4704         estimate D2E/DX2                !
 ! D37   D(18,15,19,24)       -117.329          estimate D2E/DX2                !
 ! D38   D(15,19,20,21)       -151.469          estimate D2E/DX2                !
 ! D39   D(15,19,20,22)        -32.6626         estimate D2E/DX2                !
 ! D40   D(15,19,20,23)         87.0888         estimate D2E/DX2                !
 ! D41   D(24,19,20,21)         27.2784         estimate D2E/DX2                !
 ! D42   D(24,19,20,22)        146.0848         estimate D2E/DX2                !
 ! D43   D(24,19,20,23)        -94.1638         estimate D2E/DX2                !
 ! D44   D(15,19,24,25)         -0.6495         estimate D2E/DX2                !
 ! D45   D(15,19,24,26)        178.5051         estimate D2E/DX2                !
 ! D46   D(20,19,24,25)       -179.3213         estimate D2E/DX2                !
 ! D47   D(20,19,24,26)         -0.1667         estimate D2E/DX2                !
 ! D48   D(19,24,26,1)        -115.0625         estimate D2E/DX2                !
 ! D49   D(19,24,26,27)          9.7067         estimate D2E/DX2                !
 ! D50   D(19,24,26,28)        124.977          estimate D2E/DX2                !
 ! D51   D(25,24,26,1)          64.1237         estimate D2E/DX2                !
 ! D52   D(25,24,26,27)       -171.1071         estimate D2E/DX2                !
 ! D53   D(25,24,26,28)        -55.8367         estimate D2E/DX2                !
 --------------------------------------------------------------------------------
 Trust Radius=3.00D-01 FncErr=1.00D-07 GrdErr=1.00D-07 EigMax=2.50D+02 EigMin=1.00D-04
 Number of steps in this run=    138 maximum allowed number of steps=    168.
 GradGradGradGradGradGradGradGradGradGradGradGradGradGradGradGradGradGrad

 Leave Link  103 at Fri Sep 17 20:09:27 2021, MaxMem=   524288000 cpu:               0.0 elap:               0.0
 (Enter /opt/gaussian/g16_legacy/l202.exe)
                          Input orientation:                          
 ---------------------------------------------------------------------
 Center     Atomic      Atomic             Coordinates (Angstroms)
 Number     Number       Type             X           Y           Z
 ---------------------------------------------------------------------
      1          6           0        2.166100    1.203200   -8.971900
      2          1           0        1.851500    0.178200   -9.206800
      3          1           0        2.015800    1.776700   -9.897200
      4          6           0        3.640100    1.187100   -8.602400
      5          6           0        4.038200    0.280200   -7.471400
      6          1           0        4.727300    0.780400   -6.781900
      7          1           0        3.174700   -0.030800   -6.878200
      8          1           0        4.510800   -0.627900   -7.858500
      9          6           0        4.521100    1.960900   -9.268500
     10          1           0        4.156600    2.593300  -10.077600
     11          6           0        5.991600    2.072000   -9.020600
     12          1           0        6.342700    1.443300   -8.198300
     13          1           0        6.540800    1.782200   -9.921800
     14          1           0        6.246500    3.110100   -8.783400
     15          6           0        2.483900    4.914500   -5.893800
     16          1           0        2.348800    5.577300   -6.753400
     17          1           0        1.892700    5.314700   -5.064200
     18          1           0        3.542100    4.947800   -5.614600
     19          6           0        2.073900    3.497500   -6.194400
     20          6           0        2.212400    2.548900   -5.034400
     21          1           0        2.399500    1.519700   -5.348700
     22          1           0        3.059900    2.832900   -4.400500
     23          1           0        1.306400    2.565000   -4.422200
     24          6           0        1.648800    3.147800   -7.421500
     25          1           0        1.596900    3.917700   -8.194600
     26          6           0        1.235600    1.777100   -7.889600
     27          1           0        1.151200    1.072500   -7.057700
     28          1           0        0.222500    1.852700   -8.307400
 ---------------------------------------------------------------------
                    Distance matrix (angstroms):
                    1          2          3          4          5
     1  C    0.000000
     2  H    1.097623   0.000000
     3  H    1.098942   1.748957   0.000000
     4  C    1.519693   2.140623   2.159279   0.000000
     5  C    2.570640   2.793506   3.494870   1.503367   0.000000
     6  H    3.396263   3.809595   4.248522   2.159081   1.095659
     7  H    2.631275   2.686432   3.704655   2.161653   1.092813
     8  H    3.176508   3.088622   4.020376   2.146097   1.094460
     9  C    2.491607   3.210699   2.589541   1.348561   2.507491
    10  H    2.667778   3.450288   2.298348   2.102471   3.486650
    11  C    3.923217   4.556487   4.081987   2.547055   3.070234
    12  H    4.254420   4.773723   4.660416   2.744628   2.681773
    13  H    4.513929   5.007352   4.525070   3.241762   3.810967
    14  H    4.507933   5.300125   4.573547   3.244073   3.821815
    15  C    4.832126   5.814502   5.108044   4.750455   5.136283
    16  H    4.907940   5.951198   4.943574   4.935596   5.606145
    17  H    5.678847   6.598974   5.990867   5.710460   5.978626
    18  H    5.214103   6.205732   5.543116   4.804104   5.047803
    19  C    3.603723   4.487958   4.083535   3.686380   3.979978
    20  C    4.161365   4.812420   4.927653   4.077187   3.797304
    21  H    3.644479   4.121269   4.571884   3.498039   2.954243
    22  H    4.934825   5.622115   5.693805   4.549863   4.111420
    23  H    4.826319   5.374602   5.576763   4.981851   4.688354
    24  C    2.540238   3.470866   2.853716   3.033833   3.732941
    25  H    2.880398   3.882426   2.767346   3.434697   4.440087
    26  C    1.538364   2.161210   2.153873   2.576394   3.204710
    27  H    2.170545   2.430807   3.050605   2.931528   3.022194
    28  H    2.154296   2.503300   2.397742   3.494286   4.210845
                    6          7          8          9         10
     6  H    0.000000
     7  H    1.754390   0.000000
     8  H    1.785847   1.761443   0.000000
     9  C    2.760304   3.390162   2.947896   0.000000
    10  H    3.804464   4.252786   3.927594   1.089694   0.000000
    11  C    2.877232   4.116621   3.291308   1.495382   2.180878
    12  H    2.248364   3.735219   2.785891   2.175193   3.103756
    13  H    3.761829   4.886829   3.766522   2.130240   2.523206
    14  H    3.426583   4.788632   4.223830   2.129081   2.511915
    15  C    4.786684   5.089424   6.219853   4.925702   5.068538
    16  H    5.354281   5.669962   6.663332   4.911513   4.818994
    17  H    5.616523   5.788652   7.069445   5.986034   6.137218
    18  H    4.487150   5.149575   6.087848   4.819855   5.083272
    19  C    3.842957   3.758756   5.072143   4.219007   4.498273
    20  C    3.536392   3.313679   4.832209   4.858337   5.405160
    21  H    2.831833   2.311786   3.920315   4.478915   5.157762
    22  H    3.558658   3.788529   5.102941   5.156832   5.787022
    23  H    4.522780   4.032451   5.680752   5.846867   6.333087
    24  C    3.935840   3.567498   4.757933   3.615280   3.694780
    25  H    4.651642   4.451181   5.409830   3.678760   3.442643
    26  C    3.796364   2.837524   4.063487   3.567865   3.739755
    27  H    3.598594   2.311719   3.849617   4.127120   4.523832
    28  H    4.875469   3.782284   4.974375   4.406062   4.377127
                   11         12         13         14         15
    11  C    0.000000
    12  H    1.093029   0.000000
    13  H    1.094425   1.767639   0.000000
    14  H    1.094938   1.769129   1.773664   0.000000
    15  C    5.491871   5.678934   6.518782   5.075707   0.000000
    16  H    5.540516   5.926966   6.481852   5.039845   1.093832
    17  H    6.555089   6.679283   7.594713   6.135820   1.094492
    18  H    5.086365   5.176909   6.129045   4.553264   1.094920
    19  C    5.036649   5.143735   6.065390   4.925809   1.505440
    20  C    5.513581   5.319022   6.573397   5.535694   2.531471
    21  H    5.166340   4.865684   6.175153   5.396846   3.439320
    22  H    5.524415   5.208747   6.611005   5.425963   2.625791
    23  H    6.583269   6.393861   7.632648   6.612245   3.012020
    24  C    4.751250   5.053854   5.661098   4.795314   2.480421
    25  H    4.837590   5.352129   5.655593   4.755805   2.659710
    26  C    4.897516   5.127298   5.681110   5.261643   3.922340
    27  H    5.318031   5.328239   6.144472   5.752559   4.229860
    28  H    5.817152   6.134848   6.521669   6.172212   4.507107
                   16         17         18         19         20
    16  H    0.000000
    17  H    1.769289   0.000000
    18  H    1.765531   1.777098   0.000000
    19  C    2.171087   2.147650   2.143630   0.000000
    20  C    3.484935   2.784375   2.803472   1.504867   0.000000
    21  H    4.294167   3.839246   3.623273   2.175527   1.092265
    22  H    3.684228   2.821734   2.485831   2.152200   1.095783
    23  H    3.949056   2.883880   3.478205   2.144599   1.093565
    24  C    2.615115   3.211200   3.176393   1.344907   2.524792
    25  H    2.323076   3.440714   3.391358   2.098785   3.498474
    26  C    4.119670   4.574853   4.533090   2.556604   3.114800
    27  H    4.671195   4.745537   4.776703   2.734463   2.720229
    28  H    4.561657   5.029250   5.277363   3.255429   3.893190
                   21         22         23         24         25
    21  H    0.000000
    22  H    1.749201   0.000000
    23  H    1.773675   1.773980   0.000000
    24  C    2.740577   3.349150   3.074523   0.000000
    25  H    3.807062   4.208605   4.018108   1.092302   0.000000
    26  C    2.806616   4.076347   3.556496   1.506211   2.192198
    27  H    2.163082   3.715219   3.032739   2.164908   3.096184
    28  H    3.688377   4.927017   4.095972   2.120480   2.483128
                   26         27         28
    26  C    0.000000
    27  H    1.093454   0.000000
    28  H    1.098473   1.741535   0.000000
 Stoichiometry    C10H18
 Framework group  C1[X(C10H18)]
 Deg. of freedom    78
 Full point group                 C1      NOp   1
 Largest Abelian subgroup         C1      NOp   1
 Largest concise Abelian subgroup C1      NOp   1
                         Standard orientation:                         
 ---------------------------------------------------------------------
 Center     Atomic      Atomic             Coordinates (Angstroms)
 Number     Number       Type             X           Y           Z
 ---------------------------------------------------------------------
      1          6           0        0.942685   -1.620039   -0.664890
      2          1           0        1.417237   -2.540013   -0.299888
      3          1           0        1.169681   -1.577911   -1.739306
      4          6           0        1.570312   -0.433278    0.047253
      5          6           0        1.519349   -0.448992    1.549674
      6          1           0        1.228339    0.528626    1.949731
      7          1           0        0.786909   -1.169108    1.922774
      8          1           0        2.492895   -0.732327    1.961709
      9          6           0        2.131551    0.569632   -0.658295
     10          1           0        2.129683    0.510330   -1.746373
     11          6           0        2.772884    1.806181   -0.114414
     12          1           0        2.756596    1.860411    0.977147
     13          1           0        3.817843    1.852255   -0.436443
     14          1           0        2.255615    2.689433   -0.503244
     15          6           0       -2.692599    1.562585   -0.593795
     16          1           0       -2.543274    1.685239   -1.670422
     17          1           0       -3.770273    1.537401   -0.404326
     18          1           0       -2.273164    2.445170   -0.099866
     19          6           0       -2.037641    0.314817   -0.064216
     20          6           0       -2.237917    0.082701    1.409091
     21          1           0       -1.417860   -0.476255    1.865290
     22          1           0       -2.294042    1.035451    1.947477
     23          1           0       -3.168863   -0.464133    1.582866
     24          6           0       -1.319964   -0.484392   -0.873526
     25          1           0       -1.230934   -0.214242   -1.928142
     26          6           0       -0.581540   -1.741751   -0.496104
     27          1           0       -0.820156   -2.062533    0.521640
     28          1           0       -0.938954   -2.552580   -1.145299
 ---------------------------------------------------------------------
 Rotational constants (GHZ):           1.6029737           0.7847777           0.6966174
 Leave Link  202 at Fri Sep 17 20:09:27 2021, MaxMem=   524288000 cpu:               0.0 elap:               0.0
 (Enter /opt/gaussian/g16_legacy/l301.exe)
 Standard basis: 6-31G(d,p) (6D, 7F)
 Ernie: Thresh=  0.10000D-02 Tol=  0.10000D-05 Strict=F.
 There are   240 symmetry adapted cartesian basis functions of A   symmetry.
 There are   240 symmetry adapted basis functions of A   symmetry.
   240 basis functions,   406 primitive gaussians,   240 cartesian basis functions
    39 alpha electrons       39 beta electrons
       nuclear repulsion energy       533.9952387591 Hartrees.
 IExCor=    0 DFT=F Ex=HF Corr=None ExCW=0 ScaHFX=  1.000000
 ScaDFX=  1.000000  1.000000  1.000000  1.000000 ScalE2=  1.000000  1.000000
 IRadAn=      5 IRanWt=     -1 IRanGd=            0 ICorTp=0 IEmpDi=  4
 NAtoms=   28 NActive=   28 NUniq=   28 SFac= 1.00D+00 NAtFMM=   60 NAOKFM=F Big=F
 Integral buffers will be    131072 words long.
 Raffenetti 1 integral format.
 Two-electron integral symmetry is turned on.
 Leave Link  301 at Fri Sep 17 20:09:28 2021, MaxMem=   524288000 cpu:               0.1 elap:               0.1
 (Enter /opt/gaussian/g16_legacy/l302.exe)
 NPDir=0 NMtPBC=     1 NCelOv=     1 NCel=       1 NClECP=     1 NCelD=      1
         NCelK=      1 NCelE2=     1 NClLst=     1 CellRange=     0.0.
 One-electron integrals computed using PRISM.
 One-electron integral symmetry used in STVInt
 NBasis=   240 RedAO= T EigKep=  2.11D-03  NBF=   240
 NBsUse=   240 1.00D-06 EigRej= -1.00D+00 NBFU=   240
 Leave Link  302 at Fri Sep 17 20:09:28 2021, MaxMem=   524288000 cpu:               0.3 elap:               0.3
 (Enter /opt/gaussian/g16_legacy/l303.exe)
 DipDrv:  MaxL=1.
 Leave Link  303 at Fri Sep 17 20:09:28 2021, MaxMem=   524288000 cpu:               0.1 elap:               0.1
 (Enter /opt/gaussian/g16_legacy/l401.exe)
 ExpMin= 1.61D-01 ExpMax= 3.05D+03 ExpMxC= 4.57D+02 IAcc=3 IRadAn=         5 AccDes= 0.00D+00
 Harris functional with IExCor=  205 and IRadAn=       5 diagonalized for initial guess.
 HarFok:  IExCor=  205 AccDes= 0.00D+00 IRadAn=         5 IDoV= 1 UseB2=F ITyADJ=14
 ICtDFT=  3500011 ScaDFX=  1.000000  1.000000  1.000000  1.000000
 FoFCou: FMM=F IPFlag=           0 FMFlag=      100000 FMFlg1=           0
         NFxFlg=           0 DoJE=T BraDBF=F KetDBF=T FulRan=T
         wScrn=  0.000000 ICntrl=       500 IOpCl=  0 I1Cent=   200000004 NGrid=           0
         NMat0=    1 NMatS0=      1 NMatT0=    0 NMatD0=    1 NMtDS0=    0 NMtDT0=    0
 Petite list used in FoFCou.
 Harris En= -390.109262062705    
 JPrj=0 DoOrth=F DoCkMO=F.
 Leave Link  401 at Fri Sep 17 20:09:39 2021, MaxMem=   524288000 cpu:              11.5 elap:              11.5
 (Enter /opt/gaussian/g16_legacy/l502.exe)
 Keep R1 ints in memory in canonical form, NReq=425198025.
 FoFCou: FMM=F IPFlag=           0 FMFlag=           0 FMFlg1=           0
         NFxFlg=           0 DoJE=F BraDBF=F KetDBF=F FulRan=T
         wScrn=  0.000000 ICntrl=       600 IOpCl=  0 I1Cent=           0 NGrid=           0
         NMat0=    1 NMatS0=  28920 NMatT0=    0 NMatD0=    1 NMtDS0=    0 NMtDT0=    0
 Symmetry not used in FoFCou.
 Two-electron integral symmetry not used.
 Closed shell SCF:
 Using DIIS extrapolation, IDIIS=  1040.
 NGot=   524288000 LenX=   105970886 LenY=   105912845
 Requested convergence on RMS density matrix=1.00D-08 within 128 cycles.
 Requested convergence on MAX density matrix=1.00D-06.
 Requested convergence on             energy=1.00D-06.
 No special actions if energy rises.

 Cycle   1  Pass 1  IDiag  1:
 E= -388.524144865978    
 DIIS: error= 4.77D-02 at cycle   1 NSaved=   1.
 NSaved= 1 IEnMin= 1 EnMin= -388.524144865978     IErMin= 1 ErrMin= 4.77D-02
 ErrMax= 4.77D-02  0.00D+00 EMaxC= 1.00D-01 BMatC= 8.13D-01 BMatP= 8.13D-01
 IDIUse=3 WtCom= 5.23D-01 WtEn= 4.77D-01
 Coeff-Com:  0.100D+01
 Coeff-En:   0.100D+01
 Coeff:      0.100D+01
 Gap=     0.521 Goal=   None    Shift=    0.000
 GapD=    0.521 DampG=2.000 DampE=0.500 DampFc=1.0000 IDamp=-1.
 RMSDP=4.08D-03 MaxDP=1.14D-01              OVMax= 1.38D-01

 Cycle   2  Pass 1  IDiag  1:
 E= -389.061058726606     Delta-E=       -0.536913860627 Rises=F Damp=F
 DIIS: error= 1.09D-02 at cycle   2 NSaved=   2.
 NSaved= 2 IEnMin= 2 EnMin= -389.061058726606     IErMin= 2 ErrMin= 1.09D-02
 ErrMax= 1.09D-02  0.00D+00 EMaxC= 1.00D-01 BMatC= 9.48D-02 BMatP= 8.13D-01
 IDIUse=3 WtCom= 8.91D-01 WtEn= 1.09D-01
 Coeff-Com:  0.192D+00 0.808D+00
 Coeff-En:   0.000D+00 0.100D+01
 Coeff:      0.171D+00 0.829D+00
 Gap=     0.554 Goal=   None    Shift=    0.000
 RMSDP=1.85D-03 MaxDP=3.15D-02 DE=-5.37D-01 OVMax= 4.70D-02

 Cycle   3  Pass 1  IDiag  1:
 E= -389.146439358270     Delta-E=       -0.085380631665 Rises=F Damp=F
 DIIS: error= 2.35D-03 at cycle   3 NSaved=   3.
 NSaved= 3 IEnMin= 3 EnMin= -389.146439358270     IErMin= 3 ErrMin= 2.35D-03
 ErrMax= 2.35D-03  0.00D+00 EMaxC= 1.00D-01 BMatC= 3.76D-03 BMatP= 9.48D-02
 IDIUse=3 WtCom= 9.77D-01 WtEn= 2.35D-02
 Coeff-Com: -0.227D-01 0.114D+00 0.909D+00
 Coeff-En:   0.000D+00 0.000D+00 0.100D+01
 Coeff:     -0.221D-01 0.111D+00 0.911D+00
 Gap=     0.506 Goal=   None    Shift=    0.000
 RMSDP=3.02D-04 MaxDP=7.66D-03 DE=-8.54D-02 OVMax= 1.18D-02

 Cycle   4  Pass 1  IDiag  1:
 E= -389.150610307528     Delta-E=       -0.004170949258 Rises=F Damp=F
 DIIS: error= 5.69D-04 at cycle   4 NSaved=   4.
 NSaved= 4 IEnMin= 4 EnMin= -389.150610307528     IErMin= 4 ErrMin= 5.69D-04
 ErrMax= 5.69D-04  0.00D+00 EMaxC= 1.00D-01 BMatC= 1.68D-04 BMatP= 3.76D-03
 IDIUse=3 WtCom= 9.94D-01 WtEn= 5.69D-03
 Coeff-Com: -0.703D-02 0.711D-02 0.179D+00 0.821D+00
 Coeff-En:   0.000D+00 0.000D+00 0.000D+00 0.100D+01
 Coeff:     -0.699D-02 0.707D-02 0.178D+00 0.822D+00
 Gap=     0.505 Goal=   None    Shift=    0.000
 RMSDP=9.09D-05 MaxDP=2.11D-03 DE=-4.17D-03 OVMax= 4.39D-03

 Cycle   5  Pass 1  IDiag  1:
 E= -389.150802727103     Delta-E=       -0.000192419574 Rises=F Damp=F
 DIIS: error= 1.58D-04 at cycle   5 NSaved=   5.
 NSaved= 5 IEnMin= 5 EnMin= -389.150802727103     IErMin= 5 ErrMin= 1.58D-04
 ErrMax= 1.58D-04  0.00D+00 EMaxC= 1.00D-01 BMatC= 2.10D-05 BMatP= 1.68D-04
 IDIUse=3 WtCom= 9.98D-01 WtEn= 1.58D-03
 Coeff-Com:  0.166D-02-0.133D-01-0.796D-01 0.129D+00 0.962D+00
 Coeff-En:   0.000D+00 0.000D+00 0.000D+00 0.000D+00 0.100D+01
 Coeff:      0.166D-02-0.133D-01-0.795D-01 0.129D+00 0.962D+00
 Gap=     0.506 Goal=   None    Shift=    0.000
 RMSDP=3.49D-05 MaxDP=8.47D-04 DE=-1.92D-04 OVMax= 1.46D-03

 Cycle   6  Pass 1  IDiag  1:
 E= -389.150831795525     Delta-E=       -0.000029068422 Rises=F Damp=F
 DIIS: error= 3.25D-05 at cycle   6 NSaved=   6.
 NSaved= 6 IEnMin= 6 EnMin= -389.150831795525     IErMin= 6 ErrMin= 3.25D-05
 ErrMax= 3.25D-05  0.00D+00 EMaxC= 1.00D-01 BMatC= 1.14D-06 BMatP= 2.10D-05
 IDIUse=1 WtCom= 1.00D+00 WtEn= 0.00D+00
 Coeff-Com:  0.876D-03-0.381D-02-0.306D-01-0.296D-01 0.193D+00 0.870D+00
 Coeff:      0.876D-03-0.381D-02-0.306D-01-0.296D-01 0.193D+00 0.870D+00
 Gap=     0.506 Goal=   None    Shift=    0.000
 RMSDP=8.18D-06 MaxDP=1.94D-04 DE=-2.91D-05 OVMax= 3.95D-04

 Cycle   7  Pass 1  IDiag  1:
 E= -389.150833500541     Delta-E=       -0.000001705016 Rises=F Damp=F
 DIIS: error= 9.76D-06 at cycle   7 NSaved=   7.
 NSaved= 7 IEnMin= 7 EnMin= -389.150833500541     IErMin= 7 ErrMin= 9.76D-06
 ErrMax= 9.76D-06  0.00D+00 EMaxC= 1.00D-01 BMatC= 5.10D-08 BMatP= 1.14D-06
 IDIUse=1 WtCom= 1.00D+00 WtEn= 0.00D+00
 Coeff-Com:  0.166D-04 0.136D-03 0.549D-03-0.679D-02-0.301D-01 0.880D-01
 Coeff-Com:  0.948D+00
 Coeff:      0.166D-04 0.136D-03 0.549D-03-0.679D-02-0.301D-01 0.880D-01
 Coeff:      0.948D+00
 Gap=     0.506 Goal=   None    Shift=    0.000
 RMSDP=1.89D-06 MaxDP=4.53D-05 DE=-1.71D-06 OVMax= 1.14D-04

 Cycle   8  Pass 1  IDiag  1:
 E= -389.150833603006     Delta-E=       -0.000000102465 Rises=F Damp=F
 DIIS: error= 4.07D-06 at cycle   8 NSaved=   8.
 NSaved= 8 IEnMin= 8 EnMin= -389.150833603006     IErMin= 8 ErrMin= 4.07D-06
 ErrMax= 4.07D-06  0.00D+00 EMaxC= 1.00D-01 BMatC= 8.35D-09 BMatP= 5.10D-08
 IDIUse=1 WtCom= 1.00D+00 WtEn= 0.00D+00
 Coeff-Com: -0.821D-04 0.361D-03 0.302D-02 0.393D-02-0.233D-01-0.805D-01
 Coeff-Com:  0.271D-01 0.107D+01
 Coeff:     -0.821D-04 0.361D-03 0.302D-02 0.393D-02-0.233D-01-0.805D-01
 Coeff:      0.271D-01 0.107D+01
 Gap=     0.506 Goal=   None    Shift=    0.000
 RMSDP=8.60D-07 MaxDP=2.30D-05 DE=-1.02D-07 OVMax= 5.37D-05

 Cycle   9  Pass 1  IDiag  1:
 E= -389.150833622996     Delta-E=       -0.000000019991 Rises=F Damp=F
 DIIS: error= 1.88D-06 at cycle   9 NSaved=   9.
 NSaved= 9 IEnMin= 9 EnMin= -389.150833622996     IErMin= 9 ErrMin= 1.88D-06
 ErrMax= 1.88D-06  0.00D+00 EMaxC= 1.00D-01 BMatC= 1.05D-09 BMatP= 8.35D-09
 IDIUse=1 WtCom= 1.00D+00 WtEn= 0.00D+00
 Coeff-Com: -0.935D-05 0.118D-04 0.179D-03 0.172D-02 0.518D-03-0.149D-01
 Coeff-Com: -0.102D+00 0.303D-01 0.108D+01
 Coeff:     -0.935D-05 0.118D-04 0.179D-03 0.172D-02 0.518D-03-0.149D-01
 Coeff:     -0.102D+00 0.303D-01 0.108D+01
 Gap=     0.506 Goal=   None    Shift=    0.000
 RMSDP=3.45D-07 MaxDP=1.14D-05 DE=-2.00D-08 OVMax= 3.75D-05

 Cycle  10  Pass 1  IDiag  1:
 E= -389.150833626842     Delta-E=       -0.000000003845 Rises=F Damp=F
 DIIS: error= 6.78D-07 at cycle  10 NSaved=  10.
 NSaved=10 IEnMin=10 EnMin= -389.150833626842     IErMin=10 ErrMin= 6.78D-07
 ErrMax= 6.78D-07  0.00D+00 EMaxC= 1.00D-01 BMatC= 2.87D-10 BMatP= 1.05D-09
 IDIUse=1 WtCom= 1.00D+00 WtEn= 0.00D+00
 Coeff-Com:  0.124D-04-0.598D-04-0.494D-03-0.343D-03 0.334D-02 0.134D-01
 Coeff-Com: -0.798D-02-0.230D+00 0.152D+00 0.107D+01
 Coeff:      0.124D-04-0.598D-04-0.494D-03-0.343D-03 0.334D-02 0.134D-01
 Coeff:     -0.798D-02-0.230D+00 0.152D+00 0.107D+01
 Gap=     0.506 Goal=   None    Shift=    0.000
 RMSDP=1.82D-07 MaxDP=4.64D-06 DE=-3.85D-09 OVMax= 1.31D-05

 Cycle  11  Pass 1  IDiag  1:
 E= -389.150833627510     Delta-E=       -0.000000000668 Rises=F Damp=F
 DIIS: error= 1.64D-07 at cycle  11 NSaved=  11.
 NSaved=11 IEnMin=11 EnMin= -389.150833627510     IErMin=11 ErrMin= 1.64D-07
 ErrMax= 1.64D-07  0.00D+00 EMaxC= 1.00D-01 BMatC= 1.37D-11 BMatP= 2.87D-10
 IDIUse=1 WtCom= 1.00D+00 WtEn= 0.00D+00
 Coeff-Com:  0.271D-05-0.903D-05-0.832D-04-0.212D-03 0.157D-03 0.381D-02
 Coeff-Com:  0.139D-01-0.350D-01-0.872D-01 0.968D-01 0.101D+01
 Coeff:      0.271D-05-0.903D-05-0.832D-04-0.212D-03 0.157D-03 0.381D-02
 Coeff:      0.139D-01-0.350D-01-0.872D-01 0.968D-01 0.101D+01
 Gap=     0.506 Goal=   None    Shift=    0.000
 RMSDP=4.04D-08 MaxDP=1.07D-06 DE=-6.68D-10 OVMax= 4.01D-06

 Cycle  12  Pass 1  IDiag  1:
 E= -389.150833627555     Delta-E=       -0.000000000046 Rises=F Damp=F
 DIIS: error= 4.00D-08 at cycle  12 NSaved=  12.
 NSaved=12 IEnMin=12 EnMin= -389.150833627555     IErMin=12 ErrMin= 4.00D-08
 ErrMax= 4.00D-08  0.00D+00 EMaxC= 1.00D-01 BMatC= 1.24D-12 BMatP= 1.37D-11
 IDIUse=1 WtCom= 1.00D+00 WtEn= 0.00D+00
 Coeff-Com: -0.112D-05 0.537D-05 0.448D-04 0.478D-04-0.316D-03-0.131D-02
 Coeff-Com: -0.168D-03 0.197D-01-0.457D-02-0.110D+00-0.568D-01 0.115D+01
 Coeff:     -0.112D-05 0.537D-05 0.448D-04 0.478D-04-0.316D-03-0.131D-02
 Coeff:     -0.168D-03 0.197D-01-0.457D-02-0.110D+00-0.568D-01 0.115D+01
 Gap=     0.506 Goal=   None    Shift=    0.000
 RMSDP=1.38D-08 MaxDP=3.00D-07 DE=-4.56D-11 OVMax= 9.76D-07

 Cycle  13  Pass 1  IDiag  1:
 E= -389.150833627542     Delta-E=        0.000000000014 Rises=F Damp=F
 DIIS: error= 1.30D-08 at cycle  13 NSaved=  13.
 NSaved=13 IEnMin=12 EnMin= -389.150833627555     IErMin=13 ErrMin= 1.30D-08
 ErrMax= 1.30D-08  0.00D+00 EMaxC= 1.00D-01 BMatC= 5.52D-14 BMatP= 1.24D-12
 IDIUse=1 WtCom= 1.00D+00 WtEn= 0.00D+00
 Coeff-Com: -0.271D-06 0.112D-05 0.955D-05 0.188D-04-0.482D-04-0.347D-03
 Coeff-Com: -0.776D-03 0.411D-02 0.528D-02-0.176D-01-0.610D-01 0.138D+00
 Coeff-Com:  0.933D+00
 Coeff:     -0.271D-06 0.112D-05 0.955D-05 0.188D-04-0.482D-04-0.347D-03
 Coeff:     -0.776D-03 0.411D-02 0.528D-02-0.176D-01-0.610D-01 0.138D+00
 Coeff:      0.933D+00
 Gap=     0.506 Goal=   None    Shift=    0.000
 RMSDP=1.98D-09 MaxDP=4.46D-08 DE= 1.39D-11 OVMax= 8.26D-08

 SCF Done:  E(RHF) =  -389.150833628     A.U. after   13 cycles
            NFock= 13  Conv=0.20D-08     -V/T= 2.0014
 KE= 3.886216761466D+02 PE=-1.972757572024D+03 EE= 6.609898234907D+02
 Leave Link  502 at Fri Sep 17 20:10:17 2021, MaxMem=   524288000 cpu:              37.9 elap:              38.0
 (Enter /opt/gaussian/g16_legacy/l801.exe)
 ExpMin= 1.61D-01 ExpMax= 3.05D+03 ExpMxC= 4.57D+02 IAcc=3 IRadAn=         5 AccDes= 0.00D+00
 HarFok:  IExCor=  205 AccDes= 0.00D+00 IRadAn=         5 IDoV=-2 UseB2=F ITyADJ=14
 ICtDFT= 12500011 ScaDFX=  1.000000  1.000000  1.000000  1.000000
 Largest valence mixing into a core orbital is  1.98D-04
 Largest core mixing into a valence orbital is  3.55D-05
 Range of M.O.s used for correlation:    11   240
 NBasis=   240 NAE=    39 NBE=    39 NFC=    10 NFV=     0
 NROrb=    230 NOA=    29 NOB=    29 NVA=   201 NVB=   201
 Leave Link  801 at Fri Sep 17 20:10:19 2021, MaxMem=   524288000 cpu:               1.6 elap:               1.6
 (Enter /opt/gaussian/g16_legacy/l906.exe)
 Frozen-core derivative calculation, NFC=  10 NFV=   0.
 FulOut=F Deriv=T AODrv=T NAtomX=    28
   MMem=          84  MDisk=          29 MDiskD=          29
  W3Min=     2246400 MinDsk=     2795480 NBas6D=         240
 NBas2D=       29244    NTT=       28920    LW2=     2040000
    MDV=   523617098 MDiskM=       30186 NBas2p=       25517
 Fully direct method using O(ONN) memory.
 IMap=   1   2   3   4   5   6   7   8   9  10  11  12  13  14  15  16  17  18  19  20
 IMap=  21  22  23  24  25  26  27  28  29  30  31  32  33  34  35  36  37  38  39
 JobTyp=1 Pass  1:  I=  11 to  39 NPSUse=  1 ParTrn=F ParDer=F DoDerP=T.
 Spin components of T(2) and E(2):
     alpha-alpha T2 =       0.5736765110D-01 E2=     -0.1642954699D+00
     alpha-beta  T2 =       0.3626321308D+00 E2=     -0.1090910289D+01
     beta-beta   T2 =       0.5736765110D-01 E2=     -0.1642954699D+00
 The integrals were generated   1 times.
 ANorm=    0.1215470046D+01
 E2 =    -0.1419501229D+01 EUMP2 =    -0.39057033485625D+03
 Leave Link  906 at Fri Sep 17 20:15:09 2021, MaxMem=   524288000 cpu:             289.9 elap:             290.0
 (Enter /opt/gaussian/g16_legacy/l1002.exe)
 Minotr:  Closed shell wavefunction.
          Computing MP2/KS-MP2 derivatives.
          Using Z-Vector for PSCF gradient.
          Skipping F1 and S1 gradient terms here.
          IDoAtm=1111111111111111111111111111
          Frozen-core window.
          Direct CPHF calculation.
          Differentiating once with respect to electric field.
                with respect to dipole field.
          Differentiating once with respect to nuclear coordinates.
          Requested convergence is 1.0D-10 RMS, and 1.0D-09 maximum.
          NewPWx=F KeepS1=T KeepF1=T KeepIn=T MapXYZ=F SortEE=F KeepMc=T.
 Keep R1 ints in memory in canonical form, NReq=425201067.
 FoFCou: FMM=F IPFlag=           0 FMFlag=           0 FMFlg1=           0
         NFxFlg=           0 DoJE=F BraDBF=F KetDBF=F FulRan=T
         wScrn=  0.000000 ICntrl=       600 IOpCl=  0 I1Cent=           0 NGrid=           0
         NMat0=    1 NMatS0=  28920 NMatT0=    0 NMatD0=    1 NMtDS0=    0 NMtDT0=    0
 Symmetry not used in FoFCou.
 Two-electron integral symmetry not used.
          MDV=     524288000 using IRadAn=       5.
          Solving linear equations separately, MaxMat=       0.
          There are     1 degrees of freedom in the 1st order CPHF.  IDoFFX=0 NUNeed=     1.
 LinEq1:  Iter=  0 NonCon=     1 RMS=2.53D-03 Max=3.67D-02 NDo=     1
 AX will form     1 AO Fock derivatives at one time.
 LinEq1:  Iter=  1 NonCon=     1 RMS=6.96D-04 Max=1.02D-02 NDo=     1
 LinEq1:  Iter=  2 NonCon=     1 RMS=1.75D-04 Max=4.29D-03 NDo=     1
 LinEq1:  Iter=  3 NonCon=     1 RMS=4.89D-05 Max=7.64D-04 NDo=     1
 LinEq1:  Iter=  4 NonCon=     1 RMS=2.17D-05 Max=9.30D-04 NDo=     1
 LinEq1:  Iter=  5 NonCon=     1 RMS=6.25D-06 Max=1.38D-04 NDo=     1
 LinEq1:  Iter=  6 NonCon=     1 RMS=1.94D-06 Max=5.06D-05 NDo=     1
 LinEq1:  Iter=  7 NonCon=     1 RMS=5.62D-07 Max=1.28D-05 NDo=     1
 LinEq1:  Iter=  8 NonCon=     1 RMS=1.88D-07 Max=4.34D-06 NDo=     1
 LinEq1:  Iter=  9 NonCon=     1 RMS=5.76D-08 Max=1.11D-06 NDo=     1
 LinEq1:  Iter= 10 NonCon=     1 RMS=1.62D-08 Max=3.44D-07 NDo=     1
 LinEq1:  Iter= 11 NonCon=     1 RMS=4.43D-09 Max=8.18D-08 NDo=     1
 LinEq1:  Iter= 12 NonCon=     1 RMS=1.16D-09 Max=1.85D-08 NDo=     1
 LinEq1:  Iter= 13 NonCon=     1 RMS=3.65D-10 Max=7.75D-09 NDo=     1
 LinEq1:  Iter= 14 NonCon=     1 RMS=9.02D-11 Max=1.37D-09 NDo=     1
 LinEq1:  Iter= 15 NonCon=     0 RMS=2.16D-11 Max=3.36D-10 NDo=     1
 Linear equations converged to 1.000D-10 1.000D-09 after    15 iterations.
 End of Minotr F.D. properties file   721 does not exist.
 End of Minotr F.D. properties file   722 does not exist.
 End of Minotr F.D. properties file   788 does not exist.
 Leave Link 1002 at Fri Sep 17 20:15:45 2021, MaxMem=   524288000 cpu:              36.1 elap:              36.2
 (Enter /opt/gaussian/g16_legacy/l601.exe)
 Copying SCF densities to generalized density rwf, IOpCl= 0 IROHF=0.

 **********************************************************************

            Population analysis using the SCF density.

 **********************************************************************

 Orbital symmetries:
       Occupied  (A) (A) (A) (A) (A) (A) (A) (A) (A) (A) (A) (A)
                 (A) (A) (A) (A) (A) (A) (A) (A) (A) (A) (A) (A)
                 (A) (A) (A) (A) (A) (A) (A) (A) (A) (A) (A) (A)
                 (A) (A) (A)
       Virtual   (A) (A) (A) (A) (A) (A) (A) (A) (A) (A) (A) (A)
                 (A) (A) (A) (A) (A) (A) (A) (A) (A) (A) (A) (A)
                 (A) (A) (A) (A) (A) (A) (A) (A) (A) (A) (A) (A)
                 (A) (A) (A) (A) (A) (A) (A) (A) (A) (A) (A) (A)
                 (A) (A) (A) (A) (A) (A) (A) (A) (A) (A) (A) (A)
                 (A) (A) (A) (A) (A) (A) (A) (A) (A) (A) (A) (A)
                 (A) (A) (A) (A) (A) (A) (A) (A) (A) (A) (A) (A)
                 (A) (A) (A) (A) (A) (A) (A) (A) (A) (A) (A) (A)
                 (A) (A) (A) (A) (A) (A) (A) (A) (A) (A) (A) (A)
                 (A) (A) (A) (A) (A) (A) (A) (A) (A) (A) (A) (A)
                 (A) (A) (A) (A) (A) (A) (A) (A) (A) (A) (A) (A)
                 (A) (A) (A) (A) (A) (A) (A) (A) (A) (A) (A) (A)
                 (A) (A) (A) (A) (A) (A) (A) (A) (A) (A) (A) (A)
                 (A) (A) (A) (A) (A) (A) (A) (A) (A) (A) (A) (A)
                 (A) (A) (A) (A) (A) (A) (A) (A) (A) (A) (A) (A)
                 (A) (A) (A) (A) (A) (A) (A) (A) (A) (A) (A) (A)
                 (A) (A) (A) (A) (A) (A) (A) (A) (A)
 The electronic state is 1-A.
 Alpha  occ. eigenvalues --  -11.22646 -11.22380 -11.21962 -11.21884 -11.21567
 Alpha  occ. eigenvalues --  -11.21555 -11.21382 -11.21312 -11.21186 -11.21131
 Alpha  occ. eigenvalues --   -1.10467  -1.07912  -1.01966  -0.97151  -0.93420
 Alpha  occ. eigenvalues --   -0.92096  -0.87773  -0.81178  -0.70029  -0.69685
 Alpha  occ. eigenvalues --   -0.64242  -0.61415  -0.60093  -0.58960  -0.57561
 Alpha  occ. eigenvalues --   -0.56570  -0.55159  -0.54117  -0.54034  -0.53350
 Alpha  occ. eigenvalues --   -0.52569  -0.50658  -0.49856  -0.48670  -0.47948
 Alpha  occ. eigenvalues --   -0.45317  -0.44540  -0.32412  -0.31662
 Alpha virt. eigenvalues --    0.18897   0.19102   0.22471   0.25421   0.25903
 Alpha virt. eigenvalues --    0.26975   0.28460   0.29252   0.30145   0.30570
 Alpha virt. eigenvalues --    0.31806   0.32648   0.33262   0.33597   0.33883
 Alpha virt. eigenvalues --    0.35265   0.36768   0.37414   0.38391   0.40426
 Alpha virt. eigenvalues --    0.40745   0.41228   0.42509   0.44548   0.46216
 Alpha virt. eigenvalues --    0.50743   0.53637   0.60973   0.62269   0.67708
 Alpha virt. eigenvalues --    0.70265   0.71135   0.72537   0.74997   0.77312
 Alpha virt. eigenvalues --    0.78173   0.79652   0.80901   0.81986   0.84021
 Alpha virt. eigenvalues --    0.84910   0.89675   0.90515   0.91222   0.92454
 Alpha virt. eigenvalues --    0.94509   0.95366   0.96034   0.97137   0.99587
 Alpha virt. eigenvalues --    1.01865   1.02807   1.03366   1.03693   1.06377
 Alpha virt. eigenvalues --    1.07389   1.08909   1.10211   1.11755   1.12908
 Alpha virt. eigenvalues --    1.13336   1.14036   1.14727   1.14834   1.15249
 Alpha virt. eigenvalues --    1.15724   1.17654   1.18413   1.18682   1.19710
 Alpha virt. eigenvalues --    1.21660   1.23004   1.23297   1.24664   1.26720
 Alpha virt. eigenvalues --    1.28421   1.31966   1.37583   1.43097   1.46588
 Alpha virt. eigenvalues --    1.48638   1.51365   1.56542   1.57153   1.59463
 Alpha virt. eigenvalues --    1.63440   1.67009   1.69958   1.70430   1.70750
 Alpha virt. eigenvalues --    1.73903   1.80279   1.89613   1.91051   1.94280
 Alpha virt. eigenvalues --    1.97359   2.00897   2.03121   2.07144   2.08093
 Alpha virt. eigenvalues --    2.08970   2.10520   2.10764   2.13207   2.15006
 Alpha virt. eigenvalues --    2.16609   2.18052   2.20082   2.25576   2.29094
 Alpha virt. eigenvalues --    2.30749   2.31141   2.34146   2.35309   2.35577
 Alpha virt. eigenvalues --    2.35912   2.36353   2.39066   2.40525   2.40649
 Alpha virt. eigenvalues --    2.41796   2.43315   2.44379   2.44991   2.45949
 Alpha virt. eigenvalues --    2.46616   2.48928   2.49596   2.52127   2.53962
 Alpha virt. eigenvalues --    2.56547   2.56865   2.58923   2.63037   2.64681
 Alpha virt. eigenvalues --    2.65977   2.67915   2.70823   2.72384   2.74840
 Alpha virt. eigenvalues --    2.75687   2.76002   2.80222   2.83548   2.86045
 Alpha virt. eigenvalues --    2.87091   2.88598   2.90196   2.91406   2.93880
 Alpha virt. eigenvalues --    2.96850   2.98414   2.99259   3.01463   3.03314
 Alpha virt. eigenvalues --    3.05193   3.07114   3.09877   3.11392   3.14729
 Alpha virt. eigenvalues --    3.16789   3.18330   3.20334   3.20937   3.21238
 Alpha virt. eigenvalues --    3.22771   3.24627   3.25460   3.27307   3.37557
 Alpha virt. eigenvalues --    3.38860   3.44579   3.44912   3.55833   3.56404
 Alpha virt. eigenvalues --    3.60875   3.62527   3.65827   3.71254   3.78994
 Alpha virt. eigenvalues --    3.79822   3.81010   3.81872   3.82219   3.83204
 Alpha virt. eigenvalues --    3.85386   3.85969   3.86187   3.89503   3.92379
 Alpha virt. eigenvalues --    3.93880   4.56580   4.63901   4.74605   4.85042
 Alpha virt. eigenvalues --    4.89577   4.92345   4.94678   5.07031   5.10598
 Alpha virt. eigenvalues --    5.14873
          Condensed to atoms (all electrons):
               1          2          3          4          5          6
     1  C    4.974822   0.412094   0.412907   0.359545  -0.052881   0.002953
     2  H    0.412094   0.602342  -0.030097  -0.048558  -0.000910  -0.000013
     3  H    0.412907  -0.030097   0.589946  -0.047123   0.003758  -0.000117
     4  C    0.359545  -0.048558  -0.047123   4.937841   0.332591  -0.038241
     5  C   -0.052881  -0.000910   0.003758   0.332591   4.923873   0.404711
     6  H    0.002953  -0.000013  -0.000117  -0.038241   0.404711   0.567596
     7  H   -0.005369  -0.000377   0.000164  -0.041387   0.408543  -0.030936
     8  H    0.001386   0.000828  -0.000131  -0.038885   0.398900  -0.026470
     9  C   -0.041682  -0.000155  -0.002464   0.698828  -0.054241  -0.004476
    10  H   -0.006558   0.000150   0.002385  -0.035776   0.003369  -0.000018
    11  C    0.003137  -0.000110   0.000172  -0.051609  -0.006378  -0.001489
    12  H    0.000114  -0.000003   0.000004  -0.001114  -0.001350  -0.000959
    13  H   -0.000115   0.000016  -0.000007  -0.000298   0.000209  -0.000134
    14  H   -0.000097  -0.000003  -0.000007  -0.000272   0.000229   0.000364
    15  C   -0.000093   0.000002   0.000002  -0.000036  -0.000010  -0.000003
    16  H   -0.000005   0.000000   0.000000   0.000001   0.000000  -0.000000
    17  H   -0.000005   0.000000   0.000000   0.000001   0.000000   0.000000
    18  H    0.000023  -0.000000  -0.000000   0.000013  -0.000002  -0.000002
    19  C   -0.002707  -0.000028   0.000119   0.000579   0.000430   0.000134
    20  C    0.000448  -0.000005  -0.000010   0.000235  -0.001310  -0.000040
    21  H    0.000314   0.000004  -0.000008   0.000034  -0.001735   0.000038
    22  H    0.000026  -0.000001   0.000000  -0.000006   0.000030   0.000042
    23  H   -0.000067   0.000002   0.000000   0.000008   0.000024   0.000005
    24  C   -0.065024   0.005368  -0.002803  -0.001413   0.000436   0.000084
    25  H   -0.000383  -0.000093   0.001578   0.000049   0.000010  -0.000002
    26  C    0.323304  -0.047889  -0.040135  -0.061225  -0.002368   0.000117
    27  H   -0.038532  -0.004442   0.004523  -0.002484  -0.000036  -0.000094
    28  H   -0.045464  -0.001424  -0.005037   0.004883  -0.000038   0.000004
               7          8          9         10         11         12
     1  C   -0.005369   0.001386  -0.041682  -0.006558   0.003137   0.000114
     2  H   -0.000377   0.000828  -0.000155   0.000150  -0.000110  -0.000003
     3  H    0.000164  -0.000131  -0.002464   0.002385   0.000172   0.000004
     4  C   -0.041387  -0.038885   0.698828  -0.035776  -0.051609  -0.001114
     5  C    0.408543   0.398900  -0.054241   0.003369  -0.006378  -0.001350
     6  H   -0.030936  -0.026470  -0.004476  -0.000018  -0.001489  -0.000959
     7  H    0.588969  -0.030616   0.003323  -0.000101   0.000144   0.000045
     8  H   -0.030616   0.571404  -0.005202  -0.000104   0.000684  -0.000409
     9  C    0.003323  -0.005202   4.939578   0.404239   0.341532  -0.041517
    10  H   -0.000101  -0.000104   0.404239   0.560403  -0.043487   0.003353
    11  C    0.000144   0.000684   0.341532  -0.043487   4.904131   0.407575
    12  H    0.000045  -0.000409  -0.041517   0.003353   0.407575   0.575059
    13  H   -0.000009   0.000257  -0.043908  -0.001215   0.401459  -0.028823
    14  H    0.000004  -0.000087  -0.043887  -0.001568   0.400818  -0.028225
    15  C   -0.000001   0.000000  -0.000002  -0.000001  -0.000000  -0.000000
    16  H    0.000000  -0.000000   0.000003   0.000000  -0.000000  -0.000000
    17  H   -0.000000   0.000000   0.000000   0.000000   0.000000  -0.000000
    18  H    0.000000  -0.000000   0.000008  -0.000000   0.000002  -0.000000
    19  C    0.000041   0.000006   0.000149  -0.000005  -0.000004  -0.000001
    20  C   -0.001036   0.000021  -0.000003   0.000001  -0.000001  -0.000000
    21  H   -0.000725   0.000029  -0.000009  -0.000000  -0.000000  -0.000001
    22  H    0.000028  -0.000001  -0.000002  -0.000000   0.000000  -0.000000
    23  H    0.000013  -0.000000   0.000000  -0.000000  -0.000000   0.000000
    24  C   -0.000111   0.000032   0.001841   0.000056  -0.000058  -0.000000
    25  H   -0.000004   0.000000   0.000231   0.000110   0.000000   0.000000
    26  C   -0.000370  -0.000125  -0.003711   0.000210  -0.000075  -0.000001
    27  H   -0.000470   0.000019   0.000083   0.000001   0.000003  -0.000000
    28  H   -0.000033   0.000002   0.000006  -0.000014   0.000002   0.000000
              13         14         15         16         17         18
     1  C   -0.000115  -0.000097  -0.000093  -0.000005  -0.000005   0.000023
     2  H    0.000016  -0.000003   0.000002   0.000000   0.000000  -0.000000
     3  H   -0.000007  -0.000007   0.000002   0.000000   0.000000  -0.000000
     4  C   -0.000298  -0.000272  -0.000036   0.000001   0.000001   0.000013
     5  C    0.000209   0.000229  -0.000010   0.000000   0.000000  -0.000002
     6  H   -0.000134   0.000364  -0.000003  -0.000000   0.000000  -0.000002
     7  H   -0.000009   0.000004  -0.000001   0.000000  -0.000000   0.000000
     8  H    0.000257  -0.000087   0.000000  -0.000000   0.000000  -0.000000
     9  C   -0.043908  -0.043887  -0.000002   0.000003   0.000000   0.000008
    10  H   -0.001215  -0.001568  -0.000001   0.000000   0.000000  -0.000000
    11  C    0.401459   0.400818  -0.000000  -0.000000   0.000000   0.000002
    12  H   -0.028823  -0.028225  -0.000000  -0.000000  -0.000000  -0.000000
    13  H    0.587002  -0.033531   0.000000   0.000000  -0.000000   0.000000
    14  H   -0.033531   0.586692   0.000001  -0.000000   0.000000  -0.000000
    15  C    0.000000   0.000001   4.896290   0.405392   0.399640   0.397780
    16  H    0.000000  -0.000000   0.405392   0.570768  -0.027945  -0.027539
    17  H   -0.000000   0.000000   0.399640  -0.027945   0.597004  -0.035139
    18  H    0.000000  -0.000000   0.397780  -0.027539  -0.035139   0.592946
    19  C   -0.000000   0.000010   0.353171  -0.041231  -0.047302  -0.042912
    20  C    0.000000  -0.000000  -0.061398   0.003871  -0.000066  -0.003159
    21  H    0.000000   0.000000   0.003508  -0.000119  -0.000015  -0.000049
    22  H    0.000000  -0.000000  -0.004846   0.000140  -0.000745   0.002472
    23  H    0.000000   0.000000   0.000243  -0.000136   0.001476  -0.000143
    24  C    0.000001   0.000011  -0.043947  -0.002367  -0.000912  -0.000924
    25  H    0.000000  -0.000001  -0.006690   0.002312   0.000144   0.000226
    26  C   -0.000005   0.000021   0.003204   0.000125  -0.000120  -0.000099
    27  H    0.000000  -0.000000   0.000108   0.000005  -0.000002   0.000000
    28  H    0.000000  -0.000000  -0.000107  -0.000008   0.000015  -0.000003
              19         20         21         22         23         24
     1  C   -0.002707   0.000448   0.000314   0.000026  -0.000067  -0.065024
     2  H   -0.000028  -0.000005   0.000004  -0.000001   0.000002   0.005368
     3  H    0.000119  -0.000010  -0.000008   0.000000   0.000000  -0.002803
     4  C    0.000579   0.000235   0.000034  -0.000006   0.000008  -0.001413
     5  C    0.000430  -0.001310  -0.001735   0.000030   0.000024   0.000436
     6  H    0.000134  -0.000040   0.000038   0.000042   0.000005   0.000084
     7  H    0.000041  -0.001036  -0.000725   0.000028   0.000013  -0.000111
     8  H    0.000006   0.000021   0.000029  -0.000001  -0.000000   0.000032
     9  C    0.000149  -0.000003  -0.000009  -0.000002   0.000000   0.001841
    10  H   -0.000005   0.000001  -0.000000  -0.000000  -0.000000   0.000056
    11  C   -0.000004  -0.000001  -0.000000   0.000000  -0.000000  -0.000058
    12  H   -0.000001  -0.000000  -0.000001  -0.000000   0.000000  -0.000000
    13  H   -0.000000   0.000000   0.000000   0.000000   0.000000   0.000001
    14  H    0.000010  -0.000000   0.000000  -0.000000   0.000000   0.000011
    15  C    0.353171  -0.061398   0.003508  -0.004846   0.000243  -0.043947
    16  H   -0.041231   0.003871  -0.000119   0.000140  -0.000136  -0.002367
    17  H   -0.047302  -0.000066  -0.000015  -0.000745   0.001476  -0.000912
    18  H   -0.042912  -0.003159  -0.000049   0.002472  -0.000143  -0.000924
    19  C    4.920388   0.342279  -0.037664  -0.043175  -0.041580   0.701303
    20  C    0.342279   4.915513   0.405770   0.405608   0.397966  -0.048261
    21  H   -0.037664   0.405770   0.575635  -0.030915  -0.026705  -0.002949
    22  H   -0.043175   0.405608  -0.030915   0.585696  -0.031383   0.002300
    23  H   -0.041580   0.397966  -0.026705  -0.031383   0.577062  -0.003137
    24  C    0.701303  -0.048261  -0.002949   0.002300  -0.003137   4.940734
    25  H   -0.034023   0.003370   0.000010  -0.000104  -0.000124   0.400570
    26  C   -0.047966  -0.007297  -0.002142   0.000187   0.000371   0.345254
    27  H    0.000349  -0.001895  -0.001763   0.000036  -0.000140  -0.046336
    28  H    0.000308   0.000158  -0.000048  -0.000011   0.000106  -0.044563
              25         26         27         28
     1  C   -0.000383   0.323304  -0.038532  -0.045464
     2  H   -0.000093  -0.047889  -0.004442  -0.001424
     3  H    0.001578  -0.040135   0.004523  -0.005037
     4  C    0.000049  -0.061225  -0.002484   0.004883
     5  C    0.000010  -0.002368  -0.000036  -0.000038
     6  H   -0.000002   0.000117  -0.000094   0.000004
     7  H   -0.000004  -0.000370  -0.000470  -0.000033
     8  H    0.000000  -0.000125   0.000019   0.000002
     9  C    0.000231  -0.003711   0.000083   0.000006
    10  H    0.000110   0.000210   0.000001  -0.000014
    11  C    0.000000  -0.000075   0.000003   0.000002
    12  H    0.000000  -0.000001  -0.000000   0.000000
    13  H    0.000000  -0.000005   0.000000   0.000000
    14  H   -0.000001   0.000021  -0.000000  -0.000000
    15  C   -0.006690   0.003204   0.000108  -0.000107
    16  H    0.002312   0.000125   0.000005  -0.000008
    17  H    0.000144  -0.000120  -0.000002   0.000015
    18  H    0.000226  -0.000099   0.000000  -0.000003
    19  C   -0.034023  -0.047966   0.000349   0.000308
    20  C    0.003370  -0.007297  -0.001895   0.000158
    21  H    0.000010  -0.002142  -0.001763  -0.000048
    22  H   -0.000104   0.000187   0.000036  -0.000011
    23  H   -0.000124   0.000371  -0.000140   0.000106
    24  C    0.400570   0.345254  -0.046336  -0.044563
    25  H    0.560372  -0.043115   0.003471  -0.002177
    26  C   -0.043115   5.001730   0.413372   0.414852
    27  H    0.003471   0.413372   0.593988  -0.030853
    28  H   -0.002177   0.414852  -0.030853   0.589024
 Mulliken charges:
               1
     1  C   -0.232092
     2  H    0.113301
     3  H    0.112383
     4  C    0.033817
     5  C   -0.355856
     6  H    0.126946
     7  H    0.110272
     8  H    0.128461
     9  C   -0.148563
    10  H    0.114568
    11  C   -0.356446
    12  H    0.116254
    13  H    0.119102
    14  H    0.119529
    15  C   -0.342207
    16  H    0.116732
    17  H    0.113973
    18  H    0.116502
    19  C    0.019333
    20  C   -0.350758
    21  H    0.119505
    22  H    0.114623
    23  H    0.126139
    24  C   -0.135183
    25  H    0.114262
    26  C   -0.246103
    27  H    0.111088
    28  H    0.120420
 Sum of Mulliken charges =  -0.00000
 Mulliken charges with hydrogens summed into heavy atoms:
               1
     1  C   -0.006408
     4  C    0.033817
     5  C    0.009822
     9  C   -0.033994
    11  C   -0.001561
    15  C    0.004999
    19  C    0.019333
    20  C    0.009510
    24  C   -0.020921
    26  C   -0.014596
 Electronic spatial extent (au):  <R**2>=           1960.5873
 Charge=             -0.0000 electrons
 Dipole moment (field-independent basis, Debye):
    X=             -0.1032    Y=              0.0351    Z=              0.3697  Tot=              0.3854
 Quadrupole moment (field-independent basis, Debye-Ang):
   XX=            -66.8404   YY=            -64.6996   ZZ=            -63.5410
   XY=             -0.2022   XZ=             -0.5167   YZ=             -0.2416
 Traceless Quadrupole moment (field-independent basis, Debye-Ang):
   XX=             -1.8134   YY=              0.3274   ZZ=              1.4860
   XY=             -0.2022   XZ=             -0.5167   YZ=             -0.2416
 Octapole moment (field-independent basis, Debye-Ang**2):
  XXX=             -2.8613  YYY=             -0.4186  ZZZ=             -4.4453  XYY=              0.3434
  XXY=              4.6142  XXZ=              3.8580  XZZ=              1.5327  YZZ=              0.3758
  YYZ=              0.8995  XYZ=             -0.6000
 Hexadecapole moment (field-independent basis, Debye-Ang**3):
 XXXX=          -1620.7942 YYYY=           -683.0108 ZZZZ=           -440.5399 XXXY=              3.2477
 XXXZ=             -7.8318 YYYX=             -1.8273 YYYZ=              1.4017 ZZZX=              1.1909
 ZZZY=              0.7798 XXYY=           -388.7744 XXZZ=           -342.2258 YYZZ=           -184.5641
 XXYZ=             -6.9748 YYXZ=             -0.9755 ZZXY=              0.4767
 N-N= 5.339952387591D+02 E-N=-1.972757571661D+03  KE= 3.886216761466D+02
 No NMR shielding tensors so no spin-rotation constants.
 Leave Link  601 at Fri Sep 17 20:15:46 2021, MaxMem=   524288000 cpu:               0.3 elap:               0.3
 (Enter /opt/gaussian/g16_legacy/l701.exe)
 ... and contract with generalized density number  2.
 Compute integral first derivatives.
 Leave Link  701 at Fri Sep 17 20:15:46 2021, MaxMem=   524288000 cpu:               0.3 elap:               0.3
 (Enter /opt/gaussian/g16_legacy/l702.exe)
 L702 exits ... SP integral derivatives will be done elsewhere.
 Leave Link  702 at Fri Sep 17 20:15:46 2021, MaxMem=   524288000 cpu:               0.0 elap:               0.0
 (Enter /opt/gaussian/g16_legacy/l703.exe)
 Integral derivatives from FoFJK, PRISM(SPDF).
 Compute integral first derivatives, UseDBF=F ICtDFT=           0.
 Calling FoFJK, ICntrl=  10002127 FMM=F ISym2X=0 I1Cent= 0 IOpClX= 0 NMat=1 NMatS=1 NMatT=0.
 FoFJK:  IHMeth= 1 ICntrl=10002127 DoSepK=F KAlg= 0 I1Cent=           0 FoldK=F
 IRaf=         0 NMat=       1 IRICut=       1 DoRegI=T DoRafI=F ISym2E= 0 IDoP0=0 IntGTp=1.
 FoFCou: FMM=F IPFlag=           0 FMFlag=      100000 FMFlg1=         800
         NFxFlg=           0 DoJE=F BraDBF=F KetDBF=F FulRan=T
         wScrn=  0.000000 ICntrl=  10002127 IOpCl=  0 I1Cent=           0 NGrid=           0
         NMat0=    1 NMatS0=      1 NMatT0=    0 NMatD0=    1 NMtDS0=    0 NMtDT0=    0
 Symmetry not used in FoFCou.
 Leave Link  703 at Fri Sep 17 20:16:24 2021, MaxMem=   524288000 cpu:              37.8 elap:              37.8
 (Enter /opt/gaussian/g16_legacy/l716.exe)
 Dipole        =-1.42618259D-02 3.59489311D-02 1.30699792D-01
 ***** Axes restored to original set *****
 -------------------------------------------------------------------
 Center     Atomic                   Forces (Hartrees/Bohr)
 Number     Number              X              Y              Z
 -------------------------------------------------------------------
      1        6           0.004870479   -0.001008029   -0.007640359
      2        1          -0.001269462    0.000994009    0.001384076
      3        1           0.003483846   -0.000510652    0.003313568
      4        6          -0.008793314    0.009038032   -0.003924306
      5        6           0.001856828   -0.001459315    0.004782813
      6        1          -0.000672129   -0.004050204   -0.003163682
      7        1           0.001164673    0.000567837   -0.003113268
      8        1           0.000795054    0.001344953    0.003033727
      9        6          -0.004291754   -0.000888414    0.000880732
     10        1          -0.001806017   -0.002446244    0.002094873
     11        6           0.002297071   -0.000892576    0.001712667
     12        1          -0.002320435    0.001483109   -0.002738397
     13        1           0.001041851    0.002103150    0.002385378
     14        1           0.001837251   -0.002534206   -0.001632930
     15        6          -0.001703189    0.002088280   -0.002450030
     16        1          -0.000719472   -0.002931198    0.001660849
     17        1           0.003100950    0.000231532    0.000076836
     18        1          -0.002687417    0.000769577    0.001878373
     19        6           0.005590893    0.002489317   -0.003369800
     20        6           0.001687639   -0.004684450    0.000834305
     21        1          -0.003374792    0.003086057    0.000148522
     22        1          -0.003976817    0.001239338   -0.001406277
     23        1           0.002280168   -0.000632132    0.001633466
     24        6          -0.000585179   -0.004651247   -0.004774607
     25        1           0.001067666   -0.001063776    0.003548925
     26        6          -0.003345870    0.001539623    0.004898230
     27        1           0.001963562    0.002674536    0.000281809
     28        1           0.002507918   -0.001896908   -0.000335494
 -------------------------------------------------------------------
 Cartesian Forces:  Max     0.009038032 RMS     0.002952772
 Leave Link  716 at Fri Sep 17 20:16:24 2021, MaxMem=   524288000 cpu:               0.1 elap:               0.1
 (Enter /opt/gaussian/g16_legacy/l103.exe)

 GradGradGradGradGradGradGradGradGradGradGradGradGradGradGradGradGradGrad
 Berny optimization.
 FormGI is forming the generalized inverse of G from B-inverse, IUseBI=4.
 Internal  Forces:  Max     0.008570384 RMS     0.002024657
 Search for a local minimum.
 Step number   1 out of a maximum of  138
 All quantities printed in internal units (Hartrees-Bohrs-Radians)
 RMS Force = .20247D-02 SwitMx=.10000D-02 MixMth= 1
 Mixed Optimization -- RFO/linear search
 Second derivative matrix not updated -- first step.
 ITU=  0
     Eigenvalues ---    0.00258   0.00505   0.00684   0.00694   0.00702
     Eigenvalues ---    0.00721   0.00827   0.01197   0.01294   0.01577
     Eigenvalues ---    0.01642   0.02769   0.02818   0.03752   0.03916
     Eigenvalues ---    0.05307   0.05390   0.07020   0.07059   0.07098
     Eigenvalues ---    0.07137   0.07209   0.07269   0.07321   0.07501
     Eigenvalues ---    0.09474   0.09666   0.12943   0.13068   0.15999
     Eigenvalues ---    0.16000   0.16000   0.16000   0.16000   0.16000
     Eigenvalues ---    0.16000   0.16000   0.16000   0.16000   0.16000
     Eigenvalues ---    0.16000   0.16000   0.16000   0.21898   0.21946
     Eigenvalues ---    0.22000   0.22000   0.24993   0.24996   0.25000
     Eigenvalues ---    0.25000   0.28664   0.30396   0.31734   0.31813
     Eigenvalues ---    0.31872   0.32027   0.32867   0.33799   0.33852
     Eigenvalues ---    0.33946   0.34153   0.34167   0.34248   0.34250
     Eigenvalues ---    0.34299   0.34302   0.34306   0.34374   0.34404
     Eigenvalues ---    0.34416   0.34465   0.34490   0.34548   0.34552
     Eigenvalues ---    0.34848   0.55329   0.56119
 RFO step:  Lambda=-3.95923767D-03 EMin= 2.58461255D-03
 Linear search not attempted -- first point.
 Iteration  1 RMS(Cart)=  0.11998305 RMS(Int)=  0.00390755
 Iteration  2 RMS(Cart)=  0.00656065 RMS(Int)=  0.00012838
 Iteration  3 RMS(Cart)=  0.00001593 RMS(Int)=  0.00012800
 Iteration  4 RMS(Cart)=  0.00000000 RMS(Int)=  0.00012800
 ITry= 1 IFail=0 DXMaxC= 4.80D-01 DCOld= 1.00D+10 DXMaxT= 3.00D-01 DXLimC= 3.00D+00 Rises=F
 Variable       Old X    -DE/DX   Delta X   Delta X   Delta X     New X
                                 (Linear)    (Quad)   (Total)
    R1        2.07421  -0.00086   0.00000  -0.00251  -0.00251   2.07170
    R2        2.07670  -0.00353   0.00000  -0.01033  -0.01033   2.06637
    R3        2.87180  -0.00857   0.00000  -0.02783  -0.02783   2.84397
    R4        2.90709   0.00010   0.00000   0.00036   0.00036   2.90745
    R5        2.84095   0.00416   0.00000   0.01283   0.01283   2.85378
    R6        2.54841  -0.00527   0.00000  -0.00947  -0.00947   2.53895
    R7        2.07050  -0.00426   0.00000  -0.01233  -0.01233   2.05816
    R8        2.06512  -0.00277   0.00000  -0.00795  -0.00795   2.05717
    R9        2.06823  -0.00185   0.00000  -0.00532  -0.00532   2.06291
   R10        2.05922  -0.00237   0.00000  -0.00673  -0.00673   2.05250
   R11        2.82586   0.00277   0.00000   0.00834   0.00834   2.83420
   R12        2.06553  -0.00366   0.00000  -0.01049  -0.01049   2.05503
   R13        2.06816  -0.00200   0.00000  -0.00576  -0.00576   2.06241
   R14        2.06913  -0.00233   0.00000  -0.00672  -0.00672   2.06241
   R15        2.06704  -0.00299   0.00000  -0.00861  -0.00861   2.05844
   R16        2.06829  -0.00153   0.00000  -0.00442  -0.00442   2.06387
   R17        2.06910  -0.00209   0.00000  -0.00605  -0.00605   2.06305
   R18        2.84487  -0.00017   0.00000  -0.00051  -0.00051   2.84436
   R19        2.84379   0.00125   0.00000   0.00386   0.00386   2.84765
   R20        2.54151  -0.00041   0.00000  -0.00073  -0.00073   2.54077
   R21        2.06408  -0.00353   0.00000  -0.01010  -0.01010   2.05399
   R22        2.07073  -0.00357   0.00000  -0.01033  -0.01033   2.06040
   R23        2.06654  -0.00098   0.00000  -0.00283  -0.00283   2.06371
   R24        2.06415  -0.00331   0.00000  -0.00948  -0.00948   2.05467
   R25        2.84633  -0.00420   0.00000  -0.01306  -0.01306   2.83326
   R26        2.06633  -0.00166   0.00000  -0.00477  -0.00477   2.06156
   R27        2.07581  -0.00232   0.00000  -0.00676  -0.00676   2.06905
    A1        1.84205   0.00040   0.00000   0.01815   0.01816   1.86022
    A2        1.89668   0.00232   0.00000   0.01579   0.01584   1.91252
    A3        1.90241  -0.00004   0.00000   0.00013   0.00018   1.90260
    A4        1.92081  -0.00066   0.00000  -0.01643  -0.01653   1.90427
    A5        1.89121   0.00215   0.00000   0.00744   0.00710   1.89832
    A6        2.00377  -0.00383   0.00000  -0.02168  -0.02180   1.98197
    A7        2.03326   0.00080   0.00000   0.00318   0.00294   2.03619
    A8        2.10304  -0.00073   0.00000  -0.00282  -0.00306   2.09998
    A9        2.14687  -0.00006   0.00000  -0.00020  -0.00044   2.14643
   A10        1.94398   0.00203   0.00000   0.01304   0.01304   1.95701
   A11        1.95067  -0.00261   0.00000  -0.01391  -0.01386   1.93681
   A12        1.92707   0.00303   0.00000   0.01580   0.01581   1.94288
   A13        1.86010   0.00120   0.00000   0.01239   0.01242   1.87253
   A14        1.90688  -0.00340   0.00000  -0.02450  -0.02453   1.88234
   A15        1.87241  -0.00048   0.00000  -0.00419  -0.00413   1.86828
   A16        2.07285  -0.00238   0.00000  -0.01536  -0.01539   2.05746
   A17        2.21826  -0.00105   0.00000  -0.00469  -0.00472   2.21355
   A18        1.99205   0.00344   0.00000   0.02015   0.02012   2.01217
   A19        1.97997  -0.00285   0.00000  -0.01717  -0.01709   1.96288
   A20        1.91483   0.00318   0.00000   0.01889   0.01885   1.93367
   A21        1.91269   0.00308   0.00000   0.01903   0.01899   1.93169
   A22        1.88177  -0.00036   0.00000  -0.00267  -0.00259   1.87918
   A23        1.88344  -0.00006   0.00000   0.00057   0.00064   1.88409
   A24        1.88874  -0.00317   0.00000  -0.01983  -0.01999   1.86875
   A25        1.88324   0.00041   0.00000   0.00429   0.00433   1.88757
   A26        1.87688   0.00118   0.00000   0.01099   0.01102   1.88790
   A27        1.96037  -0.00249   0.00000  -0.01230  -0.01227   1.94810
   A28        1.89404  -0.00298   0.00000  -0.02389  -0.02388   1.87016
   A29        1.92667   0.00226   0.00000   0.01185   0.01187   1.93854
   A30        1.92064   0.00150   0.00000   0.00825   0.00827   1.92891
   A31        1.99802   0.00146   0.00000   0.00609   0.00543   2.00345
   A32        2.10949  -0.00037   0.00000  -0.00103  -0.00169   2.10780
   A33        2.17548  -0.00107   0.00000  -0.00378  -0.00443   2.17105
   A34        1.96917  -0.00102   0.00000  -0.00297  -0.00296   1.96621
   A35        1.93235  -0.00169   0.00000  -0.00995  -0.00992   1.92243
   A36        1.92410   0.00314   0.00000   0.01557   0.01560   1.93970
   A37        1.85270   0.00267   0.00000   0.02309   0.02310   1.87580
   A38        1.89323  -0.00128   0.00000  -0.00830  -0.00830   1.88493
   A39        1.88925  -0.00193   0.00000  -0.01821  -0.01817   1.87108
   A40        2.06863  -0.00272   0.00000  -0.01538  -0.01540   2.05323
   A41        2.22294   0.00143   0.00000   0.00643   0.00641   2.22935
   A42        1.99153   0.00129   0.00000   0.00909   0.00907   2.00060
   A43        1.97383  -0.00339   0.00000  -0.01850  -0.01855   1.95527
   A44        1.91936   0.00267   0.00000   0.01591   0.01588   1.93524
   A45        1.89224  -0.00132   0.00000  -0.01456  -0.01453   1.87771
   A46        1.95103  -0.00049   0.00000  -0.00781  -0.00776   1.94327
   A47        1.88450   0.00255   0.00000   0.01418   0.01401   1.89850
   A48        1.83644   0.00020   0.00000   0.01266   0.01271   1.84915
    D1       -0.98427   0.00174   0.00000   0.09866   0.09867  -0.88560
    D2        2.16189   0.00111   0.00000   0.05860   0.05861   2.22050
    D3       -2.99341   0.00032   0.00000   0.07704   0.07720  -2.91621
[...]
                 (A) (A) (A) (A) (A) (A) (A) (A) (A) (A) (A) (A)
                 (A) (A) (A) (A) (A) (A) (A) (A) (A) (A) (A) (A)
                 (A) (A) (A) (A) (A) (A) (A) (A) (A) (A) (A) (A)
                 (A) (A) (A) (A) (A) (A) (A) (A) (A) (A) (A) (A)
                 (A) (A) (A) (A) (A) (A) (A) (A) (A) (A) (A) (A)
                 (A) (A) (A) (A) (A) (A) (A) (A) (A) (A) (A) (A)
                 (A) (A) (A) (A) (A) (A) (A) (A) (A) (A) (A) (A)
                 (A) (A) (A) (A) (A) (A) (A) (A) (A) (A) (A) (A)
                 (A) (A) (A) (A) (A) (A) (A) (A) (A) (A) (A) (A)
                 (A) (A) (A) (A) (A) (A) (A) (A) (A) (A) (A) (A)
                 (A) (A) (A) (A) (A) (A) (A) (A) (A) (A) (A) (A)
                 (A) (A) (A) (A) (A) (A) (A) (A) (A) (A) (A) (A)
                 (A) (A) (A) (A) (A) (A) (A) (A) (A) (A) (A) (A)
                 (A) (A) (A) (A) (A) (A) (A) (A) (A)
 The electronic state is 1-A.
 Alpha  occ. eigenvalues --  -11.22626 -11.22229 -11.21803 -11.21706 -11.21514
 Alpha  occ. eigenvalues --  -11.21420 -11.21336 -11.21298 -11.21196 -11.20892
 Alpha  occ. eigenvalues --   -1.10824  -1.07879  -1.01979  -0.97445  -0.93451
 Alpha  occ. eigenvalues --   -0.92061  -0.87983  -0.81604  -0.70067  -0.69690
 Alpha  occ. eigenvalues --   -0.64338  -0.61481  -0.61144  -0.58909  -0.57497
 Alpha  occ. eigenvalues --   -0.56690  -0.55228  -0.54097  -0.53582  -0.52879
 Alpha  occ. eigenvalues --   -0.52490  -0.50693  -0.50022  -0.49313  -0.48324
 Alpha  occ. eigenvalues --   -0.45209  -0.44966  -0.32245  -0.31883
 Alpha virt. eigenvalues --    0.18613   0.19272   0.22030   0.24538   0.26233
 Alpha virt. eigenvalues --    0.27089   0.28547   0.29149   0.30257   0.30285
 Alpha virt. eigenvalues --    0.31372   0.33020   0.33346   0.34447   0.34975
 Alpha virt. eigenvalues --    0.36753   0.36981   0.39418   0.39630   0.40409
 Alpha virt. eigenvalues --    0.41012   0.41852   0.43452   0.43894   0.45947
 Alpha virt. eigenvalues --    0.51940   0.52396   0.62149   0.63361   0.66270
 Alpha virt. eigenvalues --    0.70364   0.71014   0.73831   0.74155   0.75727
 Alpha virt. eigenvalues --    0.77241   0.79747   0.81777   0.83044   0.83226
 Alpha virt. eigenvalues --    0.86799   0.87281   0.88476   0.89329   0.92442
 Alpha virt. eigenvalues --    0.93106   0.95084   0.96961   0.97848   1.00090
 Alpha virt. eigenvalues --    1.01723   1.02653   1.03594   1.05408   1.07039
 Alpha virt. eigenvalues --    1.08626   1.10130   1.11251   1.11575   1.12669
 Alpha virt. eigenvalues --    1.13459   1.14787   1.15280   1.15991   1.16370
 Alpha virt. eigenvalues --    1.18087   1.18179   1.19462   1.20073   1.21342
 Alpha virt. eigenvalues --    1.22706   1.23770   1.26051   1.26758   1.27589
 Alpha virt. eigenvalues --    1.29179   1.32376   1.41595   1.41873   1.46463
 Alpha virt. eigenvalues --    1.47481   1.51111   1.55580   1.58372   1.60180
 Alpha virt. eigenvalues --    1.62887   1.67051   1.68056   1.70639   1.73941
 Alpha virt. eigenvalues --    1.75586   1.78623   1.90867   1.92152   1.96367
 Alpha virt. eigenvalues --    1.99269   2.01835   2.04283   2.07384   2.07637
 Alpha virt. eigenvalues --    2.08995   2.09387   2.11964   2.14684   2.15761
 Alpha virt. eigenvalues --    2.17547   2.17903   2.20620   2.27075   2.28632
 Alpha virt. eigenvalues --    2.30242   2.31718   2.33741   2.35252   2.35740
 Alpha virt. eigenvalues --    2.36009   2.36256   2.38237   2.40359   2.42221
 Alpha virt. eigenvalues --    2.43673   2.44009   2.44298   2.45321   2.46828
 Alpha virt. eigenvalues --    2.47540   2.49458   2.51049   2.53026   2.54245
 Alpha virt. eigenvalues --    2.58122   2.59509   2.60632   2.63702   2.65134
 Alpha virt. eigenvalues --    2.67759   2.69813   2.71376   2.72931   2.73188
 Alpha virt. eigenvalues --    2.76089   2.77694   2.80115   2.82625   2.84594
 Alpha virt. eigenvalues --    2.86564   2.87822   2.91250   2.92694   2.95180
 Alpha virt. eigenvalues --    2.97561   2.98940   3.00435   3.02040   3.04231
 Alpha virt. eigenvalues --    3.06303   3.07811   3.11830   3.13810   3.14439
 Alpha virt. eigenvalues --    3.18289   3.19045   3.19847   3.20147   3.21528
 Alpha virt. eigenvalues --    3.25075   3.25628   3.26830   3.28368   3.39402
 Alpha virt. eigenvalues --    3.40357   3.44697   3.46273   3.56437   3.57875
 Alpha virt. eigenvalues --    3.62976   3.63424   3.68131   3.70775   3.79654
 Alpha virt. eigenvalues --    3.80894   3.82197   3.82856   3.83926   3.84607
 Alpha virt. eigenvalues --    3.85171   3.86777   3.88288   3.90850   3.92171
 Alpha virt. eigenvalues --    3.95184   4.57233   4.66515   4.74746   4.84001
 Alpha virt. eigenvalues --    4.90737   4.94574   4.95463   5.11734   5.12351
 Alpha virt. eigenvalues --    5.16024
          Condensed to atoms (all electrons):
               1          2          3          4          5          6
     1  C    4.992492   0.412119   0.414163   0.354205  -0.060224   0.003846
     2  H    0.412119   0.598762  -0.028594  -0.047490  -0.003577   0.000058
     3  H    0.414163  -0.028594   0.578180  -0.044413   0.003660  -0.000109
     4  C    0.354205  -0.047490  -0.044413   4.952384   0.349363  -0.038919
     5  C   -0.060224  -0.003577   0.003660   0.349363   4.896467   0.407175
     6  H    0.003846   0.000058  -0.000109  -0.038919   0.407175   0.572204
     7  H   -0.002983  -0.000598   0.000015  -0.045411   0.402483  -0.028695
     8  H   -0.002772   0.002382  -0.000081  -0.041288   0.399970  -0.027231
     9  C   -0.048528   0.002167  -0.003084   0.699299  -0.043699  -0.002860
    10  H   -0.007165   0.000147   0.002274  -0.039213   0.003577   0.000037
    11  C    0.003110  -0.000101   0.000128  -0.046623  -0.008126  -0.002158
    12  H    0.000086  -0.000001   0.000006   0.000277  -0.002075  -0.001308
    13  H   -0.000103   0.000009   0.000003  -0.000601   0.000232  -0.000054
    14  H   -0.000097  -0.000002  -0.000012  -0.000848   0.000296   0.000047
    15  C   -0.000098   0.000002  -0.000008  -0.000083   0.000000   0.000000
    16  H   -0.000003   0.000000   0.000003  -0.000002   0.000000  -0.000000
    17  H   -0.000007   0.000000   0.000000  -0.000000  -0.000000   0.000000
    18  H    0.000031  -0.000000  -0.000000   0.000028   0.000000  -0.000000
    19  C   -0.003225  -0.000097   0.000672  -0.001566   0.000128   0.000005
    20  C    0.000322   0.000007  -0.000006   0.000488  -0.000594   0.000042
    21  H   -0.000328   0.000020  -0.000008  -0.001252  -0.000662   0.000017
    22  H    0.000213  -0.000004   0.000001   0.000465   0.000125   0.000004
    23  H   -0.000053   0.000001   0.000000   0.000141  -0.000010  -0.000001
    24  C   -0.068426   0.005499  -0.004515  -0.002933   0.000168  -0.000007
    25  H   -0.000026  -0.000095   0.001504   0.000213  -0.000003   0.000000
    26  C    0.327496  -0.045703  -0.040894  -0.062583  -0.001393  -0.000081
    27  H   -0.040981  -0.001519   0.004275  -0.004971  -0.000133  -0.000070
    28  H   -0.044282  -0.003660  -0.001869   0.005350  -0.000086   0.000003
               7          8          9         10         11         12
     1  C   -0.002983  -0.002772  -0.048528  -0.007165   0.003110   0.000086
     2  H   -0.000598   0.002382   0.002167   0.000147  -0.000101  -0.000001
     3  H    0.000015  -0.000081  -0.003084   0.002274   0.000128   0.000006
     4  C   -0.045411  -0.041288   0.699299  -0.039213  -0.046623   0.000277
     5  C    0.402483   0.399970  -0.043699   0.003577  -0.008126  -0.002075
     6  H   -0.028695  -0.027231  -0.002860   0.000037  -0.002158  -0.001308
     7  H    0.599881  -0.036293   0.000777  -0.000122   0.000209  -0.000032
     8  H   -0.036293   0.583786  -0.001099  -0.000117   0.000349  -0.000056
     9  C    0.000777  -0.001099   4.921078   0.405486   0.342154  -0.043779
    10  H   -0.000122  -0.000117   0.405486   0.556588  -0.041802   0.003334
    11  C    0.000209   0.000349   0.342154  -0.041802   4.897373   0.407862
    12  H   -0.000032  -0.000056  -0.043779   0.003334   0.407862   0.577660
    13  H   -0.000021   0.000067  -0.041670  -0.001165   0.401666  -0.028315
    14  H    0.000043  -0.000033  -0.043138  -0.001324   0.400412  -0.028521
    15  C    0.000000   0.000000  -0.000060   0.000035  -0.000020   0.000000
    16  H    0.000000  -0.000000  -0.000004   0.000004   0.000000  -0.000000
    17  H    0.000000  -0.000000   0.000002   0.000002   0.000000  -0.000000
    18  H   -0.000000   0.000000   0.000047  -0.000025   0.000006  -0.000000
    19  C    0.000172  -0.000008  -0.000683   0.000409   0.000024  -0.000009
    20  C   -0.000649   0.000028   0.000060  -0.000013  -0.000099   0.000001
    21  H   -0.000091   0.000020  -0.000181   0.000003   0.000021  -0.000002
    22  H   -0.000071   0.000003  -0.000480  -0.000063   0.000162   0.000032
    23  H   -0.000009   0.000000   0.000120   0.000002  -0.000007  -0.000000
    24  C    0.000011   0.000002   0.001400   0.001322  -0.000079  -0.000001
    25  H   -0.000003   0.000000   0.000064   0.000103  -0.000001  -0.000000
    26  C    0.001123  -0.000090  -0.005348   0.000050  -0.000086  -0.000003
    27  H   -0.000341   0.000067   0.000574   0.000035   0.000001   0.000001
    28  H   -0.000039  -0.000003  -0.000017  -0.000011   0.000002   0.000000
              13         14         15         16         17         18
     1  C   -0.000103  -0.000097  -0.000098  -0.000003  -0.000007   0.000031
     2  H    0.000009  -0.000002   0.000002   0.000000   0.000000  -0.000000
     3  H    0.000003  -0.000012  -0.000008   0.000003   0.000000  -0.000000
     4  C   -0.000601  -0.000848  -0.000083  -0.000002  -0.000000   0.000028
     5  C    0.000232   0.000296   0.000000   0.000000  -0.000000   0.000000
     6  H   -0.000054   0.000047   0.000000  -0.000000   0.000000  -0.000000
     7  H   -0.000021   0.000043   0.000000   0.000000   0.000000  -0.000000
     8  H    0.000067  -0.000033   0.000000  -0.000000  -0.000000   0.000000
     9  C   -0.041670  -0.043138  -0.000060  -0.000004   0.000002   0.000047
    10  H   -0.001165  -0.001324   0.000035   0.000004   0.000002  -0.000025
    11  C    0.401666   0.400412  -0.000020   0.000000   0.000000   0.000006
    12  H   -0.028315  -0.028521   0.000000  -0.000000  -0.000000  -0.000000
    13  H    0.586353  -0.036350  -0.000000  -0.000000  -0.000000   0.000000
    14  H   -0.036350   0.592057   0.000015  -0.000001  -0.000000   0.000088
    15  C   -0.000000   0.000015   4.902400   0.405661   0.397444   0.398418
    16  H   -0.000000  -0.000001   0.405661   0.568269  -0.026635  -0.026922
    17  H   -0.000000  -0.000000   0.397444  -0.026635   0.595689  -0.038239
    18  H    0.000000   0.000088   0.398418  -0.026922  -0.038239   0.597501
    19  C   -0.000004   0.000079   0.354841  -0.041542  -0.043342  -0.044811
    20  C    0.000008  -0.000119  -0.065318   0.003809  -0.001488  -0.001627
    21  H   -0.000000   0.000006   0.003829  -0.000116  -0.000049  -0.000056
    22  H    0.000008   0.000145  -0.001903  -0.000054  -0.000429   0.002635
    23  H    0.000000  -0.000010  -0.003230  -0.000024   0.002855  -0.000495
    24  C   -0.000002   0.000020  -0.043757  -0.002588  -0.001025  -0.000934
    25  H    0.000000  -0.000000  -0.007232   0.002421   0.000214   0.000167
    26  C   -0.000006   0.000032   0.003273   0.000137  -0.000127  -0.000082
    27  H    0.000000  -0.000000   0.000042   0.000007   0.000008  -0.000005
    28  H    0.000000  -0.000000  -0.000100  -0.000009   0.000009  -0.000002
              19         20         21         22         23         24
     1  C   -0.003225   0.000322  -0.000328   0.000213  -0.000053  -0.068426
     2  H   -0.000097   0.000007   0.000020  -0.000004   0.000001   0.005499
     3  H    0.000672  -0.000006  -0.000008   0.000001   0.000000  -0.004515
     4  C   -0.001566   0.000488  -0.001252   0.000465   0.000141  -0.002933
     5  C    0.000128  -0.000594  -0.000662   0.000125  -0.000010   0.000168
     6  H    0.000005   0.000042   0.000017   0.000004  -0.000001  -0.000007
     7  H    0.000172  -0.000649  -0.000091  -0.000071  -0.000009   0.000011
     8  H   -0.000008   0.000028   0.000020   0.000003   0.000000   0.000002
     9  C   -0.000683   0.000060  -0.000181  -0.000480   0.000120   0.001400
    10  H    0.000409  -0.000013   0.000003  -0.000063   0.000002   0.001322
    11  C    0.000024  -0.000099   0.000021   0.000162  -0.000007  -0.000079
    12  H   -0.000009   0.000001  -0.000002   0.000032  -0.000000  -0.000001
    13  H   -0.000004   0.000008  -0.000000   0.000008   0.000000  -0.000002
    14  H    0.000079  -0.000119   0.000006   0.000145  -0.000010   0.000020
    15  C    0.354841  -0.065318   0.003829  -0.001903  -0.003230  -0.043757
    16  H   -0.041542   0.003809  -0.000116  -0.000054  -0.000024  -0.002588
    17  H   -0.043342  -0.001488  -0.000049  -0.000429   0.002855  -0.001025
    18  H   -0.044811  -0.001627  -0.000056   0.002635  -0.000495  -0.000934
    19  C    4.896842   0.353297  -0.037627  -0.042519  -0.044318   0.697244
    20  C    0.353297   4.896435   0.407712   0.400369   0.398585  -0.043504
    21  H   -0.037627   0.407712   0.574838  -0.027856  -0.027801  -0.003118
    22  H   -0.042519   0.400369  -0.027856   0.583548  -0.035826  -0.001039
    23  H   -0.044318   0.398585  -0.027801  -0.035826   0.596709   0.000540
    24  C    0.697244  -0.043504  -0.003118  -0.001039   0.000540   4.963599
    25  H   -0.038661   0.003603   0.000042  -0.000129  -0.000120   0.404575
    26  C   -0.048731  -0.007936  -0.001884   0.000382   0.000111   0.345440
    27  H    0.000370  -0.002206  -0.001651  -0.000128   0.000121  -0.045995
    28  H    0.001731   0.000193   0.000057  -0.000015   0.000018  -0.042371
              25         26         27         28
     1  C   -0.000026   0.327496  -0.040981  -0.044282
     2  H   -0.000095  -0.045703  -0.001519  -0.003660
     3  H    0.001504  -0.040894   0.004275  -0.001869
     4  C    0.000213  -0.062583  -0.004971   0.005350
     5  C   -0.000003  -0.001393  -0.000133  -0.000086
     6  H    0.000000  -0.000081  -0.000070   0.000003
     7  H   -0.000003   0.001123  -0.000341  -0.000039
     8  H    0.000000  -0.000090   0.000067  -0.000003
     9  C    0.000064  -0.005348   0.000574  -0.000017
    10  H    0.000103   0.000050   0.000035  -0.000011
    11  C   -0.000001  -0.000086   0.000001   0.000002
    12  H   -0.000000  -0.000003   0.000001   0.000000
    13  H    0.000000  -0.000006   0.000000   0.000000
    14  H   -0.000000   0.000032  -0.000000  -0.000000
    15  C   -0.007232   0.003273   0.000042  -0.000100
    16  H    0.002421   0.000137   0.000007  -0.000009
    17  H    0.000214  -0.000127   0.000008   0.000009
    18  H    0.000167  -0.000082  -0.000005  -0.000002
    19  C   -0.038661  -0.048731   0.000370   0.001731
    20  C    0.003603  -0.007936  -0.002206   0.000193
    21  H    0.000042  -0.001884  -0.001651   0.000057
    22  H   -0.000129   0.000382  -0.000128  -0.000015
    23  H   -0.000120   0.000111   0.000121   0.000018
    24  C    0.404575   0.345440  -0.045995  -0.042371
    25  H    0.562527  -0.041752   0.003400  -0.003782
    26  C   -0.041752   4.990243   0.414878   0.413753
    27  H    0.003400   0.414878   0.589367  -0.029280
    28  H   -0.003782   0.413753  -0.029280   0.586642
 Mulliken charges:
               1
     1  C   -0.228782
     2  H    0.110269
     3  H    0.118713
     4  C    0.015984
     5  C   -0.343062
     6  H    0.118056
     7  H    0.110644
     8  H    0.122396
     9  C   -0.138598
    10  H    0.117611
    11  C   -0.354377
    12  H    0.114842
    13  H    0.119946
    14  H    0.117215
    15  C   -0.344150
    16  H    0.117588
    17  H    0.115120
    18  H    0.114277
    19  C    0.041330
    20  C   -0.341401
    21  H    0.116116
    22  H    0.122425
    23  H    0.112699
    24  C   -0.159525
    25  H    0.112971
    26  C   -0.240215
    27  H    0.114138
    28  H    0.117770
 Sum of Mulliken charges =  -0.00000
 Mulliken charges with hydrogens summed into heavy atoms:
               1
     1  C    0.000200
     4  C    0.015984
     5  C    0.008033
     9  C   -0.020987
    11  C   -0.002374
    15  C    0.002835
    19  C    0.041330
    20  C    0.009839
    24  C   -0.046554
    26  C   -0.008307
 Electronic spatial extent (au):  <R**2>=           1811.6078
 Charge=             -0.0000 electrons
 Dipole moment (field-independent basis, Debye):
    X=              0.0947    Y=              0.1724    Z=              0.2138  Tot=              0.2905
 Quadrupole moment (field-independent basis, Debye-Ang):
   XX=            -66.7204   YY=            -64.1857   ZZ=            -64.4609
   XY=             -1.1313   XZ=              1.4478   YZ=              0.3372
 Traceless Quadrupole moment (field-independent basis, Debye-Ang):
   XX=             -1.5980   YY=              0.9366   ZZ=              0.6614
   XY=             -1.1313   XZ=              1.4478   YZ=              0.3372
 Octapole moment (field-independent basis, Debye-Ang**2):
  XXX=             -0.3608  YYY=              0.2612  ZZZ=             -2.2808  XYY=              3.0770
  XXY=              3.6033  XXZ=              2.8392  XZZ=             -2.4861  YZZ=             -0.4037
  YYZ=             -1.3911  XYZ=             -2.1435
 Hexadecapole moment (field-independent basis, Debye-Ang**3):
 XXXX=          -1391.3694 YYYY=           -764.9717 ZZZZ=           -382.5940 XXXY=            -11.2032
 XXXZ=              6.7630 YYYX=             -2.1082 YYYZ=              1.3610 ZZZX=              3.0289
 ZZZY=             -0.4919 XXYY=           -359.5086 XXZZ=           -291.0765 YYZZ=           -191.1684
 XXYZ=              4.4941 YYXZ=              1.5109 ZZXY=              5.1212
 N-N= 5.442092943809D+02 E-N=-1.993278752578D+03  KE= 3.887531457945D+02
 No NMR shielding tensors so no spin-rotation constants.
 Leave Link  601 at Fri Sep 17 22:26:28 2021, MaxMem=   524288000 cpu:               0.3 elap:               0.6
 (Enter /opt/gaussian/g16_legacy/l9999.exe)
 1\1\GINC-TRUENO90\FOpt\RMP2-FC\6-31G(d,p)\C10H18\JRAMOS\17-Sep-2021\0\
 \#p opt mp2/6-31g(d,p)\\Conformer number 028. Energy MM = 26.187 kcal/
 mol\\0,1\C,2.1457490227,1.2441520942,-8.9843286316\H,1.8111692402,0.28
 422706,-9.3902484332\H,2.0900032057,1.9722860912,-9.7970935313\C,3.565
 9836991,1.1221418112,-8.4966876405\C,3.8848228913,-0.1645909001,-7.785
 2089158\H,4.858795762,-0.1562836979,-7.3026567598\H,3.1374206774,-0.37
 63539921,-7.0181856205\H,3.8620771899,-1.0014186021,-8.4869855506\C,4.
 4345955178,2.1331082088,-8.6892885319\H,4.0658669992,3.0000292535,-9.2
 302049036\C,5.8619037402,2.2231112979,-8.2429972298\H,6.1962802823,1.3
 318817799,-7.7178986804\H,6.5250666999,2.3747189208,-9.0966793474\H,6.
 002688953,3.0772449362,-7.5772377234\C,2.3317851207,5.033642974,-6.203
 3781328\H,1.8001196975,5.6235308406,-6.9486208685\H,1.9680088862,5.321
 884602,-5.2144640644\H,3.3893844845,5.3051201123,-6.2429028746\C,2.152
 3003811,3.5584194398,-6.4338582418\C,2.8650847087,2.6780411573,-5.4468
 07079\H,2.6721138186,1.6209656728,-5.6067107552\H,3.9439324566,2.83345
 78305,-5.5161139277\H,2.5688218599,2.9316187322,-4.4263140796\C,1.4071
 376836,3.1072915473,-7.4603517759\H,0.9607075861,3.8513287676,-8.11591
 33326\C,1.1753908807,1.6829255626,-7.8635298279\H,1.2709563985,1.00645
 48942,-7.0128731046\H,0.1502321563,1.5760636055,-8.2279604357\\Version
 =EM64L-G16RevA.03\State=1-A\HF=-389.1534375\MP2=-390.5747509\RMSD=4.00
 2e-09\RMSF=2.241e-06\Dipole=0.0896759,-0.0379409,0.055162\PG=C01 [X(C1
 0H18)]\\@


 YOU CANNOT THROW TO THE GROUND THE LETTERS OF
 THE GREEK ALPHABET AND PICK UP THE ILIAD.
        - RUFUS CHOATE, 1799-1859
 Job cpu time:       0 days  2 hours 16 minutes 52.5 seconds.
 Elapsed time:       0 days  2 hours 16 minutes 57.6 seconds.
 File lengths (MBytes):  RWF=     37 Int=      0 D2E=      0 Chk=      7 Scr=      1
 Normal termination of Gaussian 16 at Fri Sep 17 22:26:28 2021.
