 Entering Gaussian System, Link 0=/opt/gaussian/g16_legacy/g16
 Input=02-IsoP_019_gaussian.com
 Output=02-IsoP_019_gaussian.log
 Initial command:
 /opt/gaussian/g16_legacy/l1.exe "/scratch-local/jramos/2661514/Gau-7136.inp" -scrdir="/scratch-local/jramos/2661514/"
 Entering Link 1 = /opt/gaussian/g16_legacy/l1.exe PID=      7159.
  
 Copyright (c) 1988,1990,1992,1993,1995,1998,2003,2009,2016,
            Gaussian, Inc.  All Rights Reserved.
  
 This is part of the Gaussian(R) 16 program.  It is based on
 the Gaussian(R) 09 system (copyright 2009, Gaussian, Inc.),
 the Gaussian(R) 03 system (copyright 2003, Gaussian, Inc.),
 the Gaussian(R) 98 system (copyright 1998, Gaussian, Inc.),
 the Gaussian(R) 94 system (copyright 1995, Gaussian, Inc.),
 the Gaussian 92(TM) system (copyright 1992, Gaussian, Inc.),
 the Gaussian 90(TM) system (copyright 1990, Gaussian, Inc.),
 the Gaussian 88(TM) system (copyright 1988, Gaussian, Inc.),
 the Gaussian 86(TM) system (copyright 1986, Carnegie Mellon
 University), and the Gaussian 82(TM) system (copyright 1983,
 Carnegie Mellon University). Gaussian is a federally registered
 trademark of Gaussian, Inc.
  
 This software contains proprietary and confidential information,
 including trade secrets, belonging to Gaussian, Inc.
  
 This software is provided under written license and may be
 used, copied, transmitted, or stored only in accord with that
 written license.
  
 The following legend is applicable only to US Government
 contracts under FAR:
  
                    RESTRICTED RIGHTS LEGEND
  
 Use, reproduction and disclosure by the US Government is
 subject to restrictions as set forth in subparagraphs (a)
 and (c) of the Commercial Computer Software - Restricted
 Rights clause in FAR 52.227-19.
  
 Gaussian, Inc.
 340 Quinnipiac St., Bldg. 40, Wallingford CT 06492
  
  
 ---------------------------------------------------------------
 Warning -- This program may not be used in any manner that
 competes with the business of Gaussian, Inc. or will provide
 assistance to any competitor of Gaussian, Inc.  The licensee
 of this program is prohibited from giving any competitor of
 Gaussian, Inc. access to this program.  By using this program,
 the user acknowledges that Gaussian, Inc. is engaged in the
 business of creating and licensing software in the field of
 computational chemistry and represents and warrants to the
 licensee that it is not a competitor of Gaussian, Inc. and that
 it will not use this program in any manner prohibited above.
 ---------------------------------------------------------------
  

 Cite this work as:
 Gaussian 16, Revision A.03,
 M. J. Frisch, G. W. Trucks, H. B. Schlegel, G. E. Scuseria, 
 M. A. Robb, J. R. Cheeseman, G. Scalmani, V. Barone, 
 G. A. Petersson, H. Nakatsuji, X. Li, M. Caricato, A. V. Marenich, 
 J. Bloino, B. G. Janesko, R. Gomperts, B. Mennucci, H. P. Hratchian, 
 J. V. Ortiz, A. F. Izmaylov, J. L. Sonnenberg, D. Williams-Young, 
 F. Ding, F. Lipparini, F. Egidi, J. Goings, B. Peng, A. Petrone, 
 T. Henderson, D. Ranasinghe, V. G. Zakrzewski, J. Gao, N. Rega, 
 G. Zheng, W. Liang, M. Hada, M. Ehara, K. Toyota, R. Fukuda, 
 J. Hasegawa, M. Ishida, T. Nakajima, Y. Honda, O. Kitao, H. Nakai, 
 T. Vreven, K. Throssell, J. A. Montgomery, Jr., J. E. Peralta, 
 F. Ogliaro, M. J. Bearpark, J. J. Heyd, E. N. Brothers, K. N. Kudin, 
 V. N. Staroverov, T. A. Keith, R. Kobayashi, J. Normand, 
 K. Raghavachari, A. P. Rendell, J. C. Burant, S. S. Iyengar, 
 J. Tomasi, M. Cossi, J. M. Millam, M. Klene, C. Adamo, R. Cammi, 
 J. W. Ochterski, R. L. Martin, K. Morokuma, O. Farkas, 
 J. B. Foresman, and D. J. Fox, Gaussian, Inc., Wallingford CT, 2016.
 
 ******************************************
 Gaussian 16:  EM64L-G16RevA.03 25-Dec-2016
                17-Sep-2021 
 ******************************************
 %chk=02-IsoP_019_gaussian.chk
 %nproc=1
 Will use up to    1 processors via shared memory.
 %mem=4000Mb
 ---------------------
 #p opt mp2/6-31g(d,p)
 ---------------------
 1/18=20,19=15,38=1/1,3;
 2/9=110,12=2,17=6,18=5,40=1/2;
 3/5=1,6=6,7=101,11=9,25=1,30=1,71=1/1,2,3;
 4//1;
 5/5=2,38=5/2;
 8/6=4,10=2/1;
 9/15=2,16=-3/6;
 10/5=1/2;
 6/7=2,8=2,9=2,10=2/1;
 7/12=2/1,2,3,16;
 1/18=20,19=15/3(2);
 2/9=110/2;
 99//99;
 2/9=110/2;
 3/5=1,6=6,7=101,11=9,25=1,30=1,71=1/1,2,3;
 4/5=5,16=3,69=1/1;
 5/5=2,38=5/2;
 8/6=4,10=2/1;
 9/15=2,16=-3/6;
 10/5=1/2;
 7/12=2/1,2,3,16;
 1/18=20,19=15/3(-8);
 2/9=110/2;
 6/7=2,8=2,9=2,10=2/1;
 99//99;
 Leave Link    1 at Fri Sep 17 20:09:26 2021, MaxMem=   524288000 cpu:               0.0 elap:               0.1
 (Enter /opt/gaussian/g16_legacy/l101.exe)
 -------------------------------------------------
 Conformer number 019. Energy MM = 25.810 kcal/mol
 -------------------------------------------------
 Symbolic Z-matrix:
 Charge =  0 Multiplicity = 1
 C                     2.1771    1.2011   -8.886 
 H                     1.8978    0.1716   -9.1461 
 H                     2.0541    1.8003   -9.7986 
 C                     3.6593    1.2166   -8.5233 
 C                     4.5537    0.7486   -9.6444 
 H                     5.4506    0.2433   -9.2757 
 H                     4.0352    0.0256   -10.281 
 H                     4.8522    1.5977   -10.2678 
 C                     4.1384    1.6217   -7.3293 
 H                     3.4449    1.9423   -6.5515 
 C                     5.5681    1.7312   -6.9026 
 H                     6.2808    1.4612   -7.684 
 H                     5.7788    2.7628   -6.6053 
 H                     5.7453    1.0844   -6.038 
 C                    -2.2814    2.8522   -9.2049 
 H                    -2.7651    1.9042   -8.9465 
 H                    -2.8089    3.6499   -8.6707 
 H                    -2.4078    3.0099   -10.2808 
 C                    -0.8227    2.865    -8.8418 
 C                    -0.1108    4.1629   -9.1119 
 H                     0.9615    4.0233   -9.2804 
 H                    -0.5063    4.6388   -10.0161 
 H                    -0.2462    4.8526   -8.2722 
 C                    -0.2225    1.7791   -8.3186 
 H                    -0.8009    0.867    -8.1765 
 C                     1.1981    1.7164   -7.8222 
 H                     1.5049    2.7067   -7.4643 
 H                     1.2207    1.0573   -6.9454 
 
 ITRead=  0  0  0  0  0  0  0  0  0  0  0  0  0  0  0  0  0  0  0  0
 ITRead=  0  0  0  0  0  0  0  0
 MicOpt= -1 -1 -1 -1 -1 -1 -1 -1 -1 -1 -1 -1 -1 -1 -1 -1 -1 -1 -1 -1
 MicOpt= -1 -1 -1 -1 -1 -1 -1 -1
 NAtoms=     28 NQM=       28 NQMF=       0 NMMI=      0 NMMIF=      0
                NMic=       0 NMicF=      0.
                    Isotopes and Nuclear Properties:
 (Nuclear quadrupole moments (NQMom) in fm**2, nuclear magnetic moments (NMagM)
  in nuclear magnetons)

  Atom         1           2           3           4           5           6           7           8           9          10
 IAtWgt=          12           1           1          12          12           1           1           1          12           1
 AtmWgt=  12.0000000   1.0078250   1.0078250  12.0000000  12.0000000   1.0078250   1.0078250   1.0078250  12.0000000   1.0078250
 NucSpn=           0           1           1           0           0           1           1           1           0           1
 AtZEff=  -0.0000000  -0.0000000  -0.0000000  -0.0000000  -0.0000000  -0.0000000  -0.0000000  -0.0000000  -0.0000000  -0.0000000
 NQMom=    0.0000000   0.0000000   0.0000000   0.0000000   0.0000000   0.0000000   0.0000000   0.0000000   0.0000000   0.0000000
 NMagM=    0.0000000   2.7928460   2.7928460   0.0000000   0.0000000   2.7928460   2.7928460   2.7928460   0.0000000   2.7928460
 AtZNuc=   6.0000000   1.0000000   1.0000000   6.0000000   6.0000000   1.0000000   1.0000000   1.0000000   6.0000000   1.0000000

  Atom        11          12          13          14          15          16          17          18          19          20
 IAtWgt=          12           1           1           1          12           1           1           1          12          12
 AtmWgt=  12.0000000   1.0078250   1.0078250   1.0078250  12.0000000   1.0078250   1.0078250   1.0078250  12.0000000  12.0000000
 NucSpn=           0           1           1           1           0           1           1           1           0           0
 AtZEff=  -0.0000000  -0.0000000  -0.0000000  -0.0000000  -0.0000000  -0.0000000  -0.0000000  -0.0000000  -0.0000000  -0.0000000
 NQMom=    0.0000000   0.0000000   0.0000000   0.0000000   0.0000000   0.0000000   0.0000000   0.0000000   0.0000000   0.0000000
 NMagM=    0.0000000   2.7928460   2.7928460   2.7928460   0.0000000   2.7928460   2.7928460   2.7928460   0.0000000   0.0000000
 AtZNuc=   6.0000000   1.0000000   1.0000000   1.0000000   6.0000000   1.0000000   1.0000000   1.0000000   6.0000000   6.0000000

  Atom        21          22          23          24          25          26          27          28
 IAtWgt=           1           1           1          12           1          12           1           1
 AtmWgt=   1.0078250   1.0078250   1.0078250  12.0000000   1.0078250  12.0000000   1.0078250   1.0078250
 NucSpn=           1           1           1           0           1           0           1           1
 AtZEff=  -0.0000000  -0.0000000  -0.0000000  -0.0000000  -0.0000000  -0.0000000  -0.0000000  -0.0000000
 NQMom=    0.0000000   0.0000000   0.0000000   0.0000000   0.0000000   0.0000000   0.0000000   0.0000000
 NMagM=    2.7928460   2.7928460   2.7928460   0.0000000   2.7928460   0.0000000   2.7928460   2.7928460
 AtZNuc=   1.0000000   1.0000000   1.0000000   6.0000000   1.0000000   6.0000000   1.0000000   1.0000000
 Leave Link  101 at Fri Sep 17 20:09:26 2021, MaxMem=   524288000 cpu:               0.3 elap:               0.3
 (Enter /opt/gaussian/g16_legacy/l103.exe)

 GradGradGradGradGradGradGradGradGradGradGradGradGradGradGradGradGradGrad
 Berny optimization.
 Initialization pass.
                           ----------------------------
                           !    Initial Parameters    !
                           ! (Angstroms and Degrees)  !
 --------------------------                            --------------------------
 ! Name  Definition              Value          Derivative Info.                !
 --------------------------------------------------------------------------------
 ! R1    R(1,2)                  1.098          estimate D2E/DX2                !
 ! R2    R(1,3)                  1.0986         estimate D2E/DX2                !
 ! R3    R(1,4)                  1.526          estimate D2E/DX2                !
 ! R4    R(1,26)                 1.5348         estimate D2E/DX2                !
 ! R5    R(4,5)                  1.5086         estimate D2E/DX2                !
 ! R6    R(4,9)                  1.3488         estimate D2E/DX2                !
 ! R7    R(5,6)                  1.0935         estimate D2E/DX2                !
 ! R8    R(5,7)                  1.094          estimate D2E/DX2                !
 ! R9    R(5,8)                  1.0949         estimate D2E/DX2                !
 ! R10   R(9,10)                 1.0903         estimate D2E/DX2                !
 ! R11   R(9,11)                 1.496          estimate D2E/DX2                !
 ! R12   R(11,12)                1.0915         estimate D2E/DX2                !
 ! R13   R(11,13)                1.0941         estimate D2E/DX2                !
 ! R14   R(11,14)                1.0942         estimate D2E/DX2                !
 ! R15   R(15,16)                1.0952         estimate D2E/DX2                !
 ! R16   R(15,17)                1.0954         estimate D2E/DX2                !
 ! R17   R(15,18)                1.0947         estimate D2E/DX2                !
 ! R18   R(15,19)                1.5033         estimate D2E/DX2                !
 ! R19   R(19,20)                1.5048         estimate D2E/DX2                !
 ! R20   R(19,24)                1.3465         estimate D2E/DX2                !
 ! R21   R(20,21)                1.0944         estimate D2E/DX2                !
 ! R22   R(20,22)                1.0957         estimate D2E/DX2                !
 ! R23   R(20,23)                1.095          estimate D2E/DX2                !
 ! R24   R(24,25)                1.0893         estimate D2E/DX2                !
 ! R25   R(24,26)                1.5061         estimate D2E/DX2                !
 ! R26   R(26,27)                1.0968         estimate D2E/DX2                !
 ! R27   R(26,28)                1.0971         estimate D2E/DX2                !
 ! A1    A(2,1,3)              106.6267         estimate D2E/DX2                !
 ! A2    A(2,1,4)              108.2343         estimate D2E/DX2                !
 ! A3    A(2,1,26)             108.4659         estimate D2E/DX2                !
 ! A4    A(3,1,4)              107.4957         estimate D2E/DX2                !
 ! A5    A(3,1,26)             108.7366         estimate D2E/DX2                !
 ! A6    A(4,1,26)             116.8337         estimate D2E/DX2                !
 ! A7    A(1,4,5)              113.3328         estimate D2E/DX2                !
 ! A8    A(1,4,9)              123.949          estimate D2E/DX2                !
 ! A9    A(5,4,9)              122.7132         estimate D2E/DX2                !
 ! A10   A(4,5,6)              112.2761         estimate D2E/DX2                !
 ! A11   A(4,5,7)              110.8834         estimate D2E/DX2                !
 ! A12   A(4,5,8)              110.1324         estimate D2E/DX2                !
 ! A13   A(6,5,7)              106.2338         estimate D2E/DX2                !
 ! A14   A(6,5,8)              109.0711         estimate D2E/DX2                !
 ! A15   A(7,5,8)              108.0848         estimate D2E/DX2                !
 ! A16   A(4,9,10)             119.5971         estimate D2E/DX2                !
 ! A17   A(4,9,11)             127.8737         estimate D2E/DX2                !
 ! A18   A(10,9,11)            112.512          estimate D2E/DX2                !
 ! A19   A(9,11,12)            113.6845         estimate D2E/DX2                !
 ! A20   A(9,11,13)            109.3031         estimate D2E/DX2                !
 ! A21   A(9,11,14)            109.6863         estimate D2E/DX2                !
 ! A22   A(12,11,13)           107.5792         estimate D2E/DX2                !
 ! A23   A(12,11,14)           108.2825         estimate D2E/DX2                !
 ! A24   A(13,11,14)           108.1472         estimate D2E/DX2                !
 ! A25   A(16,15,17)           107.614          estimate D2E/DX2                !
 ! A26   A(16,15,18)           107.7933         estimate D2E/DX2                !
 ! A27   A(16,15,19)           112.2684         estimate D2E/DX2                !
 ! A28   A(17,15,18)           108.5891         estimate D2E/DX2                !
 ! A29   A(17,15,19)           110.0769         estimate D2E/DX2                !
 ! A30   A(18,15,19)           110.3774         estimate D2E/DX2                !
 ! A31   A(15,19,20)           115.028          estimate D2E/DX2                !
 ! A32   A(15,19,24)           121.2992         estimate D2E/DX2                !
 ! A33   A(20,19,24)           123.6725         estimate D2E/DX2                !
 ! A34   A(19,20,21)           112.4055         estimate D2E/DX2                !
 ! A35   A(19,20,22)           110.6094         estimate D2E/DX2                !
 ! A36   A(19,20,23)           110.311          estimate D2E/DX2                !
 ! A37   A(21,20,22)           106.381          estimate D2E/DX2                !
 ! A38   A(21,20,23)           108.6361         estimate D2E/DX2                !
 ! A39   A(22,20,23)           108.3378         estimate D2E/DX2                !
 ! A40   A(19,24,25)           119.2909         estimate D2E/DX2                !
 ! A41   A(19,24,26)           125.5952         estimate D2E/DX2                !
 ! A42   A(25,24,26)           115.0215         estimate D2E/DX2                !
 ! A43   A(1,26,24)            112.7788         estimate D2E/DX2                !
 ! A44   A(1,26,27)            110.5422         estimate D2E/DX2                !
 ! A45   A(1,26,28)            109.821          estimate D2E/DX2                !
 ! A46   A(24,26,27)           109.4999         estimate D2E/DX2                !
 ! A47   A(24,26,28)           107.9287         estimate D2E/DX2                !
 ! A48   A(27,26,28)           106.0144         estimate D2E/DX2                !
 ! D1    D(2,1,4,5)             59.6971         estimate D2E/DX2                !
 ! D2    D(2,1,4,9)           -121.0968         estimate D2E/DX2                !
 ! D3    D(3,1,4,5)            -55.1199         estimate D2E/DX2                !
 ! D4    D(3,1,4,9)            124.0862         estimate D2E/DX2                !
 ! D5    D(26,1,4,5)          -177.5928         estimate D2E/DX2                !
 ! D6    D(26,1,4,9)             1.6133         estimate D2E/DX2                !
 ! D7    D(2,1,26,24)          -62.6629         estimate D2E/DX2                !
 ! D8    D(2,1,26,27)          174.382          estimate D2E/DX2                !
 ! D9    D(2,1,26,28)           57.7519         estimate D2E/DX2                !
 ! D10   D(3,1,26,24)           52.92           estimate D2E/DX2                !
 ! D11   D(3,1,26,27)          -70.0351         estimate D2E/DX2                !
 ! D12   D(3,1,26,28)          173.3348         estimate D2E/DX2                !
 ! D13   D(4,1,26,24)          174.7469         estimate D2E/DX2                !
 ! D14   D(4,1,26,27)           51.7918         estimate D2E/DX2                !
 ! D15   D(4,1,26,28)          -64.8383         estimate D2E/DX2                !
 ! D16   D(1,4,5,6)           -148.1795         estimate D2E/DX2                !
 ! D17   D(1,4,5,7)            -29.5178         estimate D2E/DX2                !
 ! D18   D(1,4,5,8)             90.0687         estimate D2E/DX2                !
 ! D19   D(9,4,5,6)             32.6032         estimate D2E/DX2                !
 ! D20   D(9,4,5,7)            151.2649         estimate D2E/DX2                !
 ! D21   D(9,4,5,8)            -89.1486         estimate D2E/DX2                !
 ! D22   D(1,4,9,10)             1.3677         estimate D2E/DX2                !
 ! D23   D(1,4,9,11)          -177.0057         estimate D2E/DX2                !
 ! D24   D(5,4,9,10)          -179.4987         estimate D2E/DX2                !
 ! D25   D(5,4,9,11)             2.1279         estimate D2E/DX2                !
 ! D26   D(4,9,11,12)            1.2911         estimate D2E/DX2                !
 ! D27   D(4,9,11,13)          121.4955         estimate D2E/DX2                !
 ! D28   D(4,9,11,14)         -120.0922         estimate D2E/DX2                !
 ! D29   D(10,9,11,12)        -177.1779         estimate D2E/DX2                !
 ! D30   D(10,9,11,13)         -56.9735         estimate D2E/DX2                !
 ! D31   D(10,9,11,14)          61.4388         estimate D2E/DX2                !
 ! D32   D(16,15,19,20)       -177.298          estimate D2E/DX2                !
 ! D33   D(16,15,19,24)          2.8887         estimate D2E/DX2                !
 ! D34   D(17,15,19,20)        -57.4429         estimate D2E/DX2                !
 ! D35   D(17,15,19,24)        122.7439         estimate D2E/DX2                !
 ! D36   D(18,15,19,20)         62.4132         estimate D2E/DX2                !
 ! D37   D(18,15,19,24)       -117.4001         estimate D2E/DX2                !
 ! D38   D(15,19,20,21)       -153.7379         estimate D2E/DX2                !
 ! D39   D(15,19,20,22)        -34.9901         estimate D2E/DX2                !
 ! D40   D(15,19,20,23)         84.8517         estimate D2E/DX2                !
 ! D41   D(24,19,20,21)         26.0704         estimate D2E/DX2                !
 ! D42   D(24,19,20,22)        144.8182         estimate D2E/DX2                !
 ! D43   D(24,19,20,23)        -95.34           estimate D2E/DX2                !
 ! D44   D(15,19,24,25)          1.3677         estimate D2E/DX2                !
 ! D45   D(15,19,24,26)       -174.9549         estimate D2E/DX2                !
 ! D46   D(20,19,24,25)       -178.429          estimate D2E/DX2                !
 ! D47   D(20,19,24,26)          5.2484         estimate D2E/DX2                !
 ! D48   D(19,24,26,1)         -94.6214         estimate D2E/DX2                !
 ! D49   D(19,24,26,27)         28.9132         estimate D2E/DX2                !
 ! D50   D(19,24,26,28)        143.8851         estimate D2E/DX2                !
 ! D51   D(25,24,26,1)          88.9179         estimate D2E/DX2                !
 ! D52   D(25,24,26,27)       -147.5476         estimate D2E/DX2                !
 ! D53   D(25,24,26,28)        -32.5756         estimate D2E/DX2                !
 --------------------------------------------------------------------------------
 Trust Radius=3.00D-01 FncErr=1.00D-07 GrdErr=1.00D-07 EigMax=2.50D+02 EigMin=1.00D-04
 Number of steps in this run=    138 maximum allowed number of steps=    168.
 GradGradGradGradGradGradGradGradGradGradGradGradGradGradGradGradGradGrad

 Leave Link  103 at Fri Sep 17 20:09:26 2021, MaxMem=   524288000 cpu:               0.0 elap:               0.0
 (Enter /opt/gaussian/g16_legacy/l202.exe)
                          Input orientation:                          
 ---------------------------------------------------------------------
 Center     Atomic      Atomic             Coordinates (Angstroms)
 Number     Number       Type             X           Y           Z
 ---------------------------------------------------------------------
      1          6           0        2.177100    1.201100   -8.886000
      2          1           0        1.897800    0.171600   -9.146100
      3          1           0        2.054100    1.800300   -9.798600
      4          6           0        3.659300    1.216600   -8.523300
      5          6           0        4.553700    0.748600   -9.644400
      6          1           0        5.450600    0.243300   -9.275700
      7          1           0        4.035200    0.025600  -10.281000
      8          1           0        4.852200    1.597700  -10.267800
      9          6           0        4.138400    1.621700   -7.329300
     10          1           0        3.444900    1.942300   -6.551500
     11          6           0        5.568100    1.731200   -6.902600
     12          1           0        6.280800    1.461200   -7.684000
     13          1           0        5.778800    2.762800   -6.605300
     14          1           0        5.745300    1.084400   -6.038000
     15          6           0       -2.281400    2.852200   -9.204900
     16          1           0       -2.765100    1.904200   -8.946500
     17          1           0       -2.808900    3.649900   -8.670700
     18          1           0       -2.407800    3.009900  -10.280800
     19          6           0       -0.822700    2.865000   -8.841800
     20          6           0       -0.110800    4.162900   -9.111900
     21          1           0        0.961500    4.023300   -9.280400
     22          1           0       -0.506300    4.638800  -10.016100
     23          1           0       -0.246200    4.852600   -8.272200
     24          6           0       -0.222500    1.779100   -8.318600
     25          1           0       -0.800900    0.867000   -8.176500
     26          6           0        1.198100    1.716400   -7.822200
     27          1           0        1.504900    2.706700   -7.464300
     28          1           0        1.220700    1.057300   -6.945400
 ---------------------------------------------------------------------
                    Distance matrix (angstroms):
                    1          2          3          4          5
     1  C    0.000000
     2  H    1.097967   0.000000
     3  H    1.098639   1.761491   0.000000
     4  C    1.526011   2.140745   2.131610   0.000000
     5  C    2.535381   2.763157   2.716220   1.508589   0.000000
     6  H    3.432936   3.555886   3.772782   2.173056   1.093479
     7  H    2.603913   2.424416   2.703151   2.156221   1.093998
     8  H    3.036910   3.467052   2.844391   2.147447   1.094852
     9  C    2.539078   3.228597   3.236301   1.348806   2.508877
    10  H    2.758004   3.501549   3.535272   2.112014   3.495767
    11  C    3.964059   4.575669   4.554096   2.556364   3.084149
    12  H    4.284018   4.797030   4.738303   2.763425   2.708107
    13  H    4.540126   5.313393   4.999696   3.249883   3.846297
    14  H    4.566922   5.029587   5.317855   3.247397   3.812977
    15  C    4.765087   4.965359   4.500615   6.199329   7.164976
    16  H    4.992329   4.978391   4.895054   6.474937   7.442265
    17  H    5.559062   5.871763   5.323716   6.912329   7.973300
    18  H    5.122356   5.280311   4.648032   6.566158   7.347174
    19  C    3.430644   3.840328   3.213259   4.786125   5.833437
    20  C    3.749370   4.468346   3.277229   4.820870   5.805046
    21  H    3.098072   3.966143   2.530619   3.965966   4.874429
    22  H    4.505057   5.147084   3.828843   5.593937   6.393389
    23  H    4.425222   5.222279   4.115557   5.341954   6.462568
    24  C    2.532609   2.786482   2.715466   3.927681   5.062782
    25  H    3.079529   2.950710   3.413690   4.487301   5.553421
    26  C    1.534811   2.151441   2.155442   2.607460   3.939175
    27  H    2.177135   3.067500   2.563618   2.825477   4.228732
    28  H    2.168250   2.466984   3.063879   2.908937   4.299859
                    6          7          8          9         10
     6  H    0.000000
     7  H    1.749680   0.000000
     8  H    1.782342   1.771768   0.000000
     9  C    2.722192   3.357189   3.024048   0.000000
    10  H    3.785591   4.234544   3.988750   1.090275   0.000000
    11  C    2.803437   4.083190   3.443095   1.496030   2.162363
    12  H    2.169337   3.721300   2.955597   2.177487   3.091333
    13  H    3.686005   4.903384   3.953473   2.125370   2.474511
    14  H    3.358124   4.695588   4.353425   2.130323   2.508289
    15  C    8.160588   7.003363   7.320640   6.800429   6.376438
    16  H    8.388366   7.180119   7.737121   7.096017   6.655943
    17  H    8.954903   7.910140   8.090408   7.360566   6.820331
    18  H    8.391588   7.100584   7.396085   7.313767   7.021506
    19  C    6.812920   5.807984   5.986987   5.333476   4.930442
    20  C    6.805826   5.972718   5.705061   5.262230   4.912201
    21  H    5.868598   5.141054   4.689994   4.434768   4.236122
    22  H    7.439978   6.478967   6.166455   6.155893   5.906483
    23  H    7.396363   6.757632   6.369496   5.527431   5.005484
    24  C    5.954728   5.005376   5.439197   4.474476   4.074199
    25  H    6.377969   5.340855   6.071655   5.067939   4.671586
    26  C    4.729317   4.117480   4.398579   2.982831   2.591104
    27  H    4.991799   4.639452   4.504876   2.851451   2.276205
    28  H    4.897443   4.484645   4.951582   2.996481   2.425994
                   11         12         13         14         15
    11  C    0.000000
    12  H    1.091525   0.000000
    13  H    1.094066   1.763451   0.000000
    14  H    1.094204   1.771455   1.771998   0.000000
    15  C    8.256626   8.806775   8.469518   8.808081   0.000000
    16  H    8.581939   9.144313   8.900373   9.030966   1.095190
    17  H    8.773923   9.401416   8.877016   9.310598   1.095423
    18  H    8.755700   9.199653   8.977237   9.390524   1.094718
    19  C    6.774092   7.332862   6.970809   7.360058   1.503267
    20  C    6.560798   7.084535   6.552153   7.295199   2.537339
    21  H    5.668194   6.116192   5.652557   6.483443   3.448706
    22  H    7.419323   7.848602   7.392930   8.218366   2.645934
    23  H    6.739809   7.378977   6.591392   7.422200   3.002261
    24  C    5.961409   6.541918   6.318122   6.426382   2.485184
    25  H    6.552391   7.123630   7.025324   6.890078   2.681512
    26  C    4.465734   5.090979   4.853721   4.925426   3.912649
    27  H    4.216243   4.940522   4.359730   4.758905   4.169763
    28  H    4.399529   5.129647   4.878593   4.614771   4.537809
                   16         17         18         19         20
    16  H    0.000000
    17  H    1.767895   0.000000
    18  H    1.769348   1.778455   0.000000
    19  C    2.169566   2.142506   2.145754   0.000000
    20  C    3.489182   2.781649   2.823463   1.504759   0.000000
    21  H    4.299956   3.837587   3.657863   2.171957   1.094398
    22  H    3.704627   2.844291   2.517754   2.150687   1.095664
    23  H    3.936064   2.858797   3.478869   2.146474   1.095041
    24  C    2.621969   3.211438   3.184436   1.346535   2.514817
    25  H    2.350907   3.467107   3.406204   2.105969   3.494877
    26  C    4.123866   4.529285   4.551963   2.538208   3.059723
    27  H    4.590623   4.577543   4.830510   2.709296   2.728661
    28  H    4.539630   5.092731   5.301278   3.322589   4.013897
                   21         22         23         24         25
    21  H    0.000000
    22  H    1.753434   0.000000
    23  H    1.778411   1.776105   0.000000
    24  C    2.713549   3.337654   3.073942   0.000000
    25  H    3.779799   4.206827   4.025153   1.089342   0.000000
    26  C    2.739364   4.032195   3.481990   1.506137   2.200684
    27  H    2.308016   3.780161   2.885124   2.138734   3.034541
    28  H    3.783724   5.023830   4.279778   2.118844   2.374592
                   26         27         28
    26  C    0.000000
    27  H    1.096774   0.000000
    28  H    1.097133   1.752298   0.000000
 Stoichiometry    C10H18
 Framework group  C1[X(C10H18)]
 Deg. of freedom    78
 Full point group                 C1      NOp   1
 Largest Abelian subgroup         C1      NOp   1
 Largest concise Abelian subgroup C1      NOp   1
                         Standard orientation:                         
 ---------------------------------------------------------------------
 Center     Atomic      Atomic             Coordinates (Angstroms)
 Number     Number       Type             X           Y           Z
 ---------------------------------------------------------------------
      1          6           0        0.505474    0.807532   -0.245008
      2          1           0        0.472518    1.658804   -0.937670
      3          1           0        0.086119    1.160555    0.707107
      4          6           0        1.968139    0.449696    0.002522
      5          6           0        2.767376    1.581404    0.599428
      6          1           0        3.812606    1.564995    0.278611
      7          1           0        2.366398    2.549783    0.285919
      8          1           0        2.727930    1.535020    1.692586
      9          6           0        2.503539   -0.759075   -0.264874
     10          1           0        1.880709   -1.538600   -0.704329
     11          6           0        3.901332   -1.222951   -0.002003
     12          1           0        4.528417   -0.472620    0.482966
     13          1           0        3.874312   -2.101834    0.649007
     14          1           0        4.377359   -1.511199   -0.944125
     15          6           0       -4.224200    0.229983   -0.193293
     16          1           0       -4.391900    0.632154   -1.198070
     17          1           0       -4.854100   -0.659385   -0.082835
     18          1           0       -4.555107    0.983794    0.528286
     19          6           0       -2.783108   -0.125500    0.044816
     20          6           0       -2.493139   -0.743996    1.385592
     21          1           0       -1.462498   -0.571169    1.710579
     22          1           0       -3.137623   -0.309916    2.158052
     23          1           0       -2.673451   -1.823603    1.353163
     24          6           0       -1.841612    0.107371   -0.889268
     25          1           0       -2.127174    0.582853   -1.826838
     26          6           0       -0.395792   -0.304702   -0.798455
     27          1           0       -0.310921   -1.209844   -0.184917
     28          1           0       -0.061640   -0.588363   -1.804228
 ---------------------------------------------------------------------
 Rotational constants (GHZ):           2.8491238           0.4726827           0.4574493
 Leave Link  202 at Fri Sep 17 20:09:26 2021, MaxMem=   524288000 cpu:               0.0 elap:               0.0
 (Enter /opt/gaussian/g16_legacy/l301.exe)
 Standard basis: 6-31G(d,p) (6D, 7F)
 Ernie: Thresh=  0.10000D-02 Tol=  0.10000D-05 Strict=F.
 There are   240 symmetry adapted cartesian basis functions of A   symmetry.
 There are   240 symmetry adapted basis functions of A   symmetry.
   240 basis functions,   406 primitive gaussians,   240 cartesian basis functions
    39 alpha electrons       39 beta electrons
       nuclear repulsion energy       510.4935524169 Hartrees.
 IExCor=    0 DFT=F Ex=HF Corr=None ExCW=0 ScaHFX=  1.000000
 ScaDFX=  1.000000  1.000000  1.000000  1.000000 ScalE2=  1.000000  1.000000
 IRadAn=      5 IRanWt=     -1 IRanGd=            0 ICorTp=0 IEmpDi=  4
 NAtoms=   28 NActive=   28 NUniq=   28 SFac= 1.00D+00 NAtFMM=   60 NAOKFM=F Big=F
 Integral buffers will be    131072 words long.
 Raffenetti 1 integral format.
 Two-electron integral symmetry is turned on.
 Leave Link  301 at Fri Sep 17 20:09:26 2021, MaxMem=   524288000 cpu:               0.1 elap:               0.1
 (Enter /opt/gaussian/g16_legacy/l302.exe)
 NPDir=0 NMtPBC=     1 NCelOv=     1 NCel=       1 NClECP=     1 NCelD=      1
         NCelK=      1 NCelE2=     1 NClLst=     1 CellRange=     0.0.
 One-electron integrals computed using PRISM.
 One-electron integral symmetry used in STVInt
 NBasis=   240 RedAO= T EigKep=  2.14D-03  NBF=   240
 NBsUse=   240 1.00D-06 EigRej= -1.00D+00 NBFU=   240
 Leave Link  302 at Fri Sep 17 20:09:27 2021, MaxMem=   524288000 cpu:               0.3 elap:               0.3
 (Enter /opt/gaussian/g16_legacy/l303.exe)
 DipDrv:  MaxL=1.
 Leave Link  303 at Fri Sep 17 20:09:27 2021, MaxMem=   524288000 cpu:               0.1 elap:               0.2
 (Enter /opt/gaussian/g16_legacy/l401.exe)
 ExpMin= 1.61D-01 ExpMax= 3.05D+03 ExpMxC= 4.57D+02 IAcc=3 IRadAn=         5 AccDes= 0.00D+00
 Harris functional with IExCor=  205 and IRadAn=       5 diagonalized for initial guess.
 HarFok:  IExCor=  205 AccDes= 0.00D+00 IRadAn=         5 IDoV= 1 UseB2=F ITyADJ=14
 ICtDFT=  3500011 ScaDFX=  1.000000  1.000000  1.000000  1.000000
 FoFCou: FMM=F IPFlag=           0 FMFlag=      100000 FMFlg1=           0
         NFxFlg=           0 DoJE=T BraDBF=F KetDBF=T FulRan=T
         wScrn=  0.000000 ICntrl=       500 IOpCl=  0 I1Cent=   200000004 NGrid=           0
         NMat0=    1 NMatS0=      1 NMatT0=    0 NMatD0=    1 NMtDS0=    0 NMtDT0=    0
 Petite list used in FoFCou.
 Harris En= -390.107451827119    
 JPrj=0 DoOrth=F DoCkMO=F.
 Leave Link  401 at Fri Sep 17 20:09:38 2021, MaxMem=   524288000 cpu:              10.8 elap:              11.0
 (Enter /opt/gaussian/g16_legacy/l502.exe)
 Keep R1 ints in memory in canonical form, NReq=425198025.
 FoFCou: FMM=F IPFlag=           0 FMFlag=           0 FMFlg1=           0
         NFxFlg=           0 DoJE=F BraDBF=F KetDBF=F FulRan=T
         wScrn=  0.000000 ICntrl=       600 IOpCl=  0 I1Cent=           0 NGrid=           0
         NMat0=    1 NMatS0=  28920 NMatT0=    0 NMatD0=    1 NMtDS0=    0 NMtDT0=    0
 Symmetry not used in FoFCou.
 Two-electron integral symmetry not used.
 Closed shell SCF:
 Using DIIS extrapolation, IDIIS=  1040.
 NGot=   524288000 LenX=   105970886 LenY=   105912845
 Requested convergence on RMS density matrix=1.00D-08 within 128 cycles.
 Requested convergence on MAX density matrix=1.00D-06.
 Requested convergence on             energy=1.00D-06.
 No special actions if energy rises.

 Cycle   1  Pass 1  IDiag  1:
 E= -388.530633565271    
 DIIS: error= 4.72D-02 at cycle   1 NSaved=   1.
 NSaved= 1 IEnMin= 1 EnMin= -388.530633565271     IErMin= 1 ErrMin= 4.72D-02
 ErrMax= 4.72D-02  0.00D+00 EMaxC= 1.00D-01 BMatC= 8.07D-01 BMatP= 8.07D-01
 IDIUse=3 WtCom= 5.28D-01 WtEn= 4.72D-01
 Coeff-Com:  0.100D+01
 Coeff-En:   0.100D+01
 Coeff:      0.100D+01
 Gap=     0.521 Goal=   None    Shift=    0.000
 GapD=    0.521 DampG=2.000 DampE=0.500 DampFc=1.0000 IDamp=-1.
 RMSDP=4.02D-03 MaxDP=1.15D-01              OVMax= 1.34D-01

 Cycle   2  Pass 1  IDiag  1:
 E= -389.071991367712     Delta-E=       -0.541357802441 Rises=F Damp=F
 DIIS: error= 1.11D-02 at cycle   2 NSaved=   2.
 NSaved= 2 IEnMin= 2 EnMin= -389.071991367712     IErMin= 2 ErrMin= 1.11D-02
 ErrMax= 1.11D-02  0.00D+00 EMaxC= 1.00D-01 BMatC= 8.53D-02 BMatP= 8.07D-01
 IDIUse=3 WtCom= 8.89D-01 WtEn= 1.11D-01
 Coeff-Com:  0.181D+00 0.819D+00
 Coeff-En:   0.000D+00 0.100D+01
 Coeff:      0.161D+00 0.839D+00
 Gap=     0.564 Goal=   None    Shift=    0.000
 RMSDP=1.59D-03 MaxDP=3.05D-02 DE=-5.41D-01 OVMax= 4.42D-02

 Cycle   3  Pass 1  IDiag  1:
 E= -389.148438883011     Delta-E=       -0.076447515299 Rises=F Damp=F
 DIIS: error= 2.88D-03 at cycle   3 NSaved=   3.
 NSaved= 3 IEnMin= 3 EnMin= -389.148438883011     IErMin= 3 ErrMin= 2.88D-03
 ErrMax= 2.88D-03  0.00D+00 EMaxC= 1.00D-01 BMatC= 2.64D-03 BMatP= 8.53D-02
 IDIUse=3 WtCom= 9.71D-01 WtEn= 2.88D-02
 Coeff-Com: -0.249D-01 0.922D-01 0.933D+00
 Coeff-En:   0.000D+00 0.000D+00 0.100D+01
 Coeff:     -0.241D-01 0.896D-01 0.935D+00
 Gap=     0.507 Goal=   None    Shift=    0.000
 RMSDP=2.41D-04 MaxDP=5.92D-03 DE=-7.64D-02 OVMax= 9.05D-03

 Cycle   4  Pass 1  IDiag  1:
 E= -389.151574225275     Delta-E=       -0.003135342265 Rises=F Damp=F
 DIIS: error= 3.29D-04 at cycle   4 NSaved=   4.
 NSaved= 4 IEnMin= 4 EnMin= -389.151574225275     IErMin= 4 ErrMin= 3.29D-04
 ErrMax= 3.29D-04  0.00D+00 EMaxC= 1.00D-01 BMatC= 7.14D-05 BMatP= 2.64D-03
 IDIUse=3 WtCom= 9.97D-01 WtEn= 3.29D-03
 Coeff-Com: -0.235D-02-0.892D-02 0.324D-01 0.979D+00
 Coeff-En:   0.000D+00 0.000D+00 0.000D+00 0.100D+01
 Coeff:     -0.235D-02-0.889D-02 0.323D-01 0.979D+00
 Gap=     0.507 Goal=   None    Shift=    0.000
 RMSDP=7.24D-05 MaxDP=1.73D-03 DE=-3.14D-03 OVMax= 2.92D-03

 Cycle   5  Pass 1  IDiag  1:
 E= -389.151679432674     Delta-E=       -0.000105207399 Rises=F Damp=F
 DIIS: error= 1.42D-04 at cycle   5 NSaved=   5.
 NSaved= 5 IEnMin= 5 EnMin= -389.151679432674     IErMin= 5 ErrMin= 1.42D-04
 ErrMax= 1.42D-04  0.00D+00 EMaxC= 1.00D-01 BMatC= 1.49D-05 BMatP= 7.14D-05
 IDIUse=3 WtCom= 9.99D-01 WtEn= 1.42D-03
 Coeff-Com:  0.241D-02-0.142D-01-0.103D+00 0.236D+00 0.879D+00
 Coeff-En:   0.000D+00 0.000D+00 0.000D+00 0.000D+00 0.100D+01
 Coeff:      0.241D-02-0.141D-01-0.103D+00 0.236D+00 0.879D+00
 Gap=     0.508 Goal=   None    Shift=    0.000
 RMSDP=2.65D-05 MaxDP=6.64D-04 DE=-1.05D-04 OVMax= 8.66D-04

 Cycle   6  Pass 1  IDiag  1:
 E= -389.151698222384     Delta-E=       -0.000018789710 Rises=F Damp=F
 DIIS: error= 3.22D-05 at cycle   6 NSaved=   6.
 NSaved= 6 IEnMin= 6 EnMin= -389.151698222384     IErMin= 6 ErrMin= 3.22D-05
 ErrMax= 3.22D-05  0.00D+00 EMaxC= 1.00D-01 BMatC= 5.02D-07 BMatP= 1.49D-05
 IDIUse=1 WtCom= 1.00D+00 WtEn= 0.00D+00
 Coeff-Com:  0.637D-03-0.265D-02-0.229D-01-0.577D-02 0.155D+00 0.875D+00
 Coeff:      0.637D-03-0.265D-02-0.229D-01-0.577D-02 0.155D+00 0.875D+00
 Gap=     0.508 Goal=   None    Shift=    0.000
 RMSDP=5.31D-06 MaxDP=1.64D-04 DE=-1.88D-05 OVMax= 3.20D-04

 Cycle   7  Pass 1  IDiag  1:
 E= -389.151699052676     Delta-E=       -0.000000830292 Rises=F Damp=F
 DIIS: error= 1.14D-05 at cycle   7 NSaved=   7.
 NSaved= 7 IEnMin= 7 EnMin= -389.151699052676     IErMin= 7 ErrMin= 1.14D-05
 ErrMax= 1.14D-05  0.00D+00 EMaxC= 1.00D-01 BMatC= 4.74D-08 BMatP= 5.02D-07
 IDIUse=1 WtCom= 1.00D+00 WtEn= 0.00D+00
 Coeff-Com: -0.742D-04 0.509D-03 0.390D-02-0.119D-01-0.491D-01 0.103D+00
 Coeff-Com:  0.954D+00
 Coeff:     -0.742D-04 0.509D-03 0.390D-02-0.119D-01-0.491D-01 0.103D+00
 Coeff:      0.954D+00
 Gap=     0.508 Goal=   None    Shift=    0.000
 RMSDP=1.69D-06 MaxDP=3.84D-05 DE=-8.30D-07 OVMax= 8.20D-05

 Cycle   8  Pass 1  IDiag  1:
 E= -389.151699138230     Delta-E=       -0.000000085554 Rises=F Damp=F
 DIIS: error= 3.04D-06 at cycle   8 NSaved=   8.
 NSaved= 8 IEnMin= 8 EnMin= -389.151699138230     IErMin= 8 ErrMin= 3.04D-06
 ErrMax= 3.04D-06  0.00D+00 EMaxC= 1.00D-01 BMatC= 5.56D-09 BMatP= 4.74D-08
 IDIUse=1 WtCom= 1.00D+00 WtEn= 0.00D+00
 Coeff-Com: -0.609D-04 0.238D-03 0.222D-02 0.306D-02-0.201D-01-0.862D-01
 Coeff-Com: -0.895D-01 0.119D+01
 Coeff:     -0.609D-04 0.238D-03 0.222D-02 0.306D-02-0.201D-01-0.862D-01
 Coeff:     -0.895D-01 0.119D+01
 Gap=     0.508 Goal=   None    Shift=    0.000
 RMSDP=7.94D-07 MaxDP=2.10D-05 DE=-8.56D-08 OVMax= 6.43D-05

 Cycle   9  Pass 1  IDiag  1:
 E= -389.151699155775     Delta-E=       -0.000000017545 Rises=F Damp=F
 DIIS: error= 1.33D-06 at cycle   9 NSaved=   9.
 NSaved= 9 IEnMin= 9 EnMin= -389.151699155775     IErMin= 9 ErrMin= 1.33D-06
 ErrMax= 1.33D-06  0.00D+00 EMaxC= 1.00D-01 BMatC= 8.21D-10 BMatP= 5.56D-09
 IDIUse=1 WtCom= 1.00D+00 WtEn= 0.00D+00
 Coeff-Com:  0.163D-04-0.958D-04-0.773D-03 0.179D-02 0.595D-02 0.565D-02
 Coeff-Com: -0.114D+00-0.171D+00 0.127D+01
 Coeff:      0.163D-04-0.958D-04-0.773D-03 0.179D-02 0.595D-02 0.565D-02
 Coeff:     -0.114D+00-0.171D+00 0.127D+01
 Gap=     0.508 Goal=   None    Shift=    0.000
 RMSDP=3.59D-07 MaxDP=8.85D-06 DE=-1.75D-08 OVMax= 2.92D-05

 Cycle  10  Pass 1  IDiag  1:
 E= -389.151699158519     Delta-E=       -0.000000002744 Rises=F Damp=F
 DIIS: error= 4.22D-07 at cycle  10 NSaved=  10.
 NSaved=10 IEnMin=10 EnMin= -389.151699158519     IErMin=10 ErrMin= 4.22D-07
 ErrMax= 4.22D-07  0.00D+00 EMaxC= 1.00D-01 BMatC= 6.14D-11 BMatP= 8.21D-10
 IDIUse=1 WtCom= 1.00D+00 WtEn= 0.00D+00
 Coeff-Com:  0.634D-05-0.264D-04-0.239D-03-0.183D-03 0.147D-02 0.110D-01
 Coeff-Com:  0.106D-01-0.130D+00-0.511D-02 0.111D+01
 Coeff:      0.634D-05-0.264D-04-0.239D-03-0.183D-03 0.147D-02 0.110D-01
 Coeff:      0.106D-01-0.130D+00-0.511D-02 0.111D+01
 Gap=     0.508 Goal=   None    Shift=    0.000
 RMSDP=9.66D-08 MaxDP=2.76D-06 DE=-2.74D-09 OVMax= 8.14D-06

 Cycle  11  Pass 1  IDiag  1:
 E= -389.151699158720     Delta-E=       -0.000000000201 Rises=F Damp=F
 DIIS: error= 1.01D-07 at cycle  11 NSaved=  11.
 NSaved=11 IEnMin=11 EnMin= -389.151699158720     IErMin=11 ErrMin= 1.01D-07
 ErrMax= 1.01D-07  0.00D+00 EMaxC= 1.00D-01 BMatC= 4.59D-12 BMatP= 6.14D-11
 IDIUse=1 WtCom= 1.00D+00 WtEn= 0.00D+00
 Coeff-Com: -0.109D-05 0.693D-05 0.561D-04-0.129D-03-0.563D-03-0.337D-04
 Coeff-Com:  0.941D-02 0.960D-02-0.108D+00 0.258D-01 0.106D+01
 Coeff:     -0.109D-05 0.693D-05 0.561D-04-0.129D-03-0.563D-03-0.337D-04
 Coeff:      0.941D-02 0.960D-02-0.108D+00 0.258D-01 0.106D+01
 Gap=     0.508 Goal=   None    Shift=    0.000
 RMSDP=2.45D-08 MaxDP=6.02D-07 DE=-2.01D-10 OVMax= 1.76D-06

 Cycle  12  Pass 1  IDiag  1:
 E= -389.151699158729     Delta-E=       -0.000000000009 Rises=F Damp=F
 DIIS: error= 2.48D-08 at cycle  12 NSaved=  12.
 NSaved=12 IEnMin=12 EnMin= -389.151699158729     IErMin=12 ErrMin= 2.48D-08
 ErrMax= 2.48D-08  0.00D+00 EMaxC= 1.00D-01 BMatC= 2.87D-13 BMatP= 4.59D-12
 IDIUse=1 WtCom= 1.00D+00 WtEn= 0.00D+00
 Coeff-Com: -0.557D-06 0.255D-05 0.225D-04 0.150D-04-0.173D-03-0.889D-03
 Coeff-Com: -0.485D-03 0.120D-01-0.295D-02-0.925D-01 0.433D-01 0.104D+01
 Coeff:     -0.557D-06 0.255D-05 0.225D-04 0.150D-04-0.173D-03-0.889D-03
 Coeff:     -0.485D-03 0.120D-01-0.295D-02-0.925D-01 0.433D-01 0.104D+01
 Gap=     0.508 Goal=   None    Shift=    0.000
 RMSDP=5.83D-09 MaxDP=1.34D-07 DE=-8.87D-12 OVMax= 2.90D-07

 SCF Done:  E(RHF) =  -389.151699159     A.U. after   12 cycles
            NFock= 12  Conv=0.58D-08     -V/T= 2.0014
 KE= 3.885948986856D+02 PE=-1.925660703900D+03 EE= 6.374205536390D+02
 Leave Link  502 at Fri Sep 17 20:10:17 2021, MaxMem=   524288000 cpu:              38.4 elap:              38.6
 (Enter /opt/gaussian/g16_legacy/l801.exe)
 ExpMin= 1.61D-01 ExpMax= 3.05D+03 ExpMxC= 4.57D+02 IAcc=3 IRadAn=         5 AccDes= 0.00D+00
 HarFok:  IExCor=  205 AccDes= 0.00D+00 IRadAn=         5 IDoV=-2 UseB2=F ITyADJ=14
 ICtDFT= 12500011 ScaDFX=  1.000000  1.000000  1.000000  1.000000
 Largest valence mixing into a core orbital is  1.99D-04
 Largest core mixing into a valence orbital is  3.51D-05
 Range of M.O.s used for correlation:    11   240
 NBasis=   240 NAE=    39 NBE=    39 NFC=    10 NFV=     0
 NROrb=    230 NOA=    29 NOB=    29 NVA=   201 NVB=   201
 Leave Link  801 at Fri Sep 17 20:10:18 2021, MaxMem=   524288000 cpu:               1.6 elap:               1.6
 (Enter /opt/gaussian/g16_legacy/l906.exe)
 Frozen-core derivative calculation, NFC=  10 NFV=   0.
 FulOut=F Deriv=T AODrv=T NAtomX=    28
   MMem=          91  MDisk=          29 MDiskD=          29
  W3Min=     2246400 MinDsk=     2795480 NBas6D=         240
 NBas2D=       29244    NTT=       28920    LW2=     2040000
    MDV=   523633000 MDiskM=       30187 NBas2p=       23650
 Fully direct method using O(ONN) memory.
 IMap=   1   2   3   4   5   6   7   8   9  10  11  12  13  14  15  16  17  18  19  20
 IMap=  21  22  23  24  25  26  27  28  29  30  31  32  33  34  35  36  37  38  39
 JobTyp=1 Pass  1:  I=  11 to  39 NPSUse=  1 ParTrn=F ParDer=F DoDerP=T.
 Spin components of T(2) and E(2):
     alpha-alpha T2 =       0.5710158892D-01 E2=     -0.1637482338D+00
     alpha-beta  T2 =       0.3619791467D+00 E2=     -0.1089530002D+01
     beta-beta   T2 =       0.5710158892D-01 E2=     -0.1637482338D+00
 The integrals were generated   1 times.
 ANorm=    0.1214982438D+01
 E2 =    -0.1417026470D+01 EUMP2 =    -0.39056872562848D+03
 Leave Link  906 at Fri Sep 17 20:15:03 2021, MaxMem=   524288000 cpu:             284.0 elap:             284.4
 (Enter /opt/gaussian/g16_legacy/l1002.exe)
 Minotr:  Closed shell wavefunction.
          Computing MP2/KS-MP2 derivatives.
          Using Z-Vector for PSCF gradient.
          Skipping F1 and S1 gradient terms here.
          IDoAtm=1111111111111111111111111111
          Frozen-core window.
          Direct CPHF calculation.
          Differentiating once with respect to electric field.
                with respect to dipole field.
          Differentiating once with respect to nuclear coordinates.
          Requested convergence is 1.0D-10 RMS, and 1.0D-09 maximum.
          NewPWx=F KeepS1=T KeepF1=T KeepIn=T MapXYZ=F SortEE=F KeepMc=T.
 Keep R1 ints in memory in canonical form, NReq=425201067.
 FoFCou: FMM=F IPFlag=           0 FMFlag=           0 FMFlg1=           0
         NFxFlg=           0 DoJE=F BraDBF=F KetDBF=F FulRan=T
         wScrn=  0.000000 ICntrl=       600 IOpCl=  0 I1Cent=           0 NGrid=           0
         NMat0=    1 NMatS0=  28920 NMatT0=    0 NMatD0=    1 NMtDS0=    0 NMtDT0=    0
 Symmetry not used in FoFCou.
 Two-electron integral symmetry not used.
          MDV=     524288000 using IRadAn=       5.
          Solving linear equations separately, MaxMat=       0.
          There are     1 degrees of freedom in the 1st order CPHF.  IDoFFX=0 NUNeed=     1.
 LinEq1:  Iter=  0 NonCon=     1 RMS=2.54D-03 Max=3.35D-02 NDo=     1
 AX will form     1 AO Fock derivatives at one time.
 LinEq1:  Iter=  1 NonCon=     1 RMS=6.87D-04 Max=9.48D-03 NDo=     1
 LinEq1:  Iter=  2 NonCon=     1 RMS=1.62D-04 Max=3.76D-03 NDo=     1
 LinEq1:  Iter=  3 NonCon=     1 RMS=4.43D-05 Max=5.70D-04 NDo=     1
 LinEq1:  Iter=  4 NonCon=     1 RMS=2.13D-05 Max=8.00D-04 NDo=     1
 LinEq1:  Iter=  5 NonCon=     1 RMS=5.23D-06 Max=8.99D-05 NDo=     1
 LinEq1:  Iter=  6 NonCon=     1 RMS=1.43D-06 Max=1.62D-05 NDo=     1
 LinEq1:  Iter=  7 NonCon=     1 RMS=3.67D-07 Max=3.00D-06 NDo=     1
 LinEq1:  Iter=  8 NonCon=     1 RMS=8.70D-08 Max=9.89D-07 NDo=     1
 LinEq1:  Iter=  9 NonCon=     1 RMS=1.84D-08 Max=2.44D-07 NDo=     1
 LinEq1:  Iter= 10 NonCon=     1 RMS=6.09D-09 Max=1.44D-07 NDo=     1
 LinEq1:  Iter= 11 NonCon=     1 RMS=2.00D-09 Max=3.70D-08 NDo=     1
 LinEq1:  Iter= 12 NonCon=     1 RMS=8.00D-10 Max=1.91D-08 NDo=     1
 LinEq1:  Iter= 13 NonCon=     1 RMS=2.07D-10 Max=1.80D-09 NDo=     1
 LinEq1:  Iter= 14 NonCon=     0 RMS=6.09D-11 Max=8.15D-10 NDo=     1
 Linear equations converged to 1.000D-10 1.000D-09 after    14 iterations.
 End of Minotr F.D. properties file   721 does not exist.
 End of Minotr F.D. properties file   722 does not exist.
 End of Minotr F.D. properties file   788 does not exist.
 Leave Link 1002 at Fri Sep 17 20:15:39 2021, MaxMem=   524288000 cpu:              36.1 elap:              36.1
 (Enter /opt/gaussian/g16_legacy/l601.exe)
 Copying SCF densities to generalized density rwf, IOpCl= 0 IROHF=0.

 **********************************************************************

            Population analysis using the SCF density.

 **********************************************************************

 Orbital symmetries:
       Occupied  (A) (A) (A) (A) (A) (A) (A) (A) (A) (A) (A) (A)
                 (A) (A) (A) (A) (A) (A) (A) (A) (A) (A) (A) (A)
                 (A) (A) (A) (A) (A) (A) (A) (A) (A) (A) (A) (A)
                 (A) (A) (A)
       Virtual   (A) (A) (A) (A) (A) (A) (A) (A) (A) (A) (A) (A)
                 (A) (A) (A) (A) (A) (A) (A) (A) (A) (A) (A) (A)
                 (A) (A) (A) (A) (A) (A) (A) (A) (A) (A) (A) (A)
                 (A) (A) (A) (A) (A) (A) (A) (A) (A) (A) (A) (A)
                 (A) (A) (A) (A) (A) (A) (A) (A) (A) (A) (A) (A)
                 (A) (A) (A) (A) (A) (A) (A) (A) (A) (A) (A) (A)
                 (A) (A) (A) (A) (A) (A) (A) (A) (A) (A) (A) (A)
                 (A) (A) (A) (A) (A) (A) (A) (A) (A) (A) (A) (A)
                 (A) (A) (A) (A) (A) (A) (A) (A) (A) (A) (A) (A)
                 (A) (A) (A) (A) (A) (A) (A) (A) (A) (A) (A) (A)
                 (A) (A) (A) (A) (A) (A) (A) (A) (A) (A) (A) (A)
                 (A) (A) (A) (A) (A) (A) (A) (A) (A) (A) (A) (A)
                 (A) (A) (A) (A) (A) (A) (A) (A) (A) (A) (A) (A)
                 (A) (A) (A) (A) (A) (A) (A) (A) (A) (A) (A) (A)
                 (A) (A) (A) (A) (A) (A) (A) (A) (A) (A) (A) (A)
                 (A) (A) (A) (A) (A) (A) (A) (A) (A) (A) (A) (A)
                 (A) (A) (A) (A) (A) (A) (A) (A) (A)
 The electronic state is 1-A.
 Alpha  occ. eigenvalues --  -11.22866 -11.22745 -11.22139 -11.21766 -11.21640
 Alpha  occ. eigenvalues --  -11.21596 -11.21489 -11.21435 -11.21359 -11.21170
 Alpha  occ. eigenvalues --   -1.10404  -1.08229  -1.01800  -0.97674  -0.93573
 Alpha  occ. eigenvalues --   -0.91841  -0.86881  -0.82643  -0.70044  -0.68910
 Alpha  occ. eigenvalues --   -0.63799  -0.62767  -0.59649  -0.59036  -0.58472
 Alpha  occ. eigenvalues --   -0.56051  -0.55750  -0.54823  -0.53761  -0.52730
 Alpha  occ. eigenvalues --   -0.51686  -0.51193  -0.50093  -0.48533  -0.47319
 Alpha  occ. eigenvalues --   -0.46520  -0.44377  -0.32338  -0.32136
 Alpha virt. eigenvalues --    0.18628   0.19370   0.23065   0.24515   0.26421
 Alpha virt. eigenvalues --    0.27124   0.27242   0.29673   0.29975   0.31207
 Alpha virt. eigenvalues --    0.32062   0.32262   0.33271   0.33857   0.33940
 Alpha virt. eigenvalues --    0.34457   0.35615   0.36754   0.37249   0.38977
 Alpha virt. eigenvalues --    0.40119   0.42067   0.42337   0.45475   0.47546
 Alpha virt. eigenvalues --    0.51867   0.52561   0.60212   0.62403   0.70299
 Alpha virt. eigenvalues --    0.70781   0.72590   0.75407   0.75782   0.76834
 Alpha virt. eigenvalues --    0.78648   0.78966   0.81177   0.81952   0.83041
 Alpha virt. eigenvalues --    0.85620   0.86845   0.88884   0.91378   0.91904
 Alpha virt. eigenvalues --    0.93556   0.94169   0.95470   0.98195   0.98678
 Alpha virt. eigenvalues --    1.00281   1.01037   1.03151   1.03654   1.06909
 Alpha virt. eigenvalues --    1.07805   1.09900   1.11213   1.11956   1.12358
 Alpha virt. eigenvalues --    1.13554   1.13564   1.14083   1.15373   1.15589
 Alpha virt. eigenvalues --    1.15791   1.16797   1.17618   1.18175   1.19367
 Alpha virt. eigenvalues --    1.20378   1.21432   1.23748   1.24194   1.26207
 Alpha virt. eigenvalues --    1.30381   1.32657   1.38972   1.42078   1.44013
 Alpha virt. eigenvalues --    1.46473   1.48828   1.56019   1.56618   1.58879
 Alpha virt. eigenvalues --    1.65114   1.66594   1.68127   1.69795   1.72216
 Alpha virt. eigenvalues --    1.76197   1.80492   1.91388   1.93570   1.97748
 Alpha virt. eigenvalues --    1.99220   2.01065   2.03439   2.04990   2.08015
 Alpha virt. eigenvalues --    2.09156   2.10032   2.11503   2.12369   2.14437
 Alpha virt. eigenvalues --    2.16365   2.19124   2.22262   2.23293   2.27241
 Alpha virt. eigenvalues --    2.28562   2.31790   2.34190   2.35320   2.35694
 Alpha virt. eigenvalues --    2.36258   2.36779   2.39507   2.40095   2.40435
 Alpha virt. eigenvalues --    2.41155   2.41445   2.43580   2.44395   2.44981
 Alpha virt. eigenvalues --    2.46502   2.47143   2.48992   2.51736   2.52370
 Alpha virt. eigenvalues --    2.54314   2.57191   2.61055   2.62924   2.64928
 Alpha virt. eigenvalues --    2.67811   2.69737   2.71311   2.72743   2.74995
 Alpha virt. eigenvalues --    2.75709   2.78703   2.80936   2.84024   2.86201
 Alpha virt. eigenvalues --    2.87262   2.89395   2.90732   2.92403   2.94401
 Alpha virt. eigenvalues --    2.96489   3.00728   3.01932   3.02666   3.04083
 Alpha virt. eigenvalues --    3.06266   3.06582   3.08526   3.12050   3.13477
 Alpha virt. eigenvalues --    3.17842   3.18489   3.20450   3.21588   3.21646
 Alpha virt. eigenvalues --    3.23833   3.24434   3.25390   3.26972   3.38137
 Alpha virt. eigenvalues --    3.38181   3.44742   3.45867   3.55465   3.56455
 Alpha virt. eigenvalues --    3.59441   3.61213   3.66343   3.72955   3.78205
 Alpha virt. eigenvalues --    3.78837   3.79542   3.80956   3.81818   3.82263
 Alpha virt. eigenvalues --    3.83146   3.85907   3.86522   3.90524   3.91602
 Alpha virt. eigenvalues --    3.94305   4.58263   4.60852   4.74934   4.82405
 Alpha virt. eigenvalues --    4.88939   4.91065   4.92014   5.02134   5.10183
 Alpha virt. eigenvalues --    5.18849
          Condensed to atoms (all electrons):
               1          2          3          4          5          6
     1  C    4.948069   0.401547   0.409490   0.349587  -0.055726   0.003201
     2  H    0.401547   0.597376  -0.033939  -0.041515  -0.004189  -0.000077
     3  H    0.409490  -0.033939   0.598724  -0.050243  -0.001393   0.000052
     4  C    0.349587  -0.041515  -0.050243   4.948806   0.339463  -0.037174
     5  C   -0.055726  -0.004189  -0.001393   0.339463   4.923973   0.405307
     6  H    0.003201  -0.000077   0.000052  -0.037174   0.405307   0.569310
     7  H   -0.004663   0.002171  -0.000552  -0.043513   0.406681  -0.030466
     8  H    0.000163  -0.000024   0.001168  -0.040363   0.396664  -0.026182
     9  C   -0.042732   0.000246  -0.000301   0.696935  -0.053190  -0.003048
    10  H   -0.005874   0.000173   0.000109  -0.035385   0.003267   0.000026
    11  C    0.002856  -0.000090  -0.000073  -0.047760  -0.007427  -0.002233
    12  H    0.000081  -0.000001  -0.000005  -0.000436  -0.001516  -0.001279
    13  H   -0.000083  -0.000003   0.000016  -0.000340   0.000183  -0.000077
    14  H   -0.000101   0.000015  -0.000004  -0.000674   0.000334   0.000262
    15  C   -0.000105   0.000003  -0.000049   0.000001  -0.000000   0.000000
    16  H   -0.000001   0.000001  -0.000001   0.000000  -0.000000  -0.000000
    17  H   -0.000004   0.000000   0.000002   0.000000  -0.000000   0.000000
    18  H    0.000019  -0.000001  -0.000003  -0.000000   0.000000  -0.000000
    19  C   -0.003781   0.000693   0.000964   0.000118  -0.000003   0.000000
    20  C    0.000154  -0.000014  -0.000161  -0.000073   0.000001  -0.000000
    21  H   -0.000124   0.000002  -0.000360   0.000087  -0.000003   0.000000
    22  H    0.000047  -0.000001  -0.000026  -0.000003   0.000000  -0.000000
    23  H   -0.000086   0.000000   0.000041   0.000006  -0.000000   0.000000
    24  C   -0.055211  -0.001792  -0.001563   0.004584  -0.000095   0.000001
    25  H    0.000926   0.000494   0.000188  -0.000089   0.000002  -0.000000
    26  C    0.338465  -0.038896  -0.042163  -0.043541   0.003378  -0.000090
    27  H   -0.042788   0.004614  -0.002936  -0.000821  -0.000029  -0.000000
    28  H   -0.041578  -0.004546   0.004612  -0.000991  -0.000062   0.000003
               7          8          9         10         11         12
     1  C   -0.004663   0.000163  -0.042732  -0.005874   0.002856   0.000081
     2  H    0.002171  -0.000024   0.000246   0.000173  -0.000090  -0.000001
     3  H   -0.000552   0.001168  -0.000301   0.000109  -0.000073  -0.000005
     4  C   -0.043513  -0.040363   0.696935  -0.035385  -0.047760  -0.000436
     5  C    0.406681   0.396664  -0.053190   0.003267  -0.007427  -0.001516
     6  H   -0.030466  -0.026182  -0.003048   0.000026  -0.002233  -0.001279
     7  H    0.582523  -0.030827   0.002722  -0.000101   0.000148   0.000024
     8  H   -0.030827   0.576535  -0.003676  -0.000128   0.000693  -0.000232
     9  C    0.002722  -0.003676   4.954038   0.405372   0.339586  -0.041900
    10  H   -0.000101  -0.000128   0.405372   0.557499  -0.044786   0.003445
    11  C    0.000148   0.000693   0.339586  -0.044786   4.900724   0.407547
    12  H    0.000024  -0.000232  -0.041900   0.003445   0.407547   0.574694
    13  H   -0.000012   0.000165  -0.044509  -0.001817   0.403825  -0.028990
    14  H    0.000014  -0.000070  -0.044284  -0.001135   0.400414  -0.027755
    15  C   -0.000000   0.000000   0.000000  -0.000000   0.000000   0.000000
    16  H    0.000000  -0.000000   0.000000   0.000000   0.000000   0.000000
    17  H   -0.000000   0.000000  -0.000000   0.000000   0.000000  -0.000000
    18  H    0.000000  -0.000000   0.000000  -0.000000  -0.000000  -0.000000
    19  C    0.000000  -0.000000   0.000007  -0.000002  -0.000000  -0.000000
    20  C   -0.000000   0.000001  -0.000013  -0.000004   0.000000   0.000000
    21  H    0.000000  -0.000003   0.000047  -0.000005  -0.000000   0.000000
    22  H    0.000000   0.000000  -0.000000  -0.000000  -0.000000  -0.000000
    23  H   -0.000000   0.000000  -0.000001   0.000001   0.000000  -0.000000
    24  C   -0.000007   0.000003   0.000228   0.000090  -0.000001   0.000000
    25  H   -0.000000   0.000000  -0.000003   0.000000   0.000000  -0.000000
    26  C    0.000174  -0.000101  -0.008225  -0.000853   0.000036  -0.000001
    27  H    0.000006  -0.000005  -0.000089  -0.000259  -0.000055  -0.000002
    28  H   -0.000004   0.000001  -0.000097  -0.000175  -0.000029  -0.000001
              13         14         15         16         17         18
     1  C   -0.000083  -0.000101  -0.000105  -0.000001  -0.000004   0.000019
     2  H   -0.000003   0.000015   0.000003   0.000001   0.000000  -0.000001
     3  H    0.000016  -0.000004  -0.000049  -0.000001   0.000002  -0.000003
     4  C   -0.000340  -0.000674   0.000001   0.000000   0.000000  -0.000000
     5  C    0.000183   0.000334  -0.000000  -0.000000  -0.000000   0.000000
     6  H   -0.000077   0.000262   0.000000  -0.000000   0.000000  -0.000000
     7  H   -0.000012   0.000014  -0.000000   0.000000  -0.000000   0.000000
     8  H    0.000165  -0.000070   0.000000  -0.000000   0.000000  -0.000000
     9  C   -0.044509  -0.044284   0.000000   0.000000  -0.000000   0.000000
    10  H   -0.001817  -0.001135  -0.000000   0.000000   0.000000  -0.000000
    11  C    0.403825   0.400414   0.000000   0.000000   0.000000  -0.000000
    12  H   -0.028990  -0.027755   0.000000   0.000000  -0.000000  -0.000000
    13  H    0.585486  -0.033663  -0.000000  -0.000000  -0.000000   0.000000
    14  H   -0.033663   0.587424  -0.000000   0.000000  -0.000000   0.000000
    15  C   -0.000000  -0.000000   4.896886   0.405533   0.401690   0.395964
    16  H   -0.000000   0.000000   0.405533   0.569443  -0.028104  -0.027305
    17  H   -0.000000  -0.000000   0.401690  -0.028104   0.592914  -0.034668
    18  H    0.000000   0.000000   0.395964  -0.027305  -0.034668   0.593833
    19  C   -0.000000   0.000000   0.352797  -0.041161  -0.047296  -0.043256
    20  C    0.000000  -0.000000  -0.060718   0.003794  -0.000695  -0.002428
    21  H   -0.000000   0.000000   0.003458  -0.000114  -0.000015  -0.000045
    22  H    0.000000  -0.000000  -0.004953   0.000115  -0.000547   0.002341
    23  H    0.000000  -0.000000   0.000325  -0.000136   0.001561  -0.000178
    24  C   -0.000000  -0.000000  -0.045379  -0.002360  -0.001124  -0.000456
    25  H    0.000000  -0.000000  -0.006125   0.002252   0.000088   0.000241
    26  C    0.000006  -0.000002   0.003131   0.000130  -0.000109  -0.000095
    27  H   -0.000015   0.000010   0.000097   0.000005   0.000012  -0.000008
    28  H    0.000005  -0.000007  -0.000099  -0.000010   0.000008  -0.000001
              19         20         21         22         23         24
     1  C   -0.003781   0.000154  -0.000124   0.000047  -0.000086  -0.055211
     2  H    0.000693  -0.000014   0.000002  -0.000001   0.000000  -0.001792
     3  H    0.000964  -0.000161  -0.000360  -0.000026   0.000041  -0.001563
     4  C    0.000118  -0.000073   0.000087  -0.000003   0.000006   0.004584
     5  C   -0.000003   0.000001  -0.000003   0.000000  -0.000000  -0.000095
     6  H    0.000000  -0.000000   0.000000  -0.000000   0.000000   0.000001
     7  H    0.000000  -0.000000   0.000000   0.000000  -0.000000  -0.000007
     8  H   -0.000000   0.000001  -0.000003   0.000000   0.000000   0.000003
     9  C    0.000007  -0.000013   0.000047  -0.000000  -0.000001   0.000228
    10  H   -0.000002  -0.000004  -0.000005  -0.000000   0.000001   0.000090
    11  C   -0.000000   0.000000  -0.000000  -0.000000   0.000000  -0.000001
    12  H   -0.000000   0.000000   0.000000  -0.000000  -0.000000   0.000000
    13  H   -0.000000   0.000000  -0.000000   0.000000   0.000000  -0.000000
    14  H    0.000000  -0.000000   0.000000  -0.000000  -0.000000  -0.000000
    15  C    0.352797  -0.060718   0.003458  -0.004953   0.000325  -0.045379
    16  H   -0.041161   0.003794  -0.000114   0.000115  -0.000136  -0.002360
    17  H   -0.047296  -0.000695  -0.000015  -0.000547   0.001561  -0.001124
    18  H   -0.043256  -0.002428  -0.000045   0.002341  -0.000178  -0.000456
    19  C    4.932989   0.341576  -0.037291  -0.042655  -0.041597   0.692706
    20  C    0.341576   4.920465   0.407103   0.405544   0.396678  -0.049913
    21  H   -0.037291   0.407103   0.565867  -0.030271  -0.026359  -0.004001
    22  H   -0.042655   0.405544  -0.030271   0.581440  -0.030531   0.002369
    23  H   -0.041597   0.396678  -0.026359  -0.030531   0.575517  -0.002811
    24  C    0.692706  -0.049913  -0.004001   0.002369  -0.002811   4.962524
    25  H   -0.036948   0.003321   0.000039  -0.000101  -0.000128   0.404104
    26  C   -0.054126  -0.005852  -0.002231   0.000177   0.000294   0.349083
    27  H   -0.001625  -0.001638  -0.002153  -0.000015   0.000453  -0.046470
    28  H    0.002182   0.000119   0.000037  -0.000006   0.000041  -0.040852
              25         26         27         28
     1  C    0.000926   0.338465  -0.042788  -0.041578
     2  H    0.000494  -0.038896   0.004614  -0.004546
     3  H    0.000188  -0.042163  -0.002936   0.004612
     4  C   -0.000089  -0.043541  -0.000821  -0.000991
     5  C    0.000002   0.003378  -0.000029  -0.000062
     6  H   -0.000000  -0.000090  -0.000000   0.000003
     7  H   -0.000000   0.000174   0.000006  -0.000004
     8  H    0.000000  -0.000101  -0.000005   0.000001
     9  C   -0.000003  -0.008225  -0.000089  -0.000097
    10  H    0.000000  -0.000853  -0.000259  -0.000175
    11  C    0.000000   0.000036  -0.000055  -0.000029
    12  H   -0.000000  -0.000001  -0.000002  -0.000001
    13  H    0.000000   0.000006  -0.000015   0.000005
    14  H   -0.000000  -0.000002   0.000010  -0.000007
    15  C   -0.006125   0.003131   0.000097  -0.000099
    16  H    0.002252   0.000130   0.000005  -0.000010
    17  H    0.000088  -0.000109   0.000012   0.000008
    18  H    0.000241  -0.000095  -0.000008  -0.000001
    19  C   -0.036948  -0.054126  -0.001625   0.002182
    20  C    0.003321  -0.005852  -0.001638   0.000119
    21  H    0.000039  -0.002231  -0.002153   0.000037
    22  H   -0.000101   0.000177  -0.000015  -0.000006
    23  H   -0.000128   0.000294   0.000453   0.000041
    24  C    0.404104   0.349083  -0.046470  -0.040852
    25  H    0.554947  -0.040038   0.003239  -0.004540
    26  C   -0.040038   4.965680   0.418748   0.412912
    27  H    0.003239   0.418748   0.581504  -0.032302
    28  H   -0.004540   0.412912  -0.032302   0.584976
 Mulliken charges:
               1
     1  C   -0.201748
     2  H    0.117756
     3  H    0.118408
     4  C    0.003333
     5  C   -0.355621
     6  H    0.122462
     7  H    0.115681
     8  H    0.126218
     9  C   -0.157113
    10  H    0.120540
    11  C   -0.353376
    12  H    0.116327
    13  H    0.119822
    14  H    0.119222
    15  C   -0.342455
    16  H    0.117922
    17  H    0.116288
    18  H    0.116047
    19  C    0.025709
    20  C   -0.357245
    21  H    0.126333
    22  H    0.117076
    23  H    0.126913
    24  C   -0.163659
    25  H    0.118131
    26  C   -0.255892
    27  H    0.122519
    28  H    0.120402
 Sum of Mulliken charges =  -0.00000
 Mulliken charges with hydrogens summed into heavy atoms:
               1
     1  C    0.034416
     4  C    0.003333
     5  C    0.008740
     9  C   -0.036572
    11  C    0.001995
    15  C    0.007801
    19  C    0.025709
    20  C    0.013076
    24  C   -0.045527
    26  C   -0.012971
 Electronic spatial extent (au):  <R**2>=           2651.0966
 Charge=              0.0000 electrons
 Dipole moment (field-independent basis, Debye):
    X=             -0.1269    Y=              0.0528    Z=              0.3087  Tot=              0.3379
 Quadrupole moment (field-independent basis, Debye-Ang):
   XX=            -64.0146   YY=            -65.0461   ZZ=            -65.1826
   XY=              0.2459   XZ=             -0.3722   YZ=             -0.2380
 Traceless Quadrupole moment (field-independent basis, Debye-Ang):
   XX=              0.7332   YY=             -0.2983   ZZ=             -0.4349
   XY=              0.2459   XZ=             -0.3722   YZ=             -0.2380
 Octapole moment (field-independent basis, Debye-Ang**2):
  XXX=             -1.4038  YYY=             -2.2490  ZZZ=             -0.7747  XYY=              2.5085
  XXY=              0.2501  XXZ=              4.4123  XZZ=             -3.2391  YZZ=              1.9794
  YYZ=             -0.1978  XYZ=              2.8593
 Hexadecapole moment (field-independent basis, Debye-Ang**3):
 XXXX=          -2977.1775 YYYY=           -405.6275 ZZZZ=           -294.8645 XXXY=              7.5419
 XXXZ=             -5.6430 YYYX=              1.6215 YYYZ=             -4.3174 ZZZX=              4.6788
 ZZZY=              0.8369 XXYY=           -566.9985 XXZZ=           -548.7042 YYZZ=           -118.3339
 XXYZ=             -0.1221 YYXZ=             -4.0304 ZZXY=             -8.1307
 N-N= 5.104935524169D+02 E-N=-1.925660703935D+03  KE= 3.885948986856D+02
 No NMR shielding tensors so no spin-rotation constants.
 Leave Link  601 at Fri Sep 17 20:15:39 2021, MaxMem=   524288000 cpu:               0.3 elap:               0.3
 (Enter /opt/gaussian/g16_legacy/l701.exe)
 ... and contract with generalized density number  2.
 Compute integral first derivatives.
 Leave Link  701 at Fri Sep 17 20:15:40 2021, MaxMem=   524288000 cpu:               0.3 elap:               0.3
 (Enter /opt/gaussian/g16_legacy/l702.exe)
 L702 exits ... SP integral derivatives will be done elsewhere.
 Leave Link  702 at Fri Sep 17 20:15:40 2021, MaxMem=   524288000 cpu:               0.1 elap:               0.1
 (Enter /opt/gaussian/g16_legacy/l703.exe)
 Integral derivatives from FoFJK, PRISM(SPDF).
 Compute integral first derivatives, UseDBF=F ICtDFT=           0.
 Calling FoFJK, ICntrl=  10002127 FMM=F ISym2X=0 I1Cent= 0 IOpClX= 0 NMat=1 NMatS=1 NMatT=0.
 FoFJK:  IHMeth= 1 ICntrl=10002127 DoSepK=F KAlg= 0 I1Cent=           0 FoldK=F
 IRaf=         0 NMat=       1 IRICut=       1 DoRegI=T DoRafI=F ISym2E= 0 IDoP0=0 IntGTp=1.
 FoFCou: FMM=F IPFlag=           0 FMFlag=      100000 FMFlg1=         800
         NFxFlg=           0 DoJE=F BraDBF=F KetDBF=F FulRan=T
         wScrn=  0.000000 ICntrl=  10002127 IOpCl=  0 I1Cent=           0 NGrid=           0
         NMat0=    1 NMatS0=      1 NMatT0=    0 NMatD0=    1 NMtDS0=    0 NMtDT0=    0
 Symmetry not used in FoFCou.
 Leave Link  703 at Fri Sep 17 20:16:13 2021, MaxMem=   524288000 cpu:              33.4 elap:              33.4
 (Enter /opt/gaussian/g16_legacy/l716.exe)
 Dipole        =-1.72607090D-02-1.01532017D-04 1.08503634D-01
 ***** Axes restored to original set *****
 -------------------------------------------------------------------
 Center     Atomic                   Forces (Hartrees/Bohr)
 Number     Number              X              Y              Z
 -------------------------------------------------------------------
      1        6           0.006406981    0.002459624    0.006390561
      2        1           0.000144973    0.002457588   -0.001735514
      3        1          -0.000925007   -0.002539352    0.001083466
      4        6          -0.004672205   -0.003011161    0.003265310
      5        6           0.002513122   -0.001901582   -0.000419957
      6        1          -0.001373121    0.004199666   -0.001317603
      7        1          -0.000328133    0.003300313    0.000946528
      8        1           0.000941104   -0.003480634   -0.000658014
      9        6          -0.008084611    0.002111259   -0.000309547
     10        1          -0.001067031   -0.001679891   -0.005145536
     11        6           0.003014594   -0.001857186   -0.001745472
     12        1          -0.002507979    0.000258767    0.001572294
     13        1           0.001095545   -0.002658641    0.001059858
     14        1           0.001922032    0.002697765   -0.000712195
     15        6          -0.002129463   -0.003633770    0.000161136
     16        1           0.003103096    0.002851410   -0.000360244
     17        1           0.000308373   -0.000637031   -0.003415002
     18        1          -0.001662406    0.002045767    0.002397499
     19        6          -0.001231943   -0.006102712   -0.003445539
     20        6           0.004835187    0.001110471   -0.000765027
     21        1          -0.003449632    0.000376695    0.003448159
     22        1          -0.000772985   -0.000981675    0.004188796
     23        1           0.000735801    0.001041626   -0.003124154
     24        6           0.001225755   -0.000816470    0.005146332
     25        1          -0.001475281    0.003103091   -0.001877661
     26        6           0.000333954    0.002862360    0.000977960
     27        1           0.000971669   -0.003075643   -0.002947262
     28        1           0.002127609    0.001499346   -0.002659172
 -------------------------------------------------------------------
 Cartesian Forces:  Max     0.008084611 RMS     0.002730627
 Leave Link  716 at Fri Sep 17 20:16:13 2021, MaxMem=   524288000 cpu:               0.1 elap:               0.1
 (Enter /opt/gaussian/g16_legacy/l103.exe)

 GradGradGradGradGradGradGradGradGradGradGradGradGradGradGradGradGradGrad
 Berny optimization.
 FormGI is forming the generalized inverse of G from B-inverse, IUseBI=4.
 Internal  Forces:  Max     0.009145243 RMS     0.002245976
 Search for a local minimum.
 Step number   1 out of a maximum of  138
 All quantities printed in internal units (Hartrees-Bohrs-Radians)
 RMS Force = .22460D-02 SwitMx=.10000D-02 MixMth= 1
 Mixed Optimization -- RFO/linear search
 Second derivative matrix not updated -- first step.
 ITU=  0
     Eigenvalues ---    0.00305   0.00422   0.00652   0.00685   0.00703
     Eigenvalues ---    0.00723   0.00818   0.01176   0.01291   0.01574
     Eigenvalues ---    0.01656   0.02766   0.02796   0.03601   0.04022
     Eigenvalues ---    0.05269   0.05326   0.07026   0.07047   0.07071
     Eigenvalues ---    0.07125   0.07252   0.07282   0.07332   0.07529
     Eigenvalues ---    0.09490   0.09960   0.12889   0.13237   0.15982
     Eigenvalues ---    0.15997   0.16000   0.16000   0.16000   0.16000
     Eigenvalues ---    0.16000   0.16000   0.16000   0.16000   0.16000
     Eigenvalues ---    0.16000   0.16000   0.16000   0.21916   0.22001
     Eigenvalues ---    0.22005   0.22031   0.24997   0.24999   0.25000
     Eigenvalues ---    0.25000   0.28984   0.29795   0.31493   0.31742
     Eigenvalues ---    0.31883   0.32037   0.32797   0.33833   0.33908
     Eigenvalues ---    0.34001   0.34041   0.34166   0.34193   0.34220
     Eigenvalues ---    0.34236   0.34258   0.34273   0.34309   0.34331
     Eigenvalues ---    0.34347   0.34355   0.34414   0.34637   0.34781
     Eigenvalues ---    0.34889   0.55276   0.55765
 RFO step:  Lambda=-4.32527206D-03 EMin= 3.05461612D-03
 Linear search not attempted -- first point.
 Iteration  1 RMS(Cart)=  0.07949850 RMS(Int)=  0.00229948
 Iteration  2 RMS(Cart)=  0.00400891 RMS(Int)=  0.00018978
 Iteration  3 RMS(Cart)=  0.00000796 RMS(Int)=  0.00018974
 Iteration  4 RMS(Cart)=  0.00000000 RMS(Int)=  0.00018974
 ITry= 1 IFail=0 DXMaxC= 3.27D-01 DCOld= 1.00D+10 DXMaxT= 3.00D-01 DXLimC= 3.00D+00 Rises=F
 Variable       Old X    -DE/DX   Delta X   Delta X   Delta X     New X
                                 (Linear)    (Quad)   (Total)
    R1        2.07486  -0.00193   0.00000  -0.00562  -0.00562   2.06924
    R2        2.07613  -0.00218   0.00000  -0.00637  -0.00637   2.06976
    R3        2.88374  -0.00915   0.00000  -0.03025  -0.03025   2.85349
    R4        2.90037  -0.00356   0.00000  -0.01210  -0.01210   2.88828
    R5        2.85082   0.00146   0.00000   0.00457   0.00457   2.85539
    R6        2.54887  -0.00701   0.00000  -0.01259  -0.01259   2.53629
    R7        2.06638  -0.00351   0.00000  -0.01008  -0.01008   2.05630
    R8        2.06736  -0.00258   0.00000  -0.00741  -0.00741   2.05995
    R9        2.06897  -0.00207   0.00000  -0.00596  -0.00596   2.06301
   R10        2.06032  -0.00349   0.00000  -0.00990  -0.00990   2.05042
   R11        2.82709   0.00330   0.00000   0.00994   0.00994   2.83703
   R12        2.06268  -0.00283   0.00000  -0.00806  -0.00806   2.05462
   R13        2.06749  -0.00201   0.00000  -0.00577  -0.00577   2.06171
   R14        2.06775  -0.00185   0.00000  -0.00531  -0.00531   2.06244
   R15        2.06961  -0.00392   0.00000  -0.01132  -0.01132   2.05829
   R16        2.07005  -0.00228   0.00000  -0.00658  -0.00658   2.06347
   R17        2.06872  -0.00187   0.00000  -0.00539  -0.00539   2.06333
   R18        2.84076   0.00066   0.00000   0.00203   0.00203   2.84279
   R19        2.84358   0.00130   0.00000   0.00402   0.00402   2.84760
   R20        2.54458  -0.00270   0.00000  -0.00480  -0.00480   2.53979
   R21        2.06811  -0.00396   0.00000  -0.01140  -0.01140   2.05672
   R22        2.07050  -0.00360   0.00000  -0.01042  -0.01042   2.06009
   R23        2.06933  -0.00183   0.00000  -0.00528  -0.00528   2.06405
   R24        2.05856  -0.00206   0.00000  -0.00583  -0.00583   2.05273
   R25        2.84619  -0.00036   0.00000  -0.00112  -0.00112   2.84507
   R26        2.07260  -0.00347   0.00000  -0.01006  -0.01006   2.06255
   R27        2.07328  -0.00298   0.00000  -0.00866  -0.00866   2.06462
    A1        1.86099  -0.00153   0.00000  -0.01877  -0.01876   1.84223
    A2        1.88905   0.00039   0.00000   0.00151   0.00153   1.89057
    A3        1.89309   0.00155   0.00000   0.00834   0.00835   1.90144
    A4        1.87615   0.00186   0.00000   0.01453   0.01454   1.89069
    A5        1.89781   0.00018   0.00000   0.00048   0.00049   1.89831
    A6        2.03913  -0.00245   0.00000  -0.00769  -0.00768   2.03146
    A7        1.97803   0.00318   0.00000   0.01245   0.01238   1.99041
    A8        2.16332  -0.00576   0.00000  -0.02273  -0.02278   2.14054
    A9        2.14175   0.00257   0.00000   0.01002   0.00995   2.15170
   A10        1.95959   0.00012   0.00000   0.00272   0.00272   1.96231
   A11        1.93528  -0.00198   0.00000  -0.01070  -0.01066   1.92462
   A12        1.92217   0.00390   0.00000   0.02043   0.02045   1.94262
   A13        1.85413   0.00211   0.00000   0.01907   0.01908   1.87321
   A14        1.90365  -0.00263   0.00000  -0.01837  -0.01838   1.88527
   A15        1.88644  -0.00173   0.00000  -0.01438  -0.01432   1.87212
   A16        2.08736  -0.00286   0.00000  -0.01978  -0.01983   2.06753
   A17        2.23182  -0.00309   0.00000  -0.01371  -0.01375   2.21807
   A18        1.96370   0.00596   0.00000   0.03389   0.03385   1.99755
   A19        1.98417  -0.00224   0.00000  -0.01323  -0.01317   1.97100
   A20        1.90770   0.00242   0.00000   0.01457   0.01453   1.92223
   A21        1.91439   0.00350   0.00000   0.02109   0.02106   1.93545
   A22        1.87761  -0.00012   0.00000  -0.00037  -0.00033   1.87728
   A23        1.88989  -0.00072   0.00000  -0.00405  -0.00399   1.88590
   A24        1.88752  -0.00304   0.00000  -0.01930  -0.01943   1.86809
   A25        1.87822   0.00080   0.00000   0.00704   0.00707   1.88529
   A26        1.88135   0.00068   0.00000   0.00786   0.00789   1.88924
   A27        1.95945  -0.00249   0.00000  -0.01209  -0.01206   1.94739
   A28        1.89524  -0.00321   0.00000  -0.02559  -0.02559   1.86965
   A29        1.92120   0.00168   0.00000   0.00825   0.00827   1.92947
   A30        1.92645   0.00241   0.00000   0.01358   0.01360   1.94005
   A31        2.00762   0.00182   0.00000   0.00717   0.00706   2.01467
   A32        2.11707   0.00087   0.00000   0.00347   0.00335   2.12042
   A33        2.15849  -0.00269   0.00000  -0.01055  -0.01066   2.14783
   A34        1.96185  -0.00063   0.00000  -0.00071  -0.00071   1.96113
   A35        1.93050  -0.00138   0.00000  -0.00777  -0.00774   1.92276
   A36        1.92529   0.00334   0.00000   0.01663   0.01665   1.94194
   A37        1.85670   0.00235   0.00000   0.02133   0.02134   1.87804
   A38        1.89606  -0.00170   0.00000  -0.01138  -0.01138   1.88468
   A39        1.89085  -0.00214   0.00000  -0.01905  -0.01901   1.87184
   A40        2.08202  -0.00317   0.00000  -0.01828  -0.01912   2.06290
   A41        2.19205  -0.00059   0.00000  -0.00179  -0.00264   2.18941
   A42        2.00750   0.00385   0.00000   0.02411   0.02326   2.03076
   A43        1.96836  -0.00159   0.00000  -0.00808  -0.00805   1.96031
   A44        1.92932  -0.00127   0.00000  -0.01484  -0.01482   1.91451
   A45        1.91674  -0.00110   0.00000  -0.01388  -0.01387   1.90287
   A46        1.91113   0.00199   0.00000   0.01681   0.01670   1.92783
   A47        1.88371   0.00173   0.00000   0.01484   0.01473   1.89844
   A48        1.85030   0.00043   0.00000   0.00677   0.00645   1.85675
    D1        1.04191  -0.00006   0.00000   0.02785   0.02777   1.06968
    D2       -2.11354  -0.00037   0.00000   0.00734   0.00742  -2.10612
    D3       -0.96202   0.00058   0.00000   0.04158   0.04149  -0.92053
    D4        2.16571   0.00028   0.00000   0.02107   0.02115   2.18686
    D5       -3.09958   0.00056   0.00000   0.03466   0.03459  -3.06499
    D6        0.02816   0.00026   0.00000   0.01415   0.01424   0.04240
    D7       -1.09367   0.00074   0.00000   0.06132   0.06132  -1.03235
    D8        3.04354   0.00024   0.00000   0.05629   0.05630   3.09984
    D9        1.00796   0.00112   0.00000   0.06513   0.06511   1.07307
   D10        0.92363  -0.00014   0.00000   0.04385   0.04385   0.96748
   D11       -1.22234  -0.00065   0.00000   0.03882   0.03883  -1.18352
   D12        3.02526   0.00024   0.00000   0.04766   0.04764   3.07290
   D13        3.04991   0.00072   0.00000   0.05805   0.05806   3.10797
   D14        0.90394   0.00021   0.00000   0.05303   0.05304   0.95698
   D15       -1.13164   0.00110   0.00000   0.06186   0.06185  -1.06979
[...]
                 (A) (A) (A) (A) (A) (A) (A) (A) (A) (A) (A) (A)
                 (A) (A) (A) (A) (A) (A) (A) (A) (A) (A) (A) (A)
                 (A) (A) (A) (A) (A) (A) (A) (A) (A) (A) (A) (A)
                 (A) (A) (A) (A) (A) (A) (A) (A) (A) (A) (A) (A)
                 (A) (A) (A) (A) (A) (A) (A) (A) (A) (A) (A) (A)
                 (A) (A) (A) (A) (A) (A) (A) (A) (A) (A) (A) (A)
                 (A) (A) (A) (A) (A) (A) (A) (A) (A) (A) (A) (A)
                 (A) (A) (A) (A) (A) (A) (A) (A) (A) (A) (A) (A)
                 (A) (A) (A) (A) (A) (A) (A) (A) (A) (A) (A) (A)
                 (A) (A) (A) (A) (A) (A) (A) (A) (A) (A) (A) (A)
                 (A) (A) (A) (A) (A) (A) (A) (A) (A) (A) (A) (A)
                 (A) (A) (A) (A) (A) (A) (A) (A) (A) (A) (A) (A)
                 (A) (A) (A) (A) (A) (A) (A) (A) (A) (A) (A) (A)
                 (A) (A) (A) (A) (A) (A) (A) (A) (A) (A) (A) (A)
                 (A) (A) (A) (A) (A) (A) (A) (A) (A)
 The electronic state is 1-A.
 Alpha  occ. eigenvalues --  -11.22920 -11.22665 -11.21834 -11.21628 -11.21588
 Alpha  occ. eigenvalues --  -11.21461 -11.21437 -11.21421 -11.21351 -11.21312
 Alpha  occ. eigenvalues --   -1.10741  -1.08418  -1.02019  -0.97869  -0.93728
 Alpha  occ. eigenvalues --   -0.92029  -0.87200  -0.82983  -0.70311  -0.69056
 Alpha  occ. eigenvalues --   -0.63960  -0.63320  -0.60086  -0.59084  -0.58549
 Alpha  occ. eigenvalues --   -0.56272  -0.55702  -0.54671  -0.53189  -0.52798
 Alpha  occ. eigenvalues --   -0.52150  -0.51319  -0.50325  -0.48691  -0.47756
 Alpha  occ. eigenvalues --   -0.46335  -0.44919  -0.32558  -0.32297
 Alpha virt. eigenvalues --    0.18977   0.19591   0.23180   0.24499   0.26349
 Alpha virt. eigenvalues --    0.26855   0.27548   0.29410   0.30214   0.31202
 Alpha virt. eigenvalues --    0.32162   0.32415   0.33141   0.33783   0.34617
 Alpha virt. eigenvalues --    0.35168   0.36307   0.37037   0.37853   0.40433
 Alpha virt. eigenvalues --    0.40775   0.41062   0.43254   0.45812   0.48812
 Alpha virt. eigenvalues --    0.52338   0.53053   0.62056   0.64748   0.70042
 Alpha virt. eigenvalues --    0.71463   0.72557   0.73077   0.74842   0.76422
 Alpha virt. eigenvalues --    0.77325   0.79051   0.80502   0.81085   0.83303
 Alpha virt. eigenvalues --    0.83765   0.86586   0.86783   0.90975   0.92602
 Alpha virt. eigenvalues --    0.93950   0.94836   0.96869   0.98046   0.98849
 Alpha virt. eigenvalues --    1.00126   1.00764   1.02860   1.03416   1.07862
 Alpha virt. eigenvalues --    1.08632   1.09607   1.10010   1.11582   1.12019
 Alpha virt. eigenvalues --    1.13300   1.14672   1.15512   1.16077   1.17264
 Alpha virt. eigenvalues --    1.17356   1.17463   1.18586   1.19187   1.20278
 Alpha virt. eigenvalues --    1.21124   1.21787   1.23888   1.25285   1.27027
 Alpha virt. eigenvalues --    1.31028   1.34271   1.38608   1.42615   1.45549
 Alpha virt. eigenvalues --    1.47681   1.48137   1.55138   1.58134   1.59882
 Alpha virt. eigenvalues --    1.64689   1.67263   1.68483   1.69637   1.74007
 Alpha virt. eigenvalues --    1.76941   1.81990   1.89691   1.92185   1.98408
 Alpha virt. eigenvalues --    1.99745   2.01124   2.03283   2.05148   2.08088
 Alpha virt. eigenvalues --    2.08352   2.09856   2.10979   2.12106   2.15146
 Alpha virt. eigenvalues --    2.16649   2.18834   2.20493   2.22867   2.26766
 Alpha virt. eigenvalues --    2.28261   2.31145   2.35246   2.35596   2.35656
 Alpha virt. eigenvalues --    2.35777   2.35960   2.39966   2.40345   2.40678
 Alpha virt. eigenvalues --    2.42076   2.43383   2.44733   2.45273   2.46049
 Alpha virt. eigenvalues --    2.46544   2.47658   2.50591   2.51509   2.53405
 Alpha virt. eigenvalues --    2.54802   2.57691   2.62112   2.63362   2.65373
 Alpha virt. eigenvalues --    2.68562   2.69644   2.71653   2.73153   2.74227
 Alpha virt. eigenvalues --    2.75503   2.80068   2.80537   2.84414   2.84946
 Alpha virt. eigenvalues --    2.87369   2.87826   2.91431   2.93563   2.96511
 Alpha virt. eigenvalues --    2.97502   3.01861   3.03153   3.05474   3.05960
 Alpha virt. eigenvalues --    3.06727   3.07492   3.11126   3.13567   3.16824
 Alpha virt. eigenvalues --    3.17863   3.18686   3.20087   3.20941   3.23831
 Alpha virt. eigenvalues --    3.24434   3.25849   3.27069   3.28043   3.39374
 Alpha virt. eigenvalues --    3.40767   3.45072   3.46247   3.56248   3.57370
 Alpha virt. eigenvalues --    3.60659   3.62583   3.67769   3.74317   3.77228
 Alpha virt. eigenvalues --    3.79600   3.80411   3.82054   3.83424   3.84053
 Alpha virt. eigenvalues --    3.84712   3.87681   3.88454   3.91178   3.91469
 Alpha virt. eigenvalues --    3.95361   4.58222   4.60473   4.74858   4.82303
 Alpha virt. eigenvalues --    4.88748   4.91469   4.92458   5.02374   5.11076
 Alpha virt. eigenvalues --    5.19149
          Condensed to atoms (all electrons):
               1          2          3          4          5          6
     1  C    4.969869   0.405781   0.401293   0.352869  -0.063780   0.003808
     2  H    0.405781   0.605593  -0.037165  -0.046721  -0.002935  -0.000019
     3  H    0.401293  -0.037165   0.599345  -0.043838  -0.003013  -0.000036
     4  C    0.352869  -0.046721  -0.043838   4.922440   0.352256  -0.038174
     5  C   -0.063780  -0.002935  -0.003013   0.352256   4.903521   0.406787
     6  H    0.003808  -0.000019  -0.000036  -0.038174   0.406787   0.570703
     7  H   -0.002993   0.002612  -0.000256  -0.043229   0.400373  -0.027296
     8  H   -0.002962  -0.000351   0.002576  -0.043749   0.401069  -0.027508
     9  C   -0.044683   0.000049  -0.000465   0.702139  -0.042758  -0.002211
    10  H   -0.007239   0.000164   0.000191  -0.039757   0.003424   0.000047
    11  C    0.003096  -0.000088  -0.000090  -0.044791  -0.008654  -0.002549
    12  H    0.000068  -0.000003  -0.000003   0.000372  -0.002337  -0.001604
    13  H   -0.000101  -0.000004   0.000016  -0.000787   0.000299   0.000002
    14  H   -0.000093   0.000015  -0.000004  -0.000740   0.000277  -0.000002
    15  C   -0.000095  -0.000003  -0.000042   0.000001  -0.000000   0.000000
    16  H   -0.000003   0.000003  -0.000003   0.000000  -0.000000   0.000000
    17  H   -0.000005   0.000000   0.000002   0.000000  -0.000000   0.000000
    18  H    0.000023  -0.000001  -0.000007  -0.000000   0.000000  -0.000000
    19  C   -0.003903   0.000826   0.000980   0.000068  -0.000002   0.000000
    20  C    0.000515  -0.000019   0.000194  -0.000020   0.000000  -0.000000
    21  H   -0.000050  -0.000015   0.000204  -0.000002  -0.000001   0.000000
    22  H    0.000108  -0.000001  -0.000083  -0.000004   0.000000  -0.000000
    23  H   -0.000037  -0.000000   0.000013   0.000001  -0.000000   0.000000
    24  C   -0.061313  -0.002154  -0.000794   0.004677  -0.000101   0.000001
    25  H   -0.000792   0.001130   0.000225  -0.000088   0.000002  -0.000000
    26  C    0.343364  -0.041453  -0.038842  -0.042295   0.003154  -0.000084
    27  H   -0.041967   0.004865  -0.004482  -0.001166  -0.000036   0.000001
    28  H   -0.048203  -0.003752   0.005093  -0.000138  -0.000058   0.000001
               7          8          9         10         11         12
     1  C   -0.002993  -0.002962  -0.044683  -0.007239   0.003096   0.000068
     2  H    0.002612  -0.000351   0.000049   0.000164  -0.000088  -0.000003
     3  H   -0.000256   0.002576  -0.000465   0.000191  -0.000090  -0.000003
     4  C   -0.043229  -0.043749   0.702139  -0.039757  -0.044791   0.000372
     5  C    0.400373   0.401069  -0.042758   0.003424  -0.008654  -0.002337
     6  H   -0.027296  -0.027508  -0.002211   0.000047  -0.002549  -0.001604
     7  H    0.587234  -0.035921  -0.000310  -0.000122   0.000309  -0.000041
     8  H   -0.035921   0.587559  -0.000168  -0.000122   0.000286  -0.000037
     9  C   -0.000310  -0.000168   4.942105   0.408076   0.340079  -0.043929
    10  H   -0.000122  -0.000122   0.408076   0.556741  -0.041830   0.003333
    11  C    0.000309   0.000286   0.340079  -0.041830   4.893191   0.408509
    12  H   -0.000041  -0.000037  -0.043929   0.003333   0.408509   0.577543
    13  H   -0.000026   0.000050  -0.042561  -0.001122   0.401716  -0.028313
    14  H    0.000052  -0.000025  -0.042693  -0.001221   0.402198  -0.028364
    15  C   -0.000000   0.000000   0.000000  -0.000000   0.000000   0.000000
    16  H    0.000000  -0.000000   0.000000   0.000000   0.000000   0.000000
    17  H    0.000000  -0.000000  -0.000000   0.000000   0.000000  -0.000000
    18  H   -0.000000   0.000000   0.000000  -0.000000  -0.000000   0.000000
    19  C    0.000000  -0.000001  -0.000005  -0.000004   0.000000  -0.000000
    20  C   -0.000000  -0.000000   0.000001  -0.000002  -0.000000   0.000000
    21  H   -0.000000   0.000000  -0.000006  -0.000005  -0.000000   0.000000
    22  H   -0.000000   0.000000   0.000000  -0.000000  -0.000000   0.000000
    23  H   -0.000000  -0.000000  -0.000000   0.000000   0.000000  -0.000000
    24  C    0.000002  -0.000005   0.000309   0.000187  -0.000001   0.000000
    25  H   -0.000001   0.000000  -0.000002  -0.000000   0.000000  -0.000000
    26  C   -0.000019   0.000013  -0.009102  -0.001314   0.000045  -0.000000
    27  H    0.000004  -0.000007  -0.000421  -0.000913  -0.000030  -0.000002
    28  H   -0.000005   0.000004  -0.000960  -0.000688  -0.000044  -0.000002
              13         14         15         16         17         18
     1  C   -0.000101  -0.000093  -0.000095  -0.000003  -0.000005   0.000023
     2  H   -0.000004   0.000015  -0.000003   0.000003   0.000000  -0.000001
     3  H    0.000016  -0.000004  -0.000042  -0.000003   0.000002  -0.000007
     4  C   -0.000787  -0.000740   0.000001   0.000000   0.000000  -0.000000
     5  C    0.000299   0.000277  -0.000000  -0.000000  -0.000000   0.000000
     6  H    0.000002  -0.000002   0.000000   0.000000   0.000000  -0.000000
     7  H   -0.000026   0.000052  -0.000000   0.000000   0.000000  -0.000000
     8  H    0.000050  -0.000025   0.000000  -0.000000  -0.000000   0.000000
     9  C   -0.042561  -0.042693   0.000000   0.000000  -0.000000   0.000000
    10  H   -0.001122  -0.001221  -0.000000   0.000000   0.000000  -0.000000
    11  C    0.401716   0.402198   0.000000   0.000000   0.000000  -0.000000
    12  H   -0.028313  -0.028364   0.000000   0.000000  -0.000000   0.000000
    13  H    0.587638  -0.036103   0.000000  -0.000000  -0.000000   0.000000
    14  H   -0.036103   0.587091  -0.000000   0.000000   0.000000   0.000000
    15  C    0.000000  -0.000000   4.900764   0.406171   0.398806   0.398123
    16  H   -0.000000   0.000000   0.406171   0.566460  -0.026602  -0.026694
    17  H   -0.000000   0.000000   0.398806  -0.026602   0.594245  -0.037888
    18  H    0.000000   0.000000   0.398123  -0.026694  -0.037888   0.595048
    19  C   -0.000000   0.000000   0.353325  -0.041724  -0.044360  -0.043787
    20  C    0.000000  -0.000000  -0.065146   0.003786  -0.001228  -0.001946
    21  H    0.000000  -0.000000   0.003732  -0.000114  -0.000028  -0.000071
    22  H    0.000000  -0.000000  -0.002640  -0.000029  -0.000491   0.002790
    23  H    0.000000  -0.000000  -0.002240  -0.000053   0.002784  -0.000463
    24  C   -0.000000  -0.000000  -0.044430  -0.002555  -0.001222  -0.000537
    25  H    0.000000  -0.000000  -0.007032   0.002336   0.000189   0.000192
    26  C    0.000002   0.000003   0.003147   0.000154  -0.000122  -0.000080
    27  H   -0.000013   0.000009   0.000073   0.000006   0.000003  -0.000003
    28  H    0.000009  -0.000014  -0.000096  -0.000010   0.000010  -0.000002
              19         20         21         22         23         24
     1  C   -0.003903   0.000515  -0.000050   0.000108  -0.000037  -0.061313
     2  H    0.000826  -0.000019  -0.000015  -0.000001  -0.000000  -0.002154
     3  H    0.000980   0.000194   0.000204  -0.000083   0.000013  -0.000794
     4  C    0.000068  -0.000020  -0.000002  -0.000004   0.000001   0.004677
     5  C   -0.000002   0.000000  -0.000001   0.000000  -0.000000  -0.000101
     6  H    0.000000  -0.000000   0.000000  -0.000000   0.000000   0.000001
     7  H    0.000000  -0.000000  -0.000000  -0.000000  -0.000000   0.000002
     8  H   -0.000001  -0.000000   0.000000   0.000000  -0.000000  -0.000005
     9  C   -0.000005   0.000001  -0.000006   0.000000  -0.000000   0.000309
    10  H   -0.000004  -0.000002  -0.000005  -0.000000   0.000000   0.000187
    11  C    0.000000  -0.000000  -0.000000  -0.000000   0.000000  -0.000001
    12  H   -0.000000   0.000000   0.000000   0.000000  -0.000000   0.000000
    13  H   -0.000000   0.000000   0.000000   0.000000   0.000000  -0.000000
    14  H    0.000000  -0.000000  -0.000000  -0.000000  -0.000000  -0.000000
    15  C    0.353325  -0.065146   0.003732  -0.002640  -0.002240  -0.044430
    16  H   -0.041724   0.003786  -0.000114  -0.000029  -0.000053  -0.002555
    17  H   -0.044360  -0.001228  -0.000028  -0.000491   0.002784  -0.001222
    18  H   -0.043787  -0.001946  -0.000071   0.002790  -0.000463  -0.000537
    19  C    4.916520   0.350200  -0.037904  -0.043535  -0.043821   0.697676
    20  C    0.350200   4.905228   0.407407   0.401032   0.399980  -0.043309
    21  H   -0.037904   0.407407   0.566140  -0.027894  -0.026495  -0.002674
    22  H   -0.043535   0.401032  -0.027894   0.587592  -0.035977  -0.000124
    23  H   -0.043821   0.399980  -0.026495  -0.035977   0.586554  -0.000417
    24  C    0.697676  -0.043309  -0.002674  -0.000124  -0.000417   4.946740
    25  H   -0.038820   0.003521   0.000051  -0.000121  -0.000120   0.403090
    26  C   -0.049362  -0.008227  -0.002831   0.000347   0.000202   0.355783
    27  H    0.000751  -0.002472  -0.001572  -0.000052   0.000013  -0.044280
    28  H    0.001114   0.000197   0.000086  -0.000015   0.000027  -0.041458
              25         26         27         28
     1  C   -0.000792   0.343364  -0.041967  -0.048203
     2  H    0.001130  -0.041453   0.004865  -0.003752
     3  H    0.000225  -0.038842  -0.004482   0.005093
     4  C   -0.000088  -0.042295  -0.001166  -0.000138
     5  C    0.000002   0.003154  -0.000036  -0.000058
     6  H   -0.000000  -0.000084   0.000001   0.000001
     7  H   -0.000001  -0.000019   0.000004  -0.000005
     8  H    0.000000   0.000013  -0.000007   0.000004
     9  C   -0.000002  -0.009102  -0.000421  -0.000960
    10  H   -0.000000  -0.001314  -0.000913  -0.000688
    11  C    0.000000   0.000045  -0.000030  -0.000044
    12  H   -0.000000  -0.000000  -0.000002  -0.000002
    13  H    0.000000   0.000002  -0.000013   0.000009
    14  H   -0.000000   0.000003   0.000009  -0.000014
    15  C   -0.007032   0.003147   0.000073  -0.000096
    16  H    0.002336   0.000154   0.000006  -0.000010
    17  H    0.000189  -0.000122   0.000003   0.000010
    18  H    0.000192  -0.000080  -0.000003  -0.000002
    19  C   -0.038820  -0.049362   0.000751   0.001114
    20  C    0.003521  -0.008227  -0.002472   0.000197
    21  H    0.000051  -0.002831  -0.001572   0.000086
    22  H   -0.000121   0.000347  -0.000052  -0.000015
    23  H   -0.000120   0.000202   0.000013   0.000027
    24  C    0.403090   0.355783  -0.044280  -0.041458
    25  H    0.558512  -0.039582   0.003308  -0.003175
    26  C   -0.039582   4.950039   0.416322   0.414871
    27  H    0.003308   0.416322   0.584151  -0.032545
    28  H   -0.003175   0.414871  -0.032545   0.587472
 Mulliken charges:
               1
     1  C   -0.202575
     2  H    0.113645
     3  H    0.118990
     4  C    0.010676
     5  C   -0.347486
     6  H    0.118136
     7  H    0.119635
     8  H    0.119297
     9  C   -0.162483
    10  H    0.122176
    11  C   -0.351353
    12  H    0.114811
    13  H    0.119298
    14  H    0.119614
    15  C   -0.342417
    16  H    0.118870
    17  H    0.115906
    18  H    0.115305
    19  C    0.025768
    20  C   -0.349694
    21  H    0.122042
    22  H    0.119097
    23  H    0.120050
    24  C   -0.163091
    25  H    0.117179
    26  C   -0.254133
    27  H    0.120456
    28  H    0.122282
 Sum of Mulliken charges =  -0.00000
 Mulliken charges with hydrogens summed into heavy atoms:
               1
     1  C    0.030060
     4  C    0.010676
     5  C    0.009582
     9  C   -0.040308
    11  C    0.002370
    15  C    0.007664
    19  C    0.025768
    20  C    0.011496
    24  C   -0.045913
    26  C   -0.011395
 Electronic spatial extent (au):  <R**2>=           2701.3763
 Charge=             -0.0000 electrons
 Dipole moment (field-independent basis, Debye):
    X=             -0.1355    Y=              0.1079    Z=              0.2640  Tot=              0.3158
 Quadrupole moment (field-independent basis, Debye-Ang):
   XX=            -63.5776   YY=            -64.7761   ZZ=            -65.7469
   XY=              0.0911   XZ=             -0.6123   YZ=             -0.3817
 Traceless Quadrupole moment (field-independent basis, Debye-Ang):
   XX=              1.1226   YY=             -0.0759   ZZ=             -1.0467
   XY=              0.0911   XZ=             -0.6123   YZ=             -0.3817
 Octapole moment (field-independent basis, Debye-Ang**2):
  XXX=             -1.9737  YYY=             -1.4883  ZZZ=             -0.0295  XYY=              2.2694
  XXY=             -0.4464  XXZ=              4.8937  XZZ=             -2.4318  YZZ=              2.4781
  YYZ=             -0.6928  XYZ=              3.3688
 Hexadecapole moment (field-independent basis, Debye-Ang**3):
 XXXX=          -3032.6384 YYYY=           -438.0233 ZZZZ=           -262.0724 XXXY=              9.6565
 XXXZ=             -2.9585 YYYX=             -0.2448 YYYZ=             -4.5751 ZZZX=             -1.7718
 ZZZY=              1.1547 XXYY=           -581.6821 XXZZ=           -561.3392 YYZZ=           -114.6491
 XXYZ=              0.5064 YYXZ=             -1.6537 ZZXY=             -8.3705
 N-N= 5.096667944544D+02 E-N=-1.924066766704D+03  KE= 3.887401344539D+02
 No NMR shielding tensors so no spin-rotation constants.
 Leave Link  601 at Fri Sep 17 21:58:14 2021, MaxMem=   524288000 cpu:               0.3 elap:               1.0
 (Enter /opt/gaussian/g16_legacy/l9999.exe)
 1\1\GINC-TRUENO90\FOpt\RMP2-FC\6-31G(d,p)\C10H18\JRAMOS\17-Sep-2021\0\
 \#p opt mp2/6-31g(d,p)\\Conformer number 019. Energy MM = 25.810 kcal/
 mol\\0,1\C,2.2396536443,1.3147474163,-8.9131729492\H,1.8782261605,0.31
 77614986,-9.1919504997\H,2.149510527,1.9147769814,-9.825973355\C,3.702
 6890148,1.2063611275,-8.5489538027\C,4.5379044021,0.5968384723,-9.6430
 282934\H,5.593812232,0.5351172151,-9.3948961397\H,4.1857649894,-0.4114
 470441,-9.8710346881\H,4.4416093855,1.1804990553,-10.5609318486\C,4.18
 26039177,1.6230353941,-7.3628543851\H,3.4807824826,2.047202316,-6.6538
 589778\C,5.6001636045,1.5765335453,-6.8760846785\H,6.2847307891,1.1419
 768779,-7.5995076194\H,5.957757778,2.5803734978,-6.6397455231\H,5.6705
 57139,0.990971726,-5.957673166\C,-2.2567370086,2.7290385003,-9.2762376
 65\H,-2.5792917716,1.6956332866,-9.1587631041\H,-2.9384507939,3.366998
 7516,-8.7091545089\H,-2.3661681344,3.0048929611,-10.3274876267\C,-0.83
 75560389,2.9210583862,-8.8165136846\C,-0.3224890009,4.3277392628,-8.94
 54066159\H,0.7148414721,4.4313717033,-8.6382508723\H,-0.401391394,4.66
 31350056,-9.9817078313\H,-0.9264520302,5.0121358253,-8.3455070557\C,-0
 .1247643618,1.8867631487,-8.3324495866\H,-0.6103266876,0.9141686101,-8
 .3089118492\C,1.2985086685,1.901495213,-7.8586240123\H,1.6186189123,2.
 9125063192,-7.6060486144\H,1.3747921024,1.3120149468,-6.9411710468\\Ve
 rsion=EM64L-G16RevA.03\State=1-A\HF=-389.1560482\MP2=-390.5722038\RMSD
 =3.485e-09\RMSF=3.052e-06\Dipole=0.0021232,0.0548768,-0.0805094\PG=C01
  [X(C10H18)]\\@


 GOD DOES NOT PLAY WITH DICE.
               -- A. EINSTEIN
 Job cpu time:       0 days  1 hours 48 minutes 37.2 seconds.
 Elapsed time:       0 days  1 hours 48 minutes 43.9 seconds.
 File lengths (MBytes):  RWF=     32 Int=      0 D2E=      0 Chk=      7 Scr=      1
 Normal termination of Gaussian 16 at Fri Sep 17 21:58:14 2021.
