 Entering Gaussian System, Link 0=/opt/gaussian/g16_legacy/g16
 Input=02-IsoP_020_gaussian.com
 Output=02-IsoP_020_gaussian.log
 Initial command:
 /opt/gaussian/g16_legacy/l1.exe "/scratch-local/jramos/2661515/Gau-7150.inp" -scrdir="/scratch-local/jramos/2661515/"
 Entering Link 1 = /opt/gaussian/g16_legacy/l1.exe PID=      7156.
  
 Copyright (c) 1988,1990,1992,1993,1995,1998,2003,2009,2016,
            Gaussian, Inc.  All Rights Reserved.
  
 This is part of the Gaussian(R) 16 program.  It is based on
 the Gaussian(R) 09 system (copyright 2009, Gaussian, Inc.),
 the Gaussian(R) 03 system (copyright 2003, Gaussian, Inc.),
 the Gaussian(R) 98 system (copyright 1998, Gaussian, Inc.),
 the Gaussian(R) 94 system (copyright 1995, Gaussian, Inc.),
 the Gaussian 92(TM) system (copyright 1992, Gaussian, Inc.),
 the Gaussian 90(TM) system (copyright 1990, Gaussian, Inc.),
 the Gaussian 88(TM) system (copyright 1988, Gaussian, Inc.),
 the Gaussian 86(TM) system (copyright 1986, Carnegie Mellon
 University), and the Gaussian 82(TM) system (copyright 1983,
 Carnegie Mellon University). Gaussian is a federally registered
 trademark of Gaussian, Inc.
  
 This software contains proprietary and confidential information,
 including trade secrets, belonging to Gaussian, Inc.
  
 This software is provided under written license and may be
 used, copied, transmitted, or stored only in accord with that
 written license.
  
 The following legend is applicable only to US Government
 contracts under FAR:
  
                    RESTRICTED RIGHTS LEGEND
  
 Use, reproduction and disclosure by the US Government is
 subject to restrictions as set forth in subparagraphs (a)
 and (c) of the Commercial Computer Software - Restricted
 Rights clause in FAR 52.227-19.
  
 Gaussian, Inc.
 340 Quinnipiac St., Bldg. 40, Wallingford CT 06492
  
  
 ---------------------------------------------------------------
 Warning -- This program may not be used in any manner that
 competes with the business of Gaussian, Inc. or will provide
 assistance to any competitor of Gaussian, Inc.  The licensee
 of this program is prohibited from giving any competitor of
 Gaussian, Inc. access to this program.  By using this program,
 the user acknowledges that Gaussian, Inc. is engaged in the
 business of creating and licensing software in the field of
 computational chemistry and represents and warrants to the
 licensee that it is not a competitor of Gaussian, Inc. and that
 it will not use this program in any manner prohibited above.
 ---------------------------------------------------------------
  

 Cite this work as:
 Gaussian 16, Revision A.03,
 M. J. Frisch, G. W. Trucks, H. B. Schlegel, G. E. Scuseria, 
 M. A. Robb, J. R. Cheeseman, G. Scalmani, V. Barone, 
 G. A. Petersson, H. Nakatsuji, X. Li, M. Caricato, A. V. Marenich, 
 J. Bloino, B. G. Janesko, R. Gomperts, B. Mennucci, H. P. Hratchian, 
 J. V. Ortiz, A. F. Izmaylov, J. L. Sonnenberg, D. Williams-Young, 
 F. Ding, F. Lipparini, F. Egidi, J. Goings, B. Peng, A. Petrone, 
 T. Henderson, D. Ranasinghe, V. G. Zakrzewski, J. Gao, N. Rega, 
 G. Zheng, W. Liang, M. Hada, M. Ehara, K. Toyota, R. Fukuda, 
 J. Hasegawa, M. Ishida, T. Nakajima, Y. Honda, O. Kitao, H. Nakai, 
 T. Vreven, K. Throssell, J. A. Montgomery, Jr., J. E. Peralta, 
 F. Ogliaro, M. J. Bearpark, J. J. Heyd, E. N. Brothers, K. N. Kudin, 
 V. N. Staroverov, T. A. Keith, R. Kobayashi, J. Normand, 
 K. Raghavachari, A. P. Rendell, J. C. Burant, S. S. Iyengar, 
 J. Tomasi, M. Cossi, J. M. Millam, M. Klene, C. Adamo, R. Cammi, 
 J. W. Ochterski, R. L. Martin, K. Morokuma, O. Farkas, 
 J. B. Foresman, and D. J. Fox, Gaussian, Inc., Wallingford CT, 2016.
 
 ******************************************
 Gaussian 16:  EM64L-G16RevA.03 25-Dec-2016
                17-Sep-2021 
 ******************************************
 %chk=02-IsoP_020_gaussian.chk
 %nproc=1
 Will use up to    1 processors via shared memory.
 %mem=4000Mb
 ---------------------
 #p opt mp2/6-31g(d,p)
 ---------------------
 1/18=20,19=15,38=1/1,3;
 2/9=110,12=2,17=6,18=5,40=1/2;
 3/5=1,6=6,7=101,11=9,25=1,30=1,71=1/1,2,3;
 4//1;
 5/5=2,38=5/2;
 8/6=4,10=2/1;
 9/15=2,16=-3/6;
 10/5=1/2;
 6/7=2,8=2,9=2,10=2/1;
 7/12=2/1,2,3,16;
 1/18=20,19=15/3(2);
 2/9=110/2;
 99//99;
 2/9=110/2;
 3/5=1,6=6,7=101,11=9,25=1,30=1,71=1/1,2,3;
 4/5=5,16=3,69=1/1;
 5/5=2,38=5/2;
 8/6=4,10=2/1;
 9/15=2,16=-3/6;
 10/5=1/2;
 7/12=2/1,2,3,16;
 1/18=20,19=15/3(-8);
 2/9=110/2;
 6/7=2,8=2,9=2,10=2/1;
 99//99;
 Leave Link    1 at Fri Sep 17 20:09:26 2021, MaxMem=   524288000 cpu:               0.0 elap:               0.1
 (Enter /opt/gaussian/g16_legacy/l101.exe)
 -------------------------------------------------
 Conformer number 020. Energy MM = 28.610 kcal/mol
 -------------------------------------------------
 Symbolic Z-matrix:
 Charge =  0 Multiplicity = 1
 C                     2.1972    1.2609   -8.9937 
 H                     1.8747    0.2611   -9.3112 
 H                     2.053     1.908    -9.8692 
 C                     3.6758    1.2504   -8.638 
 C                     4.3377   -0.1013   -8.6476 
 H                     5.1105   -0.1871   -7.8789 
 H                     3.6141   -0.8969   -8.439 
 H                     4.784    -0.296    -9.6275 
 C                     4.3086    2.3934   -8.3077 
 H                     3.7446    3.3256   -8.3262 
 C                     5.7367    2.559    -7.8964 
 H                     6.3118    1.6316   -7.9358 
 H                     6.2277    3.2839   -8.5529 
 H                     5.7788    2.9425   -6.8722 
 C                     0.6068   -0.1279   -4.4783 
 H                     1.6136   -0.5576   -4.458 
 H                     0.4815    0.4707   -3.5708 
 H                    -0.1076   -0.9566   -4.4531 
 C                     0.371     0.7229   -5.6996 
 C                    -0.9778    1.3763   -5.7745 
 H                    -1.3181    1.5231   -6.8022 
 H                    -1.7365    0.7577   -5.281 
 H                    -0.9517    2.3478   -5.2715 
 C                     1.3442    0.8902   -6.6166 
 H                     2.3033    0.4061   -6.4342 
 C                     1.2764    1.7461   -7.8574 
 H                     0.2568    1.7739   -8.2527 
 H                     1.5399    2.7744   -7.5821 
 
 ITRead=  0  0  0  0  0  0  0  0  0  0  0  0  0  0  0  0  0  0  0  0
 ITRead=  0  0  0  0  0  0  0  0
 MicOpt= -1 -1 -1 -1 -1 -1 -1 -1 -1 -1 -1 -1 -1 -1 -1 -1 -1 -1 -1 -1
 MicOpt= -1 -1 -1 -1 -1 -1 -1 -1
 NAtoms=     28 NQM=       28 NQMF=       0 NMMI=      0 NMMIF=      0
                NMic=       0 NMicF=      0.
                    Isotopes and Nuclear Properties:
 (Nuclear quadrupole moments (NQMom) in fm**2, nuclear magnetic moments (NMagM)
  in nuclear magnetons)

  Atom         1           2           3           4           5           6           7           8           9          10
 IAtWgt=          12           1           1          12          12           1           1           1          12           1
 AtmWgt=  12.0000000   1.0078250   1.0078250  12.0000000  12.0000000   1.0078250   1.0078250   1.0078250  12.0000000   1.0078250
 NucSpn=           0           1           1           0           0           1           1           1           0           1
 AtZEff=  -0.0000000  -0.0000000  -0.0000000  -0.0000000  -0.0000000  -0.0000000  -0.0000000  -0.0000000  -0.0000000  -0.0000000
 NQMom=    0.0000000   0.0000000   0.0000000   0.0000000   0.0000000   0.0000000   0.0000000   0.0000000   0.0000000   0.0000000
 NMagM=    0.0000000   2.7928460   2.7928460   0.0000000   0.0000000   2.7928460   2.7928460   2.7928460   0.0000000   2.7928460
 AtZNuc=   6.0000000   1.0000000   1.0000000   6.0000000   6.0000000   1.0000000   1.0000000   1.0000000   6.0000000   1.0000000

  Atom        11          12          13          14          15          16          17          18          19          20
 IAtWgt=          12           1           1           1          12           1           1           1          12          12
 AtmWgt=  12.0000000   1.0078250   1.0078250   1.0078250  12.0000000   1.0078250   1.0078250   1.0078250  12.0000000  12.0000000
 NucSpn=           0           1           1           1           0           1           1           1           0           0
 AtZEff=  -0.0000000  -0.0000000  -0.0000000  -0.0000000  -0.0000000  -0.0000000  -0.0000000  -0.0000000  -0.0000000  -0.0000000
 NQMom=    0.0000000   0.0000000   0.0000000   0.0000000   0.0000000   0.0000000   0.0000000   0.0000000   0.0000000   0.0000000
 NMagM=    0.0000000   2.7928460   2.7928460   2.7928460   0.0000000   2.7928460   2.7928460   2.7928460   0.0000000   0.0000000
 AtZNuc=   6.0000000   1.0000000   1.0000000   1.0000000   6.0000000   1.0000000   1.0000000   1.0000000   6.0000000   6.0000000

  Atom        21          22          23          24          25          26          27          28
 IAtWgt=           1           1           1          12           1          12           1           1
 AtmWgt=   1.0078250   1.0078250   1.0078250  12.0000000   1.0078250  12.0000000   1.0078250   1.0078250
 NucSpn=           1           1           1           0           1           0           1           1
 AtZEff=  -0.0000000  -0.0000000  -0.0000000  -0.0000000  -0.0000000  -0.0000000  -0.0000000  -0.0000000
 NQMom=    0.0000000   0.0000000   0.0000000   0.0000000   0.0000000   0.0000000   0.0000000   0.0000000
 NMagM=    2.7928460   2.7928460   2.7928460   0.0000000   2.7928460   0.0000000   2.7928460   2.7928460
 AtZNuc=   1.0000000   1.0000000   1.0000000   6.0000000   1.0000000   6.0000000   1.0000000   1.0000000
 Leave Link  101 at Fri Sep 17 20:09:26 2021, MaxMem=   524288000 cpu:               0.3 elap:               0.3
 (Enter /opt/gaussian/g16_legacy/l103.exe)

 GradGradGradGradGradGradGradGradGradGradGradGradGradGradGradGradGradGrad
 Berny optimization.
 Initialization pass.
                           ----------------------------
                           !    Initial Parameters    !
                           ! (Angstroms and Degrees)  !
 --------------------------                            --------------------------
 ! Name  Definition              Value          Derivative Info.                !
 --------------------------------------------------------------------------------
 ! R1    R(1,2)                  1.0975         estimate D2E/DX2                !
 ! R2    R(1,3)                  1.0982         estimate D2E/DX2                !
 ! R3    R(1,4)                  1.5208         estimate D2E/DX2                !
 ! R4    R(1,26)                 1.5409         estimate D2E/DX2                !
 ! R5    R(4,5)                  1.5051         estimate D2E/DX2                !
 ! R6    R(4,9)                  1.3476         estimate D2E/DX2                !
 ! R7    R(5,6)                  1.0934         estimate D2E/DX2                !
 ! R8    R(5,7)                  1.0955         estimate D2E/DX2                !
 ! R9    R(5,8)                  1.0942         estimate D2E/DX2                !
 ! R10   R(9,10)                 1.0897         estimate D2E/DX2                !
 ! R11   R(9,11)                 1.4953         estimate D2E/DX2                !
 ! R12   R(11,12)                1.092          estimate D2E/DX2                !
 ! R13   R(11,13)                1.0943         estimate D2E/DX2                !
 ! R14   R(11,14)                1.0945         estimate D2E/DX2                !
 ! R15   R(15,16)                1.0949         estimate D2E/DX2                !
 ! R16   R(15,17)                1.0943         estimate D2E/DX2                !
 ! R17   R(15,18)                1.0944         estimate D2E/DX2                !
 ! R18   R(15,19)                1.507          estimate D2E/DX2                !
 ! R19   R(19,20)                1.5006         estimate D2E/DX2                !
 ! R20   R(19,24)                1.3476         estimate D2E/DX2                !
 ! R21   R(20,21)                1.0925         estimate D2E/DX2                !
 ! R22   R(20,22)                1.0963         estimate D2E/DX2                !
 ! R23   R(20,23)                1.0943         estimate D2E/DX2                !
 ! R24   R(24,25)                1.0897         estimate D2E/DX2                !
 ! R25   R(24,26)                1.5089         estimate D2E/DX2                !
 ! R26   R(26,27)                1.0939         estimate D2E/DX2                !
 ! R27   R(26,28)                1.0966         estimate D2E/DX2                !
 ! A1    A(2,1,3)              105.5204         estimate D2E/DX2                !
 ! A2    A(2,1,4)              110.3087         estimate D2E/DX2                !
 ! A3    A(2,1,26)             108.9409         estimate D2E/DX2                !
 ! A4    A(3,1,4)              108.5534         estimate D2E/DX2                !
 ! A5    A(3,1,26)             108.8975         estimate D2E/DX2                !
 ! A6    A(4,1,26)             114.2472         estimate D2E/DX2                !
 ! A7    A(1,4,5)              115.612          estimate D2E/DX2                !
 ! A8    A(1,4,9)              120.5318         estimate D2E/DX2                !
 ! A9    A(5,4,9)              123.8345         estimate D2E/DX2                !
 ! A10   A(4,5,6)              112.137          estimate D2E/DX2                !
 ! A11   A(4,5,7)              111.1333         estimate D2E/DX2                !
 ! A12   A(4,5,8)              110.1749         estimate D2E/DX2                !
 ! A13   A(6,5,7)              106.0214         estimate D2E/DX2                !
 ! A14   A(6,5,8)              109.1083         estimate D2E/DX2                !
 ! A15   A(7,5,8)              108.1021         estimate D2E/DX2                !
 ! A16   A(4,9,10)             118.5803         estimate D2E/DX2                !
 ! A17   A(4,9,11)             127.5759         estimate D2E/DX2                !
 ! A18   A(10,9,11)            113.843          estimate D2E/DX2                !
 ! A19   A(9,11,12)            113.5161         estimate D2E/DX2                !
 ! A20   A(9,11,13)            109.6851         estimate D2E/DX2                !
 ! A21   A(9,11,14)            109.4473         estimate D2E/DX2                !
 ! A22   A(12,11,13)           107.7365         estimate D2E/DX2                !
 ! A23   A(12,11,14)           108.1258         estimate D2E/DX2                !
 ! A24   A(13,11,14)           108.1817         estimate D2E/DX2                !
 ! A25   A(16,15,17)           107.7338         estimate D2E/DX2                !
 ! A26   A(16,15,18)           107.6174         estimate D2E/DX2                !
 ! A27   A(16,15,19)           112.364          estimate D2E/DX2                !
 ! A28   A(17,15,18)           108.6844         estimate D2E/DX2                !
 ! A29   A(17,15,19)           110.2015         estimate D2E/DX2                !
 ! A30   A(18,15,19)           110.1218         estimate D2E/DX2                !
 ! A31   A(15,19,20)           115.2722         estimate D2E/DX2                !
 ! A32   A(15,19,24)           120.568          estimate D2E/DX2                !
 ! A33   A(20,19,24)           124.132          estimate D2E/DX2                !
 ! A34   A(19,20,21)           112.6713         estimate D2E/DX2                !
 ! A35   A(19,20,22)           110.7254         estimate D2E/DX2                !
 ! A36   A(19,20,23)           110.0098         estimate D2E/DX2                !
 ! A37   A(21,20,22)           106.4819         estimate D2E/DX2                !
 ! A38   A(21,20,23)           108.6951         estimate D2E/DX2                !
 ! A39   A(22,20,23)           108.0916         estimate D2E/DX2                !
 ! A40   A(19,24,25)           117.8114         estimate D2E/DX2                !
 ! A41   A(19,24,26)           126.6942         estimate D2E/DX2                !
 ! A42   A(25,24,26)           115.4156         estimate D2E/DX2                !
 ! A43   A(1,26,24)            113.6365         estimate D2E/DX2                !
 ! A44   A(1,26,27)            107.3674         estimate D2E/DX2                !
 ! A45   A(1,26,28)            109.6814         estimate D2E/DX2                !
 ! A46   A(24,26,27)           110.699          estimate D2E/DX2                !
 ! A47   A(24,26,28)           108.34           estimate D2E/DX2                !
 ! A48   A(27,26,28)           106.9086         estimate D2E/DX2                !
 ! D1    D(2,1,4,5)             -6.1525         estimate D2E/DX2                !
 ! D2    D(2,1,4,9)            175.4788         estimate D2E/DX2                !
 ! D3    D(3,1,4,5)           -121.314          estimate D2E/DX2                !
 ! D4    D(3,1,4,9)             60.3173         estimate D2E/DX2                !
 ! D5    D(26,1,4,5)           116.96           estimate D2E/DX2                !
 ! D6    D(26,1,4,9)           -61.4087         estimate D2E/DX2                !
 ! D7    D(2,1,26,24)           62.821          estimate D2E/DX2                !
 ! D8    D(2,1,26,27)          -59.94           estimate D2E/DX2                !
 ! D9    D(2,1,26,28)         -175.7581         estimate D2E/DX2                !
 ! D10   D(3,1,26,24)          177.4344         estimate D2E/DX2                !
 ! D11   D(3,1,26,27)           54.6735         estimate D2E/DX2                !
 ! D12   D(3,1,26,28)          -61.1446         estimate D2E/DX2                !
 ! D13   D(4,1,26,24)          -61.0289         estimate D2E/DX2                !
 ! D14   D(4,1,26,27)          176.2101         estimate D2E/DX2                !
 ! D15   D(4,1,26,28)           60.392          estimate D2E/DX2                !
 ! D16   D(1,4,5,6)           -145.6084         estimate D2E/DX2                !
 ! D17   D(1,4,5,7)            -27.1388         estimate D2E/DX2                !
 ! D18   D(1,4,5,8)             92.6572         estimate D2E/DX2                !
 ! D19   D(9,4,5,6)             32.6999         estimate D2E/DX2                !
 ! D20   D(9,4,5,7)            151.1695         estimate D2E/DX2                !
 ! D21   D(9,4,5,8)            -89.0344         estimate D2E/DX2                !
 ! D22   D(1,4,9,10)            -1.546          estimate D2E/DX2                !
 ! D23   D(1,4,9,11)           178.1188         estimate D2E/DX2                !
 ! D24   D(5,4,9,10)          -179.7749         estimate D2E/DX2                !
 ! D25   D(5,4,9,11)            -0.1102         estimate D2E/DX2                !
 ! D26   D(4,9,11,12)            3.6935         estimate D2E/DX2                !
 ! D27   D(4,9,11,13)          124.2596         estimate D2E/DX2                !
 ! D28   D(4,9,11,14)         -117.2007         estimate D2E/DX2                !
 ! D29   D(10,9,11,12)        -176.6284         estimate D2E/DX2                !
 ! D30   D(10,9,11,13)         -56.0622         estimate D2E/DX2                !
 ! D31   D(10,9,11,14)          62.4775         estimate D2E/DX2                !
 ! D32   D(16,15,19,20)       -178.3621         estimate D2E/DX2                !
 ! D33   D(16,15,19,24)         -0.2025         estimate D2E/DX2                !
 ! D34   D(17,15,19,20)        -58.2064         estimate D2E/DX2                !
 ! D35   D(17,15,19,24)        119.9532         estimate D2E/DX2                !
 ! D36   D(18,15,19,20)         61.6848         estimate D2E/DX2                !
 ! D37   D(18,15,19,24)       -120.1556         estimate D2E/DX2                !
 ! D38   D(15,19,20,21)       -149.9705         estimate D2E/DX2                !
 ! D39   D(15,19,20,22)        -30.84           estimate D2E/DX2                !
 ! D40   D(15,19,20,23)         88.5759         estimate D2E/DX2                !
 ! D41   D(24,19,20,21)         31.9439         estimate D2E/DX2                !
 ! D42   D(24,19,20,22)        151.0745         estimate D2E/DX2                !
 ! D43   D(24,19,20,23)        -89.5097         estimate D2E/DX2                !
 ! D44   D(15,19,24,25)         -1.0358         estimate D2E/DX2                !
 ! D45   D(15,19,24,26)       -177.6433         estimate D2E/DX2                !
 ! D46   D(20,19,24,25)        176.9535         estimate D2E/DX2                !
 ! D47   D(20,19,24,26)          0.3461         estimate D2E/DX2                !
 ! D48   D(19,24,26,1)        -153.0282         estimate D2E/DX2                !
 ! D49   D(19,24,26,27)        -32.1187         estimate D2E/DX2                !
 ! D50   D(19,24,26,28)         84.8053         estimate D2E/DX2                !
 ! D51   D(25,24,26,1)          30.2939         estimate D2E/DX2                !
 ! D52   D(25,24,26,27)        151.2034         estimate D2E/DX2                !
 ! D53   D(25,24,26,28)        -91.8726         estimate D2E/DX2                !
 --------------------------------------------------------------------------------
 Trust Radius=3.00D-01 FncErr=1.00D-07 GrdErr=1.00D-07 EigMax=2.50D+02 EigMin=1.00D-04
 Number of steps in this run=    138 maximum allowed number of steps=    168.
 GradGradGradGradGradGradGradGradGradGradGradGradGradGradGradGradGradGrad

 Leave Link  103 at Fri Sep 17 20:09:26 2021, MaxMem=   524288000 cpu:               0.1 elap:               0.0
 (Enter /opt/gaussian/g16_legacy/l202.exe)
                          Input orientation:                          
 ---------------------------------------------------------------------
 Center     Atomic      Atomic             Coordinates (Angstroms)
 Number     Number       Type             X           Y           Z
 ---------------------------------------------------------------------
      1          6           0        2.197200    1.260900   -8.993700
      2          1           0        1.874700    0.261100   -9.311200
      3          1           0        2.053000    1.908000   -9.869200
      4          6           0        3.675800    1.250400   -8.638000
      5          6           0        4.337700   -0.101300   -8.647600
      6          1           0        5.110500   -0.187100   -7.878900
      7          1           0        3.614100   -0.896900   -8.439000
      8          1           0        4.784000   -0.296000   -9.627500
      9          6           0        4.308600    2.393400   -8.307700
     10          1           0        3.744600    3.325600   -8.326200
     11          6           0        5.736700    2.559000   -7.896400
     12          1           0        6.311800    1.631600   -7.935800
     13          1           0        6.227700    3.283900   -8.552900
     14          1           0        5.778800    2.942500   -6.872200
     15          6           0        0.606800   -0.127900   -4.478300
     16          1           0        1.613600   -0.557600   -4.458000
     17          1           0        0.481500    0.470700   -3.570800
     18          1           0       -0.107600   -0.956600   -4.453100
     19          6           0        0.371000    0.722900   -5.699600
     20          6           0       -0.977800    1.376300   -5.774500
     21          1           0       -1.318100    1.523100   -6.802200
     22          1           0       -1.736500    0.757700   -5.281000
     23          1           0       -0.951700    2.347800   -5.271500
     24          6           0        1.344200    0.890200   -6.616600
     25          1           0        2.303300    0.406100   -6.434200
     26          6           0        1.276400    1.746100   -7.857400
     27          1           0        0.256800    1.773900   -8.252700
     28          1           0        1.539900    2.774400   -7.582100
 ---------------------------------------------------------------------
                    Distance matrix (angstroms):
                    1          2          3          4          5
     1  C    0.000000
     2  H    1.097457   0.000000
     3  H    1.098195   1.747980   0.000000
     4  C    1.520819   2.162377   2.140507   0.000000
     5  C    2.560686   2.576445   3.278635   1.505090   0.000000
     6  H    3.439011   3.566899   4.207023   2.168180   1.093381
     7  H    2.640341   2.264334   3.514252   2.157384   1.095486
     8  H    3.084992   2.978999   3.517726   2.144428   1.094210
     9  C    2.492220   3.387858   2.785970   1.347584   2.517917
    10  H    2.665143   3.722622   2.692944   2.099621   3.492665
    11  C    3.926473   4.711374   4.229112   2.551414   3.098177
    12  H    4.264564   4.843331   4.685276   2.754432   2.721520
    13  H    4.531199   5.353592   4.588449   3.264132   3.878227
    14  H    4.489588   5.327347   4.892217   3.225502   3.807037
    15  C    4.984674   5.011568   5.941228   5.349914   5.594943
    16  H    4.921393   4.928691   5.962662   4.999393   5.018135
    17  H    5.742463   5.910764   6.648706   6.040530   6.400887
    18  H    5.553959   5.386413   6.496789   6.057917   6.171390
    19  C    3.804674   3.939293   4.649640   4.453555   5.010461
    20  C    4.522963   4.678533   5.122013   5.465480   6.220333
    21  H    4.150754   4.252258   4.573724   5.327623   6.167029
    22  H    5.432435   5.434141   6.060947   6.387894   6.997698
    23  H    4.995167   5.353693   5.510036   5.826780   6.736015
    24  C    2.552574   2.817457   3.481052   3.106793   3.750877
    25  H    2.700552   2.912362   3.757337   2.730079   3.048832
    26  C    1.540931   2.162573   2.162558   2.571415   3.661811
    27  H    2.139486   2.454911   2.420204   3.480240   4.508444
    28  H    2.171483   3.068966   2.498949   2.828351   4.151220
                    6          7          8          9         10
     6  H    0.000000
     7  H    1.748354   0.000000
     8  H    1.782151   1.772647   0.000000
     9  C    2.736036   3.365359   3.033274   0.000000
    10  H    3.795368   4.226022   3.986191   1.089695   0.000000
    11  C    2.816647   4.091832   3.472084   1.495346   2.177353
    12  H    2.180374   3.731502   2.985241   2.175192   3.100414
    13  H    3.708133   4.931832   4.006834   2.129802   2.493776
    14  H    3.354768   4.677797   4.366828   2.126890   2.529595
    15  C    5.643660   5.032133   6.632610   5.892757   6.048040
    16  H    4.905929   4.468275   6.069893   5.549019   5.880763
    17  H    6.357678   5.948351   7.468798   6.386054   6.435224
    18  H    6.289420   5.453624   7.151123   6.751538   6.941008
    19  C    5.295310   4.543761   5.995092   5.009735   5.005422
    20  C    6.628734   5.775166   7.130255   5.949590   5.710692
    21  H    6.738766   5.732548   6.966137   5.889287   5.585921
    22  H    7.383979   6.429587   7.906913   6.955549   6.775678
    23  H    7.069266   6.434879   7.672201   6.073825   5.687048
    24  C    4.115701   3.415745   4.722797   3.729222   3.823065
    25  H    3.212385   2.726762   4.104142   3.388302   3.765699
    26  C    4.293955   3.576108   4.427944   3.133050   2.967592
    27  H    5.248205   4.294106   5.164310   4.099255   3.818105
    28  H    4.648414   4.302909   4.912759   2.887448   2.391278
                   11         12         13         14         15
    11  C    0.000000
    12  H    1.091954   0.000000
    13  H    1.094328   1.765780   0.000000
    14  H    1.094454   1.770252   1.772799   0.000000
    15  C    6.724486   6.899070   7.735455   6.473615   0.000000
    16  H    6.207716   6.241857   7.267410   5.952138   1.094852
    17  H    7.119617   7.375182   8.108898   6.713451   1.094339
    18  H    7.640131   7.748334   8.655994   7.463560   1.094416
    19  C    6.081770   6.412443   7.000070   5.962040   1.506996
    20  C    7.140431   7.607540   7.954727   7.022077   2.540415
    21  H    7.213915   7.714415   7.943832   7.237789   3.439702
    22  H    8.119958   8.519789   8.973043   7.986551   2.630526
    23  H    7.188143   7.769805   7.949066   6.943741   3.031036
    24  C    4.869994   5.192977   5.773009   4.893153   2.480446
    25  H    4.308276   4.452496   5.307687   4.324843   2.643636
    26  C    4.533939   5.037312   5.231054   4.761680   3.921550
    27  H    5.547309   6.064957   6.166187   5.810670   4.240924
    28  H    4.214061   4.919566   4.814303   4.301219   4.350586
                   16         17         18         19         20
    16  H    0.000000
    17  H    1.768099   0.000000
    18  H    1.766849   1.778392   0.000000
    19  C    2.173777   2.146533   2.145586   0.000000
    20  C    3.491203   2.793915   2.818824   1.500601   0.000000
    21  H    4.291789   3.845524   3.623878   2.170047   1.092484
    22  H    3.691952   2.815435   2.505506   2.148952   1.096282
    23  H    3.960290   2.910317   3.507327   2.138482   1.094305
    24  C    2.613093   3.193294   3.193607   1.347589   2.517362
    25  H    2.304294   3.394435   3.405018   2.091359   3.484553
    26  C    4.120274   4.542406   4.561721   2.553975   3.091382
    27  H    4.655808   4.865080   4.693120   2.763324   2.797105
    28  H    4.568113   4.745289   5.140550   3.019733   3.400135
                   21         22         23         24         25
    21  H    0.000000
    22  H    1.753552   0.000000
    23  H    1.776913   1.773251   0.000000
    24  C    2.742782   3.360371   3.033982   0.000000
    25  H    3.807578   4.215860   3.964479   1.089723   0.000000
    26  C    2.809734   4.085626   3.466028   1.508889   2.208081
    27  H    2.155727   3.719799   3.267627   2.154109   3.060389
    28  H    3.215923   4.482961   3.424753   2.126193   2.740310
                   26         27         28
    26  C    0.000000
    27  H    1.093901   0.000000
    28  H    1.096642   1.759844   0.000000
 Stoichiometry    C10H18
 Framework group  C1[X(C10H18)]
 Deg. of freedom    78
 Full point group                 C1      NOp   1
 Largest Abelian subgroup         C1      NOp   1
 Largest concise Abelian subgroup C1      NOp   1
                         Standard orientation:                         
 ---------------------------------------------------------------------
 Center     Atomic      Atomic             Coordinates (Angstroms)
 Number     Number       Type             X           Y           Z
 ---------------------------------------------------------------------
      1          6           0        0.836707   -1.344993    0.712323
      2          1           0        0.568841   -1.322647    1.776353
      3          1           0        1.278762   -2.335639    0.541325
      4          6           0        1.887212   -0.287626    0.410153
      5          6           0        2.225207    0.637570    1.548163
      6          1           0        2.456972    1.648579    1.202292
      7          1           0        1.380393    0.740239    2.237974
      8          1           0        3.078379    0.247231    2.111216
      9          6           0        2.431603   -0.195119   -0.819101
     10          1           0        2.121601   -0.909202   -1.581609
     11          6           0        3.439625    0.800452   -1.297422
     12          1           0        3.789922    1.476314   -0.514565
     13          1           0        4.311894    0.277096   -1.700905
     14          1           0        3.003101    1.404754   -2.098732
     15          6           0       -3.078467    1.679388    0.102812
     16          1           0       -2.316489    2.418173    0.371672
     17          1           0       -3.559040    2.017093   -0.820543
     18          1           0       -3.825281    1.667659    0.902736
     19          6           0       -2.499305    0.300997   -0.085981
     20          6           0       -3.482506   -0.756628   -0.494084
     21          1           0       -3.207043   -1.749879   -0.132014
     22          1           0       -4.476431   -0.541004   -0.084872
     23          1           0       -3.564220   -0.791082   -1.584789
     24          6           0       -1.178623    0.084934    0.072489
     25          1           0       -0.550075    0.939276    0.322536
     26          6           0       -0.447803   -1.219604   -0.129569
     27          1           0       -1.090544   -2.066677    0.127279
     28          1           0       -0.202644   -1.316504   -1.194055
 ---------------------------------------------------------------------
 Rotational constants (GHZ):           2.1619554           0.5494315           0.5286698
 Leave Link  202 at Fri Sep 17 20:09:26 2021, MaxMem=   524288000 cpu:               0.0 elap:               0.0
 (Enter /opt/gaussian/g16_legacy/l301.exe)
 Standard basis: 6-31G(d,p) (6D, 7F)
 Ernie: Thresh=  0.10000D-02 Tol=  0.10000D-05 Strict=F.
 There are   240 symmetry adapted cartesian basis functions of A   symmetry.
 There are   240 symmetry adapted basis functions of A   symmetry.
   240 basis functions,   406 primitive gaussians,   240 cartesian basis functions
    39 alpha electrons       39 beta electrons
       nuclear repulsion energy       516.9883688642 Hartrees.
 IExCor=    0 DFT=F Ex=HF Corr=None ExCW=0 ScaHFX=  1.000000
 ScaDFX=  1.000000  1.000000  1.000000  1.000000 ScalE2=  1.000000  1.000000
 IRadAn=      5 IRanWt=     -1 IRanGd=            0 ICorTp=0 IEmpDi=  4
 NAtoms=   28 NActive=   28 NUniq=   28 SFac= 1.00D+00 NAtFMM=   60 NAOKFM=F Big=F
 Integral buffers will be    131072 words long.
 Raffenetti 1 integral format.
 Two-electron integral symmetry is turned on.
 Leave Link  301 at Fri Sep 17 20:09:26 2021, MaxMem=   524288000 cpu:               0.1 elap:               0.1
 (Enter /opt/gaussian/g16_legacy/l302.exe)
 NPDir=0 NMtPBC=     1 NCelOv=     1 NCel=       1 NClECP=     1 NCelD=      1
         NCelK=      1 NCelE2=     1 NClLst=     1 CellRange=     0.0.
 One-electron integrals computed using PRISM.
 One-electron integral symmetry used in STVInt
 NBasis=   240 RedAO= T EigKep=  2.03D-03  NBF=   240
 NBsUse=   240 1.00D-06 EigRej= -1.00D+00 NBFU=   240
 Leave Link  302 at Fri Sep 17 20:09:27 2021, MaxMem=   524288000 cpu:               0.3 elap:               0.3
 (Enter /opt/gaussian/g16_legacy/l303.exe)
 DipDrv:  MaxL=1.
 Leave Link  303 at Fri Sep 17 20:09:27 2021, MaxMem=   524288000 cpu:               0.1 elap:               0.2
 (Enter /opt/gaussian/g16_legacy/l401.exe)
 ExpMin= 1.61D-01 ExpMax= 3.05D+03 ExpMxC= 4.57D+02 IAcc=3 IRadAn=         5 AccDes= 0.00D+00
 Harris functional with IExCor=  205 and IRadAn=       5 diagonalized for initial guess.
 HarFok:  IExCor=  205 AccDes= 0.00D+00 IRadAn=         5 IDoV= 1 UseB2=F ITyADJ=14
 ICtDFT=  3500011 ScaDFX=  1.000000  1.000000  1.000000  1.000000
 FoFCou: FMM=F IPFlag=           0 FMFlag=      100000 FMFlg1=           0
         NFxFlg=           0 DoJE=T BraDBF=F KetDBF=T FulRan=T
         wScrn=  0.000000 ICntrl=       500 IOpCl=  0 I1Cent=   200000004 NGrid=           0
         NMat0=    1 NMatS0=      1 NMatT0=    0 NMatD0=    1 NMtDS0=    0 NMtDT0=    0
 Petite list used in FoFCou.
 Harris En= -390.106091157782    
 JPrj=0 DoOrth=F DoCkMO=F.
 Leave Link  401 at Fri Sep 17 20:09:38 2021, MaxMem=   524288000 cpu:              11.1 elap:              11.3
 (Enter /opt/gaussian/g16_legacy/l502.exe)
 Keep R1 ints in memory in canonical form, NReq=425198025.
 FoFCou: FMM=F IPFlag=           0 FMFlag=           0 FMFlg1=           0
         NFxFlg=           0 DoJE=F BraDBF=F KetDBF=F FulRan=T
         wScrn=  0.000000 ICntrl=       600 IOpCl=  0 I1Cent=           0 NGrid=           0
         NMat0=    1 NMatS0=  28920 NMatT0=    0 NMatD0=    1 NMtDS0=    0 NMtDT0=    0
 Symmetry not used in FoFCou.
 Two-electron integral symmetry not used.
 Closed shell SCF:
 Using DIIS extrapolation, IDIIS=  1040.
 NGot=   524288000 LenX=   105970886 LenY=   105912845
 Requested convergence on RMS density matrix=1.00D-08 within 128 cycles.
 Requested convergence on MAX density matrix=1.00D-06.
 Requested convergence on             energy=1.00D-06.
 No special actions if energy rises.

 Cycle   1  Pass 1  IDiag  1:
 E= -388.524563212983    
 DIIS: error= 5.71D-02 at cycle   1 NSaved=   1.
 NSaved= 1 IEnMin= 1 EnMin= -388.524563212983     IErMin= 1 ErrMin= 5.71D-02
 ErrMax= 5.71D-02  0.00D+00 EMaxC= 1.00D-01 BMatC= 8.09D-01 BMatP= 8.09D-01
 IDIUse=3 WtCom= 4.29D-01 WtEn= 5.71D-01
 Coeff-Com:  0.100D+01
 Coeff-En:   0.100D+01
 Coeff:      0.100D+01
 Gap=     0.505 Goal=   None    Shift=    0.000
 GapD=    0.505 DampG=2.000 DampE=0.500 DampFc=1.0000 IDamp=-1.
 RMSDP=4.04D-03 MaxDP=1.13D-01              OVMax= 1.40D-01

 Cycle   2  Pass 1  IDiag  1:
 E= -389.065176223048     Delta-E=       -0.540613010065 Rises=F Damp=F
 DIIS: error= 1.69D-02 at cycle   2 NSaved=   2.
 NSaved= 2 IEnMin= 2 EnMin= -389.065176223048     IErMin= 2 ErrMin= 1.69D-02
 ErrMax= 1.69D-02  0.00D+00 EMaxC= 1.00D-01 BMatC= 8.81D-02 BMatP= 8.09D-01
 IDIUse=3 WtCom= 8.31D-01 WtEn= 1.69D-01
 Coeff-Com:  0.185D+00 0.815D+00
 Coeff-En:   0.000D+00 0.100D+01
 Coeff:      0.154D+00 0.846D+00
 Gap=     0.552 Goal=   None    Shift=    0.000
 RMSDP=1.71D-03 MaxDP=3.05D-02 DE=-5.41D-01 OVMax= 4.56D-02

 Cycle   3  Pass 1  IDiag  1:
 E= -389.144236677434     Delta-E=       -0.079060454386 Rises=F Damp=F
 DIIS: error= 2.84D-03 at cycle   3 NSaved=   3.
 NSaved= 3 IEnMin= 3 EnMin= -389.144236677434     IErMin= 3 ErrMin= 2.84D-03
 ErrMax= 2.84D-03  0.00D+00 EMaxC= 1.00D-01 BMatC= 3.26D-03 BMatP= 8.81D-02
 IDIUse=3 WtCom= 9.72D-01 WtEn= 2.84D-02
 Coeff-Com: -0.246D-01 0.109D+00 0.916D+00
 Coeff-En:   0.000D+00 0.000D+00 0.100D+01
 Coeff:     -0.239D-01 0.106D+00 0.918D+00
 Gap=     0.496 Goal=   None    Shift=    0.000
 RMSDP=2.67D-04 MaxDP=6.09D-03 DE=-7.91D-02 OVMax= 1.10D-02

 Cycle   4  Pass 1  IDiag  1:
 E= -389.148033081057     Delta-E=       -0.003796403623 Rises=F Damp=F
 DIIS: error= 5.50D-04 at cycle   4 NSaved=   4.
 NSaved= 4 IEnMin= 4 EnMin= -389.148033081057     IErMin= 4 ErrMin= 5.50D-04
 ErrMax= 5.50D-04  0.00D+00 EMaxC= 1.00D-01 BMatC= 7.92D-05 BMatP= 3.26D-03
 IDIUse=3 WtCom= 9.95D-01 WtEn= 5.50D-03
 Coeff-Com: -0.313D-02-0.628D-02 0.532D-01 0.956D+00
 Coeff-En:   0.000D+00 0.000D+00 0.000D+00 0.100D+01
 Coeff:     -0.311D-02-0.624D-02 0.529D-01 0.956D+00
 Gap=     0.496 Goal=   None    Shift=    0.000
 RMSDP=8.12D-05 MaxDP=2.15D-03 DE=-3.80D-03 OVMax= 2.80D-03

 Cycle   5  Pass 1  IDiag  1:
 E= -389.148145152990     Delta-E=       -0.000112071933 Rises=F Damp=F
 DIIS: error= 1.70D-04 at cycle   5 NSaved=   5.
 NSaved= 5 IEnMin= 5 EnMin= -389.148145152990     IErMin= 5 ErrMin= 1.70D-04
 ErrMax= 1.70D-04  0.00D+00 EMaxC= 1.00D-01 BMatC= 1.51D-05 BMatP= 7.92D-05
 IDIUse=3 WtCom= 9.98D-01 WtEn= 1.70D-03
 Coeff-Com:  0.213D-02-0.147D-01-0.920D-01 0.212D+00 0.893D+00
 Coeff-En:   0.000D+00 0.000D+00 0.000D+00 0.000D+00 0.100D+01
 Coeff:      0.213D-02-0.147D-01-0.918D-01 0.212D+00 0.893D+00
 Gap=     0.496 Goal=   None    Shift=    0.000
 RMSDP=2.74D-05 MaxDP=6.40D-04 DE=-1.12D-04 OVMax= 1.13D-03

 Cycle   6  Pass 1  IDiag  1:
 E= -389.148165090296     Delta-E=       -0.000019937305 Rises=F Damp=F
 DIIS: error= 4.59D-05 at cycle   6 NSaved=   6.
 NSaved= 6 IEnMin= 6 EnMin= -389.148165090296     IErMin= 6 ErrMin= 4.59D-05
 ErrMax= 4.59D-05  0.00D+00 EMaxC= 1.00D-01 BMatC= 8.29D-07 BMatP= 1.51D-05
 IDIUse=1 WtCom= 1.00D+00 WtEn= 0.00D+00
 Coeff-Com:  0.749D-03-0.348D-02-0.265D-01-0.137D-01 0.206D+00 0.837D+00
 Coeff:      0.749D-03-0.348D-02-0.265D-01-0.137D-01 0.206D+00 0.837D+00
 Gap=     0.496 Goal=   None    Shift=    0.000
 RMSDP=6.28D-06 MaxDP=1.49D-04 DE=-1.99D-05 OVMax= 3.20D-04

 Cycle   7  Pass 1  IDiag  1:
 E= -389.148166212725     Delta-E=       -0.000001122429 Rises=F Damp=F
 DIIS: error= 1.03D-05 at cycle   7 NSaved=   7.
 NSaved= 7 IEnMin= 7 EnMin= -389.148166212725     IErMin= 7 ErrMin= 1.03D-05
 ErrMax= 1.03D-05  0.00D+00 EMaxC= 1.00D-01 BMatC= 3.45D-08 BMatP= 8.29D-07
 IDIUse=1 WtCom= 1.00D+00 WtEn= 0.00D+00
 Coeff-Com: -0.327D-04 0.358D-03 0.223D-02-0.111D-01-0.303D-01 0.749D-01
 Coeff-Com:  0.964D+00
 Coeff:     -0.327D-04 0.358D-03 0.223D-02-0.111D-01-0.303D-01 0.749D-01
 Coeff:      0.964D+00
 Gap=     0.496 Goal=   None    Shift=    0.000
 RMSDP=1.64D-06 MaxDP=5.29D-05 DE=-1.12D-06 OVMax= 9.94D-05

 Cycle   8  Pass 1  IDiag  1:
 E= -389.148166285352     Delta-E=       -0.000000072628 Rises=F Damp=F
 DIIS: error= 3.46D-06 at cycle   8 NSaved=   8.
 NSaved= 8 IEnMin= 8 EnMin= -389.148166285352     IErMin= 8 ErrMin= 3.46D-06
 ErrMax= 3.46D-06  0.00D+00 EMaxC= 1.00D-01 BMatC= 5.65D-09 BMatP= 3.45D-08
 IDIUse=1 WtCom= 1.00D+00 WtEn= 0.00D+00
 Coeff-Com: -0.721D-04 0.344D-03 0.269D-02 0.175D-02-0.237D-01-0.829D-01
 Coeff-Com:  0.539D-01 0.105D+01
 Coeff:     -0.721D-04 0.344D-03 0.269D-02 0.175D-02-0.237D-01-0.829D-01
 Coeff:      0.539D-01 0.105D+01
 Gap=     0.496 Goal=   None    Shift=    0.000
 RMSDP=7.20D-07 MaxDP=2.30D-05 DE=-7.26D-08 OVMax= 4.34D-05

 Cycle   9  Pass 1  IDiag  1:
 E= -389.148166298323     Delta-E=       -0.000000012971 Rises=F Damp=F
 DIIS: error= 2.10D-06 at cycle   9 NSaved=   9.
 NSaved= 9 IEnMin= 9 EnMin= -389.148166298323     IErMin= 9 ErrMin= 2.10D-06
 ErrMax= 2.10D-06  0.00D+00 EMaxC= 1.00D-01 BMatC= 5.72D-10 BMatP= 5.65D-09
 IDIUse=1 WtCom= 1.00D+00 WtEn= 0.00D+00
 Coeff-Com:  0.106D-05-0.300D-04-0.170D-03 0.165D-02 0.178D-02-0.987D-02
 Coeff-Com: -0.823D-01-0.423D-01 0.113D+01
 Coeff:      0.106D-05-0.300D-04-0.170D-03 0.165D-02 0.178D-02-0.987D-02
 Coeff:     -0.823D-01-0.423D-01 0.113D+01
 Gap=     0.496 Goal=   None    Shift=    0.000
 RMSDP=2.71D-07 MaxDP=1.33D-05 DE=-1.30D-08 OVMax= 2.90D-05

 Cycle  10  Pass 1  IDiag  1:
 E= -389.148166300631     Delta-E=       -0.000000002308 Rises=F Damp=F
 DIIS: error= 7.03D-07 at cycle  10 NSaved=  10.
 NSaved=10 IEnMin=10 EnMin= -389.148166300631     IErMin=10 ErrMin= 7.03D-07
 ErrMax= 7.03D-07  0.00D+00 EMaxC= 1.00D-01 BMatC= 1.85D-10 BMatP= 5.72D-10
 IDIUse=1 WtCom= 1.00D+00 WtEn= 0.00D+00
 Coeff-Com:  0.116D-04-0.614D-04-0.468D-03 0.754D-04 0.375D-02 0.122D-01
 Coeff-Com: -0.150D-01-0.228D+00 0.221D+00 0.101D+01
 Coeff:      0.116D-04-0.614D-04-0.468D-03 0.754D-04 0.375D-02 0.122D-01
 Coeff:     -0.150D-01-0.228D+00 0.221D+00 0.101D+01
 Gap=     0.496 Goal=   None    Shift=    0.000
 RMSDP=1.37D-07 MaxDP=4.17D-06 DE=-2.31D-09 OVMax= 9.50D-06

 Cycle  11  Pass 1  IDiag  1:
 E= -389.148166301051     Delta-E=       -0.000000000419 Rises=F Damp=F
 DIIS: error= 2.37D-07 at cycle  11 NSaved=  11.
 NSaved=11 IEnMin=11 EnMin= -389.148166301051     IErMin=11 ErrMin= 2.37D-07
 ErrMax= 2.37D-07  0.00D+00 EMaxC= 1.00D-01 BMatC= 8.66D-12 BMatP= 1.85D-10
 IDIUse=1 WtCom= 1.00D+00 WtEn= 0.00D+00
 Coeff-Com:  0.803D-06-0.126D-05-0.147D-04-0.181D-03-0.866D-04 0.240D-02
 Coeff-Com:  0.126D-01-0.175D-01-0.961D-01 0.304D-01 0.107D+01
 Coeff:      0.803D-06-0.126D-05-0.147D-04-0.181D-03-0.866D-04 0.240D-02
 Coeff:      0.126D-01-0.175D-01-0.961D-01 0.304D-01 0.107D+01
 Gap=     0.496 Goal=   None    Shift=    0.000
 RMSDP=3.33D-08 MaxDP=1.39D-06 DE=-4.19D-10 OVMax= 3.16D-06

 Cycle  12  Pass 1  IDiag  1:
 E= -389.148166301074     Delta-E=       -0.000000000023 Rises=F Damp=F
 DIIS: error= 4.30D-08 at cycle  12 NSaved=  12.
 NSaved=12 IEnMin=12 EnMin= -389.148166301074     IErMin=12 ErrMin= 4.30D-08
 ErrMax= 4.30D-08  0.00D+00 EMaxC= 1.00D-01 BMatC= 9.46D-13 BMatP= 8.66D-12
 IDIUse=1 WtCom= 1.00D+00 WtEn= 0.00D+00
 Coeff-Com: -0.949D-06 0.512D-05 0.391D-04 0.784D-05-0.346D-03-0.111D-02
 Coeff-Com:  0.838D-03 0.185D-01-0.124D-01-0.109D+00-0.270D-01 0.113D+01
 Coeff:     -0.949D-06 0.512D-05 0.391D-04 0.784D-05-0.346D-03-0.111D-02
 Coeff:      0.838D-03 0.185D-01-0.124D-01-0.109D+00-0.270D-01 0.113D+01
 Gap=     0.496 Goal=   None    Shift=    0.000
 RMSDP=1.14D-08 MaxDP=3.41D-07 DE=-2.30D-11 OVMax= 7.82D-07

 Cycle  13  Pass 1  IDiag  1:
 E= -389.148166301092     Delta-E=       -0.000000000018 Rises=F Damp=F
 DIIS: error= 7.12D-09 at cycle  13 NSaved=  13.
 NSaved=13 IEnMin=13 EnMin= -389.148166301092     IErMin=13 ErrMin= 7.12D-09
 ErrMax= 7.12D-09  0.00D+00 EMaxC= 1.00D-01 BMatC= 3.96D-14 BMatP= 9.46D-13
 IDIUse=1 WtCom= 1.00D+00 WtEn= 0.00D+00
 Coeff-Com: -0.121D-06 0.508D-06 0.402D-05 0.135D-04-0.300D-04-0.220D-03
 Coeff-Com: -0.693D-03 0.259D-02 0.616D-02-0.115D-01-0.650D-01 0.110D+00
 Coeff-Com:  0.959D+00
 Coeff:     -0.121D-06 0.508D-06 0.402D-05 0.135D-04-0.300D-04-0.220D-03
 Coeff:     -0.693D-03 0.259D-02 0.616D-02-0.115D-01-0.650D-01 0.110D+00
 Coeff:      0.959D+00
 Gap=     0.496 Goal=   None    Shift=    0.000
 RMSDP=1.72D-09 MaxDP=3.38D-08 DE=-1.80D-11 OVMax= 7.42D-08

 SCF Done:  E(RHF) =  -389.148166301     A.U. after   13 cycles
            NFock= 13  Conv=0.17D-08     -V/T= 2.0013
 KE= 3.886235506531D+02 PE=-1.938720901263D+03 EE= 6.439608154449D+02
 Leave Link  502 at Fri Sep 17 20:10:18 2021, MaxMem=   524288000 cpu:              39.9 elap:              40.1
 (Enter /opt/gaussian/g16_legacy/l801.exe)
 ExpMin= 1.61D-01 ExpMax= 3.05D+03 ExpMxC= 4.57D+02 IAcc=3 IRadAn=         5 AccDes= 0.00D+00
 HarFok:  IExCor=  205 AccDes= 0.00D+00 IRadAn=         5 IDoV=-2 UseB2=F ITyADJ=14
 ICtDFT= 12500011 ScaDFX=  1.000000  1.000000  1.000000  1.000000
 Largest valence mixing into a core orbital is  1.98D-04
 Largest core mixing into a valence orbital is  3.52D-05
 Range of M.O.s used for correlation:    11   240
 NBasis=   240 NAE=    39 NBE=    39 NFC=    10 NFV=     0
 NROrb=    230 NOA=    29 NOB=    29 NVA=   201 NVB=   201
 Leave Link  801 at Fri Sep 17 20:10:20 2021, MaxMem=   524288000 cpu:               1.8 elap:               1.8
 (Enter /opt/gaussian/g16_legacy/l906.exe)
 Frozen-core derivative calculation, NFC=  10 NFV=   0.
 FulOut=F Deriv=T AODrv=T NAtomX=    28
   MMem=          89  MDisk=          29 MDiskD=          29
  W3Min=     2246400 MinDsk=     2795480 NBas6D=         240
 NBas2D=       29244    NTT=       28920    LW2=     2040000
    MDV=   523628096 MDiskM=       30186 NBas2p=       24084
 Fully direct method using O(ONN) memory.
 IMap=   1   2   3   4   5   6   7   8   9  10  11  12  13  14  15  16  17  18  19  20
 IMap=  21  22  23  24  25  26  27  28  29  30  31  32  33  34  35  36  37  38  39
 JobTyp=1 Pass  1:  I=  11 to  39 NPSUse=  1 ParTrn=F ParDer=F DoDerP=T.
 Spin components of T(2) and E(2):
     alpha-alpha T2 =       0.5717487626D-01 E2=     -0.1639139609D+00
     alpha-beta  T2 =       0.3623417846D+00 E2=     -0.1090211005D+01
     beta-beta   T2 =       0.5717487626D-01 E2=     -0.1639139609D+00
 The integrals were generated   1 times.
 ANorm=    0.1215191975D+01
 E2 =    -0.1418038927D+01 EUMP2 =    -0.39056620522787D+03
 Leave Link  906 at Fri Sep 17 20:15:10 2021, MaxMem=   524288000 cpu:             290.1 elap:             290.3
 (Enter /opt/gaussian/g16_legacy/l1002.exe)
 Minotr:  Closed shell wavefunction.
          Computing MP2/KS-MP2 derivatives.
          Using Z-Vector for PSCF gradient.
          Skipping F1 and S1 gradient terms here.
          IDoAtm=1111111111111111111111111111
          Frozen-core window.
          Direct CPHF calculation.
          Differentiating once with respect to electric field.
                with respect to dipole field.
          Differentiating once with respect to nuclear coordinates.
          Requested convergence is 1.0D-10 RMS, and 1.0D-09 maximum.
          NewPWx=F KeepS1=T KeepF1=T KeepIn=T MapXYZ=F SortEE=F KeepMc=T.
 Keep R1 ints in memory in canonical form, NReq=425201067.
 FoFCou: FMM=F IPFlag=           0 FMFlag=           0 FMFlg1=           0
         NFxFlg=           0 DoJE=F BraDBF=F KetDBF=F FulRan=T
         wScrn=  0.000000 ICntrl=       600 IOpCl=  0 I1Cent=           0 NGrid=           0
         NMat0=    1 NMatS0=  28920 NMatT0=    0 NMatD0=    1 NMtDS0=    0 NMtDT0=    0
 Symmetry not used in FoFCou.
 Two-electron integral symmetry not used.
          MDV=     524288000 using IRadAn=       5.
          Solving linear equations separately, MaxMat=       0.
          There are     1 degrees of freedom in the 1st order CPHF.  IDoFFX=0 NUNeed=     1.
 LinEq1:  Iter=  0 NonCon=     1 RMS=2.53D-03 Max=3.57D-02 NDo=     1
 AX will form     1 AO Fock derivatives at one time.
 LinEq1:  Iter=  1 NonCon=     1 RMS=6.91D-04 Max=1.16D-02 NDo=     1
 LinEq1:  Iter=  2 NonCon=     1 RMS=1.60D-04 Max=3.27D-03 NDo=     1
 LinEq1:  Iter=  3 NonCon=     1 RMS=3.80D-05 Max=4.48D-04 NDo=     1
 LinEq1:  Iter=  4 NonCon=     1 RMS=1.89D-05 Max=8.09D-04 NDo=     1
 LinEq1:  Iter=  5 NonCon=     1 RMS=4.90D-06 Max=8.54D-05 NDo=     1
 LinEq1:  Iter=  6 NonCon=     1 RMS=1.56D-06 Max=3.56D-05 NDo=     1
 LinEq1:  Iter=  7 NonCon=     1 RMS=4.74D-07 Max=1.06D-05 NDo=     1
 LinEq1:  Iter=  8 NonCon=     1 RMS=1.62D-07 Max=2.92D-06 NDo=     1
 LinEq1:  Iter=  9 NonCon=     1 RMS=4.76D-08 Max=7.51D-07 NDo=     1
 LinEq1:  Iter= 10 NonCon=     1 RMS=1.24D-08 Max=1.74D-07 NDo=     1
 LinEq1:  Iter= 11 NonCon=     1 RMS=2.98D-09 Max=5.71D-08 NDo=     1
 LinEq1:  Iter= 12 NonCon=     1 RMS=8.35D-10 Max=1.86D-08 NDo=     1
 LinEq1:  Iter= 13 NonCon=     1 RMS=2.48D-10 Max=5.44D-09 NDo=     1
 LinEq1:  Iter= 14 NonCon=     0 RMS=6.23D-11 Max=8.84D-10 NDo=     1
 Linear equations converged to 1.000D-10 1.000D-09 after    14 iterations.
 End of Minotr F.D. properties file   721 does not exist.
 End of Minotr F.D. properties file   722 does not exist.
 End of Minotr F.D. properties file   788 does not exist.
 Leave Link 1002 at Fri Sep 17 20:15:48 2021, MaxMem=   524288000 cpu:              37.2 elap:              37.2
 (Enter /opt/gaussian/g16_legacy/l601.exe)
 Copying SCF densities to generalized density rwf, IOpCl= 0 IROHF=0.

 **********************************************************************

            Population analysis using the SCF density.

 **********************************************************************

 Orbital symmetries:
       Occupied  (A) (A) (A) (A) (A) (A) (A) (A) (A) (A) (A) (A)
                 (A) (A) (A) (A) (A) (A) (A) (A) (A) (A) (A) (A)
                 (A) (A) (A) (A) (A) (A) (A) (A) (A) (A) (A) (A)
                 (A) (A) (A)
       Virtual   (A) (A) (A) (A) (A) (A) (A) (A) (A) (A) (A) (A)
                 (A) (A) (A) (A) (A) (A) (A) (A) (A) (A) (A) (A)
                 (A) (A) (A) (A) (A) (A) (A) (A) (A) (A) (A) (A)
                 (A) (A) (A) (A) (A) (A) (A) (A) (A) (A) (A) (A)
                 (A) (A) (A) (A) (A) (A) (A) (A) (A) (A) (A) (A)
                 (A) (A) (A) (A) (A) (A) (A) (A) (A) (A) (A) (A)
                 (A) (A) (A) (A) (A) (A) (A) (A) (A) (A) (A) (A)
                 (A) (A) (A) (A) (A) (A) (A) (A) (A) (A) (A) (A)
                 (A) (A) (A) (A) (A) (A) (A) (A) (A) (A) (A) (A)
                 (A) (A) (A) (A) (A) (A) (A) (A) (A) (A) (A) (A)
                 (A) (A) (A) (A) (A) (A) (A) (A) (A) (A) (A) (A)
                 (A) (A) (A) (A) (A) (A) (A) (A) (A) (A) (A) (A)
                 (A) (A) (A) (A) (A) (A) (A) (A) (A) (A) (A) (A)
                 (A) (A) (A) (A) (A) (A) (A) (A) (A) (A) (A) (A)
                 (A) (A) (A) (A) (A) (A) (A) (A) (A) (A) (A) (A)
                 (A) (A) (A) (A) (A) (A) (A) (A) (A) (A) (A) (A)
                 (A) (A) (A) (A) (A) (A) (A) (A) (A)
 The electronic state is 1-A.
 Alpha  occ. eigenvalues --  -11.22578 -11.22541 -11.21881 -11.21824 -11.21580
 Alpha  occ. eigenvalues --  -11.21564 -11.21486 -11.21434 -11.21392 -11.21008
 Alpha  occ. eigenvalues --   -1.10431  -1.08091  -1.01794  -0.97415  -0.93464
 Alpha  occ. eigenvalues --   -0.92022  -0.87332  -0.81823  -0.70755  -0.68752
 Alpha  occ. eigenvalues --   -0.62987  -0.61705  -0.61248  -0.58527  -0.57597
 Alpha  occ. eigenvalues --   -0.57256  -0.55240  -0.53993  -0.53625  -0.53049
 Alpha  occ. eigenvalues --   -0.52652  -0.51175  -0.49788  -0.48841  -0.47923
 Alpha  occ. eigenvalues --   -0.46225  -0.43733  -0.32568  -0.31486
 Alpha virt. eigenvalues --    0.18151   0.18768   0.23689   0.24458   0.25536
 Alpha virt. eigenvalues --    0.27404   0.28612   0.29465   0.30149   0.30280
 Alpha virt. eigenvalues --    0.31980   0.32354   0.32920   0.33077   0.33639
 Alpha virt. eigenvalues --    0.34190   0.36276   0.37119   0.39007   0.40282
 Alpha virt. eigenvalues --    0.41117   0.42762   0.43676   0.44542   0.46671
 Alpha virt. eigenvalues --    0.50964   0.53312   0.59308   0.63451   0.69913
 Alpha virt. eigenvalues --    0.70607   0.72213   0.74194   0.75006   0.77005
 Alpha virt. eigenvalues --    0.77577   0.79704   0.80050   0.82009   0.83094
 Alpha virt. eigenvalues --    0.84223   0.85325   0.90240   0.90809   0.91303
 Alpha virt. eigenvalues --    0.92339   0.95159   0.95738   0.98722   0.99591
 Alpha virt. eigenvalues --    1.00466   1.02035   1.03033   1.04441   1.05414
 Alpha virt. eigenvalues --    1.08223   1.10136   1.11263   1.11863   1.13040
 Alpha virt. eigenvalues --    1.13300   1.14092   1.14777   1.14910   1.15623
 Alpha virt. eigenvalues --    1.16314   1.17285   1.17903   1.18982   1.19520
 Alpha virt. eigenvalues --    1.20360   1.21359   1.22789   1.25104   1.25514
 Alpha virt. eigenvalues --    1.26389   1.37071   1.38353   1.42854   1.47727
 Alpha virt. eigenvalues --    1.50166   1.50911   1.54534   1.56991   1.57717
 Alpha virt. eigenvalues --    1.58460   1.63412   1.68582   1.70307   1.71312
 Alpha virt. eigenvalues --    1.75321   1.81685   1.91629   1.93665   1.94171
 Alpha virt. eigenvalues --    1.97956   2.00493   2.03963   2.05779   2.06863
 Alpha virt. eigenvalues --    2.08560   2.09722   2.11025   2.12506   2.15646
 Alpha virt. eigenvalues --    2.17723   2.18458   2.23114   2.24327   2.28903
 Alpha virt. eigenvalues --    2.29734   2.31245   2.32030   2.35385   2.35680
 Alpha virt. eigenvalues --    2.36070   2.36545   2.38424   2.40210   2.40507
 Alpha virt. eigenvalues --    2.41481   2.42242   2.43982   2.44694   2.46113
 Alpha virt. eigenvalues --    2.46944   2.48700   2.49549   2.51233   2.52423
 Alpha virt. eigenvalues --    2.53980   2.56642   2.60685   2.62570   2.64447
 Alpha virt. eigenvalues --    2.66753   2.67815   2.70425   2.71913   2.73260
 Alpha virt. eigenvalues --    2.75875   2.78547   2.79077   2.82802   2.86587
 Alpha virt. eigenvalues --    2.87129   2.89321   2.89533   2.90316   2.93516
 Alpha virt. eigenvalues --    2.94435   2.98553   2.99489   3.02807   3.04903
 Alpha virt. eigenvalues --    3.06386   3.07954   3.09223   3.11913   3.14726
 Alpha virt. eigenvalues --    3.16610   3.18039   3.19175   3.21452   3.22064
 Alpha virt. eigenvalues --    3.22877   3.24268   3.25186   3.27076   3.37658
 Alpha virt. eigenvalues --    3.40458   3.43721   3.46477   3.56025   3.56506
 Alpha virt. eigenvalues --    3.60670   3.60865   3.67496   3.71415   3.78742
 Alpha virt. eigenvalues --    3.79272   3.81048   3.81321   3.82083   3.82510
 Alpha virt. eigenvalues --    3.83107   3.85330   3.86864   3.89367   3.92531
 Alpha virt. eigenvalues --    3.94308   4.58678   4.64041   4.76687   4.78748
 Alpha virt. eigenvalues --    4.89476   4.91924   4.92613   5.03456   5.10606
 Alpha virt. eigenvalues --    5.16016
          Condensed to atoms (all electrons):
               1          2          3          4          5          6
     1  C    4.982854   0.411340   0.410980   0.331826  -0.051313   0.003801
     2  H    0.411340   0.588898  -0.030374  -0.045786  -0.006976   0.000245
     3  H    0.410980  -0.030374   0.577178  -0.040873   0.003423  -0.000122
     4  C    0.331826  -0.045786  -0.040873   4.998880   0.341436  -0.040880
     5  C   -0.051313  -0.006976   0.003423   0.341436   4.910905   0.405285
     6  H    0.003801   0.000245  -0.000122  -0.040880   0.405285   0.574555
     7  H   -0.005664   0.000192   0.000192  -0.041861   0.406931  -0.030922
     8  H    0.000928   0.000500  -0.000124  -0.041139   0.399607  -0.026143
     9  C   -0.059933   0.003964  -0.005629   0.687771  -0.051976  -0.003330
    10  H   -0.003991   0.000072   0.001032  -0.040913   0.003332   0.000012
    11  C    0.002669  -0.000079  -0.000071  -0.046566  -0.006863  -0.001924
    12  H    0.000102  -0.000000   0.000001  -0.000809  -0.001591  -0.001260
    13  H   -0.000125   0.000002   0.000025   0.000048   0.000204  -0.000111
    14  H   -0.000048   0.000002  -0.000011  -0.001172   0.000302   0.000330
    15  C   -0.000076  -0.000010   0.000001   0.000005   0.000001  -0.000000
    16  H   -0.000007  -0.000001   0.000000  -0.000006   0.000001   0.000001
    17  H   -0.000001   0.000000  -0.000000  -0.000000  -0.000000  -0.000000
    18  H    0.000006  -0.000001  -0.000000  -0.000000   0.000000   0.000000
    19  C    0.001185  -0.000109  -0.000022   0.000101  -0.000018  -0.000002
    20  C    0.000129   0.000002   0.000000  -0.000008  -0.000000   0.000000
    21  H    0.000062  -0.000017   0.000002  -0.000001  -0.000000   0.000000
    22  H    0.000003  -0.000001  -0.000000   0.000000   0.000000   0.000000
    23  H   -0.000026   0.000002   0.000001   0.000000  -0.000000  -0.000000
    24  C   -0.051738  -0.001847   0.004735  -0.007123  -0.000151   0.000005
    25  H   -0.006153   0.000694   0.000048   0.003787  -0.001676   0.000150
    26  C    0.352875  -0.038759  -0.039061  -0.047190   0.001918  -0.000163
    27  H   -0.041074  -0.003321  -0.003260   0.005508  -0.000107   0.000003
    28  H   -0.043091   0.004566  -0.002491  -0.004607  -0.000006   0.000004
               7          8          9         10         11         12
     1  C   -0.005664   0.000928  -0.059933  -0.003991   0.002669   0.000102
     2  H    0.000192   0.000500   0.003964   0.000072  -0.000079  -0.000000
     3  H    0.000192  -0.000124  -0.005629   0.001032  -0.000071   0.000001
     4  C   -0.041861  -0.041139   0.687771  -0.040913  -0.046566  -0.000809
     5  C    0.406931   0.399607  -0.051976   0.003332  -0.006863  -0.001591
     6  H   -0.030922  -0.026143  -0.003330   0.000012  -0.001924  -0.001260
     7  H    0.580965  -0.030323   0.002845  -0.000099   0.000152   0.000018
     8  H   -0.030323   0.572075  -0.004022  -0.000135   0.000612  -0.000177
     9  C    0.002845  -0.004022   4.954673   0.405897   0.342706  -0.041915
    10  H   -0.000099  -0.000135   0.405897   0.561035  -0.042168   0.003375
    11  C    0.000152   0.000612   0.342706  -0.042168   4.894300   0.408349
    12  H    0.000018  -0.000177  -0.041915   0.003375   0.408349   0.573419
    13  H   -0.000011   0.000149  -0.043004  -0.001921   0.401324  -0.028711
    14  H    0.000013  -0.000070  -0.045703  -0.000970   0.401744  -0.028017
    15  C   -0.000000  -0.000000   0.000001  -0.000000  -0.000000   0.000000
    16  H    0.000005  -0.000000  -0.000001  -0.000000   0.000000  -0.000000
    17  H    0.000000   0.000000   0.000000   0.000000   0.000000  -0.000000
    18  H   -0.000000  -0.000000  -0.000000  -0.000000  -0.000000   0.000000
    19  C   -0.000003   0.000000  -0.000010  -0.000004   0.000000  -0.000000
    20  C    0.000000   0.000000  -0.000001   0.000000  -0.000000  -0.000000
    21  H   -0.000000  -0.000000  -0.000000  -0.000000   0.000000   0.000000
    22  H   -0.000000  -0.000000   0.000000  -0.000000   0.000000   0.000000
    23  H    0.000000   0.000000   0.000000   0.000000   0.000000  -0.000000
    24  C    0.000683   0.000010  -0.000346   0.000086  -0.000018   0.000001
    25  H   -0.000351   0.000063   0.001117   0.000005  -0.000011  -0.000000
    26  C    0.000033  -0.000032  -0.006049  -0.000524   0.000010  -0.000007
    27  H   -0.000042   0.000005   0.000148  -0.000069   0.000001   0.000000
    28  H   -0.000000   0.000003   0.001410   0.000694  -0.000026  -0.000000
              13         14         15         16         17         18
     1  C   -0.000125  -0.000048  -0.000076  -0.000007  -0.000001   0.000006
     2  H    0.000002   0.000002  -0.000010  -0.000001   0.000000  -0.000001
     3  H    0.000025  -0.000011   0.000001   0.000000  -0.000000  -0.000000
     4  C    0.000048  -0.001172   0.000005  -0.000006  -0.000000  -0.000000
     5  C    0.000204   0.000302   0.000001   0.000001  -0.000000   0.000000
     6  H   -0.000111   0.000330  -0.000000   0.000001  -0.000000   0.000000
     7  H   -0.000011   0.000013  -0.000000   0.000005   0.000000  -0.000000
     8  H    0.000149  -0.000070  -0.000000  -0.000000   0.000000  -0.000000
     9  C   -0.043004  -0.045703   0.000001  -0.000001   0.000000  -0.000000
    10  H   -0.001921  -0.000970  -0.000000  -0.000000   0.000000  -0.000000
    11  C    0.401324   0.401744  -0.000000   0.000000   0.000000  -0.000000
    12  H   -0.028711  -0.028017   0.000000  -0.000000  -0.000000   0.000000
    13  H    0.586899  -0.033820   0.000000  -0.000000   0.000000  -0.000000
    14  H   -0.033820   0.587028  -0.000000   0.000000  -0.000000   0.000000
    15  C    0.000000  -0.000000   4.893720   0.405593   0.399802   0.397380
    16  H   -0.000000   0.000000   0.405593   0.570949  -0.027845  -0.027908
    17  H    0.000000  -0.000000   0.399802  -0.027845   0.595779  -0.035028
    18  H   -0.000000   0.000000   0.397380  -0.027908  -0.035028   0.595345
    19  C   -0.000000   0.000000   0.354715  -0.041362  -0.047369  -0.043565
    20  C   -0.000000   0.000000  -0.059540   0.003765   0.000034  -0.003030
    21  H   -0.000000   0.000000   0.003453  -0.000117  -0.000030  -0.000029
    22  H    0.000000  -0.000000  -0.005310   0.000125  -0.000787   0.002643
    23  H    0.000000  -0.000000   0.000664  -0.000133   0.001408  -0.000163
    24  C   -0.000000   0.000008  -0.045260  -0.002163  -0.001242  -0.000602
    25  H    0.000001  -0.000013  -0.006728   0.002280   0.000145   0.000218
    26  C   -0.000004   0.000024   0.003083   0.000134  -0.000109  -0.000089
    27  H    0.000000  -0.000001   0.000062   0.000003  -0.000011   0.000017
    28  H    0.000003   0.000003  -0.000129  -0.000006   0.000036  -0.000008
              19         20         21         22         23         24
     1  C    0.001185   0.000129   0.000062   0.000003  -0.000026  -0.051738
     2  H   -0.000109   0.000002  -0.000017  -0.000001   0.000002  -0.001847
     3  H   -0.000022   0.000000   0.000002  -0.000000   0.000001   0.004735
     4  C    0.000101  -0.000008  -0.000001   0.000000   0.000000  -0.007123
     5  C   -0.000018  -0.000000  -0.000000   0.000000  -0.000000  -0.000151
     6  H   -0.000002   0.000000   0.000000   0.000000  -0.000000   0.000005
     7  H   -0.000003   0.000000  -0.000000  -0.000000   0.000000   0.000683
     8  H    0.000000   0.000000  -0.000000  -0.000000   0.000000   0.000010
     9  C   -0.000010  -0.000001  -0.000000   0.000000   0.000000  -0.000346
    10  H   -0.000004   0.000000  -0.000000  -0.000000   0.000000   0.000086
    11  C    0.000000  -0.000000   0.000000   0.000000   0.000000  -0.000018
    12  H   -0.000000  -0.000000   0.000000   0.000000  -0.000000   0.000001
    13  H   -0.000000  -0.000000  -0.000000   0.000000   0.000000  -0.000000
    14  H    0.000000   0.000000   0.000000  -0.000000  -0.000000   0.000008
    15  C    0.354715  -0.059540   0.003453  -0.005310   0.000664  -0.045260
    16  H   -0.041362   0.003765  -0.000117   0.000125  -0.000133  -0.002163
    17  H   -0.047369   0.000034  -0.000030  -0.000787   0.001408  -0.001242
    18  H   -0.043565  -0.003030  -0.000029   0.002643  -0.000163  -0.000602
    19  C    4.935218   0.342373  -0.037578  -0.043640  -0.041592   0.704577
    20  C    0.342373   4.917191   0.404135   0.404692   0.398915  -0.049303
    21  H   -0.037578   0.404135   0.568511  -0.029667  -0.026431  -0.003526
    22  H   -0.043640   0.404692  -0.029667   0.586941  -0.031727   0.002805
    23  H   -0.041592   0.398915  -0.026431  -0.031727   0.574555  -0.004411
    24  C    0.704577  -0.049303  -0.003526   0.002805  -0.004411   4.950305
    25  H   -0.035573   0.003372   0.000027  -0.000099  -0.000127   0.402634
    26  C   -0.049452  -0.007933  -0.001312   0.000146   0.000561   0.342410
    27  H   -0.001278  -0.001801   0.000889   0.000131  -0.000530  -0.046461
    28  H   -0.005944   0.000718  -0.000485  -0.000041   0.000709  -0.045331
              25         26         27         28
     1  C   -0.006153   0.352875  -0.041074  -0.043091
     2  H    0.000694  -0.038759  -0.003321   0.004566
     3  H    0.000048  -0.039061  -0.003260  -0.002491
     4  C    0.003787  -0.047190   0.005508  -0.004607
     5  C   -0.001676   0.001918  -0.000107  -0.000006
     6  H    0.000150  -0.000163   0.000003   0.000004
     7  H   -0.000351   0.000033  -0.000042  -0.000000
     8  H    0.000063  -0.000032   0.000005   0.000003
     9  C    0.001117  -0.006049   0.000148   0.001410
    10  H    0.000005  -0.000524  -0.000069   0.000694
    11  C   -0.000011   0.000010   0.000001  -0.000026
    12  H   -0.000000  -0.000007   0.000000  -0.000000
    13  H    0.000001  -0.000004   0.000000   0.000003
    14  H   -0.000013   0.000024  -0.000001   0.000003
    15  C   -0.006728   0.003083   0.000062  -0.000129
    16  H    0.002280   0.000134   0.000003  -0.000006
    17  H    0.000145  -0.000109  -0.000011   0.000036
    18  H    0.000218  -0.000089   0.000017  -0.000008
    19  C   -0.035573  -0.049452  -0.001278  -0.005944
    20  C    0.003372  -0.007933  -0.001801   0.000718
    21  H    0.000027  -0.001312   0.000889  -0.000485
    22  H   -0.000099   0.000146   0.000131  -0.000041
    23  H   -0.000127   0.000561  -0.000530   0.000709
    24  C    0.402634   0.342410  -0.046461  -0.045331
    25  H    0.548587  -0.041303   0.003255   0.001975
    26  C   -0.041303   4.933921   0.409905   0.409237
    27  H    0.003255   0.409905   0.596463  -0.030342
    28  H    0.001975   0.409237  -0.030342   0.590567
 Mulliken charges:
               1
     1  C   -0.235520
     2  H    0.116805
     3  H    0.124420
     4  C   -0.010428
     5  C   -0.352668
     6  H    0.120465
     7  H    0.117247
     8  H    0.128212
     9  C   -0.138612
    10  H    0.115256
    11  C   -0.354141
    12  H    0.117223
    13  H    0.119053
    14  H    0.120373
    15  C   -0.341426
    16  H    0.116694
    17  H    0.115217
    18  H    0.114813
    19  C    0.009351
    20  C   -0.353711
    21  H    0.122113
    22  H    0.113782
    23  H    0.128326
    24  C   -0.148736
    25  H    0.123676
    26  C   -0.222274
    27  H    0.111905
    28  H    0.122584
 Sum of Mulliken charges =  -0.00000
 Mulliken charges with hydrogens summed into heavy atoms:
               1
     1  C    0.005705
     4  C   -0.010428
     5  C    0.013257
     9  C   -0.023356
    11  C    0.002508
    15  C    0.005298
    19  C    0.009351
    20  C    0.010511
    24  C   -0.025061
    26  C    0.012215
 Electronic spatial extent (au):  <R**2>=           2403.7596
 Charge=             -0.0000 electrons
 Dipole moment (field-independent basis, Debye):
    X=             -0.1555    Y=             -0.0549    Z=              0.0143  Tot=              0.1655
 Quadrupole moment (field-independent basis, Debye-Ang):
   XX=            -64.1679   YY=            -64.6729   ZZ=            -65.0877
   XY=              1.0025   XZ=              0.3075   YZ=              0.5952
 Traceless Quadrupole moment (field-independent basis, Debye-Ang):
   XX=              0.4749   YY=             -0.0301   ZZ=             -0.4449
   XY=              1.0025   XZ=              0.3075   YZ=              0.5952
 Octapole moment (field-independent basis, Debye-Ang**2):
  XXX=             -9.0706  YYY=             -0.4548  ZZZ=             -2.1641  XYY=             -0.2395
  XXY=              3.0077  XXZ=             -1.4955  XZZ=              2.7217  YZZ=             -1.0824
  YYZ=              0.3658  XYZ=              1.0682
 Hexadecapole moment (field-independent basis, Debye-Ang**3):
 XXXX=          -2462.8537 YYYY=           -493.4330 ZZZZ=           -381.5513 XXXY=              5.2773
 XXXZ=             -2.9571 YYYX=              6.7649 YYYZ=             -0.1200 ZZZX=              2.1037
 ZZZY=              0.1393 XXYY=           -502.0371 XXZZ=           -470.8620 YYZZ=           -148.1034
 XXYZ=              2.5665 YYXZ=             -0.9429 ZZXY=             -3.9551
 N-N= 5.169883688642D+02 E-N=-1.938720900762D+03  KE= 3.886235506531D+02
 No NMR shielding tensors so no spin-rotation constants.
 Leave Link  601 at Fri Sep 17 20:15:48 2021, MaxMem=   524288000 cpu:               0.3 elap:               0.3
 (Enter /opt/gaussian/g16_legacy/l701.exe)
 ... and contract with generalized density number  2.
 Compute integral first derivatives.
 Leave Link  701 at Fri Sep 17 20:15:48 2021, MaxMem=   524288000 cpu:               0.3 elap:               0.3
 (Enter /opt/gaussian/g16_legacy/l702.exe)
 L702 exits ... SP integral derivatives will be done elsewhere.
 Leave Link  702 at Fri Sep 17 20:15:48 2021, MaxMem=   524288000 cpu:               0.0 elap:               0.1
 (Enter /opt/gaussian/g16_legacy/l703.exe)
 Integral derivatives from FoFJK, PRISM(SPDF).
 Compute integral first derivatives, UseDBF=F ICtDFT=           0.
 Calling FoFJK, ICntrl=  10002127 FMM=F ISym2X=0 I1Cent= 0 IOpClX= 0 NMat=1 NMatS=1 NMatT=0.
 FoFJK:  IHMeth= 1 ICntrl=10002127 DoSepK=F KAlg= 0 I1Cent=           0 FoldK=F
 IRaf=         0 NMat=       1 IRICut=       1 DoRegI=T DoRafI=F ISym2E= 0 IDoP0=0 IntGTp=1.
 FoFCou: FMM=F IPFlag=           0 FMFlag=      100000 FMFlg1=         800
         NFxFlg=           0 DoJE=F BraDBF=F KetDBF=F FulRan=T
         wScrn=  0.000000 ICntrl=  10002127 IOpCl=  0 I1Cent=           0 NGrid=           0
         NMat0=    1 NMatS0=      1 NMatT0=    0 NMatD0=    1 NMtDS0=    0 NMtDT0=    0
 Symmetry not used in FoFCou.
 Leave Link  703 at Fri Sep 17 20:16:23 2021, MaxMem=   524288000 cpu:              34.6 elap:              34.6
 (Enter /opt/gaussian/g16_legacy/l716.exe)
 Dipole        =-2.86236950D-02-1.30041855D-02-2.13993784D-02
 ***** Axes restored to original set *****
 -------------------------------------------------------------------
 Center     Atomic                   Forces (Hartrees/Bohr)
 Number     Number              X              Y              Z
 -------------------------------------------------------------------
      1        6           0.000408101    0.005447237   -0.004865809
      2        1           0.001976173    0.002740008    0.002630993
      3        1          -0.001851420   -0.000565304    0.002938684
      4        6          -0.006572769   -0.001458047    0.006993628
      5        6           0.003400000   -0.003224080    0.004286029
      6        1           0.000828971    0.000907641   -0.004659118
      7        1           0.001376106    0.003883498   -0.002630727
      8        1           0.000302625   -0.002647317    0.002355697
      9        6          -0.003238656   -0.001724074   -0.002107012
     10        1          -0.001238380   -0.002791839   -0.000817347
     11        6           0.002322975   -0.000919903    0.000267003
     12        1          -0.002670493    0.002160947   -0.000269644
     13        1           0.000571068   -0.000817764    0.003134393
     14        1           0.002603293    0.000635642   -0.002313186
     15        6           0.002806691   -0.000374842   -0.000838036
     16        1          -0.002910904    0.002615395   -0.001563688
     17        1          -0.001787363   -0.002787612   -0.000189728
     18        1           0.000103391    0.002239715    0.002651312
     19        6           0.006578206   -0.005100813   -0.001784887
     20        6          -0.005570780   -0.001365528   -0.001232640
     21        1           0.002601404    0.002308773    0.002063952
     22        1           0.003282344    0.002846001    0.000069202
     23        1          -0.002605796   -0.001158167   -0.001099004
     24        6           0.001584379   -0.000274685   -0.003062895
     25        1          -0.002054274    0.000985116    0.000015902
     26        6          -0.000158942   -0.002568457    0.001222419
     27        1          -0.000284444    0.001570722    0.002338587
     28        1           0.000198494   -0.000562266   -0.003534080
 -------------------------------------------------------------------
 Cartesian Forces:  Max     0.006993628 RMS     0.002661764
 Leave Link  716 at Fri Sep 17 20:16:23 2021, MaxMem=   524288000 cpu:               0.1 elap:               0.1
 (Enter /opt/gaussian/g16_legacy/l103.exe)

 GradGradGradGradGradGradGradGradGradGradGradGradGradGradGradGradGradGrad
 Berny optimization.
 FormGI is forming the generalized inverse of G from B-inverse, IUseBI=4.
 Internal  Forces:  Max     0.006833311 RMS     0.002144313
 Search for a local minimum.
 Step number   1 out of a maximum of  138
 All quantities printed in internal units (Hartrees-Bohrs-Radians)
 RMS Force = .21443D-02 SwitMx=.10000D-02 MixMth= 1
 Mixed Optimization -- RFO/linear search
 Second derivative matrix not updated -- first step.
 ITU=  0
     Eigenvalues ---    0.00230   0.00491   0.00648   0.00673   0.00699
     Eigenvalues ---    0.00758   0.00828   0.01199   0.01290   0.01528
     Eigenvalues ---    0.01648   0.02782   0.02782   0.03781   0.03950
     Eigenvalues ---    0.05295   0.05385   0.07053   0.07073   0.07086
     Eigenvalues ---    0.07093   0.07247   0.07311   0.07331   0.07519
     Eigenvalues ---    0.09464   0.09580   0.12929   0.13012   0.15985
     Eigenvalues ---    0.16000   0.16000   0.16000   0.16000   0.16000
     Eigenvalues ---    0.16000   0.16000   0.16000   0.16000   0.16000
     Eigenvalues ---    0.16000   0.16000   0.16000   0.21933   0.21971
     Eigenvalues ---    0.22000   0.22004   0.24984   0.24988   0.24992
     Eigenvalues ---    0.24993   0.28437   0.30288   0.31462   0.31654
     Eigenvalues ---    0.31849   0.32314   0.32870   0.33883   0.33965
     Eigenvalues ---    0.34056   0.34097   0.34186   0.34258   0.34303
     Eigenvalues ---    0.34307   0.34316   0.34317   0.34320   0.34331
     Eigenvalues ---    0.34366   0.34425   0.34527   0.34588   0.34845
     Eigenvalues ---    0.34848   0.55537   0.55539
 RFO step:  Lambda=-3.83572454D-03 EMin= 2.30000000D-03
 Linear search not attempted -- first point.
 Iteration  1 RMS(Cart)=  0.08284648 RMS(Int)=  0.00216320
 Iteration  2 RMS(Cart)=  0.00335106 RMS(Int)=  0.00016735
 Iteration  3 RMS(Cart)=  0.00000684 RMS(Int)=  0.00016731
 Iteration  4 RMS(Cart)=  0.00000000 RMS(Int)=  0.00016731
 ITry= 1 IFail=0 DXMaxC= 3.72D-01 DCOld= 1.00D+10 DXMaxT= 3.00D-01 DXLimC= 3.00D+00 Rises=F
 Variable       Old X    -DE/DX   Delta X   Delta X   Delta X     New X
                                 (Linear)    (Quad)   (Total)
    R1        2.07389  -0.00384   0.00000  -0.01117  -0.01117   2.06272
    R2        2.07529  -0.00243   0.00000  -0.00710  -0.00710   2.06819
    R3        2.87393  -0.00122   0.00000  -0.00397  -0.00397   2.86996
    R4        2.91194  -0.00522   0.00000  -0.01812  -0.01812   2.89382
    R5        2.84421   0.00357   0.00000   0.01108   0.01108   2.85529
    R6        2.54656  -0.00422   0.00000  -0.00755  -0.00755   2.53901
    R7        2.06619  -0.00276   0.00000  -0.00793  -0.00793   2.05826
    R8        2.07017  -0.00423   0.00000  -0.01224  -0.01224   2.05793
    R9        2.06776  -0.00152   0.00000  -0.00436  -0.00436   2.06339
   R10        2.05923  -0.00173   0.00000  -0.00492  -0.00492   2.05430
   R11        2.82580   0.00304   0.00000   0.00915   0.00915   2.83494
   R12        2.06349  -0.00323   0.00000  -0.00924  -0.00924   2.05425
   R13        2.06798  -0.00217   0.00000  -0.00624  -0.00624   2.06174
   R14        2.06822  -0.00184   0.00000  -0.00531  -0.00531   2.06291
   R15        2.06897  -0.00373   0.00000  -0.01077  -0.01077   2.05820
   R16        2.06800  -0.00148   0.00000  -0.00426  -0.00426   2.06374
   R17        2.06815  -0.00170   0.00000  -0.00491  -0.00491   2.06324
   R18        2.84781  -0.00119   0.00000  -0.00370  -0.00370   2.84410
   R19        2.83572   0.00322   0.00000   0.00984   0.00984   2.84556
   R20        2.54657  -0.00302   0.00000  -0.00539  -0.00539   2.54118
   R21        2.06450  -0.00244   0.00000  -0.00699  -0.00699   2.05750
   R22        2.07167  -0.00385   0.00000  -0.01116  -0.01116   2.06052
   R23        2.06794  -0.00160   0.00000  -0.00460  -0.00460   2.06334
   R24        2.05928  -0.00224   0.00000  -0.00637  -0.00637   2.05291
   R25        2.85139  -0.00396   0.00000  -0.01243  -0.01243   2.83896
   R26        2.06717  -0.00054   0.00000  -0.00155  -0.00155   2.06562
   R27        2.07235  -0.00137   0.00000  -0.00397  -0.00397   2.06838
    A1        1.84168   0.00046   0.00000   0.01393   0.01403   1.85570
    A2        1.92525  -0.00036   0.00000  -0.01634  -0.01676   1.90849
    A3        1.90138   0.00041   0.00000  -0.01190  -0.01233   1.88905
    A4        1.89461   0.00305   0.00000   0.03224   0.03233   1.92694
    A5        1.90062  -0.00074   0.00000  -0.00023  -0.00014   1.90048
    A6        1.99399  -0.00259   0.00000  -0.01495  -0.01521   1.97878
    A7        2.01781   0.00683   0.00000   0.02737   0.02676   2.04457
    A8        2.10368  -0.00401   0.00000  -0.01527  -0.01585   2.08783
    A9        2.16132  -0.00280   0.00000  -0.01046  -0.01105   2.15027
   A10        1.95716   0.00087   0.00000   0.00772   0.00772   1.96488
   A11        1.93964  -0.00256   0.00000  -0.01372  -0.01367   1.92597
   A12        1.92291   0.00399   0.00000   0.02002   0.02005   1.94296
   A13        1.85042   0.00236   0.00000   0.02256   0.02258   1.87300
   A14        1.90430  -0.00327   0.00000  -0.02333  -0.02336   1.88094
   A15        1.88674  -0.00163   0.00000  -0.01464  -0.01457   1.87217
   A16        2.06962  -0.00231   0.00000  -0.01473  -0.01476   2.05485
   A17        2.22662  -0.00083   0.00000  -0.00368  -0.00372   2.22290
   A18        1.98694   0.00314   0.00000   0.01849   0.01845   2.00539
   A19        1.98123  -0.00280   0.00000  -0.01692  -0.01685   1.96438
   A20        1.91437   0.00278   0.00000   0.01632   0.01627   1.93063
   A21        1.91022   0.00372   0.00000   0.02318   0.02313   1.93335
   A22        1.88036  -0.00022   0.00000  -0.00216  -0.00210   1.87826
   A23        1.88715  -0.00042   0.00000  -0.00141  -0.00133   1.88583
   A24        1.88813  -0.00326   0.00000  -0.02023  -0.02040   1.86772
   A25        1.88031   0.00072   0.00000   0.00647   0.00651   1.88682
   A26        1.87828   0.00111   0.00000   0.01063   0.01068   1.88895
   A27        1.96112  -0.00302   0.00000  -0.01537  -0.01532   1.94580
   A28        1.89690  -0.00338   0.00000  -0.02674  -0.02674   1.87016
   A29        1.92338   0.00230   0.00000   0.01204   0.01207   1.93545
   A30        1.92199   0.00214   0.00000   0.01204   0.01207   1.93405
   A31        2.01188   0.00044   0.00000   0.00167   0.00166   2.01354
   A32        2.10431   0.00184   0.00000   0.00715   0.00714   2.11145
   A33        2.16651  -0.00228   0.00000  -0.00908  -0.00909   2.15742
   A34        1.96649  -0.00107   0.00000  -0.00522  -0.00520   1.96128
   A35        1.93252  -0.00056   0.00000  -0.00073  -0.00073   1.93180
   A36        1.92003   0.00325   0.00000   0.01585   0.01588   1.93591
   A37        1.85846   0.00218   0.00000   0.02064   0.02064   1.87910
   A38        1.89709  -0.00207   0.00000  -0.01739  -0.01736   1.87972
   A39        1.88655  -0.00187   0.00000  -0.01403  -0.01402   1.87253
   A40        2.05620   0.00033   0.00000   0.00128   0.00123   2.05742
   A41        2.21123  -0.00135   0.00000  -0.00584  -0.00589   2.20534
   A42        2.01438   0.00104   0.00000   0.00550   0.00545   2.01983
   A43        1.98333  -0.00590   0.00000  -0.02591  -0.02588   1.95745
   A44        1.87392   0.00395   0.00000   0.02440   0.02448   1.89840
   A45        1.91430  -0.00101   0.00000  -0.01576  -0.01562   1.89868
   A46        1.93206   0.00032   0.00000   0.00003   0.00015   1.93221
   A47        1.89089   0.00428   0.00000   0.02559   0.02536   1.91625
   A48        1.86591  -0.00150   0.00000  -0.00810  -0.00806   1.85785
    D1       -0.10738   0.00119   0.00000  -0.00729  -0.00728  -0.11466
    D2        3.06268   0.00025   0.00000  -0.06885  -0.06913   2.99355
    D3       -2.11733  -0.00090   0.00000  -0.03333  -0.03318  -2.15051
    D4        1.05274  -0.00184   0.00000  -0.09489  -0.09503   0.95771
[...]
                 (A) (A) (A) (A) (A) (A) (A) (A) (A) (A) (A) (A)
                 (A) (A) (A) (A) (A) (A) (A) (A) (A) (A) (A) (A)
                 (A) (A) (A) (A) (A) (A) (A) (A) (A) (A) (A) (A)
                 (A) (A) (A) (A) (A) (A) (A) (A) (A) (A) (A) (A)
                 (A) (A) (A) (A) (A) (A) (A) (A) (A) (A) (A) (A)
                 (A) (A) (A) (A) (A) (A) (A) (A) (A) (A) (A) (A)
                 (A) (A) (A) (A) (A) (A) (A) (A) (A) (A) (A) (A)
                 (A) (A) (A) (A) (A) (A) (A) (A) (A) (A) (A) (A)
                 (A) (A) (A) (A) (A) (A) (A) (A) (A) (A) (A) (A)
                 (A) (A) (A) (A) (A) (A) (A) (A) (A) (A) (A) (A)
                 (A) (A) (A) (A) (A) (A) (A) (A) (A) (A) (A) (A)
                 (A) (A) (A) (A) (A) (A) (A) (A) (A) (A) (A) (A)
                 (A) (A) (A) (A) (A) (A) (A) (A) (A) (A) (A) (A)
                 (A) (A) (A) (A) (A) (A) (A) (A) (A) (A) (A) (A)
                 (A) (A) (A) (A) (A) (A) (A) (A) (A)
 The electronic state is 1-A.
 Alpha  occ. eigenvalues --  -11.22962 -11.22417 -11.21792 -11.21683 -11.21675
 Alpha  occ. eigenvalues --  -11.21535 -11.21354 -11.21284 -11.21265 -11.21012
 Alpha  occ. eigenvalues --   -1.10804  -1.08206  -1.01895  -0.97250  -0.93820
 Alpha  occ. eigenvalues --   -0.92468  -0.87518  -0.81991  -0.70952  -0.68584
 Alpha  occ. eigenvalues --   -0.63918  -0.62733  -0.60156  -0.58812  -0.57940
 Alpha  occ. eigenvalues --   -0.57307  -0.55024  -0.53607  -0.53297  -0.53224
 Alpha  occ. eigenvalues --   -0.52542  -0.51120  -0.50742  -0.49799  -0.47074
 Alpha  occ. eigenvalues --   -0.46305  -0.44283  -0.33411  -0.31178
 Alpha virt. eigenvalues --    0.18327   0.19351   0.22789   0.25391   0.26271
 Alpha virt. eigenvalues --    0.27085   0.28389   0.29185   0.30265   0.30493
 Alpha virt. eigenvalues --    0.31601   0.32586   0.32977   0.33580   0.34759
 Alpha virt. eigenvalues --    0.35161   0.35879   0.37294   0.39681   0.40155
 Alpha virt. eigenvalues --    0.40406   0.41689   0.43630   0.43892   0.48210
 Alpha virt. eigenvalues --    0.50702   0.52778   0.61692   0.62982   0.70237
 Alpha virt. eigenvalues --    0.70503   0.72581   0.73565   0.74605   0.76466
 Alpha virt. eigenvalues --    0.77370   0.79268   0.81179   0.81708   0.83126
 Alpha virt. eigenvalues --    0.84512   0.85402   0.88385   0.89149   0.91113
 Alpha virt. eigenvalues --    0.92820   0.94487   0.97395   0.98081   0.98653
 Alpha virt. eigenvalues --    1.00044   1.02143   1.02633   1.05945   1.06287
 Alpha virt. eigenvalues --    1.07526   1.09269   1.10544   1.11528   1.12724
 Alpha virt. eigenvalues --    1.13224   1.14077   1.15262   1.15454   1.16106
 Alpha virt. eigenvalues --    1.16741   1.17818   1.19017   1.20094   1.20413
 Alpha virt. eigenvalues --    1.21844   1.22169   1.23479   1.25310   1.26540
 Alpha virt. eigenvalues --    1.29844   1.34308   1.40825   1.42520   1.46506
 Alpha virt. eigenvalues --    1.47271   1.50619   1.54687   1.56748   1.58517
 Alpha virt. eigenvalues --    1.59731   1.67174   1.67716   1.72511   1.73719
 Alpha virt. eigenvalues --    1.75159   1.79057   1.91767   1.93740   1.96801
 Alpha virt. eigenvalues --    2.00273   2.01239   2.03800   2.05710   2.07167
 Alpha virt. eigenvalues --    2.08631   2.10169   2.10747   2.14118   2.14756
 Alpha virt. eigenvalues --    2.17022   2.18107   2.21492   2.26678   2.28476
 Alpha virt. eigenvalues --    2.30185   2.31509   2.33802   2.35279   2.35724
 Alpha virt. eigenvalues --    2.35865   2.36123   2.39457   2.40328   2.41111
 Alpha virt. eigenvalues --    2.43014   2.43515   2.43805   2.44453   2.46311
 Alpha virt. eigenvalues --    2.47320   2.49599   2.51092   2.52153   2.53330
 Alpha virt. eigenvalues --    2.55471   2.59132   2.60856   2.62374   2.64107
 Alpha virt. eigenvalues --    2.68664   2.69142   2.69734   2.72309   2.73731
 Alpha virt. eigenvalues --    2.75700   2.77894   2.78313   2.83636   2.84903
 Alpha virt. eigenvalues --    2.86089   2.87521   2.89725   2.92203   2.94639
 Alpha virt. eigenvalues --    2.96494   2.98584   3.00162   3.03360   3.04037
 Alpha virt. eigenvalues --    3.06589   3.08351   3.11115   3.12786   3.15247
 Alpha virt. eigenvalues --    3.17789   3.18854   3.19863   3.20493   3.22058
 Alpha virt. eigenvalues --    3.23660   3.26029   3.26763   3.28889   3.38747
 Alpha virt. eigenvalues --    3.40946   3.44733   3.46017   3.56125   3.57833
 Alpha virt. eigenvalues --    3.61826   3.63365   3.68507   3.71124   3.79331
 Alpha virt. eigenvalues --    3.80833   3.81851   3.82889   3.83509   3.84342
 Alpha virt. eigenvalues --    3.84443   3.86724   3.88736   3.89696   3.90702
 Alpha virt. eigenvalues --    3.95400   4.59208   4.62178   4.74000   4.84681
 Alpha virt. eigenvalues --    4.92014   4.92282   4.92551   5.10081   5.11968
 Alpha virt. eigenvalues --    5.17365
          Condensed to atoms (all electrons):
               1          2          3          4          5          6
     1  C    4.988640   0.411430   0.410285   0.342668  -0.054555   0.003874
     2  H    0.411430   0.592441  -0.028740  -0.047459  -0.004485   0.000149
     3  H    0.410285  -0.028740   0.580581  -0.040634   0.003402  -0.000111
     4  C    0.342668  -0.047459  -0.040634   4.961945   0.350821  -0.040952
     5  C   -0.054555  -0.004485   0.003402   0.350821   4.905561   0.404660
     6  H    0.003874   0.000149  -0.000111  -0.040952   0.404660   0.580007
     7  H   -0.000819  -0.000215   0.000073  -0.044560   0.402458  -0.026520
     8  H   -0.003685   0.001935  -0.000064  -0.041508   0.398233  -0.027768
     9  C   -0.057282   0.003579  -0.005148   0.696264  -0.044478  -0.002744
    10  H   -0.005829   0.000136   0.001633  -0.043540   0.003552   0.000029
    11  C    0.002926  -0.000090   0.000044  -0.044376  -0.008060  -0.002206
    12  H    0.000089  -0.000001   0.000003   0.000011  -0.002029  -0.001400
    13  H   -0.000114   0.000006   0.000014  -0.001082   0.000272  -0.000043
    14  H   -0.000075  -0.000000  -0.000013  -0.000329   0.000281   0.000034
    15  C   -0.000106  -0.000027   0.000002  -0.000001   0.000027  -0.000001
    16  H   -0.000003  -0.000002   0.000000  -0.000007   0.000002   0.000000
    17  H   -0.000004   0.000001   0.000000  -0.000000  -0.000002   0.000000
    18  H    0.000024  -0.000004  -0.000000   0.000001   0.000052  -0.000002
    19  C   -0.002995   0.001693  -0.000016  -0.000056  -0.001614   0.000040
    20  C    0.000260   0.000056  -0.000008   0.000002   0.000007  -0.000000
    21  H   -0.000203   0.000301   0.000023  -0.000004  -0.000000  -0.000000
    22  H    0.000136  -0.000070  -0.000004   0.000002   0.000025  -0.000000
    23  H   -0.000043   0.000013   0.000001  -0.000000  -0.000001   0.000000
    24  C   -0.059935  -0.002725   0.005612  -0.009639  -0.005147   0.000190
    25  H   -0.000575   0.000131  -0.000093   0.004130  -0.001193   0.000064
    26  C    0.340279  -0.042352  -0.040658  -0.053430   0.000838  -0.000146
    27  H   -0.042492  -0.003107  -0.002750   0.005768  -0.000147   0.000003
    28  H   -0.045852   0.004805  -0.002901  -0.003494   0.000122   0.000006
               7          8          9         10         11         12
     1  C   -0.000819  -0.003685  -0.057282  -0.005829   0.002926   0.000089
     2  H   -0.000215   0.001935   0.003579   0.000136  -0.000090  -0.000001
     3  H    0.000073  -0.000064  -0.005148   0.001633   0.000044   0.000003
     4  C   -0.044560  -0.041508   0.696264  -0.043540  -0.044376   0.000011
     5  C    0.402458   0.398233  -0.044478   0.003552  -0.008060  -0.002029
     6  H   -0.026520  -0.027768  -0.002744   0.000029  -0.002206  -0.001400
     7  H    0.567112  -0.033702   0.000364  -0.000129   0.000223  -0.000037
     8  H   -0.033702   0.587531  -0.000761  -0.000120   0.000350  -0.000066
     9  C    0.000364  -0.000761   4.944748   0.406228   0.342076  -0.043747
    10  H   -0.000129  -0.000120   0.406228   0.566071  -0.041809   0.003414
    11  C    0.000223   0.000350   0.342076  -0.041809   4.890779   0.408313
    12  H   -0.000037  -0.000066  -0.043747   0.003414   0.408313   0.576295
    13  H   -0.000020   0.000067  -0.042395  -0.001031   0.401806  -0.028311
    14  H    0.000035  -0.000029  -0.042667  -0.001436   0.401382  -0.028245
    15  C    0.000073  -0.000002  -0.000000  -0.000000   0.000000  -0.000000
    16  H    0.000092  -0.000000  -0.000001   0.000000   0.000000   0.000000
    17  H    0.000012   0.000000  -0.000000  -0.000000   0.000000  -0.000000
    18  H   -0.000082  -0.000002  -0.000000  -0.000000   0.000000   0.000000
    19  C    0.002150   0.000061   0.000013   0.000001  -0.000000  -0.000000
    20  C   -0.000029  -0.000001  -0.000000   0.000000  -0.000000   0.000000
    21  H   -0.000000  -0.000000   0.000000   0.000000  -0.000000   0.000000
    22  H   -0.000048  -0.000002   0.000000  -0.000000   0.000000   0.000000
    23  H    0.000004   0.000000   0.000000   0.000000  -0.000000  -0.000000
    24  C    0.005620   0.000169  -0.000518   0.000098   0.000001   0.000001
    25  H   -0.001751   0.000067   0.000988  -0.000001  -0.000012   0.000001
    26  C   -0.000410   0.000062  -0.005985  -0.000076  -0.000069  -0.000006
    27  H   -0.000053   0.000012   0.000105  -0.000048   0.000002   0.000000
    28  H    0.000040   0.000006   0.002757   0.000640  -0.000068   0.000000
              13         14         15         16         17         18
     1  C   -0.000114  -0.000075  -0.000106  -0.000003  -0.000004   0.000024
     2  H    0.000006  -0.000000  -0.000027  -0.000002   0.000001  -0.000004
     3  H    0.000014  -0.000013   0.000002   0.000000   0.000000  -0.000000
     4  C   -0.001082  -0.000329  -0.000001  -0.000007  -0.000000   0.000001
     5  C    0.000272   0.000281   0.000027   0.000002  -0.000002   0.000052
     6  H   -0.000043   0.000034  -0.000001   0.000000   0.000000  -0.000002
     7  H   -0.000020   0.000035   0.000073   0.000092   0.000012  -0.000082
     8  H    0.000067  -0.000029  -0.000002  -0.000000   0.000000  -0.000002
     9  C   -0.042395  -0.042667  -0.000000  -0.000001  -0.000000  -0.000000
    10  H   -0.001031  -0.001436  -0.000000   0.000000  -0.000000  -0.000000
    11  C    0.401806   0.401382   0.000000   0.000000   0.000000   0.000000
    12  H   -0.028311  -0.028245  -0.000000   0.000000  -0.000000   0.000000
    13  H    0.587777  -0.036424  -0.000000  -0.000000   0.000000  -0.000000
    14  H   -0.036424   0.589164   0.000000   0.000000   0.000000   0.000000
    15  C   -0.000000   0.000000   4.900245   0.406204   0.399138   0.398084
    16  H   -0.000000   0.000000   0.406204   0.565687  -0.026321  -0.026849
    17  H    0.000000   0.000000   0.399138  -0.026321   0.592709  -0.037808
    18  H   -0.000000   0.000000   0.398084  -0.026849  -0.037808   0.596183
    19  C    0.000000  -0.000000   0.353284  -0.041844  -0.044076  -0.044387
    20  C   -0.000000   0.000000  -0.064954   0.003793  -0.001225  -0.001976
    21  H   -0.000000   0.000000   0.003749  -0.000114  -0.000030  -0.000071
    22  H   -0.000000  -0.000000  -0.002585  -0.000037  -0.000465   0.002764
    23  H    0.000000  -0.000000  -0.002258  -0.000049   0.002794  -0.000482
    24  C   -0.000000   0.000002  -0.044771  -0.002488  -0.001281  -0.000322
    25  H    0.000001  -0.000011  -0.006582   0.002251   0.000153   0.000191
    26  C   -0.000006   0.000031   0.003147   0.000151  -0.000131  -0.000071
    27  H    0.000000  -0.000001   0.000047   0.000005   0.000008  -0.000006
    28  H    0.000003  -0.000006  -0.000096  -0.000010   0.000009  -0.000002
              19         20         21         22         23         24
     1  C   -0.002995   0.000260  -0.000203   0.000136  -0.000043  -0.059935
     2  H    0.001693   0.000056   0.000301  -0.000070   0.000013  -0.002725
     3  H   -0.000016  -0.000008   0.000023  -0.000004   0.000001   0.005612
     4  C   -0.000056   0.000002  -0.000004   0.000002  -0.000000  -0.009639
     5  C   -0.001614   0.000007  -0.000000   0.000025  -0.000001  -0.005147
     6  H    0.000040  -0.000000  -0.000000  -0.000000   0.000000   0.000190
     7  H    0.002150  -0.000029  -0.000000  -0.000048   0.000004   0.005620
     8  H    0.000061  -0.000001  -0.000000  -0.000002   0.000000   0.000169
     9  C    0.000013  -0.000000   0.000000   0.000000   0.000000  -0.000518
    10  H    0.000001   0.000000   0.000000  -0.000000   0.000000   0.000098
    11  C   -0.000000  -0.000000  -0.000000   0.000000  -0.000000   0.000001
    12  H   -0.000000   0.000000   0.000000   0.000000  -0.000000   0.000001
    13  H    0.000000  -0.000000  -0.000000  -0.000000   0.000000  -0.000000
    14  H   -0.000000   0.000000   0.000000  -0.000000  -0.000000   0.000002
    15  C    0.353284  -0.064954   0.003749  -0.002585  -0.002258  -0.044771
    16  H   -0.041844   0.003793  -0.000114  -0.000037  -0.000049  -0.002488
    17  H   -0.044076  -0.001225  -0.000030  -0.000465   0.002794  -0.001281
    18  H   -0.044387  -0.001976  -0.000071   0.002764  -0.000482  -0.000322
    19  C    4.928614   0.350276  -0.037784  -0.043461  -0.044063   0.691234
    20  C    0.350276   4.904286   0.407235   0.400928   0.400441  -0.043789
    21  H   -0.037784   0.407235   0.567994  -0.028116  -0.026563  -0.002999
    22  H   -0.043461   0.400928  -0.028116   0.587517  -0.035880  -0.000033
    23  H   -0.044063   0.400441  -0.026563  -0.035880   0.586140  -0.000405
    24  C    0.691234  -0.043789  -0.002999  -0.000033  -0.000405   4.974242
    25  H   -0.040966   0.003404   0.000051  -0.000113  -0.000122   0.406212
    26  C   -0.050803  -0.007267  -0.002532   0.000309   0.000119   0.342690
    27  H   -0.001004  -0.002472  -0.001619  -0.000087   0.000142  -0.045015
    28  H    0.002293   0.000152   0.000079  -0.000014   0.000022  -0.042617
              25         26         27         28
     1  C   -0.000575   0.340279  -0.042492  -0.045852
     2  H    0.000131  -0.042352  -0.003107   0.004805
     3  H   -0.000093  -0.040658  -0.002750  -0.002901
     4  C    0.004130  -0.053430   0.005768  -0.003494
     5  C   -0.001193   0.000838  -0.000147   0.000122
     6  H    0.000064  -0.000146   0.000003   0.000006
     7  H   -0.001751  -0.000410  -0.000053   0.000040
     8  H    0.000067   0.000062   0.000012   0.000006
     9  C    0.000988  -0.005985   0.000105   0.002757
    10  H   -0.000001  -0.000076  -0.000048   0.000640
    11  C   -0.000012  -0.000069   0.000002  -0.000068
    12  H    0.000001  -0.000006   0.000000   0.000000
    13  H    0.000001  -0.000006   0.000000   0.000003
    14  H   -0.000011   0.000031  -0.000001  -0.000006
    15  C   -0.006582   0.003147   0.000047  -0.000096
    16  H    0.002251   0.000151   0.000005  -0.000010
    17  H    0.000153  -0.000131   0.000008   0.000009
    18  H    0.000191  -0.000071  -0.000006  -0.000002
    19  C   -0.040966  -0.050803  -0.001004   0.002293
    20  C    0.003404  -0.007267  -0.002472   0.000152
    21  H    0.000051  -0.002532  -0.001619   0.000079
    22  H   -0.000113   0.000309  -0.000087  -0.000014
    23  H   -0.000122   0.000119   0.000142   0.000022
    24  C    0.406212   0.342690  -0.045015  -0.042617
    25  H    0.546658  -0.038621   0.003483  -0.003816
    26  C   -0.038621   4.961158   0.411303   0.411457
    27  H    0.003483   0.411303   0.593421  -0.028839
    28  H   -0.003816   0.411457  -0.028839   0.586044
 Mulliken charges:
               1
     1  C   -0.226044
     2  H    0.112600
     3  H    0.119466
     4  C    0.009460
     5  C   -0.348604
     6  H    0.112835
     7  H    0.130117
     8  H    0.119217
     9  C   -0.151397
    10  H    0.112217
    11  C   -0.351211
    12  H    0.115713
    13  H    0.119481
    14  H    0.118307
    15  C   -0.342616
    16  H    0.119539
    17  H    0.116519
    18  H    0.114766
    19  C    0.023410
    20  C   -0.349119
    21  H    0.120602
    22  H    0.119234
    23  H    0.120190
    24  C   -0.164388
    25  H    0.126070
    26  C   -0.228978
    27  H    0.113340
    28  H    0.119276
 Sum of Mulliken charges =  -0.00000
 Mulliken charges with hydrogens summed into heavy atoms:
               1
     1  C    0.006022
     4  C    0.009460
     5  C    0.013564
     9  C   -0.039180
    11  C    0.002290
    15  C    0.008207
    19  C    0.023410
    20  C    0.010907
    24  C   -0.038318
    26  C    0.003638
 Electronic spatial extent (au):  <R**2>=           2249.0289
 Charge=             -0.0000 electrons
 Dipole moment (field-independent basis, Debye):
    X=             -0.4066    Y=              0.0416    Z=              0.1923  Tot=              0.4517
 Quadrupole moment (field-independent basis, Debye-Ang):
   XX=            -64.1242   YY=            -64.2712   ZZ=            -66.2527
   XY=              0.2468   XZ=             -1.9655   YZ=              0.1501
 Traceless Quadrupole moment (field-independent basis, Debye-Ang):
   XX=              0.7585   YY=              0.6115   ZZ=             -1.3700
   XY=              0.2468   XZ=             -1.9655   YZ=              0.1501
 Octapole moment (field-independent basis, Debye-Ang**2):
  XXX=             -6.9964  YYY=             -1.3737  ZZZ=              2.3187  XYY=              0.9463
  XXY=              1.8533  XXZ=             -2.1261  XZZ=              1.1243  YZZ=              1.1736
  YYZ=             -1.0168  XYZ=              2.1596
 Hexadecapole moment (field-independent basis, Debye-Ang**3):
 XXXX=          -2293.8523 YYYY=           -512.3128 ZZZZ=           -297.2397 XXXY=             -0.9251
 XXXZ=             -9.8803 YYYX=              3.4271 YYYZ=              0.0447 ZZZX=             -9.6251
 ZZZY=             -0.9398 XXYY=           -474.0473 XXZZ=           -443.0406 YYZZ=           -137.1909
 XXYZ=              6.5982 YYXZ=             -1.6657 ZZXY=             -2.0845
 N-N= 5.257848061076D+02 E-N=-1.956367432747D+03  KE= 3.887490205740D+02
 No NMR shielding tensors so no spin-rotation constants.
 Leave Link  601 at Fri Sep 17 21:47:00 2021, MaxMem=   524288000 cpu:               0.4 elap:               0.6
 (Enter /opt/gaussian/g16_legacy/l9999.exe)
 1\1\GINC-TRUENO90\FOpt\RMP2-FC\6-31G(d,p)\C10H18\JRAMOS\17-Sep-2021\0\
 \#p opt mp2/6-31g(d,p)\\Conformer number 020. Energy MM = 28.610 kcal/
 mol\\0,1\C,2.0548669994,1.7680120088,-8.6957444107\H,1.4801459103,0.88
 22206863,-8.9799185128\H,1.9922679143,2.4716563878,-9.5299106269\C,3.4
 988347649,1.3836186634,-8.4565385729\C,3.7333234499,-0.0505770792,-8.0
 682918443\H,4.7610525384,-0.2515195927,-7.77568214\H,3.0798663106,-0.3
 275839576,-7.2406632069\H,3.4859769035,-0.708898989,-8.9044116579\C,4.
 4608166262,2.3156816099,-8.5931306794\H,4.1422887166,3.3088591659,-8.9
 019188995\C,5.9355912416,2.1646387945,-8.3754922174\H,6.2128742052,1.1
 602820065,-8.0659866457\H,6.4858312051,2.3952792241,-9.2895815482\H,6.
 2864865994,2.8596628659,-7.6104121383\C,0.7503894753,-0.0941042392,-4.
 5217148028\H,1.7356151829,0.0959445495,-4.0984435489\H,0.0006041269,0.
 1382888864,-3.7619273802\H,0.6672888498,-1.163007022,-4.7312931068\C,0
 .5189990072,0.7167414599,-5.7670513649\C,-0.8230611434,0.5100554897,-6
 .4122273544\H,-0.9503342802,1.091343432,-7.3218216492\H,-0.9608046982,
 -0.5435014201,-6.6649326956\H,-1.6255745439,0.7761014408,-5.7205878913
 \C,1.4674592695,1.5516828281,-6.2334374584\H,2.404442861,1.5991982508,
 -5.6855675133\C,1.3942021763,2.4121016244,-7.4608842867\H,0.3596506635
 ,2.6643501843,-7.7011702927\H,1.907899668,3.3556727409,-7.2595575537\\
 Version=EM64L-G16RevA.03\State=1-A\HF=-389.1537969\MP2=-390.5726197\RM
 SD=3.755e-09\RMSF=2.064e-06\Dipole=-0.0957768,-0.084326,0.0373458\PG=C
 01 [X(C10H18)]\\@


 FRICTION IS A DRAG,
 AND ENTROPY AIN'T WHAT IT USED TO BE.
 Job cpu time:       0 days  1 hours 37 minutes 28.5 seconds.
 Elapsed time:       0 days  1 hours 37 minutes 31.0 seconds.
 File lengths (MBytes):  RWF=     32 Int=      0 D2E=      0 Chk=      7 Scr=      1
 Normal termination of Gaussian 16 at Fri Sep 17 21:47:00 2021.
