 Entering Gaussian System, Link 0=/opt/gaussian/g16_legacy/g16
 Input=02-IsoP_012_gaussian.com
 Output=02-IsoP_012_gaussian.log
 Initial command:
 /opt/gaussian/g16_legacy/l1.exe "/scratch-local/jramos/2661510/Gau-7062.inp" -scrdir="/scratch-local/jramos/2661510/"
 Entering Link 1 = /opt/gaussian/g16_legacy/l1.exe PID=      7083.
  
 Copyright (c) 1988,1990,1992,1993,1995,1998,2003,2009,2016,
            Gaussian, Inc.  All Rights Reserved.
  
 This is part of the Gaussian(R) 16 program.  It is based on
 the Gaussian(R) 09 system (copyright 2009, Gaussian, Inc.),
 the Gaussian(R) 03 system (copyright 2003, Gaussian, Inc.),
 the Gaussian(R) 98 system (copyright 1998, Gaussian, Inc.),
 the Gaussian(R) 94 system (copyright 1995, Gaussian, Inc.),
 the Gaussian 92(TM) system (copyright 1992, Gaussian, Inc.),
 the Gaussian 90(TM) system (copyright 1990, Gaussian, Inc.),
 the Gaussian 88(TM) system (copyright 1988, Gaussian, Inc.),
 the Gaussian 86(TM) system (copyright 1986, Carnegie Mellon
 University), and the Gaussian 82(TM) system (copyright 1983,
 Carnegie Mellon University). Gaussian is a federally registered
 trademark of Gaussian, Inc.
  
 This software contains proprietary and confidential information,
 including trade secrets, belonging to Gaussian, Inc.
  
 This software is provided under written license and may be
 used, copied, transmitted, or stored only in accord with that
 written license.
  
 The following legend is applicable only to US Government
 contracts under FAR:
  
                    RESTRICTED RIGHTS LEGEND
  
 Use, reproduction and disclosure by the US Government is
 subject to restrictions as set forth in subparagraphs (a)
 and (c) of the Commercial Computer Software - Restricted
 Rights clause in FAR 52.227-19.
  
 Gaussian, Inc.
 340 Quinnipiac St., Bldg. 40, Wallingford CT 06492
  
  
 ---------------------------------------------------------------
 Warning -- This program may not be used in any manner that
 competes with the business of Gaussian, Inc. or will provide
 assistance to any competitor of Gaussian, Inc.  The licensee
 of this program is prohibited from giving any competitor of
 Gaussian, Inc. access to this program.  By using this program,
 the user acknowledges that Gaussian, Inc. is engaged in the
 business of creating and licensing software in the field of
 computational chemistry and represents and warrants to the
 licensee that it is not a competitor of Gaussian, Inc. and that
 it will not use this program in any manner prohibited above.
 ---------------------------------------------------------------
  

 Cite this work as:
 Gaussian 16, Revision A.03,
 M. J. Frisch, G. W. Trucks, H. B. Schlegel, G. E. Scuseria, 
 M. A. Robb, J. R. Cheeseman, G. Scalmani, V. Barone, 
 G. A. Petersson, H. Nakatsuji, X. Li, M. Caricato, A. V. Marenich, 
 J. Bloino, B. G. Janesko, R. Gomperts, B. Mennucci, H. P. Hratchian, 
 J. V. Ortiz, A. F. Izmaylov, J. L. Sonnenberg, D. Williams-Young, 
 F. Ding, F. Lipparini, F. Egidi, J. Goings, B. Peng, A. Petrone, 
 T. Henderson, D. Ranasinghe, V. G. Zakrzewski, J. Gao, N. Rega, 
 G. Zheng, W. Liang, M. Hada, M. Ehara, K. Toyota, R. Fukuda, 
 J. Hasegawa, M. Ishida, T. Nakajima, Y. Honda, O. Kitao, H. Nakai, 
 T. Vreven, K. Throssell, J. A. Montgomery, Jr., J. E. Peralta, 
 F. Ogliaro, M. J. Bearpark, J. J. Heyd, E. N. Brothers, K. N. Kudin, 
 V. N. Staroverov, T. A. Keith, R. Kobayashi, J. Normand, 
 K. Raghavachari, A. P. Rendell, J. C. Burant, S. S. Iyengar, 
 J. Tomasi, M. Cossi, J. M. Millam, M. Klene, C. Adamo, R. Cammi, 
 J. W. Ochterski, R. L. Martin, K. Morokuma, O. Farkas, 
 J. B. Foresman, and D. J. Fox, Gaussian, Inc., Wallingford CT, 2016.
 
 ******************************************
 Gaussian 16:  EM64L-G16RevA.03 25-Dec-2016
                17-Sep-2021 
 ******************************************
 %chk=02-IsoP_012_gaussian.chk
 %nproc=1
 Will use up to    1 processors via shared memory.
 %mem=4000Mb
 ---------------------
 #p opt mp2/6-31g(d,p)
 ---------------------
 1/18=20,19=15,38=1/1,3;
 2/9=110,12=2,17=6,18=5,40=1/2;
 3/5=1,6=6,7=101,11=9,25=1,30=1,71=1/1,2,3;
 4//1;
 5/5=2,38=5/2;
 8/6=4,10=2/1;
 9/15=2,16=-3/6;
 10/5=1/2;
 6/7=2,8=2,9=2,10=2/1;
 7/12=2/1,2,3,16;
 1/18=20,19=15/3(2);
 2/9=110/2;
 99//99;
 2/9=110/2;
 3/5=1,6=6,7=101,11=9,25=1,30=1,71=1/1,2,3;
 4/5=5,16=3,69=1/1;
 5/5=2,38=5/2;
 8/6=4,10=2/1;
 9/15=2,16=-3/6;
 10/5=1/2;
 7/12=2/1,2,3,16;
 1/18=20,19=15/3(-8);
 2/9=110/2;
 6/7=2,8=2,9=2,10=2/1;
 99//99;
 Leave Link    1 at Fri Sep 17 20:09:26 2021, MaxMem=   524288000 cpu:               0.0 elap:               0.1
 (Enter /opt/gaussian/g16_legacy/l101.exe)
 -------------------------------------------------
 Conformer number 012. Energy MM = 26.413 kcal/mol
 -------------------------------------------------
 Symbolic Z-matrix:
 Charge =  0 Multiplicity = 1
 C                     2.1589    1.188    -8.8718 
 H                     1.8678    0.1531   -9.0858 
 H                     1.9814    1.7442   -9.803 
 C                     3.6377    1.2112   -8.5186 
 C                     4.0531    0.3457   -7.3614 
 H                     4.8479    0.8085   -6.7703 
 H                     3.2279    0.1673   -6.666 
 H                     4.3945   -0.6283   -7.7249 
 C                     4.5014    1.9651   -9.2244 
 H                     4.1232    2.5655   -10.052 
 C                     5.98      2.0802   -9.0102 
 H                     6.3515    1.4584   -8.1935 
 H                     6.5092    1.7804   -9.9203 
 H                     6.2398    3.1203   -8.7901 
 C                     1.4096    5.6631   -7.7532 
 H                     2.2153    5.6797   -7.0125 
 H                     1.7799    6.1575   -8.6573 
 H                     0.5749    6.2484   -7.3515 
 C                     0.96      4.2654   -8.0767 
 C                    -0.1049    4.1591   -9.1329 
 H                    -0.7614    3.2988   -8.9782 
 H                    -0.7492    5.044    -9.1261 
 H                     0.3559    4.0757   -10.1222 
 C                     1.5261    3.2001   -7.4804 
 H                     2.3118    3.3631   -6.7439 
 C                     1.236     1.7534   -7.7795 
 H                     1.3285    1.1824   -6.8496 
 H                     0.1943    1.6139   -8.0888 
 
 ITRead=  0  0  0  0  0  0  0  0  0  0  0  0  0  0  0  0  0  0  0  0
 ITRead=  0  0  0  0  0  0  0  0
 MicOpt= -1 -1 -1 -1 -1 -1 -1 -1 -1 -1 -1 -1 -1 -1 -1 -1 -1 -1 -1 -1
 MicOpt= -1 -1 -1 -1 -1 -1 -1 -1
 NAtoms=     28 NQM=       28 NQMF=       0 NMMI=      0 NMMIF=      0
                NMic=       0 NMicF=      0.
                    Isotopes and Nuclear Properties:
 (Nuclear quadrupole moments (NQMom) in fm**2, nuclear magnetic moments (NMagM)
  in nuclear magnetons)

  Atom         1           2           3           4           5           6           7           8           9          10
 IAtWgt=          12           1           1          12          12           1           1           1          12           1
 AtmWgt=  12.0000000   1.0078250   1.0078250  12.0000000  12.0000000   1.0078250   1.0078250   1.0078250  12.0000000   1.0078250
 NucSpn=           0           1           1           0           0           1           1           1           0           1
 AtZEff=  -0.0000000  -0.0000000  -0.0000000  -0.0000000  -0.0000000  -0.0000000  -0.0000000  -0.0000000  -0.0000000  -0.0000000
 NQMom=    0.0000000   0.0000000   0.0000000   0.0000000   0.0000000   0.0000000   0.0000000   0.0000000   0.0000000   0.0000000
 NMagM=    0.0000000   2.7928460   2.7928460   0.0000000   0.0000000   2.7928460   2.7928460   2.7928460   0.0000000   2.7928460
 AtZNuc=   6.0000000   1.0000000   1.0000000   6.0000000   6.0000000   1.0000000   1.0000000   1.0000000   6.0000000   1.0000000

  Atom        11          12          13          14          15          16          17          18          19          20
 IAtWgt=          12           1           1           1          12           1           1           1          12          12
 AtmWgt=  12.0000000   1.0078250   1.0078250   1.0078250  12.0000000   1.0078250   1.0078250   1.0078250  12.0000000  12.0000000
 NucSpn=           0           1           1           1           0           1           1           1           0           0
 AtZEff=  -0.0000000  -0.0000000  -0.0000000  -0.0000000  -0.0000000  -0.0000000  -0.0000000  -0.0000000  -0.0000000  -0.0000000
 NQMom=    0.0000000   0.0000000   0.0000000   0.0000000   0.0000000   0.0000000   0.0000000   0.0000000   0.0000000   0.0000000
 NMagM=    0.0000000   2.7928460   2.7928460   2.7928460   0.0000000   2.7928460   2.7928460   2.7928460   0.0000000   0.0000000
 AtZNuc=   6.0000000   1.0000000   1.0000000   1.0000000   6.0000000   1.0000000   1.0000000   1.0000000   6.0000000   6.0000000

  Atom        21          22          23          24          25          26          27          28
 IAtWgt=           1           1           1          12           1          12           1           1
 AtmWgt=   1.0078250   1.0078250   1.0078250  12.0000000   1.0078250  12.0000000   1.0078250   1.0078250
 NucSpn=           1           1           1           0           1           0           1           1
 AtZEff=  -0.0000000  -0.0000000  -0.0000000  -0.0000000  -0.0000000  -0.0000000  -0.0000000  -0.0000000
 NQMom=    0.0000000   0.0000000   0.0000000   0.0000000   0.0000000   0.0000000   0.0000000   0.0000000
 NMagM=    2.7928460   2.7928460   2.7928460   0.0000000   2.7928460   0.0000000   2.7928460   2.7928460
 AtZNuc=   1.0000000   1.0000000   1.0000000   6.0000000   1.0000000   6.0000000   1.0000000   1.0000000
 Leave Link  101 at Fri Sep 17 20:09:26 2021, MaxMem=   524288000 cpu:               0.3 elap:               0.3
 (Enter /opt/gaussian/g16_legacy/l103.exe)

 GradGradGradGradGradGradGradGradGradGradGradGradGradGradGradGradGradGrad
 Berny optimization.
 Initialization pass.
                           ----------------------------
                           !    Initial Parameters    !
                           ! (Angstroms and Degrees)  !
 --------------------------                            --------------------------
 ! Name  Definition              Value          Derivative Info.                !
 --------------------------------------------------------------------------------
 ! R1    R(1,2)                  1.0962         estimate D2E/DX2                !
 ! R2    R(1,3)                  1.0991         estimate D2E/DX2                !
 ! R3    R(1,4)                  1.5206         estimate D2E/DX2                !
 ! R4    R(1,26)                 1.5377         estimate D2E/DX2                !
 ! R5    R(4,5)                  1.5036         estimate D2E/DX2                !
 ! R6    R(4,9)                  1.3463         estimate D2E/DX2                !
 ! R7    R(5,6)                  1.0933         estimate D2E/DX2                !
 ! R8    R(5,7)                  1.0938         estimate D2E/DX2                !
 ! R9    R(5,8)                  1.0942         estimate D2E/DX2                !
 ! R10   R(9,10)                 1.0902         estimate D2E/DX2                !
 ! R11   R(9,11)                 1.4985         estimate D2E/DX2                !
 ! R12   R(11,12)                1.0916         estimate D2E/DX2                !
 ! R13   R(11,13)                1.0946         estimate D2E/DX2                !
 ! R14   R(11,14)                1.0944         estimate D2E/DX2                !
 ! R15   R(15,16)                1.0946         estimate D2E/DX2                !
 ! R16   R(15,17)                1.095          estimate D2E/DX2                !
 ! R17   R(15,18)                1.0957         estimate D2E/DX2                !
 ! R18   R(15,19)                1.5034         estimate D2E/DX2                !
 ! R19   R(19,20)                1.5036         estimate D2E/DX2                !
 ! R20   R(19,24)                1.3457         estimate D2E/DX2                !
 ! R21   R(20,21)                1.0932         estimate D2E/DX2                !
 ! R22   R(20,22)                1.0946         estimate D2E/DX2                !
 ! R23   R(20,23)                1.0945         estimate D2E/DX2                !
 ! R24   R(24,25)                1.0892         estimate D2E/DX2                !
 ! R25   R(24,26)                1.5055         estimate D2E/DX2                !
 ! R26   R(26,27)                1.0951         estimate D2E/DX2                !
 ! R27   R(26,28)                1.0956         estimate D2E/DX2                !
 ! A1    A(2,1,3)              105.6335         estimate D2E/DX2                !
 ! A2    A(2,1,4)              108.5434         estimate D2E/DX2                !
 ! A3    A(2,1,26)             109.0526         estimate D2E/DX2                !
 ! A4    A(3,1,4)              110.2513         estimate D2E/DX2                !
 ! A5    A(3,1,26)             108.5926         estimate D2E/DX2                !
 ! A6    A(4,1,26)             114.3986         estimate D2E/DX2                !
 ! A7    A(1,4,5)              116.0192         estimate D2E/DX2                !
 ! A8    A(1,4,9)              120.7096         estimate D2E/DX2                !
 ! A9    A(5,4,9)              123.2698         estimate D2E/DX2                !
 ! A10   A(4,5,6)              111.9184         estimate D2E/DX2                !
 ! A11   A(4,5,7)              112.0097         estimate D2E/DX2                !
 ! A12   A(4,5,8)              110.0539         estimate D2E/DX2                !
 ! A13   A(6,5,7)              105.8887         estimate D2E/DX2                !
 ! A14   A(6,5,8)              109.2434         estimate D2E/DX2                !
 ! A15   A(7,5,8)              107.542          estimate D2E/DX2                !
 ! A16   A(4,9,10)             118.9363         estimate D2E/DX2                !
 ! A17   A(4,9,11)             126.9495         estimate D2E/DX2                !
 ! A18   A(10,9,11)            114.1131         estimate D2E/DX2                !
 ! A19   A(9,11,12)            113.5157         estimate D2E/DX2                !
 ! A20   A(9,11,13)            109.7037         estimate D2E/DX2                !
 ! A21   A(9,11,14)            109.6326         estimate D2E/DX2                !
 ! A22   A(12,11,13)           107.5475         estimate D2E/DX2                !
 ! A23   A(12,11,14)           108.0647         estimate D2E/DX2                !
 ! A24   A(13,11,14)           108.224          estimate D2E/DX2                !
 ! A25   A(16,15,17)           107.6359         estimate D2E/DX2                !
 ! A26   A(16,15,18)           107.7309         estimate D2E/DX2                !
 ! A27   A(16,15,19)           112.3234         estimate D2E/DX2                !
 ! A28   A(17,15,18)           108.6103         estimate D2E/DX2                !
 ! A29   A(17,15,19)           110.0738         estimate D2E/DX2                !
 ! A30   A(18,15,19)           110.3445         estimate D2E/DX2                !
 ! A31   A(15,19,20)           115.3826         estimate D2E/DX2                !
 ! A32   A(15,19,24)           120.9844         estimate D2E/DX2                !
 ! A33   A(20,19,24)           123.5887         estimate D2E/DX2                !
 ! A34   A(19,20,21)           112.4297         estimate D2E/DX2                !
 ! A35   A(19,20,22)           110.8147         estimate D2E/DX2                !
 ! A36   A(19,20,23)           110.0064         estimate D2E/DX2                !
 ! A37   A(21,20,22)           106.3694         estimate D2E/DX2                !
 ! A38   A(21,20,23)           108.7096         estimate D2E/DX2                !
 ! A39   A(22,20,23)           108.3616         estimate D2E/DX2                !
 ! A40   A(19,24,25)           118.9876         estimate D2E/DX2                !
 ! A41   A(19,24,26)           126.2717         estimate D2E/DX2                !
 ! A42   A(25,24,26)           114.6547         estimate D2E/DX2                !
 ! A43   A(1,26,24)            112.2595         estimate D2E/DX2                !
 ! A44   A(1,26,27)            111.147          estimate D2E/DX2                !
 ! A45   A(1,26,28)            108.8631         estimate D2E/DX2                !
 ! A46   A(24,26,27)           108.4248         estimate D2E/DX2                !
 ! A47   A(24,26,28)           111.2024         estimate D2E/DX2                !
 ! A48   A(27,26,28)           104.6933         estimate D2E/DX2                !
 ! D1    D(2,1,4,5)            -57.3748         estimate D2E/DX2                !
 ! D2    D(2,1,4,9)            122.1949         estimate D2E/DX2                !
 ! D3    D(3,1,4,5)           -172.6347         estimate D2E/DX2                !
 ! D4    D(3,1,4,9)              6.935          estimate D2E/DX2                !
 ! D5    D(26,1,4,5)            64.6461         estimate D2E/DX2                !
 ! D6    D(26,1,4,9)          -115.7842         estimate D2E/DX2                !
 ! D7    D(2,1,26,24)         -176.9531         estimate D2E/DX2                !
 ! D8    D(2,1,26,27)           61.4129         estimate D2E/DX2                !
 ! D9    D(2,1,26,28)          -53.3934         estimate D2E/DX2                !
 ! D10   D(3,1,26,24)          -62.3094         estimate D2E/DX2                !
 ! D11   D(3,1,26,27)          176.0566         estimate D2E/DX2                !
 ! D12   D(3,1,26,28)           61.2503         estimate D2E/DX2                !
 ! D13   D(4,1,26,24)           61.3048         estimate D2E/DX2                !
 ! D14   D(4,1,26,27)          -60.3293         estimate D2E/DX2                !
 ! D15   D(4,1,26,28)         -175.1355         estimate D2E/DX2                !
 ! D16   D(1,4,5,6)           -144.0973         estimate D2E/DX2                !
 ! D17   D(1,4,5,7)            -25.3502         estimate D2E/DX2                !
 ! D18   D(1,4,5,8)             94.2297         estimate D2E/DX2                !
 ! D19   D(9,4,5,6)             36.3451         estimate D2E/DX2                !
 ! D20   D(9,4,5,7)            155.0923         estimate D2E/DX2                !
 ! D21   D(9,4,5,8)            -85.3278         estimate D2E/DX2                !
 ! D22   D(1,4,9,10)             0.3629         estimate D2E/DX2                !
 ! D23   D(1,4,9,11)          -179.2342         estimate D2E/DX2                !
 ! D24   D(5,4,9,10)           179.9004         estimate D2E/DX2                !
 ! D25   D(5,4,9,11)             0.3033         estimate D2E/DX2                !
 ! D26   D(4,9,11,12)            0.8847         estimate D2E/DX2                !
 ! D27   D(4,9,11,13)          121.2217         estimate D2E/DX2                !
 ! D28   D(4,9,11,14)         -120.0642         estimate D2E/DX2                !
 ! D29   D(10,9,11,12)        -178.729          estimate D2E/DX2                !
 ! D30   D(10,9,11,13)         -58.392          estimate D2E/DX2                !
 ! D31   D(10,9,11,14)          60.3221         estimate D2E/DX2                !
 ! D32   D(16,15,19,20)       -177.4369         estimate D2E/DX2                !
 ! D33   D(16,15,19,24)          0.226          estimate D2E/DX2                !
 ! D34   D(17,15,19,20)        -57.52           estimate D2E/DX2                !
 ! D35   D(17,15,19,24)        120.143          estimate D2E/DX2                !
 ! D36   D(18,15,19,20)         62.3395         estimate D2E/DX2                !
 ! D37   D(18,15,19,24)       -119.9975         estimate D2E/DX2                !
 ! D38   D(15,19,20,21)       -149.1826         estimate D2E/DX2                !
 ! D39   D(15,19,20,22)        -30.2942         estimate D2E/DX2                !
 ! D40   D(15,19,20,23)         89.5118         estimate D2E/DX2                !
 ! D41   D(24,19,20,21)         33.2226         estimate D2E/DX2                !
 ! D42   D(24,19,20,22)        152.111          estimate D2E/DX2                !
 ! D43   D(24,19,20,23)        -88.083          estimate D2E/DX2                !
 ! D44   D(15,19,24,25)          0.823          estimate D2E/DX2                !
 ! D45   D(15,19,24,26)       -175.6121         estimate D2E/DX2                !
 ! D46   D(20,19,24,25)        178.2882         estimate D2E/DX2                !
 ! D47   D(20,19,24,26)          1.8531         estimate D2E/DX2                !
 ! D48   D(19,24,26,1)          90.3599         estimate D2E/DX2                !
 ! D49   D(19,24,26,27)       -146.4631         estimate D2E/DX2                !
 ! D50   D(19,24,26,28)        -31.8813         estimate D2E/DX2                !
 ! D51   D(25,24,26,1)         -86.2092         estimate D2E/DX2                !
 ! D52   D(25,24,26,27)         36.9678         estimate D2E/DX2                !
 ! D53   D(25,24,26,28)        151.5496         estimate D2E/DX2                !
 --------------------------------------------------------------------------------
 Trust Radius=3.00D-01 FncErr=1.00D-07 GrdErr=1.00D-07 EigMax=2.50D+02 EigMin=1.00D-04
 Number of steps in this run=    138 maximum allowed number of steps=    168.
 GradGradGradGradGradGradGradGradGradGradGradGradGradGradGradGradGradGrad

 Leave Link  103 at Fri Sep 17 20:09:26 2021, MaxMem=   524288000 cpu:               0.0 elap:               0.0
 (Enter /opt/gaussian/g16_legacy/l202.exe)
                          Input orientation:                          
 ---------------------------------------------------------------------
 Center     Atomic      Atomic             Coordinates (Angstroms)
 Number     Number       Type             X           Y           Z
 ---------------------------------------------------------------------
      1          6           0        2.158900    1.188000   -8.871800
      2          1           0        1.867800    0.153100   -9.085800
      3          1           0        1.981400    1.744200   -9.803000
      4          6           0        3.637700    1.211200   -8.518600
      5          6           0        4.053100    0.345700   -7.361400
      6          1           0        4.847900    0.808500   -6.770300
      7          1           0        3.227900    0.167300   -6.666000
      8          1           0        4.394500   -0.628300   -7.724900
      9          6           0        4.501400    1.965100   -9.224400
     10          1           0        4.123200    2.565500  -10.052000
     11          6           0        5.980000    2.080200   -9.010200
     12          1           0        6.351500    1.458400   -8.193500
     13          1           0        6.509200    1.780400   -9.920300
     14          1           0        6.239800    3.120300   -8.790100
     15          6           0        1.409600    5.663100   -7.753200
     16          1           0        2.215300    5.679700   -7.012500
     17          1           0        1.779900    6.157500   -8.657300
     18          1           0        0.574900    6.248400   -7.351500
     19          6           0        0.960000    4.265400   -8.076700
     20          6           0       -0.104900    4.159100   -9.132900
     21          1           0       -0.761400    3.298800   -8.978200
     22          1           0       -0.749200    5.044000   -9.126100
     23          1           0        0.355900    4.075700  -10.122200
     24          6           0        1.526100    3.200100   -7.480400
     25          1           0        2.311800    3.363100   -6.743900
     26          6           0        1.236000    1.753400   -7.779500
     27          1           0        1.328500    1.182400   -6.849600
     28          1           0        0.194300    1.613900   -8.088800
 ---------------------------------------------------------------------
                    Distance matrix (angstroms):
                    1          2          3          4          5
     1  C    0.000000
     2  H    1.096154   0.000000
     3  H    1.099090   1.748965   0.000000
     4  C    1.520572   2.138653   2.162661   0.000000
     5  C    2.564912   2.790374   3.494160   1.503582   0.000000
     6  H    3.433809   3.830416   4.276637   2.164094   1.093293
     7  H    2.655211   2.775879   3.725741   2.165592   1.093784
     8  H    3.100360   2.974365   3.971185   2.141604   1.094240
     9  C    2.493094   3.199750   2.594990   1.346290   2.508824
    10  H    2.673734   3.440937   2.307345   2.102654   3.488804
    11  C    3.926319   4.541984   4.090260   2.546213   3.072454
    12  H    4.255714   4.754322   4.665827   2.744359   2.685728
    13  H    4.513912   4.988696   4.529464   3.245653   3.826063
    14  H    4.515994   5.292079   4.588419   3.238719   3.810675
    15  C    4.673247   5.687343   4.459418   5.036832   5.951163
    16  H    4.861640   5.912921   4.830089   4.925348   5.652504
    17  H    4.988545   6.020312   4.564039   5.285503   6.373681
    18  H    5.516160   6.467772   5.317510   6.009680   6.851266
    19  C    3.397048   4.330519   3.221773   4.085767   5.044102
    20  C    3.744382   4.465624   3.260893   4.803596   5.913476
    21  H    3.604851   4.101183   3.258838   4.890949   5.874883
    22  H    4.836367   5.547181   4.336248   5.856988   6.946242
    23  H    3.626723   4.329753   2.860075   4.641886   5.933313
    24  C    2.526851   3.460965   2.778743   3.080980   3.814117
    25  H    3.046703   3.998216   3.476794   3.088405   3.538098
    26  C    1.537706   2.160220   2.156446   2.570683   3.176866
    27  H    2.186067   2.520098   3.076438   2.849350   2.895764
    28  H    2.157344   2.434861   2.479755   3.493408   4.126473
                    6          7          8          9         10
     6  H    0.000000
     7  H    1.745399   0.000000
     8  H    1.783599   1.764994   0.000000
     9  C    2.735031   3.376285   2.997608   0.000000
    10  H    3.792334   4.244752   3.960979   1.090155   0.000000
    11  C    2.813543   4.090051   3.391427   1.498462   2.183705
    12  H    2.169950   3.709053   2.898923   2.177698   3.105642
    13  H    3.691478   4.894843   3.885045   2.132991   2.515298
    14  H    3.370667   4.722664   4.311819   2.131933   2.525904
    15  C    6.029522   5.889995   6.963630   5.039728   4.716273
    16  H    5.542367   5.615334   6.711728   4.890502   4.751514
    17  H    6.448658   6.476455   7.331615   5.030346   4.509846
    18  H    6.941818   6.669940   7.875136   6.105065   5.783328
    19  C    5.364010   4.891612   5.988978   4.376084   4.098451
    20  C    6.429512   5.755660   6.719097   5.102941   4.610980
    21  H    6.522320   5.573785   6.601226   5.434743   5.054710
    22  H    7.403836   6.756598   7.784343   6.087535   5.544415
    23  H    6.487518   5.955610   6.647176   4.737705   4.059333
    24  C    4.154317   3.571729   4.790005   3.663219   3.709551
    25  H    3.599789   3.325424   4.607741   3.591884   3.854979
    26  C    3.867446   2.779076   3.956210   3.577064   3.762936
    27  H    3.540094   2.161448   3.666762   4.039751   4.469752
    28  H    4.903377   3.649622   4.775098   4.468114   4.493991
                   11         12         13         14         15
    11  C    0.000000
    12  H    1.091626   0.000000
    13  H    1.094630   1.763630   0.000000
    14  H    1.094417   1.769271   1.773488   0.000000
    15  C    5.941867   6.503518   6.765915   5.556242   0.000000
    16  H    5.578546   6.026797   6.488252   5.089891   1.094561
    17  H    5.864278   6.572380   6.566616   5.397493   1.094966
    18  H    7.024264   7.551303   7.859877   6.629153   1.095748
    19  C    5.554000   6.079569   6.353559   5.449448   1.503449
    20  C    6.431399   7.061257   7.072802   6.438310   2.541515
    21  H    6.850729   7.388922   7.486970   7.006001   3.435663
    22  H    7.353888   8.009133   7.997888   7.256696   2.632215
    23  H    6.070343   6.820364   6.570561   6.107991   3.040112
    24  C    4.840629   5.179432   5.727124   4.892918   2.480798
    25  H    4.498626   4.695572   5.496601   4.435659   2.668830
    26  C    4.911920   5.140697   5.691256   5.284671   3.913641
    27  H    5.206793   5.206993   6.051979   5.625110   4.571624
    28  H    5.877137   6.160053   6.577239   6.269700   4.240944
                   16         17         18         19         20
    16  H    0.000000
    17  H    1.767267   0.000000
    18  H    1.768969   1.779158   0.000000
    19  C    2.169918   2.142283   2.146277   0.000000
    20  C    3.491654   2.787879   2.828549   1.503619   0.000000
    21  H    4.288753   3.838404   3.623809   2.170308   1.093179
    22  H    3.695900   2.802856   2.520521   2.151470   1.094631
    23  H    3.962375   2.916779   3.527799   2.141260   1.094535
    24  C    2.615787   3.193074   3.195861   1.345699   2.512090
    25  H    2.334115   3.428219   3.422127   2.101872   3.490183
    26  C    4.118634   4.523545   4.563470   2.544533   3.068729
    27  H    4.586792   5.312548   5.146278   3.338631   4.016072
    28  H    4.666218   4.845784   4.708191   2.759872   2.767256
                   21         22         23         24         25
    21  H    0.000000
    22  H    1.751498   0.000000
    23  H    1.777827   1.775124   0.000000
    24  C    2.736020   3.359358   3.019131   0.000000
    25  H    3.800104   4.227295   3.968155   1.089186   0.000000
    26  C    2.795487   4.072149   3.414073   1.505510   2.195666
    27  H    3.657563   4.940774   4.475159   2.123221   2.394474
    28  H    2.131498   3.705640   3.197075   2.158674   3.058147
                   26         27         28
    26  C    0.000000
    27  H    1.095131   0.000000
    28  H    1.095566   1.734422   0.000000
 Stoichiometry    C10H18
 Framework group  C1[X(C10H18)]
 Deg. of freedom    78
 Full point group                 C1      NOp   1
 Largest Abelian subgroup         C1      NOp   1
 Largest concise Abelian subgroup C1      NOp   1
                         Standard orientation:                         
 ---------------------------------------------------------------------
 Center     Atomic      Atomic             Coordinates (Angstroms)
 Number     Number       Type             X           Y           Z
 ---------------------------------------------------------------------
      1          6           0       -0.594350   -1.243102    0.741981
      2          1           0       -1.019066   -2.187770    1.100829
      3          1           0       -0.147187   -0.765073    1.624892
      4          6           0       -1.722046   -0.383669    0.192602
      5          6           0       -2.538502   -0.994393   -0.912465
      6          1           0       -2.848290   -0.249630   -1.650469
      7          1           0       -1.976106   -1.750422   -1.467888
      8          1           0       -3.425972   -1.482052   -0.497800
      9          6           0       -1.957006    0.844061    0.692573
     10          1           0       -1.321225    1.217047    1.495755
     11          6           0       -3.032994    1.797740    0.270516
     12          1           0       -3.677286    1.405880   -0.518775
     13          1           0       -3.670034    2.038190    1.127592
     14          1           0       -2.580322    2.726381   -0.090679
     15          6           0        2.820259    1.587609   -0.730009
     16          1           0        2.230450    1.967970   -1.569959
     17          1           0        2.801711    2.346592    0.059010
     18          1           0        3.853248    1.467097   -1.075079
     19          6           0        2.289404    0.283136   -0.203795
     20          6           0        3.013370   -0.272237    0.991321
     21          1           0        2.997875   -1.364988    1.017675
     22          1           0        4.067880    0.021114    0.978233
     23          1           0        2.561222    0.107633    1.912878
     24          6           0        1.208184   -0.297843   -0.755460
     25          1           0        0.724906    0.184638   -1.603977
     26          6           0        0.523112   -1.547309   -0.269591
     27          1           0        0.133158   -2.088338   -1.138231
     28          1           0        1.238439   -2.238237    0.189965
 ---------------------------------------------------------------------
 Rotational constants (GHZ):           1.8966297           0.6642364           0.5775580
 Leave Link  202 at Fri Sep 17 20:09:26 2021, MaxMem=   524288000 cpu:               0.0 elap:               0.0
 (Enter /opt/gaussian/g16_legacy/l301.exe)
 Standard basis: 6-31G(d,p) (6D, 7F)
 Ernie: Thresh=  0.10000D-02 Tol=  0.10000D-05 Strict=F.
 There are   240 symmetry adapted cartesian basis functions of A   symmetry.
 There are   240 symmetry adapted basis functions of A   symmetry.
   240 basis functions,   406 primitive gaussians,   240 cartesian basis functions
    39 alpha electrons       39 beta electrons
       nuclear repulsion energy       525.0598735730 Hartrees.
 IExCor=    0 DFT=F Ex=HF Corr=None ExCW=0 ScaHFX=  1.000000
 ScaDFX=  1.000000  1.000000  1.000000  1.000000 ScalE2=  1.000000  1.000000
 IRadAn=      5 IRanWt=     -1 IRanGd=            0 ICorTp=0 IEmpDi=  4
 NAtoms=   28 NActive=   28 NUniq=   28 SFac= 1.00D+00 NAtFMM=   60 NAOKFM=F Big=F
 Integral buffers will be    131072 words long.
 Raffenetti 1 integral format.
 Two-electron integral symmetry is turned on.
 Leave Link  301 at Fri Sep 17 20:09:26 2021, MaxMem=   524288000 cpu:               0.1 elap:               0.1
 (Enter /opt/gaussian/g16_legacy/l302.exe)
 NPDir=0 NMtPBC=     1 NCelOv=     1 NCel=       1 NClECP=     1 NCelD=      1
         NCelK=      1 NCelE2=     1 NClLst=     1 CellRange=     0.0.
 One-electron integrals computed using PRISM.
 One-electron integral symmetry used in STVInt
 NBasis=   240 RedAO= T EigKep=  2.29D-03  NBF=   240
 NBsUse=   240 1.00D-06 EigRej= -1.00D+00 NBFU=   240
 Leave Link  302 at Fri Sep 17 20:09:27 2021, MaxMem=   524288000 cpu:               0.3 elap:               0.3
 (Enter /opt/gaussian/g16_legacy/l303.exe)
 DipDrv:  MaxL=1.
 Leave Link  303 at Fri Sep 17 20:09:27 2021, MaxMem=   524288000 cpu:               0.1 elap:               0.3
 (Enter /opt/gaussian/g16_legacy/l401.exe)
 ExpMin= 1.61D-01 ExpMax= 3.05D+03 ExpMxC= 4.57D+02 IAcc=3 IRadAn=         5 AccDes= 0.00D+00
 Harris functional with IExCor=  205 and IRadAn=       5 diagonalized for initial guess.
 HarFok:  IExCor=  205 AccDes= 0.00D+00 IRadAn=         5 IDoV= 1 UseB2=F ITyADJ=14
 ICtDFT=  3500011 ScaDFX=  1.000000  1.000000  1.000000  1.000000
 FoFCou: FMM=F IPFlag=           0 FMFlag=      100000 FMFlg1=           0
         NFxFlg=           0 DoJE=T BraDBF=F KetDBF=T FulRan=T
         wScrn=  0.000000 ICntrl=       500 IOpCl=  0 I1Cent=   200000004 NGrid=           0
         NMat0=    1 NMatS0=      1 NMatT0=    0 NMatD0=    1 NMtDS0=    0 NMtDT0=    0
 Petite list used in FoFCou.
 Harris En= -390.110194280695    
 JPrj=0 DoOrth=F DoCkMO=F.
 Leave Link  401 at Fri Sep 17 20:09:38 2021, MaxMem=   524288000 cpu:              11.3 elap:              11.6
 (Enter /opt/gaussian/g16_legacy/l502.exe)
 Keep R1 ints in memory in canonical form, NReq=425198025.
 FoFCou: FMM=F IPFlag=           0 FMFlag=           0 FMFlg1=           0
         NFxFlg=           0 DoJE=F BraDBF=F KetDBF=F FulRan=T
         wScrn=  0.000000 ICntrl=       600 IOpCl=  0 I1Cent=           0 NGrid=           0
         NMat0=    1 NMatS0=  28920 NMatT0=    0 NMatD0=    1 NMtDS0=    0 NMtDT0=    0
 Symmetry not used in FoFCou.
 Two-electron integral symmetry not used.
 Closed shell SCF:
 Using DIIS extrapolation, IDIIS=  1040.
 NGot=   524288000 LenX=   105970886 LenY=   105912845
 Requested convergence on RMS density matrix=1.00D-08 within 128 cycles.
 Requested convergence on MAX density matrix=1.00D-06.
 Requested convergence on             energy=1.00D-06.
 No special actions if energy rises.

 Cycle   1  Pass 1  IDiag  1:
 E= -388.524983721170    
 DIIS: error= 5.63D-02 at cycle   1 NSaved=   1.
 NSaved= 1 IEnMin= 1 EnMin= -388.524983721170     IErMin= 1 ErrMin= 5.63D-02
 ErrMax= 5.63D-02  0.00D+00 EMaxC= 1.00D-01 BMatC= 8.12D-01 BMatP= 8.12D-01
 IDIUse=3 WtCom= 4.37D-01 WtEn= 5.63D-01
 Coeff-Com:  0.100D+01
 Coeff-En:   0.100D+01
 Coeff:      0.100D+01
 Gap=     0.521 Goal=   None    Shift=    0.000
 GapD=    0.521 DampG=2.000 DampE=0.500 DampFc=1.0000 IDamp=-1.
 RMSDP=4.06D-03 MaxDP=1.13D-01              OVMax= 1.40D-01

 Cycle   2  Pass 1  IDiag  1:
 E= -389.064156284495     Delta-E=       -0.539172563325 Rises=F Damp=F
 DIIS: error= 1.66D-02 at cycle   2 NSaved=   2.
 NSaved= 2 IEnMin= 2 EnMin= -389.064156284495     IErMin= 2 ErrMin= 1.66D-02
 ErrMax= 1.66D-02  0.00D+00 EMaxC= 1.00D-01 BMatC= 9.24D-02 BMatP= 8.12D-01
 IDIUse=3 WtCom= 8.34D-01 WtEn= 1.66D-01
 Coeff-Com:  0.190D+00 0.810D+00
 Coeff-En:   0.000D+00 0.100D+01
 Coeff:      0.158D+00 0.842D+00
 Gap=     0.557 Goal=   None    Shift=    0.000
 RMSDP=1.78D-03 MaxDP=3.03D-02 DE=-5.39D-01 OVMax= 4.69D-02

 Cycle   3  Pass 1  IDiag  1:
 E= -389.147138932040     Delta-E=       -0.082982647546 Rises=F Damp=F
 DIIS: error= 4.05D-03 at cycle   3 NSaved=   3.
 NSaved= 3 IEnMin= 3 EnMin= -389.147138932040     IErMin= 3 ErrMin= 4.05D-03
 ErrMax= 4.05D-03  0.00D+00 EMaxC= 1.00D-01 BMatC= 3.76D-03 BMatP= 9.24D-02
 IDIUse=3 WtCom= 9.59D-01 WtEn= 4.05D-02
 Coeff-Com: -0.239D-01 0.117D+00 0.907D+00
 Coeff-En:   0.000D+00 0.000D+00 0.100D+01
 Coeff:     -0.229D-01 0.112D+00 0.911D+00
 Gap=     0.506 Goal=   None    Shift=    0.000
 RMSDP=2.86D-04 MaxDP=6.08D-03 DE=-8.30D-02 OVMax= 1.12D-02

 Cycle   4  Pass 1  IDiag  1:
 E= -389.151382813232     Delta-E=       -0.004243881191 Rises=F Damp=F
 DIIS: error= 5.54D-04 at cycle   4 NSaved=   4.
 NSaved= 4 IEnMin= 4 EnMin= -389.151382813232     IErMin= 4 ErrMin= 5.54D-04
 ErrMax= 5.54D-04  0.00D+00 EMaxC= 1.00D-01 BMatC= 1.22D-04 BMatP= 3.76D-03
 IDIUse=3 WtCom= 9.94D-01 WtEn= 5.54D-03
 Coeff-Com: -0.544D-02 0.240D-02 0.130D+00 0.873D+00
 Coeff-En:   0.000D+00 0.000D+00 0.000D+00 0.100D+01
 Coeff:     -0.541D-02 0.238D-02 0.129D+00 0.874D+00
 Gap=     0.506 Goal=   None    Shift=    0.000
 RMSDP=8.53D-05 MaxDP=1.98D-03 DE=-4.24D-03 OVMax= 3.96D-03

 Cycle   5  Pass 1  IDiag  1:
 E= -389.151532580448     Delta-E=       -0.000149767216 Rises=F Damp=F
 DIIS: error= 2.06D-04 at cycle   5 NSaved=   5.
 NSaved= 5 IEnMin= 5 EnMin= -389.151532580448     IErMin= 5 ErrMin= 2.06D-04
 ErrMax= 2.06D-04  0.00D+00 EMaxC= 1.00D-01 BMatC= 2.06D-05 BMatP= 1.22D-04
 IDIUse=3 WtCom= 9.98D-01 WtEn= 2.06D-03
 Coeff-Com:  0.188D-02-0.150D-01-0.854D-01 0.186D+00 0.913D+00
 Coeff-En:   0.000D+00 0.000D+00 0.000D+00 0.000D+00 0.100D+01
 Coeff:      0.188D-02-0.149D-01-0.852D-01 0.185D+00 0.913D+00
 Gap=     0.506 Goal=   None    Shift=    0.000
 RMSDP=3.27D-05 MaxDP=6.69D-04 DE=-1.50D-04 OVMax= 1.64D-03

 Cycle   6  Pass 1  IDiag  1:
 E= -389.151560285768     Delta-E=       -0.000027705320 Rises=F Damp=F
 DIIS: error= 4.06D-05 at cycle   6 NSaved=   6.
 NSaved= 6 IEnMin= 6 EnMin= -389.151560285768     IErMin= 6 ErrMin= 4.06D-05
 ErrMax= 4.06D-05  0.00D+00 EMaxC= 1.00D-01 BMatC= 1.12D-06 BMatP= 2.06D-05
 IDIUse=1 WtCom= 1.00D+00 WtEn= 0.00D+00
 Coeff-Com:  0.844D-03-0.399D-02-0.296D-01-0.214D-01 0.193D+00 0.861D+00
 Coeff:      0.844D-03-0.399D-02-0.296D-01-0.214D-01 0.193D+00 0.861D+00
 Gap=     0.506 Goal=   None    Shift=    0.000
 RMSDP=7.69D-06 MaxDP=1.58D-04 DE=-2.77D-05 OVMax= 4.09D-04

 Cycle   7  Pass 1  IDiag  1:
 E= -389.151561908974     Delta-E=       -0.000001623206 Rises=F Damp=F
 DIIS: error= 1.15D-05 at cycle   7 NSaved=   7.
 NSaved= 7 IEnMin= 7 EnMin= -389.151561908974     IErMin= 7 ErrMin= 1.15D-05
 ErrMax= 1.15D-05  0.00D+00 EMaxC= 1.00D-01 BMatC= 4.98D-08 BMatP= 1.12D-06
 IDIUse=1 WtCom= 1.00D+00 WtEn= 0.00D+00
 Coeff-Com: -0.191D-04 0.331D-03 0.183D-02-0.916D-02-0.333D-01 0.592D-01
 Coeff-Com:  0.981D+00
 Coeff:     -0.191D-04 0.331D-03 0.183D-02-0.916D-02-0.333D-01 0.592D-01
 Coeff:      0.981D+00
 Gap=     0.506 Goal=   None    Shift=    0.000
 RMSDP=2.02D-06 MaxDP=4.12D-05 DE=-1.62D-06 OVMax= 1.71D-04

 Cycle   8  Pass 1  IDiag  1:
 E= -389.151562035754     Delta-E=       -0.000000126780 Rises=F Damp=F
 DIIS: error= 4.71D-06 at cycle   8 NSaved=   8.
 NSaved= 8 IEnMin= 8 EnMin= -389.151562035754     IErMin= 8 ErrMin= 4.71D-06
 ErrMax= 4.71D-06  0.00D+00 EMaxC= 1.00D-01 BMatC= 1.09D-08 BMatP= 4.98D-08
 IDIUse=1 WtCom= 1.00D+00 WtEn= 0.00D+00
 Coeff-Com: -0.930D-04 0.430D-03 0.335D-02 0.410D-02-0.237D-01-0.111D+00
 Coeff-Com:  0.420D-02 0.112D+01
 Coeff:     -0.930D-04 0.430D-03 0.335D-02 0.410D-02-0.237D-01-0.111D+00
 Coeff:      0.420D-02 0.112D+01
 Gap=     0.506 Goal=   None    Shift=    0.000
 RMSDP=1.04D-06 MaxDP=2.37D-05 DE=-1.27D-07 OVMax= 7.52D-05

 Cycle   9  Pass 1  IDiag  1:
 E= -389.151562064914     Delta-E=       -0.000000029160 Rises=F Damp=F
 DIIS: error= 2.13D-06 at cycle   9 NSaved=   9.
 NSaved= 9 IEnMin= 9 EnMin= -389.151562064914     IErMin= 9 ErrMin= 2.13D-06
 ErrMax= 2.13D-06  0.00D+00 EMaxC= 1.00D-01 BMatC= 1.10D-09 BMatP= 1.09D-08
 IDIUse=1 WtCom= 1.00D+00 WtEn= 0.00D+00
 Coeff-Com: -0.397D-05-0.181D-04-0.326D-04 0.192D-02 0.228D-02-0.153D-01
 Coeff-Com: -0.966D-01-0.489D-02 0.111D+01
 Coeff:     -0.397D-05-0.181D-04-0.326D-04 0.192D-02 0.228D-02-0.153D-01
 Coeff:     -0.966D-01-0.489D-02 0.111D+01
 Gap=     0.506 Goal=   None    Shift=    0.000
 RMSDP=3.87D-07 MaxDP=1.04D-05 DE=-2.92D-08 OVMax= 4.45D-05

 Cycle  10  Pass 1  IDiag  1:
 E= -389.151562069665     Delta-E=       -0.000000004751 Rises=F Damp=F
 DIIS: error= 6.75D-07 at cycle  10 NSaved=  10.
 NSaved=10 IEnMin=10 EnMin= -389.151562069665     IErMin=10 ErrMin= 6.75D-07
 ErrMax= 6.75D-07  0.00D+00 EMaxC= 1.00D-01 BMatC= 3.13D-10 BMatP= 1.10D-09
 IDIUse=1 WtCom= 1.00D+00 WtEn= 0.00D+00
 Coeff-Com:  0.136D-04-0.698D-04-0.530D-03-0.339D-03 0.367D-02 0.155D-01
 Coeff-Com: -0.365D-02-0.236D+00 0.178D+00 0.104D+01
 Coeff:      0.136D-04-0.698D-04-0.530D-03-0.339D-03 0.367D-02 0.155D-01
 Coeff:     -0.365D-02-0.236D+00 0.178D+00 0.104D+01
 Gap=     0.506 Goal=   None    Shift=    0.000
 RMSDP=1.92D-07 MaxDP=4.42D-06 DE=-4.75D-09 OVMax= 1.39D-05

 Cycle  11  Pass 1  IDiag  1:
 E= -389.151562070406     Delta-E=       -0.000000000741 Rises=F Damp=F
 DIIS: error= 1.75D-07 at cycle  11 NSaved=  11.
 NSaved=11 IEnMin=11 EnMin= -389.151562070406     IErMin=11 ErrMin= 1.75D-07
 ErrMax= 1.75D-07  0.00D+00 EMaxC= 1.00D-01 BMatC= 1.14D-11 BMatP= 3.13D-10
 IDIUse=1 WtCom= 1.00D+00 WtEn= 0.00D+00
 Coeff-Com:  0.198D-05-0.628D-05-0.557D-04-0.214D-03 0.757D-04 0.330D-02
 Coeff-Com:  0.127D-01-0.282D-01-0.695D-01 0.835D-01 0.998D+00
 Coeff:      0.198D-05-0.628D-05-0.557D-04-0.214D-03 0.757D-04 0.330D-02
 Coeff:      0.127D-01-0.282D-01-0.695D-01 0.835D-01 0.998D+00
 Gap=     0.506 Goal=   None    Shift=    0.000
 RMSDP=3.49D-08 MaxDP=7.22D-07 DE=-7.41D-10 OVMax= 3.08D-06

 Cycle  12  Pass 1  IDiag  1:
 E= -389.151562070429     Delta-E=       -0.000000000023 Rises=F Damp=F
 DIIS: error= 3.50D-08 at cycle  12 NSaved=  12.
 NSaved=12 IEnMin=12 EnMin= -389.151562070429     IErMin=12 ErrMin= 3.50D-08
 ErrMax= 3.50D-08  0.00D+00 EMaxC= 1.00D-01 BMatC= 1.09D-12 BMatP= 1.14D-11
 IDIUse=1 WtCom= 1.00D+00 WtEn= 0.00D+00
 Coeff-Com: -0.113D-05 0.589D-05 0.451D-04 0.403D-04-0.323D-03-0.142D-02
 Coeff-Com: -0.150D-03 0.192D-01-0.978D-02-0.103D+00-0.411D-01 0.114D+01
 Coeff:     -0.113D-05 0.589D-05 0.451D-04 0.403D-04-0.323D-03-0.142D-02
 Coeff:     -0.150D-03 0.192D-01-0.978D-02-0.103D+00-0.411D-01 0.114D+01
 Gap=     0.506 Goal=   None    Shift=    0.000
 RMSDP=1.26D-08 MaxDP=2.74D-07 DE=-2.33D-11 OVMax= 8.65D-07

 Cycle  13  Pass 1  IDiag  1:
 E= -389.151562070430     Delta-E=       -0.000000000000 Rises=F Damp=F
 DIIS: error= 8.87D-09 at cycle  13 NSaved=  13.
 NSaved=13 IEnMin=13 EnMin= -389.151562070430     IErMin=13 ErrMin= 8.87D-09
 ErrMax= 8.87D-09  0.00D+00 EMaxC= 1.00D-01 BMatC= 4.48D-14 BMatP= 1.09D-12
 IDIUse=1 WtCom= 1.00D+00 WtEn= 0.00D+00
 Coeff-Com: -0.169D-06 0.714D-06 0.569D-05 0.147D-04-0.286D-04-0.254D-03
 Coeff-Com: -0.619D-03 0.265D-02 0.361D-02-0.109D-01-0.521D-01 0.839D-01
 Coeff-Com:  0.974D+00
 Coeff:     -0.169D-06 0.714D-06 0.569D-05 0.147D-04-0.286D-04-0.254D-03
 Coeff:     -0.619D-03 0.265D-02 0.361D-02-0.109D-01-0.521D-01 0.839D-01
 Coeff:      0.974D+00
 Gap=     0.506 Goal=   None    Shift=    0.000
 RMSDP=1.87D-09 MaxDP=3.98D-08 DE=-3.41D-13 OVMax= 8.14D-08

 SCF Done:  E(RHF) =  -389.151562070     A.U. after   13 cycles
            NFock= 13  Conv=0.19D-08     -V/T= 2.0013
 KE= 3.886379870384D+02 PE=-1.954892695858D+03 EE= 6.520432731766D+02
 Leave Link  502 at Fri Sep 17 20:10:20 2021, MaxMem=   524288000 cpu:              41.1 elap:              41.2
 (Enter /opt/gaussian/g16_legacy/l801.exe)
 ExpMin= 1.61D-01 ExpMax= 3.05D+03 ExpMxC= 4.57D+02 IAcc=3 IRadAn=         5 AccDes= 0.00D+00
 HarFok:  IExCor=  205 AccDes= 0.00D+00 IRadAn=         5 IDoV=-2 UseB2=F ITyADJ=14
 ICtDFT= 12500011 ScaDFX=  1.000000  1.000000  1.000000  1.000000
 Largest valence mixing into a core orbital is  1.99D-04
 Largest core mixing into a valence orbital is  3.53D-05
 Range of M.O.s used for correlation:    11   240
 NBasis=   240 NAE=    39 NBE=    39 NFC=    10 NFV=     0
 NROrb=    230 NOA=    29 NOB=    29 NVA=   201 NVB=   201
 Leave Link  801 at Fri Sep 17 20:10:21 2021, MaxMem=   524288000 cpu:               1.7 elap:               1.7
 (Enter /opt/gaussian/g16_legacy/l906.exe)
 Frozen-core derivative calculation, NFC=  10 NFV=   0.
 FulOut=F Deriv=T AODrv=T NAtomX=    28
   MMem=          87  MDisk=          29 MDiskD=          29
  W3Min=     2246400 MinDsk=     2795480 NBas6D=         240
 NBas2D=       29244    NTT=       28920    LW2=     2040000
    MDV=   523622435 MDiskM=       30186 NBas2p=       24696
 Fully direct method using O(ONN) memory.
 IMap=   1   2   3   4   5   6   7   8   9  10  11  12  13  14  15  16  17  18  19  20
 IMap=  21  22  23  24  25  26  27  28  29  30  31  32  33  34  35  36  37  38  39
 JobTyp=1 Pass  1:  I=  11 to  39 NPSUse=  1 ParTrn=F ParDer=F DoDerP=T.
 Spin components of T(2) and E(2):
     alpha-alpha T2 =       0.5729708756D-01 E2=     -0.1641569495D+00
     alpha-beta  T2 =       0.3622520055D+00 E2=     -0.1090320738D+01
     beta-beta   T2 =       0.5729708756D-01 E2=     -0.1641569495D+00
 The integrals were generated   1 times.
 ANorm=    0.1215255603D+01
 E2 =    -0.1418634637D+01 EUMP2 =    -0.39057019670725D+03
 Leave Link  906 at Fri Sep 17 20:15:21 2021, MaxMem=   524288000 cpu:             299.1 elap:             299.3
 (Enter /opt/gaussian/g16_legacy/l1002.exe)
 Minotr:  Closed shell wavefunction.
          Computing MP2/KS-MP2 derivatives.
          Using Z-Vector for PSCF gradient.
          Skipping F1 and S1 gradient terms here.
          IDoAtm=1111111111111111111111111111
          Frozen-core window.
          Direct CPHF calculation.
          Differentiating once with respect to electric field.
                with respect to dipole field.
          Differentiating once with respect to nuclear coordinates.
          Requested convergence is 1.0D-10 RMS, and 1.0D-09 maximum.
          NewPWx=F KeepS1=T KeepF1=T KeepIn=T MapXYZ=F SortEE=F KeepMc=T.
 Keep R1 ints in memory in canonical form, NReq=425201067.
 FoFCou: FMM=F IPFlag=           0 FMFlag=           0 FMFlg1=           0
         NFxFlg=           0 DoJE=F BraDBF=F KetDBF=F FulRan=T
         wScrn=  0.000000 ICntrl=       600 IOpCl=  0 I1Cent=           0 NGrid=           0
         NMat0=    1 NMatS0=  28920 NMatT0=    0 NMatD0=    1 NMtDS0=    0 NMtDT0=    0
 Symmetry not used in FoFCou.
 Two-electron integral symmetry not used.
          MDV=     524288000 using IRadAn=       5.
          Solving linear equations separately, MaxMat=       0.
          There are     1 degrees of freedom in the 1st order CPHF.  IDoFFX=0 NUNeed=     1.
 LinEq1:  Iter=  0 NonCon=     1 RMS=2.53D-03 Max=4.22D-02 NDo=     1
 AX will form     1 AO Fock derivatives at one time.
 LinEq1:  Iter=  1 NonCon=     1 RMS=6.95D-04 Max=1.09D-02 NDo=     1
 LinEq1:  Iter=  2 NonCon=     1 RMS=1.64D-04 Max=3.58D-03 NDo=     1
 LinEq1:  Iter=  3 NonCon=     1 RMS=3.99D-05 Max=7.95D-04 NDo=     1
 LinEq1:  Iter=  4 NonCon=     1 RMS=1.81D-05 Max=7.83D-04 NDo=     1
 LinEq1:  Iter=  5 NonCon=     1 RMS=5.32D-06 Max=1.38D-04 NDo=     1
 LinEq1:  Iter=  6 NonCon=     1 RMS=1.74D-06 Max=4.64D-05 NDo=     1
 LinEq1:  Iter=  7 NonCon=     1 RMS=5.97D-07 Max=1.58D-05 NDo=     1
 LinEq1:  Iter=  8 NonCon=     1 RMS=1.95D-07 Max=3.22D-06 NDo=     1
 LinEq1:  Iter=  9 NonCon=     1 RMS=5.52D-08 Max=8.01D-07 NDo=     1
 LinEq1:  Iter= 10 NonCon=     1 RMS=1.49D-08 Max=2.82D-07 NDo=     1
 LinEq1:  Iter= 11 NonCon=     1 RMS=3.90D-09 Max=7.27D-08 NDo=     1
 LinEq1:  Iter= 12 NonCon=     1 RMS=1.01D-09 Max=1.51D-08 NDo=     1
 LinEq1:  Iter= 13 NonCon=     1 RMS=2.91D-10 Max=5.58D-09 NDo=     1
 LinEq1:  Iter= 14 NonCon=     0 RMS=7.35D-11 Max=9.33D-10 NDo=     1
 Linear equations converged to 1.000D-10 1.000D-09 after    14 iterations.
 End of Minotr F.D. properties file   721 does not exist.
 End of Minotr F.D. properties file   722 does not exist.
 End of Minotr F.D. properties file   788 does not exist.
 Leave Link 1002 at Fri Sep 17 20:15:59 2021, MaxMem=   524288000 cpu:              37.8 elap:              37.8
 (Enter /opt/gaussian/g16_legacy/l601.exe)
 Copying SCF densities to generalized density rwf, IOpCl= 0 IROHF=0.

 **********************************************************************

            Population analysis using the SCF density.

 **********************************************************************

 Orbital symmetries:
       Occupied  (A) (A) (A) (A) (A) (A) (A) (A) (A) (A) (A) (A)
                 (A) (A) (A) (A) (A) (A) (A) (A) (A) (A) (A) (A)
                 (A) (A) (A) (A) (A) (A) (A) (A) (A) (A) (A) (A)
                 (A) (A) (A)
       Virtual   (A) (A) (A) (A) (A) (A) (A) (A) (A) (A) (A) (A)
                 (A) (A) (A) (A) (A) (A) (A) (A) (A) (A) (A) (A)
                 (A) (A) (A) (A) (A) (A) (A) (A) (A) (A) (A) (A)
                 (A) (A) (A) (A) (A) (A) (A) (A) (A) (A) (A) (A)
                 (A) (A) (A) (A) (A) (A) (A) (A) (A) (A) (A) (A)
                 (A) (A) (A) (A) (A) (A) (A) (A) (A) (A) (A) (A)
                 (A) (A) (A) (A) (A) (A) (A) (A) (A) (A) (A) (A)
                 (A) (A) (A) (A) (A) (A) (A) (A) (A) (A) (A) (A)
                 (A) (A) (A) (A) (A) (A) (A) (A) (A) (A) (A) (A)
                 (A) (A) (A) (A) (A) (A) (A) (A) (A) (A) (A) (A)
                 (A) (A) (A) (A) (A) (A) (A) (A) (A) (A) (A) (A)
                 (A) (A) (A) (A) (A) (A) (A) (A) (A) (A) (A) (A)
                 (A) (A) (A) (A) (A) (A) (A) (A) (A) (A) (A) (A)
                 (A) (A) (A) (A) (A) (A) (A) (A) (A) (A) (A) (A)
                 (A) (A) (A) (A) (A) (A) (A) (A) (A) (A) (A) (A)
                 (A) (A) (A) (A) (A) (A) (A) (A) (A) (A) (A) (A)
                 (A) (A) (A) (A) (A) (A) (A) (A) (A)
 The electronic state is 1-A.
 Alpha  occ. eigenvalues --  -11.22619 -11.22429 -11.21932 -11.21762 -11.21639
 Alpha  occ. eigenvalues --  -11.21516 -11.21440 -11.21383 -11.21316 -11.20926
 Alpha  occ. eigenvalues --   -1.10530  -1.08046  -1.01884  -0.97069  -0.93501
 Alpha  occ. eigenvalues --   -0.92102  -0.87776  -0.81355  -0.70622  -0.68746
 Alpha  occ. eigenvalues --   -0.64304  -0.61282  -0.60821  -0.58682  -0.57830
 Alpha  occ. eigenvalues --   -0.56590  -0.55178  -0.54539  -0.53793  -0.53150
 Alpha  occ. eigenvalues --   -0.51880  -0.50824  -0.50112  -0.49072  -0.47635
 Alpha  occ. eigenvalues --   -0.45602  -0.44256  -0.32338  -0.31926
 Alpha virt. eigenvalues --    0.18680   0.19180   0.22623   0.24424   0.26474
 Alpha virt. eigenvalues --    0.27042   0.28311   0.28903   0.30079   0.30762
 Alpha virt. eigenvalues --    0.31706   0.32100   0.33291   0.33687   0.33988
 Alpha virt. eigenvalues --    0.35658   0.36769   0.37533   0.39531   0.40116
 Alpha virt. eigenvalues --    0.40604   0.41876   0.43333   0.43845   0.46794
 Alpha virt. eigenvalues --    0.51384   0.53184   0.61155   0.62732   0.70000
 Alpha virt. eigenvalues --    0.70116   0.71726   0.73742   0.74780   0.76812
 Alpha virt. eigenvalues --    0.77163   0.78120   0.80227   0.81409   0.84235
 Alpha virt. eigenvalues --    0.85586   0.86820   0.89184   0.90755   0.92556
 Alpha virt. eigenvalues --    0.93611   0.94051   0.95835   0.97000   0.98564
 Alpha virt. eigenvalues --    1.00767   1.02300   1.03117   1.05004   1.06255
 Alpha virt. eigenvalues --    1.06936   1.08833   1.10355   1.12516   1.12957
 Alpha virt. eigenvalues --    1.13699   1.14338   1.14501   1.14888   1.15245
 Alpha virt. eigenvalues --    1.15464   1.17048   1.17932   1.18708   1.20212
 Alpha virt. eigenvalues --    1.21054   1.22691   1.24083   1.24670   1.25981
 Alpha virt. eigenvalues --    1.29244   1.30576   1.41231   1.42775   1.44145
 Alpha virt. eigenvalues --    1.48505   1.49338   1.54462   1.56261   1.58003
 Alpha virt. eigenvalues --    1.63395   1.66255   1.68899   1.70719   1.73137
 Alpha virt. eigenvalues --    1.75786   1.76751   1.91504   1.94450   1.95364
 Alpha virt. eigenvalues --    1.98204   2.00261   2.02247   2.05983   2.07651
 Alpha virt. eigenvalues --    2.09343   2.10864   2.11622   2.12669   2.15569
 Alpha virt. eigenvalues --    2.17073   2.19358   2.22174   2.27669   2.28685
 Alpha virt. eigenvalues --    2.29587   2.31475   2.33572   2.34432   2.35443
 Alpha virt. eigenvalues --    2.35904   2.36794   2.38938   2.40276   2.40605
 Alpha virt. eigenvalues --    2.41472   2.42237   2.44292   2.44490   2.45082
 Alpha virt. eigenvalues --    2.47191   2.48634   2.49754   2.51154   2.54826
 Alpha virt. eigenvalues --    2.56734   2.58253   2.59883   2.62469   2.64556
 Alpha virt. eigenvalues --    2.64844   2.68391   2.70386   2.70946   2.74132
 Alpha virt. eigenvalues --    2.76118   2.77369   2.78014   2.83255   2.86836
 Alpha virt. eigenvalues --    2.88088   2.88457   2.90004   2.91830   2.93610
 Alpha virt. eigenvalues --    2.95245   2.97984   3.00317   3.02831   3.04202
 Alpha virt. eigenvalues --    3.04878   3.06516   3.09560   3.11879   3.13030
 Alpha virt. eigenvalues --    3.17300   3.19708   3.20336   3.20844   3.21653
 Alpha virt. eigenvalues --    3.22196   3.24116   3.25767   3.27686   3.36926
 Alpha virt. eigenvalues --    3.39888   3.43726   3.46346   3.55813   3.56526
 Alpha virt. eigenvalues --    3.60652   3.62040   3.68222   3.71107   3.78834
 Alpha virt. eigenvalues --    3.79987   3.81159   3.81450   3.82048   3.82927
 Alpha virt. eigenvalues --    3.83616   3.85637   3.87487   3.89424   3.92035
 Alpha virt. eigenvalues --    3.95563   4.58083   4.62483   4.74518   4.84699
 Alpha virt. eigenvalues --    4.89383   4.92224   4.94273   5.07589   5.10592
 Alpha virt. eigenvalues --    5.16600
          Condensed to atoms (all electrons):
               1          2          3          4          5          6
     1  C    4.950228   0.409587   0.413107   0.362882  -0.054901   0.003291
     2  H    0.409587   0.609306  -0.030027  -0.049479  -0.000919  -0.000010
     3  H    0.413107  -0.030027   0.581622  -0.045282   0.003594  -0.000108
     4  C    0.362882  -0.049479  -0.045282   4.946494   0.336263  -0.038398
     5  C   -0.054901  -0.000919   0.003594   0.336263   4.921539   0.405731
     6  H    0.003291  -0.000010  -0.000108  -0.038398   0.405731   0.570253
     7  H   -0.005405  -0.000418   0.000119  -0.040692   0.407352  -0.031054
     8  H    0.000881   0.001146  -0.000120  -0.040572   0.398502  -0.026099
     9  C   -0.043022  -0.000415  -0.002108   0.698609  -0.052405  -0.003933
    10  H   -0.006526   0.000147   0.002350  -0.034927   0.003356   0.000008
    11  C    0.003160  -0.000104   0.000167  -0.051606  -0.007193  -0.002072
    12  H    0.000105  -0.000003   0.000005  -0.000628  -0.001786  -0.001291
    13  H   -0.000117   0.000016  -0.000008  -0.000182   0.000207  -0.000108
    14  H   -0.000089  -0.000003  -0.000007  -0.000601   0.000296   0.000319
    15  C   -0.000116   0.000002  -0.000042   0.000012   0.000000  -0.000000
    16  H   -0.000005   0.000000  -0.000002   0.000000  -0.000000   0.000000
    17  H    0.000031  -0.000000  -0.000002   0.000003   0.000000  -0.000000
    18  H   -0.000005   0.000000   0.000001  -0.000000  -0.000000   0.000000
    19  C   -0.003661   0.000016   0.001350  -0.000326  -0.000020   0.000003
    20  C    0.000332   0.000000  -0.000157  -0.000000   0.000000  -0.000000
    21  H   -0.000403   0.000050   0.000049   0.000004  -0.000000   0.000000
    22  H   -0.000024   0.000001   0.000015  -0.000001   0.000000  -0.000000
    23  H    0.000616  -0.000037   0.000020   0.000017   0.000000  -0.000000
    24  C   -0.062668   0.006353  -0.003929  -0.004810   0.000133   0.000036
    25  H    0.000565  -0.000097   0.000078   0.001263   0.000176  -0.000009
    26  C    0.330393  -0.050201  -0.038691  -0.058047  -0.003870   0.000023
    27  H   -0.041912  -0.001828   0.004251  -0.003526  -0.001124  -0.000049
    28  H   -0.039573  -0.003279  -0.003171   0.004540  -0.000007   0.000003
               7          8          9         10         11         12
     1  C   -0.005405   0.000881  -0.043022  -0.006526   0.003160   0.000105
     2  H   -0.000418   0.001146  -0.000415   0.000147  -0.000104  -0.000003
     3  H    0.000119  -0.000120  -0.002108   0.002350   0.000167   0.000005
     4  C   -0.040692  -0.040572   0.698609  -0.034927  -0.051606  -0.000628
     5  C    0.407352   0.398502  -0.052405   0.003356  -0.007193  -0.001786
     6  H   -0.031054  -0.026099  -0.003933   0.000008  -0.002072  -0.001291
     7  H    0.584174  -0.031051   0.003038  -0.000100   0.000151   0.000037
     8  H   -0.031051   0.572882  -0.004652  -0.000119   0.000702  -0.000274
     9  C    0.003038  -0.004652   4.937123   0.403914   0.340767  -0.041592
    10  H   -0.000100  -0.000119   0.403914   0.556365  -0.043241   0.003288
    11  C    0.000151   0.000702   0.340767  -0.043241   4.906097   0.407909
    12  H    0.000037  -0.000274  -0.041592   0.003288   0.407909   0.574762
    13  H   -0.000012   0.000204  -0.043244  -0.001394   0.401582  -0.029026
    14  H    0.000010  -0.000077  -0.043879  -0.001249   0.400364  -0.028157
    15  C   -0.000000  -0.000000  -0.000002  -0.000001  -0.000000  -0.000000
    16  H   -0.000000   0.000000  -0.000001  -0.000000  -0.000000  -0.000000
    17  H   -0.000000   0.000000  -0.000005   0.000001  -0.000000   0.000000
    18  H    0.000000   0.000000   0.000000   0.000000   0.000000   0.000000
    19  C    0.000000  -0.000000   0.000300   0.000088   0.000002   0.000000
    20  C    0.000000   0.000000  -0.000012  -0.000006  -0.000000  -0.000000
    21  H    0.000000   0.000000   0.000001  -0.000000   0.000000  -0.000000
    22  H    0.000000  -0.000000   0.000000   0.000000   0.000000  -0.000000
    23  H   -0.000000   0.000000  -0.000002   0.000018  -0.000000   0.000000
    24  C   -0.000032   0.000013   0.003147   0.000191  -0.000020  -0.000000
    25  H    0.000048   0.000004   0.000231  -0.000009   0.000002  -0.000001
    26  C   -0.000565  -0.000078  -0.003108   0.000230  -0.000086  -0.000000
    27  H   -0.000808   0.000044   0.000247   0.000006   0.000002  -0.000000
    28  H   -0.000015   0.000000  -0.000022  -0.000008   0.000001   0.000000
              13         14         15         16         17         18
     1  C   -0.000117  -0.000089  -0.000116  -0.000005   0.000031  -0.000005
     2  H    0.000016  -0.000003   0.000002   0.000000  -0.000000   0.000000
     3  H   -0.000008  -0.000007  -0.000042  -0.000002  -0.000002   0.000001
     4  C   -0.000182  -0.000601   0.000012   0.000000   0.000003  -0.000000
     5  C    0.000207   0.000296   0.000000  -0.000000   0.000000  -0.000000
     6  H   -0.000108   0.000319  -0.000000   0.000000  -0.000000   0.000000
     7  H   -0.000012   0.000010  -0.000000  -0.000000  -0.000000   0.000000
     8  H    0.000204  -0.000077  -0.000000   0.000000   0.000000   0.000000
     9  C   -0.043244  -0.043879  -0.000002  -0.000001  -0.000005   0.000000
    10  H   -0.001394  -0.001249  -0.000001  -0.000000   0.000001   0.000000
    11  C    0.401582   0.400364  -0.000000  -0.000000  -0.000000   0.000000
    12  H   -0.029026  -0.028157  -0.000000  -0.000000   0.000000   0.000000
    13  H    0.586020  -0.033377   0.000000  -0.000000   0.000000  -0.000000
    14  H   -0.033377   0.586946  -0.000000   0.000000  -0.000000   0.000000
    15  C    0.000000  -0.000000   4.893958   0.405841   0.401231   0.396130
    16  H   -0.000000   0.000000   0.405841   0.569064  -0.028034  -0.027618
    17  H    0.000000  -0.000000   0.401231  -0.028034   0.594979  -0.034876
    18  H   -0.000000   0.000000   0.396130  -0.027618  -0.034876   0.595601
    19  C   -0.000000   0.000001   0.353493  -0.041310  -0.047873  -0.042951
    20  C    0.000000   0.000000  -0.059102   0.003790  -0.000346  -0.002747
    21  H    0.000000  -0.000000   0.003383  -0.000117  -0.000020  -0.000031
    22  H   -0.000000   0.000000  -0.005343   0.000128  -0.000735   0.002568
    23  H    0.000000  -0.000000   0.000881  -0.000138   0.001347  -0.000160
    24  C    0.000001   0.000003  -0.045393  -0.002289  -0.001081  -0.000640
    25  H    0.000000  -0.000001  -0.006478   0.002312   0.000114   0.000231
    26  C   -0.000004   0.000019   0.003367   0.000131  -0.000078  -0.000143
    27  H    0.000000  -0.000000  -0.000105  -0.000009  -0.000001   0.000008
    28  H    0.000000  -0.000000   0.000056   0.000005  -0.000009   0.000013
              19         20         21         22         23         24
     1  C   -0.003661   0.000332  -0.000403  -0.000024   0.000616  -0.062668
     2  H    0.000016   0.000000   0.000050   0.000001  -0.000037   0.006353
     3  H    0.001350  -0.000157   0.000049   0.000015   0.000020  -0.003929
     4  C   -0.000326  -0.000000   0.000004  -0.000001   0.000017  -0.004810
     5  C   -0.000020   0.000000  -0.000000   0.000000   0.000000   0.000133
     6  H    0.000003  -0.000000   0.000000  -0.000000  -0.000000   0.000036
     7  H    0.000000   0.000000   0.000000   0.000000  -0.000000  -0.000032
     8  H   -0.000000   0.000000   0.000000  -0.000000   0.000000   0.000013
     9  C    0.000300  -0.000012   0.000001   0.000000  -0.000002   0.003147
    10  H    0.000088  -0.000006  -0.000000   0.000000   0.000018   0.000191
    11  C    0.000002  -0.000000   0.000000   0.000000  -0.000000  -0.000020
    12  H    0.000000  -0.000000  -0.000000  -0.000000   0.000000  -0.000000
    13  H   -0.000000   0.000000   0.000000  -0.000000   0.000000   0.000001
    14  H    0.000001   0.000000  -0.000000   0.000000  -0.000000   0.000003
    15  C    0.353493  -0.059102   0.003383  -0.005343   0.000881  -0.045393
    16  H   -0.041310   0.003790  -0.000117   0.000128  -0.000138  -0.002289
    17  H   -0.047873  -0.000346  -0.000020  -0.000735   0.001347  -0.001081
    18  H   -0.042951  -0.002747  -0.000031   0.002568  -0.000160  -0.000640
    19  C    4.925074   0.341878  -0.038091  -0.043266  -0.041347   0.702365
    20  C    0.341878   4.921228   0.404477   0.405673   0.398049  -0.050137
    21  H   -0.038091   0.404477   0.568456  -0.029625  -0.026730  -0.003188
    22  H   -0.043266   0.405673  -0.029625   0.583572  -0.030999   0.002791
    23  H   -0.041347   0.398049  -0.026730  -0.030999   0.576081  -0.004500
    24  C    0.702365  -0.050137  -0.003188   0.002791  -0.004500   4.957014
    25  H   -0.035299   0.003387   0.000027  -0.000101  -0.000130   0.404124
    26  C   -0.051320  -0.009407  -0.002034   0.000083   0.000647   0.334043
    27  H    0.002106   0.000206   0.000082   0.000006  -0.000034  -0.043850
    28  H   -0.000954  -0.001881   0.000662   0.000058  -0.000468  -0.043957
              25         26         27         28
     1  C    0.000565   0.330393  -0.041912  -0.039573
     2  H   -0.000097  -0.050201  -0.001828  -0.003279
     3  H    0.000078  -0.038691   0.004251  -0.003171
     4  C    0.001263  -0.058047  -0.003526   0.004540
     5  C    0.000176  -0.003870  -0.001124  -0.000007
     6  H   -0.000009   0.000023  -0.000049   0.000003
     7  H    0.000048  -0.000565  -0.000808  -0.000015
     8  H    0.000004  -0.000078   0.000044   0.000000
     9  C    0.000231  -0.003108   0.000247  -0.000022
    10  H   -0.000009   0.000230   0.000006  -0.000008
    11  C    0.000002  -0.000086   0.000002   0.000001
    12  H   -0.000001  -0.000000  -0.000000   0.000000
    13  H    0.000000  -0.000004   0.000000   0.000000
    14  H   -0.000001   0.000019  -0.000000  -0.000000
    15  C   -0.006478   0.003367  -0.000105   0.000056
    16  H    0.002312   0.000131  -0.000009   0.000005
    17  H    0.000114  -0.000078  -0.000001  -0.000009
    18  H    0.000231  -0.000143   0.000008   0.000013
    19  C   -0.035299  -0.051320   0.002106  -0.000954
    20  C    0.003387  -0.009407   0.000206  -0.001881
    21  H    0.000027  -0.002034   0.000082   0.000662
    22  H   -0.000101   0.000083   0.000006   0.000058
    23  H   -0.000130   0.000647  -0.000034  -0.000468
    24  C    0.404124   0.334043  -0.043850  -0.043957
    25  H    0.550743  -0.040868  -0.004283   0.003329
    26  C   -0.040868   5.014492   0.411438   0.415115
    27  H   -0.004283   0.411438   0.598403  -0.031220
    28  H    0.003329   0.415115  -0.031220   0.583683
 Mulliken charges:
               1
     1  C   -0.216751
     2  H    0.110196
     3  H    0.116925
     4  C    0.018987
     5  C   -0.354923
     6  H    0.123464
     7  H    0.115223
     8  H    0.128666
     9  C   -0.148977
    10  H    0.117617
    11  C   -0.356584
    12  H    0.116653
    13  H    0.119440
    14  H    0.119482
    15  C   -0.341771
    16  H    0.118252
    17  H    0.115355
    18  H    0.114617
    19  C    0.019741
    20  C   -0.355225
    21  H    0.123048
    22  H    0.115199
    23  H    0.126870
    24  C   -0.143715
    25  H    0.120642
    26  C   -0.251482
    27  H    0.111949
    28  H    0.117103
 Sum of Mulliken charges =  -0.00000
 Mulliken charges with hydrogens summed into heavy atoms:
               1
     1  C    0.010370
     4  C    0.018987
     5  C    0.012430
     9  C   -0.031360
    11  C   -0.001008
    15  C    0.006452
    19  C    0.019741
    20  C    0.009892
    24  C   -0.023073
    26  C   -0.022431
 Electronic spatial extent (au):  <R**2>=           2191.0623
 Charge=             -0.0000 electrons
 Dipole moment (field-independent basis, Debye):
    X=              0.0519    Y=             -0.0496    Z=              0.0907  Tot=              0.1157
 Quadrupole moment (field-independent basis, Debye-Ang):
   XX=            -64.5954   YY=            -64.4103   ZZ=            -65.3528
   XY=              0.4741   XZ=              2.3135   YZ=              0.1434
 Traceless Quadrupole moment (field-independent basis, Debye-Ang):
   XX=              0.1907   YY=              0.3759   ZZ=             -0.5666
   XY=              0.4741   XZ=              2.3135   YZ=              0.1434
 Octapole moment (field-independent basis, Debye-Ang**2):
  XXX=              3.6370  YYY=             -1.2423  ZZZ=             -0.3868  XYY=             -0.9175
  XXY=              1.9278  XXZ=              0.2777  XZZ=             -1.2400  YZZ=              2.6911
  YYZ=              1.1422  XYZ=             -2.0629
 Hexadecapole moment (field-independent basis, Debye-Ang**3):
 XXXX=          -2062.3128 YYYY=           -659.5296 ZZZZ=           -317.6245 XXXY=              6.2105
 XXXZ=             10.5686 YYYX=             -1.6653 YYYZ=             -0.1354 ZZZX=              5.3057
 ZZZY=              1.7276 XXYY=           -459.7952 XXZZ=           -409.5296 YYZZ=           -160.5788
 XXYZ=             -1.4506 YYXZ=              0.7331 ZZXY=             -0.7270
 N-N= 5.250598735730D+02 E-N=-1.954892695304D+03  KE= 3.886379870384D+02
 No NMR shielding tensors so no spin-rotation constants.
 Leave Link  601 at Fri Sep 17 20:15:59 2021, MaxMem=   524288000 cpu:               0.3 elap:               0.3
 (Enter /opt/gaussian/g16_legacy/l701.exe)
 ... and contract with generalized density number  2.
 Compute integral first derivatives.
 Leave Link  701 at Fri Sep 17 20:15:59 2021, MaxMem=   524288000 cpu:               0.3 elap:               0.3
 (Enter /opt/gaussian/g16_legacy/l702.exe)
 L702 exits ... SP integral derivatives will be done elsewhere.
 Leave Link  702 at Fri Sep 17 20:15:59 2021, MaxMem=   524288000 cpu:               0.0 elap:               0.1
 (Enter /opt/gaussian/g16_legacy/l703.exe)
 Integral derivatives from FoFJK, PRISM(SPDF).
 Compute integral first derivatives, UseDBF=F ICtDFT=           0.
 Calling FoFJK, ICntrl=  10002127 FMM=F ISym2X=0 I1Cent= 0 IOpClX= 0 NMat=1 NMatS=1 NMatT=0.
 FoFJK:  IHMeth= 1 ICntrl=10002127 DoSepK=F KAlg= 0 I1Cent=           0 FoldK=F
 IRaf=         0 NMat=       1 IRICut=       1 DoRegI=T DoRafI=F ISym2E= 0 IDoP0=0 IntGTp=1.
 FoFCou: FMM=F IPFlag=           0 FMFlag=      100000 FMFlg1=         800
         NFxFlg=           0 DoJE=F BraDBF=F KetDBF=F FulRan=T
         wScrn=  0.000000 ICntrl=  10002127 IOpCl=  0 I1Cent=           0 NGrid=           0
         NMat0=    1 NMatS0=      1 NMatT0=    0 NMatD0=    1 NMtDS0=    0 NMtDT0=    0
 Symmetry not used in FoFCou.
 Leave Link  703 at Fri Sep 17 20:16:35 2021, MaxMem=   524288000 cpu:              35.9 elap:              35.9
 (Enter /opt/gaussian/g16_legacy/l716.exe)
 Dipole        =-1.74569789D-03 4.87614500D-03 3.78657173D-02
 ***** Axes restored to original set *****
 -------------------------------------------------------------------
 Center     Atomic                   Forces (Hartrees/Bohr)
 Number     Number              X              Y              Z
 -------------------------------------------------------------------
      1        6           0.005000962   -0.002757321   -0.004360708
      2        1          -0.000679320   -0.000860436    0.001668360
      3        1           0.002455787   -0.000236189    0.004325089
      4        6          -0.010289410    0.007534471   -0.002068726
      5        6           0.001485569   -0.001535524    0.004939691
      6        1          -0.000016201   -0.003338877   -0.003237688
      7        1           0.000963442    0.000096959   -0.004132114
      8        1           0.000805255    0.000913660    0.003147867
      9        6          -0.000506857    0.000030334   -0.000474097
     10        1          -0.001845155   -0.002516710    0.002650474
     11        6           0.000995825   -0.000179210    0.000650286
     12        1          -0.002242587    0.001334990   -0.002010862
     13        1           0.000561707    0.002343464    0.002250269
     14        1           0.002074404   -0.002235653   -0.001592045
     15        6           0.001765093    0.000902572    0.002619357
     16        1          -0.002574912   -0.001868299   -0.002409870
     17        1          -0.002483384    0.001300959    0.001971967
     18        1           0.002261608    0.000635617   -0.003085556
     19        6           0.002754423   -0.000038129    0.004370519
     20        6          -0.004285724   -0.000576727   -0.000087832
     21        1           0.003818340    0.000481585   -0.001929367
     22        1           0.003360193   -0.001126368   -0.001116445
     23        1          -0.003422760    0.000704620    0.000422206
     24        6           0.001990971   -0.005087745    0.000156660
     25        1          -0.001392982    0.002591039   -0.002455654
     26        6          -0.005148375    0.002778119    0.004121898
     27        1           0.002250563   -0.000831032   -0.002650353
     28        1           0.002343527    0.001539831   -0.001683325
 -------------------------------------------------------------------
 Cartesian Forces:  Max     0.010289410 RMS     0.002765572
 Leave Link  716 at Fri Sep 17 20:16:35 2021, MaxMem=   524288000 cpu:               0.1 elap:               0.1
 (Enter /opt/gaussian/g16_legacy/l103.exe)

 GradGradGradGradGradGradGradGradGradGradGradGradGradGradGradGradGradGrad
 Berny optimization.
 FormGI is forming the generalized inverse of G from B-inverse, IUseBI=4.
 Internal  Forces:  Max     0.007727924 RMS     0.001895196
 Search for a local minimum.
 Step number   1 out of a maximum of  138
 All quantities printed in internal units (Hartrees-Bohrs-Radians)
 RMS Force = .18952D-02 SwitMx=.10000D-02 MixMth= 1
 Mixed Optimization -- RFO/linear search
 Second derivative matrix not updated -- first step.
 ITU=  0
     Eigenvalues ---    0.00267   0.00494   0.00693   0.00718   0.00719
     Eigenvalues ---    0.00720   0.00786   0.01206   0.01298   0.01583
     Eigenvalues ---    0.01632   0.02799   0.02807   0.03793   0.04007
     Eigenvalues ---    0.05315   0.05323   0.07026   0.07084   0.07087
     Eigenvalues ---    0.07119   0.07202   0.07293   0.07332   0.07473
     Eigenvalues ---    0.09404   0.09602   0.12858   0.13026   0.15984
     Eigenvalues ---    0.16000   0.16000   0.16000   0.16000   0.16000
     Eigenvalues ---    0.16000   0.16000   0.16000   0.16000   0.16000
     Eigenvalues ---    0.16000   0.16000   0.16000   0.21848   0.21940
     Eigenvalues ---    0.22000   0.22005   0.24975   0.24987   0.24999
     Eigenvalues ---    0.25000   0.28723   0.30312   0.31806   0.32001
     Eigenvalues ---    0.32004   0.32018   0.32539   0.33783   0.34111
     Eigenvalues ---    0.34157   0.34177   0.34226   0.34245   0.34283
     Eigenvalues ---    0.34283   0.34291   0.34294   0.34307   0.34327
     Eigenvalues ---    0.34379   0.34435   0.34448   0.34625   0.34795
     Eigenvalues ---    0.34907   0.55818   0.55947
 RFO step:  Lambda=-3.29249170D-03 EMin= 2.67164626D-03
 Linear search not attempted -- first point.
 Iteration  1 RMS(Cart)=  0.08571997 RMS(Int)=  0.00129942
 Iteration  2 RMS(Cart)=  0.00306412 RMS(Int)=  0.00010583
 Iteration  3 RMS(Cart)=  0.00000394 RMS(Int)=  0.00010581
 Iteration  4 RMS(Cart)=  0.00000000 RMS(Int)=  0.00010581
 ITry= 1 IFail=0 DXMaxC= 3.20D-01 DCOld= 1.00D+10 DXMaxT= 3.00D-01 DXLimC= 3.00D+00 Rises=F
 Variable       Old X    -DE/DX   Delta X   Delta X   Delta X     New X
                                 (Linear)    (Quad)   (Total)
    R1        2.07143   0.00067   0.00000   0.00194   0.00194   2.07337
    R2        2.07698  -0.00418   0.00000  -0.01226  -0.01226   2.06472
    R3        2.87346  -0.00773   0.00000  -0.02522  -0.02522   2.84824
    R4        2.90584  -0.00147   0.00000  -0.00507  -0.00507   2.90078
    R5        2.84136   0.00367   0.00000   0.01135   0.01135   2.85271
    R6        2.54412  -0.00208   0.00000  -0.00370  -0.00370   2.54042
    R7        2.06602  -0.00318   0.00000  -0.00913  -0.00913   2.05689
    R8        2.06695  -0.00337   0.00000  -0.00971  -0.00971   2.05724
    R9        2.06781  -0.00161   0.00000  -0.00464  -0.00464   2.06318
   R10        2.06009  -0.00276   0.00000  -0.00785  -0.00785   2.05224
   R11        2.83168   0.00137   0.00000   0.00416   0.00416   2.83584
   R12        2.06287  -0.00303   0.00000  -0.00866  -0.00866   2.05421
   R13        2.06855  -0.00224   0.00000  -0.00648  -0.00648   2.06208
   R14        2.06815  -0.00195   0.00000  -0.00564  -0.00564   2.06251
   R15        2.06842  -0.00355   0.00000  -0.01027  -0.01027   2.05815
   R16        2.06919  -0.00188   0.00000  -0.00544  -0.00544   2.06375
   R17        2.07066  -0.00251   0.00000  -0.00729  -0.00729   2.06337
   R18        2.84111   0.00040   0.00000   0.00124   0.00124   2.84234
   R19        2.84143   0.00232   0.00000   0.00717   0.00717   2.84859
   R20        2.54300  -0.00051   0.00000  -0.00090  -0.00090   2.54210
   R21        2.06581  -0.00295   0.00000  -0.00847  -0.00847   2.05734
   R22        2.06855  -0.00290   0.00000  -0.00836  -0.00836   2.06019
   R23        2.06837  -0.00188   0.00000  -0.00542  -0.00542   2.06295
   R24        2.05826  -0.00228   0.00000  -0.00646  -0.00646   2.05180
   R25        2.84500  -0.00196   0.00000  -0.00610  -0.00610   2.83890
   R26        2.06950  -0.00163   0.00000  -0.00471  -0.00471   2.06479
   R27        2.07032  -0.00195   0.00000  -0.00565  -0.00565   2.06467
    A1        1.84365   0.00103   0.00000   0.02244   0.02264   1.86629
    A2        1.89444   0.00161   0.00000   0.02040   0.02052   1.91496
    A3        1.90333   0.00017   0.00000   0.00968   0.00974   1.91306
    A4        1.92425  -0.00100   0.00000  -0.02411  -0.02457   1.89968
    A5        1.89530   0.00018   0.00000  -0.01219  -0.01276   1.88254
    A6        1.99663  -0.00175   0.00000  -0.01290  -0.01324   1.98340
    A7        2.02492   0.00230   0.00000   0.00902   0.00878   2.03369
    A8        2.10678  -0.00286   0.00000  -0.01140  -0.01163   2.09515
    A9        2.15146   0.00056   0.00000   0.00210   0.00185   2.15332
   A10        1.95334   0.00089   0.00000   0.00684   0.00685   1.96020
   A11        1.95494  -0.00301   0.00000  -0.01617  -0.01611   1.93883
   A12        1.92080   0.00366   0.00000   0.01876   0.01880   1.93960
   A13        1.84811   0.00232   0.00000   0.02092   0.02096   1.86906
   A14        1.90666  -0.00321   0.00000  -0.02383  -0.02384   1.88282
   A15        1.87696  -0.00086   0.00000  -0.00781  -0.00774   1.86922
   A16        2.07583  -0.00366   0.00000  -0.02153  -0.02153   2.05430
   A17        2.21569   0.00109   0.00000   0.00488   0.00488   2.22056
   A18        1.99165   0.00257   0.00000   0.01665   0.01665   2.00830
   A19        1.98122  -0.00275   0.00000  -0.01621  -0.01614   1.96508
   A20        1.91469   0.00248   0.00000   0.01456   0.01453   1.92922
   A21        1.91345   0.00337   0.00000   0.02064   0.02063   1.93408
   A22        1.87706   0.00009   0.00000   0.00062   0.00068   1.87774
   A23        1.88608  -0.00023   0.00000  -0.00028  -0.00020   1.88588
   A24        1.88887  -0.00314   0.00000  -0.02059  -0.02070   1.86816
   A25        1.87860   0.00079   0.00000   0.00743   0.00747   1.88608
   A26        1.88026   0.00095   0.00000   0.00921   0.00925   1.88951
   A27        1.96041  -0.00283   0.00000  -0.01423  -0.01419   1.94623
   A28        1.89561  -0.00328   0.00000  -0.02621  -0.02621   1.86940
   A29        1.92115   0.00213   0.00000   0.01129   0.01131   1.93246
   A30        1.92588   0.00211   0.00000   0.01160   0.01162   1.93749
   A31        2.01381  -0.00011   0.00000  -0.00040  -0.00040   2.01340
   A32        2.11158   0.00051   0.00000   0.00204   0.00204   2.11362
   A33        2.15703  -0.00040   0.00000  -0.00154  -0.00154   2.15549
   A34        1.96227  -0.00059   0.00000  -0.00115  -0.00115   1.96112
   A35        1.93408  -0.00103   0.00000  -0.00472  -0.00470   1.92938
   A36        1.91997   0.00363   0.00000   0.01821   0.01823   1.93821
   A37        1.85650   0.00220   0.00000   0.02101   0.02101   1.87750
   A38        1.89734  -0.00218   0.00000  -0.01615  -0.01613   1.88121
   A39        1.89127  -0.00222   0.00000  -0.01837  -0.01833   1.87293
   A40        2.07673  -0.00293   0.00000  -0.01806  -0.01807   2.05865
   A41        2.20386  -0.00029   0.00000  -0.00121  -0.00121   2.20264
   A42        2.00110   0.00322   0.00000   0.01963   0.01962   2.02072
   A43        1.95930  -0.00129   0.00000  -0.01053  -0.01059   1.94871
   A44        1.93988  -0.00213   0.00000  -0.02039  -0.02034   1.91954
   A45        1.90002   0.00004   0.00000  -0.00478  -0.00480   1.89522
   A46        1.89237   0.00210   0.00000   0.01556   0.01538   1.90775
   A47        1.94085   0.00013   0.00000  -0.00053  -0.00065   1.94020
   A48        1.82724   0.00131   0.00000   0.02270   0.02261   1.84986
    D1       -1.00138   0.00150   0.00000   0.11122   0.11112  -0.89026
    D2        2.13270   0.00089   0.00000   0.07152   0.07151   2.20421
    D3       -3.01304  -0.00010   0.00000   0.08594   0.08613  -2.92692
    D4        0.12104  -0.00071   0.00000   0.04624   0.04652   0.16756
[...]
                 (A) (A) (A) (A) (A) (A) (A) (A) (A) (A) (A) (A)
                 (A) (A) (A) (A) (A) (A) (A) (A) (A) (A) (A) (A)
                 (A) (A) (A) (A) (A) (A) (A) (A) (A) (A) (A) (A)
                 (A) (A) (A) (A) (A) (A) (A) (A) (A) (A) (A) (A)
                 (A) (A) (A) (A) (A) (A) (A) (A) (A) (A) (A) (A)
                 (A) (A) (A) (A) (A) (A) (A) (A) (A) (A) (A) (A)
                 (A) (A) (A) (A) (A) (A) (A) (A) (A) (A) (A) (A)
                 (A) (A) (A) (A) (A) (A) (A) (A) (A) (A) (A) (A)
                 (A) (A) (A) (A) (A) (A) (A) (A) (A) (A) (A) (A)
                 (A) (A) (A) (A) (A) (A) (A) (A) (A) (A) (A) (A)
                 (A) (A) (A) (A) (A) (A) (A) (A) (A) (A) (A) (A)
                 (A) (A) (A) (A) (A) (A) (A) (A) (A) (A) (A) (A)
                 (A) (A) (A) (A) (A) (A) (A) (A) (A) (A) (A) (A)
                 (A) (A) (A) (A) (A) (A) (A) (A) (A)
 The electronic state is 1-A.
 Alpha  occ. eigenvalues --  -11.22656 -11.22362 -11.21748 -11.21670 -11.21500
 Alpha  occ. eigenvalues --  -11.21497 -11.21445 -11.21331 -11.21284 -11.21036
 Alpha  occ. eigenvalues --   -1.10816  -1.08118  -1.01964  -0.97249  -0.93597
 Alpha  occ. eigenvalues --   -0.92320  -0.88045  -0.81481  -0.70820  -0.68867
 Alpha  occ. eigenvalues --   -0.64504  -0.61556  -0.61322  -0.58562  -0.57647
 Alpha  occ. eigenvalues --   -0.56814  -0.55132  -0.54445  -0.53424  -0.53050
 Alpha  occ. eigenvalues --   -0.52426  -0.51153  -0.50315  -0.49160  -0.47823
 Alpha  occ. eigenvalues --   -0.45858  -0.44503  -0.32351  -0.32072
 Alpha virt. eigenvalues --    0.18842   0.19295   0.22636   0.24632   0.26788
 Alpha virt. eigenvalues --    0.26963   0.27969   0.29129   0.30476   0.30674
 Alpha virt. eigenvalues --    0.31908   0.32314   0.33193   0.33627   0.34739
 Alpha virt. eigenvalues --    0.35179   0.36575   0.38549   0.39927   0.40167
 Alpha virt. eigenvalues --    0.41045   0.42109   0.43158   0.43693   0.46277
 Alpha virt. eigenvalues --    0.51170   0.52627   0.62515   0.63978   0.69741
 Alpha virt. eigenvalues --    0.70653   0.72266   0.73666   0.74399   0.76106
 Alpha virt. eigenvalues --    0.76348   0.78202   0.80632   0.81896   0.83124
 Alpha virt. eigenvalues --    0.84723   0.86723   0.87301   0.89948   0.91729
 Alpha virt. eigenvalues --    0.92495   0.95361   0.96539   0.98395   0.99411
 Alpha virt. eigenvalues --    1.01133   1.01810   1.03412   1.05974   1.07183
 Alpha virt. eigenvalues --    1.08340   1.08798   1.10036   1.11351   1.12518
 Alpha virt. eigenvalues --    1.12956   1.14175   1.14620   1.15609   1.15809
 Alpha virt. eigenvalues --    1.16473   1.17692   1.18726   1.19290   1.21095
 Alpha virt. eigenvalues --    1.21432   1.22545   1.24480   1.25415   1.26922
 Alpha virt. eigenvalues --    1.28917   1.32308   1.40986   1.42399   1.45062
 Alpha virt. eigenvalues --    1.46544   1.48790   1.54916   1.57016   1.59059
 Alpha virt. eigenvalues --    1.61092   1.67399   1.70359   1.72099   1.73695
 Alpha virt. eigenvalues --    1.76059   1.76465   1.91436   1.91913   1.97249
 Alpha virt. eigenvalues --    1.98839   2.01834   2.04110   2.06652   2.07498
 Alpha virt. eigenvalues --    2.08416   2.10510   2.11549   2.13632   2.14547
 Alpha virt. eigenvalues --    2.16210   2.18585   2.21562   2.25778   2.27887
 Alpha virt. eigenvalues --    2.30100   2.32022   2.33617   2.34832   2.35550
 Alpha virt. eigenvalues --    2.35937   2.35991   2.37903   2.40429   2.41632
 Alpha virt. eigenvalues --    2.43143   2.43583   2.44133   2.44416   2.46275
 Alpha virt. eigenvalues --    2.47266   2.49184   2.50151   2.53009   2.54431
 Alpha virt. eigenvalues --    2.56615   2.58424   2.61261   2.62540   2.64326
 Alpha virt. eigenvalues --    2.68507   2.69191   2.70409   2.71414   2.74005
 Alpha virt. eigenvalues --    2.76825   2.78374   2.79205   2.83628   2.84873
 Alpha virt. eigenvalues --    2.86114   2.88283   2.90331   2.93369   2.94633
 Alpha virt. eigenvalues --    2.95864   2.98858   2.99991   3.03398   3.04202
 Alpha virt. eigenvalues --    3.06644   3.07261   3.10797   3.12771   3.13636
 Alpha virt. eigenvalues --    3.17862   3.18780   3.19358   3.21217   3.21845
 Alpha virt. eigenvalues --    3.23248   3.24992   3.27066   3.30773   3.38791
 Alpha virt. eigenvalues --    3.41507   3.44180   3.46609   3.56331   3.57462
 Alpha virt. eigenvalues --    3.61970   3.62987   3.68446   3.71833   3.79561
 Alpha virt. eigenvalues --    3.80566   3.81853   3.82198   3.83491   3.84130
 Alpha virt. eigenvalues --    3.84911   3.86739   3.88905   3.89819   3.91371
 Alpha virt. eigenvalues --    3.95971   4.58212   4.62236   4.74429   4.84754
 Alpha virt. eigenvalues --    4.89986   4.92495   4.94777   5.08079   5.11238
 Alpha virt. eigenvalues --    5.16165
          Condensed to atoms (all electrons):
               1          2          3          4          5          6
     1  C    4.958727   0.406816   0.414963   0.367228  -0.062080   0.003505
     2  H    0.406816   0.605800  -0.027245  -0.045087  -0.004013  -0.000066
     3  H    0.414963  -0.027245   0.580406  -0.048393   0.003905  -0.000101
     4  C    0.367228  -0.045087  -0.048393   4.941219   0.344562  -0.037636
     5  C   -0.062080  -0.004013   0.003905   0.344562   4.906794   0.407757
     6  H    0.003505  -0.000066  -0.000101  -0.037636   0.407757   0.568226
     7  H   -0.001891  -0.000185  -0.000106  -0.041750   0.400457  -0.027860
     8  H   -0.002947   0.003174   0.000041  -0.044169   0.401179  -0.027476
     9  C   -0.044053   0.001039  -0.002869   0.701301  -0.044024  -0.002908
    10  H   -0.007699   0.000255   0.002269  -0.038872   0.003585   0.000045
    11  C    0.003206  -0.000108   0.000206  -0.047487  -0.008040  -0.002309
    12  H    0.000086   0.000002   0.000005  -0.000027  -0.002101  -0.001221
    13  H   -0.000114   0.000014  -0.000005  -0.000859   0.000291   0.000077
    14  H   -0.000089  -0.000003  -0.000010  -0.000389   0.000223  -0.000061
    15  C   -0.000121   0.000002  -0.000031   0.000006   0.000000  -0.000000
    16  H   -0.000006   0.000000  -0.000001  -0.000001  -0.000000  -0.000000
    17  H    0.000026  -0.000000  -0.000004   0.000005   0.000000   0.000000
    18  H   -0.000005   0.000000   0.000001  -0.000000  -0.000000   0.000000
    19  C   -0.003274  -0.000007   0.001747  -0.000858   0.000014  -0.000000
    20  C    0.000219  -0.000011   0.000095   0.000015  -0.000000   0.000000
    21  H   -0.000212   0.000031   0.000298   0.000000   0.000000  -0.000000
    22  H   -0.000041   0.000001   0.000013  -0.000001   0.000000  -0.000000
    23  H    0.000148  -0.000005  -0.000073   0.000008   0.000000  -0.000000
    24  C   -0.065658   0.006481  -0.003166  -0.006154  -0.000612  -0.000024
    25  H   -0.000238  -0.000089   0.000059   0.001719  -0.000019  -0.000002
    26  C    0.331782  -0.051022  -0.039496  -0.065065   0.000005   0.000043
    27  H   -0.042882  -0.002320   0.004486  -0.004734   0.000388   0.000010
    28  H   -0.039107  -0.002885  -0.004131   0.005027  -0.000152   0.000001
               7          8          9         10         11         12
     1  C   -0.001891  -0.002947  -0.044053  -0.007699   0.003206   0.000086
     2  H   -0.000185   0.003174   0.001039   0.000255  -0.000108   0.000002
     3  H   -0.000106   0.000041  -0.002869   0.002269   0.000206   0.000005
     4  C   -0.041750  -0.044169   0.701301  -0.038872  -0.047487  -0.000027
     5  C    0.400457   0.401179  -0.044024   0.003585  -0.008040  -0.002101
     6  H   -0.027860  -0.027476  -0.002908   0.000045  -0.002309  -0.001221
     7  H    0.588302  -0.036094  -0.002135  -0.000128   0.000439  -0.000106
     8  H   -0.036094   0.588406   0.001396  -0.000113   0.000188   0.000002
     9  C   -0.002135   0.001396   4.924635   0.405542   0.340525  -0.043481
    10  H   -0.000128  -0.000113   0.405542   0.558051  -0.042087   0.003336
    11  C    0.000439   0.000188   0.340525  -0.042087   4.899429   0.407863
    12  H   -0.000106   0.000002  -0.043481   0.003336   0.407863   0.577597
    13  H   -0.000037   0.000032  -0.042058  -0.000992   0.401001  -0.027953
    14  H    0.000086  -0.000019  -0.042220  -0.001450   0.401874  -0.028702
    15  C    0.000001  -0.000000   0.000000   0.000000  -0.000001  -0.000000
    16  H   -0.000000   0.000000  -0.000002   0.000000  -0.000000  -0.000000
    17  H   -0.000000  -0.000000  -0.000005  -0.000001   0.000000   0.000000
    18  H    0.000000   0.000000   0.000000   0.000000   0.000000   0.000000
    19  C   -0.000008  -0.000000   0.000318   0.000143   0.000000   0.000000
    20  C    0.000000   0.000000  -0.000009   0.000001  -0.000000  -0.000000
    21  H   -0.000000   0.000000  -0.000000   0.000000  -0.000000  -0.000000
    22  H    0.000000  -0.000000   0.000000   0.000000   0.000000   0.000000
    23  H   -0.000000   0.000000  -0.000000  -0.000000  -0.000000   0.000000
    24  C   -0.000122   0.000144   0.004138   0.000342  -0.000040   0.000002
    25  H    0.000271   0.000001   0.000289  -0.000004   0.000015   0.000001
    26  C    0.001254  -0.001274  -0.005907   0.000193  -0.000087  -0.000005
    27  H   -0.001724   0.000432   0.000308  -0.000003   0.000004  -0.000000
    28  H    0.000046  -0.000028  -0.000004  -0.000011   0.000002   0.000000
              13         14         15         16         17         18
     1  C   -0.000114  -0.000089  -0.000121  -0.000006   0.000026  -0.000005
     2  H    0.000014  -0.000003   0.000002   0.000000  -0.000000   0.000000
     3  H   -0.000005  -0.000010  -0.000031  -0.000001  -0.000004   0.000001
     4  C   -0.000859  -0.000389   0.000006  -0.000001   0.000005  -0.000000
     5  C    0.000291   0.000223   0.000000  -0.000000   0.000000  -0.000000
     6  H    0.000077  -0.000061  -0.000000  -0.000000   0.000000   0.000000
     7  H   -0.000037   0.000086   0.000001  -0.000000  -0.000000   0.000000
     8  H    0.000032  -0.000019  -0.000000   0.000000  -0.000000   0.000000
     9  C   -0.042058  -0.042220   0.000000  -0.000002  -0.000005   0.000000
    10  H   -0.000992  -0.001450   0.000000   0.000000  -0.000001   0.000000
    11  C    0.401001   0.401874  -0.000001  -0.000000   0.000000   0.000000
    12  H   -0.027953  -0.028702  -0.000000  -0.000000   0.000000   0.000000
    13  H    0.586624  -0.035938   0.000000  -0.000000   0.000000  -0.000000
    14  H   -0.035938   0.585944  -0.000000   0.000002  -0.000000   0.000000
    15  C    0.000000  -0.000000   4.898860   0.406043   0.398248   0.398559
    16  H   -0.000000   0.000002   0.406043   0.566190  -0.026721  -0.026610
    17  H    0.000000  -0.000000   0.398248  -0.026721   0.596670  -0.038228
    18  H   -0.000000   0.000000   0.398559  -0.026610  -0.038228   0.596564
    19  C   -0.000000   0.000003   0.354224  -0.041429  -0.044189  -0.044440
    20  C    0.000000   0.000000  -0.065472   0.003816  -0.001964  -0.001205
    21  H    0.000000   0.000000   0.003773  -0.000115  -0.000069  -0.000033
    22  H   -0.000000   0.000000  -0.002272  -0.000048  -0.000483   0.002824
    23  H    0.000000  -0.000000  -0.002597  -0.000037   0.002800  -0.000484
    24  C    0.000001   0.000010  -0.044008  -0.002624  -0.000377  -0.001365
    25  H    0.000000  -0.000001  -0.007043   0.002394   0.000191   0.000177
    26  C   -0.000006   0.000025   0.003207   0.000143  -0.000078  -0.000129
    27  H    0.000000  -0.000000  -0.000092  -0.000009  -0.000002   0.000009
    28  H    0.000000  -0.000000   0.000046   0.000006  -0.000005   0.000007
              19         20         21         22         23         24
     1  C   -0.003274   0.000219  -0.000212  -0.000041   0.000148  -0.065658
     2  H   -0.000007  -0.000011   0.000031   0.000001  -0.000005   0.006481
     3  H    0.001747   0.000095   0.000298   0.000013  -0.000073  -0.003166
     4  C   -0.000858   0.000015   0.000000  -0.000001   0.000008  -0.006154
     5  C    0.000014  -0.000000   0.000000   0.000000   0.000000  -0.000612
     6  H   -0.000000   0.000000  -0.000000  -0.000000  -0.000000  -0.000024
     7  H   -0.000008   0.000000  -0.000000   0.000000  -0.000000  -0.000122
     8  H   -0.000000   0.000000   0.000000  -0.000000   0.000000   0.000144
     9  C    0.000318  -0.000009  -0.000000   0.000000  -0.000000   0.004138
    10  H    0.000143   0.000001   0.000000   0.000000  -0.000000   0.000342
    11  C    0.000000  -0.000000  -0.000000   0.000000  -0.000000  -0.000040
    12  H    0.000000  -0.000000  -0.000000   0.000000   0.000000   0.000002
    13  H   -0.000000   0.000000   0.000000  -0.000000   0.000000   0.000001
    14  H    0.000003   0.000000   0.000000   0.000000  -0.000000   0.000010
    15  C    0.354224  -0.065472   0.003773  -0.002272  -0.002597  -0.044008
    16  H   -0.041429   0.003816  -0.000115  -0.000048  -0.000037  -0.002624
    17  H   -0.044189  -0.001964  -0.000069  -0.000483   0.002800  -0.000377
    18  H   -0.044440  -0.001205  -0.000033   0.002824  -0.000484  -0.001365
    19  C    4.913469   0.350865  -0.037828  -0.044024  -0.043575   0.703307
    20  C    0.350865   4.905133   0.406856   0.400400   0.400694  -0.044134
    21  H   -0.037828   0.406856   0.570426  -0.026815  -0.028164  -0.002910
    22  H   -0.044024   0.400400  -0.026815   0.587727  -0.036150  -0.000425
    23  H   -0.043575   0.400694  -0.028164  -0.036150   0.588903  -0.000062
    24  C    0.703307  -0.044134  -0.002910  -0.000425  -0.000062   4.954492
    25  H   -0.037062   0.003520   0.000054  -0.000120  -0.000119   0.404540
    26  C   -0.049400  -0.007702  -0.002619   0.000146   0.000293   0.331199
    27  H    0.002011   0.000153   0.000070   0.000023  -0.000014  -0.044002
    28  H   -0.000692  -0.002352  -0.001460   0.000093  -0.000076  -0.043564
              25         26         27         28
     1  C   -0.000238   0.331782  -0.042882  -0.039107
     2  H   -0.000089  -0.051022  -0.002320  -0.002885
     3  H    0.000059  -0.039496   0.004486  -0.004131
     4  C    0.001719  -0.065065  -0.004734   0.005027
     5  C   -0.000019   0.000005   0.000388  -0.000152
     6  H   -0.000002   0.000043   0.000010   0.000001
     7  H    0.000271   0.001254  -0.001724   0.000046
     8  H    0.000001  -0.001274   0.000432  -0.000028
     9  C    0.000289  -0.005907   0.000308  -0.000004
    10  H   -0.000004   0.000193  -0.000003  -0.000011
    11  C    0.000015  -0.000087   0.000004   0.000002
    12  H    0.000001  -0.000005  -0.000000   0.000000
    13  H    0.000000  -0.000006   0.000000   0.000000
    14  H   -0.000001   0.000025  -0.000000  -0.000000
    15  C   -0.007043   0.003207  -0.000092   0.000046
    16  H    0.002394   0.000143  -0.000009   0.000006
    17  H    0.000191  -0.000078  -0.000002  -0.000005
    18  H    0.000177  -0.000129   0.000009   0.000007
    19  C   -0.037062  -0.049400   0.002011  -0.000692
    20  C    0.003520  -0.007702   0.000153  -0.002352
    21  H    0.000054  -0.002619   0.000070  -0.001460
    22  H   -0.000120   0.000146   0.000023   0.000093
    23  H   -0.000119   0.000293  -0.000014  -0.000076
    24  C    0.404540   0.331199  -0.044002  -0.043564
    25  H    0.551491  -0.039488  -0.003714   0.003255
    26  C   -0.039488   5.017137   0.412721   0.417457
    27  H   -0.003714   0.412721   0.592385  -0.029676
    28  H    0.003255   0.417457  -0.029676   0.579438
 Mulliken charges:
               1
     1  C   -0.216289
     2  H    0.109431
     3  H    0.117136
     4  C    0.020394
     5  C   -0.348121
     6  H    0.120000
     7  H    0.121290
     8  H    0.117125
     9  C   -0.149815
    10  H    0.117598
    11  C   -0.354592
    12  H    0.114704
    13  H    0.119922
    14  H    0.120718
    15  C   -0.341331
    16  H    0.119011
    17  H    0.114187
    18  H    0.114355
    19  C    0.020686
    20  C   -0.348916
    21  H    0.118715
    22  H    0.119152
    23  H    0.118511
    24  C   -0.145409
    25  H    0.119922
    26  C   -0.253326
    27  H    0.116175
    28  H    0.118766
 Sum of Mulliken charges =  -0.00000
 Mulliken charges with hydrogens summed into heavy atoms:
               1
     1  C    0.010278
     4  C    0.020394
     5  C    0.010295
     9  C   -0.032217
    11  C    0.000752
    15  C    0.006222
    19  C    0.020686
    20  C    0.007461
    24  C   -0.025487
    26  C   -0.018384
 Electronic spatial extent (au):  <R**2>=           2155.4911
 Charge=             -0.0000 electrons
 Dipole moment (field-independent basis, Debye):
    X=              0.1025    Y=             -0.0051    Z=              0.0167  Tot=              0.1039
 Quadrupole moment (field-independent basis, Debye-Ang):
   XX=            -64.6449   YY=            -64.2175   ZZ=            -65.5035
   XY=              0.3049   XZ=              2.4028   YZ=              0.0860
 Traceless Quadrupole moment (field-independent basis, Debye-Ang):
   XX=              0.1437   YY=              0.5712   ZZ=             -0.7148
   XY=              0.3049   XZ=              2.4028   YZ=              0.0860
 Octapole moment (field-independent basis, Debye-Ang**2):
  XXX=              4.9575  YYY=             -1.1298  ZZZ=              0.1406  XYY=             -1.7052
  XXY=              3.3859  XXZ=             -1.2881  XZZ=             -0.5587  YZZ=              2.5099
  YYZ=              1.8212  XYZ=             -2.0936
 Hexadecapole moment (field-independent basis, Debye-Ang**3):
 XXXX=          -1997.4066 YYYY=           -676.5068 ZZZZ=           -314.4093 XXXY=             -3.3911
 XXXZ=             12.2372 YYYX=              2.1726 YYYZ=             -0.7596 ZZZX=              5.4341
 ZZZY=              2.1265 XXYY=           -449.8929 XXZZ=           -397.0554 YYZZ=           -163.9119
 XXYZ=              1.4403 YYXZ=              1.2967 ZZXY=             -0.5710
 N-N= 5.271905866178D+02 E-N=-1.959201849475D+03  KE= 3.887484038046D+02
 No NMR shielding tensors so no spin-rotation constants.
 Leave Link  601 at Fri Sep 17 22:34:24 2021, MaxMem=   524288000 cpu:               0.3 elap:               0.6
 (Enter /opt/gaussian/g16_legacy/l9999.exe)
 1\1\GINC-TRUENO90\FOpt\RMP2-FC\6-31G(d,p)\C10H18\JRAMOS\17-Sep-2021\0\
 \#p opt mp2/6-31g(d,p)\\Conformer number 012. Energy MM = 26.413 kcal/
 mol\\0,1\C,2.1809849727,1.0896685262,-8.9039863205\H,1.9016311521,0.04
 13334357,-9.0584199335\H,2.0293979699,1.6098018959,-9.8526416423\C,3.6
 327053971,1.1742221432,-8.509037211\C,4.0162524808,0.3695358141,-7.296
 3091674\H,5.0925756674,0.2918583748,-7.1659439651\H,3.6018934468,0.805
 807266,-6.3849404626\H,3.6152210837,-0.6428736341,-7.3752239582\C,4.47
 77161588,1.9560401453,-9.2073124818\H,4.0646667828,2.4879466742,-10.05
 98503914\C,5.9349466147,2.1969161031,-8.9553572119\H,6.3067887707,1.65
 9577747,-8.0866984734\H,6.5327638126,1.8976339612,-9.8182267403\H,6.12
 31004523,3.2597139616,-8.7924207995\C,1.4793966825,5.6120414023,-7.766
 9440243\H,2.291256131,5.5796181109,-7.0419821127\H,1.8319341214,6.1461
 217338,-8.6522843741\H,0.6648872292,6.20437746,-7.3435923251\C,1.00628
 95968,4.2307877809,-8.1273691627\C,-0.1162252685,4.1931426904,-9.12688
 29857\H,-0.4216715092,3.182570617,-9.3855019124\H,-0.9889657135,4.7263
 245314,-8.7432190434\H,0.1829542338,4.6992896085,-10.047334378\C,1.573
 5116029,3.1416976665,-7.5754253179\H,2.3946347241,3.3055897603,-6.8835
 410134\C,1.2356147879,1.7071415016,-7.8546399037\H,1.2996808214,1.1336
 5497,-6.926548961\H,0.2071577979,1.6046597522,-8.2034657266\\Version=E
 M64L-G16RevA.03\State=1-A\HF=-389.1553896\MP2=-390.5738652\RMSD=3.153e
 -09\RMSF=1.698e-06\Dipole=-0.0102301,0.0348896,-0.0078928\PG=C01 [X(C1
 0H18)]\\@



 IN THIS SHORT LIFE

 THAT ONLY LASTS AN HOUR

 HOW MUCH, HOW LITTLE, IS WITHIN OUR POWER....


 EMILY DICKINSON BOLTS OF MELODY NO. 521
 Job cpu time:       0 days  2 hours 24 minutes 45.3 seconds.
 Elapsed time:       0 days  2 hours 24 minutes 54.3 seconds.
 File lengths (MBytes):  RWF=     32 Int=      0 D2E=      0 Chk=      7 Scr=      1
 Normal termination of Gaussian 16 at Fri Sep 17 22:34:24 2021.
