 Entering Gaussian System, Link 0=/opt/gaussian/g16_legacy/g16
 Input=02-IsoP_008_gaussian.com
 Output=02-IsoP_008_gaussian.log
 Initial command:
 /opt/gaussian/g16_legacy/l1.exe "/scratch-local/jramos/2661507/Gau-17324.inp" -scrdir="/scratch-local/jramos/2661507/"
 Entering Link 1 = /opt/gaussian/g16_legacy/l1.exe PID=     17327.
  
 Copyright (c) 1988,1990,1992,1993,1995,1998,2003,2009,2016,
            Gaussian, Inc.  All Rights Reserved.
  
 This is part of the Gaussian(R) 16 program.  It is based on
 the Gaussian(R) 09 system (copyright 2009, Gaussian, Inc.),
 the Gaussian(R) 03 system (copyright 2003, Gaussian, Inc.),
 the Gaussian(R) 98 system (copyright 1998, Gaussian, Inc.),
 the Gaussian(R) 94 system (copyright 1995, Gaussian, Inc.),
 the Gaussian 92(TM) system (copyright 1992, Gaussian, Inc.),
 the Gaussian 90(TM) system (copyright 1990, Gaussian, Inc.),
 the Gaussian 88(TM) system (copyright 1988, Gaussian, Inc.),
 the Gaussian 86(TM) system (copyright 1986, Carnegie Mellon
 University), and the Gaussian 82(TM) system (copyright 1983,
 Carnegie Mellon University). Gaussian is a federally registered
 trademark of Gaussian, Inc.
  
 This software contains proprietary and confidential information,
 including trade secrets, belonging to Gaussian, Inc.
  
 This software is provided under written license and may be
 used, copied, transmitted, or stored only in accord with that
 written license.
  
 The following legend is applicable only to US Government
 contracts under FAR:
  
                    RESTRICTED RIGHTS LEGEND
  
 Use, reproduction and disclosure by the US Government is
 subject to restrictions as set forth in subparagraphs (a)
 and (c) of the Commercial Computer Software - Restricted
 Rights clause in FAR 52.227-19.
  
 Gaussian, Inc.
 340 Quinnipiac St., Bldg. 40, Wallingford CT 06492
  
  
 ---------------------------------------------------------------
 Warning -- This program may not be used in any manner that
 competes with the business of Gaussian, Inc. or will provide
 assistance to any competitor of Gaussian, Inc.  The licensee
 of this program is prohibited from giving any competitor of
 Gaussian, Inc. access to this program.  By using this program,
 the user acknowledges that Gaussian, Inc. is engaged in the
 business of creating and licensing software in the field of
 computational chemistry and represents and warrants to the
 licensee that it is not a competitor of Gaussian, Inc. and that
 it will not use this program in any manner prohibited above.
 ---------------------------------------------------------------
  

 Cite this work as:
 Gaussian 16, Revision A.03,
 M. J. Frisch, G. W. Trucks, H. B. Schlegel, G. E. Scuseria, 
 M. A. Robb, J. R. Cheeseman, G. Scalmani, V. Barone, 
 G. A. Petersson, H. Nakatsuji, X. Li, M. Caricato, A. V. Marenich, 
 J. Bloino, B. G. Janesko, R. Gomperts, B. Mennucci, H. P. Hratchian, 
 J. V. Ortiz, A. F. Izmaylov, J. L. Sonnenberg, D. Williams-Young, 
 F. Ding, F. Lipparini, F. Egidi, J. Goings, B. Peng, A. Petrone, 
 T. Henderson, D. Ranasinghe, V. G. Zakrzewski, J. Gao, N. Rega, 
 G. Zheng, W. Liang, M. Hada, M. Ehara, K. Toyota, R. Fukuda, 
 J. Hasegawa, M. Ishida, T. Nakajima, Y. Honda, O. Kitao, H. Nakai, 
 T. Vreven, K. Throssell, J. A. Montgomery, Jr., J. E. Peralta, 
 F. Ogliaro, M. J. Bearpark, J. J. Heyd, E. N. Brothers, K. N. Kudin, 
 V. N. Staroverov, T. A. Keith, R. Kobayashi, J. Normand, 
 K. Raghavachari, A. P. Rendell, J. C. Burant, S. S. Iyengar, 
 J. Tomasi, M. Cossi, J. M. Millam, M. Klene, C. Adamo, R. Cammi, 
 J. W. Ochterski, R. L. Martin, K. Morokuma, O. Farkas, 
 J. B. Foresman, and D. J. Fox, Gaussian, Inc., Wallingford CT, 2016.
 
 ******************************************
 Gaussian 16:  EM64L-G16RevA.03 25-Dec-2016
                17-Sep-2021 
 ******************************************
 %chk=02-IsoP_008_gaussian.chk
 %nproc=1
 Will use up to    1 processors via shared memory.
 %mem=4000Mb
 ---------------------
 #p opt mp2/6-31g(d,p)
 ---------------------
 1/18=20,19=15,38=1/1,3;
 2/9=110,12=2,17=6,18=5,40=1/2;
 3/5=1,6=6,7=101,11=9,25=1,30=1,71=1/1,2,3;
 4//1;
 5/5=2,38=5/2;
 8/6=4,10=2/1;
 9/15=2,16=-3/6;
 10/5=1/2;
 6/7=2,8=2,9=2,10=2/1;
 7/12=2/1,2,3,16;
 1/18=20,19=15/3(2);
 2/9=110/2;
 99//99;
 2/9=110/2;
 3/5=1,6=6,7=101,11=9,25=1,30=1,71=1/1,2,3;
 4/5=5,16=3,69=1/1;
 5/5=2,38=5/2;
 8/6=4,10=2/1;
 9/15=2,16=-3/6;
 10/5=1/2;
 7/12=2/1,2,3,16;
 1/18=20,19=15/3(-8);
 2/9=110/2;
 6/7=2,8=2,9=2,10=2/1;
 99//99;
 Leave Link    1 at Fri Sep 17 20:09:25 2021, MaxMem=   524288000 cpu:               0.0 elap:               0.1
 (Enter /opt/gaussian/g16_legacy/l101.exe)
 -------------------------------------------------
 Conformer number 008. Energy MM = 26.045 kcal/mol
 -------------------------------------------------
 Symbolic Z-matrix:
 Charge =  0 Multiplicity = 1
 C                     2.2117    1.2943   -8.9475 
 H                     1.9036    0.3005   -9.2973 
 H                     2.0571    1.9619   -9.8056 
 C                     3.6854    1.271    -8.5885 
 C                     4.2131   -0.0221   -8.0256 
 H                     4.9444    0.1488   -7.2301 
 H                     3.416    -0.6288   -7.5859 
 H                     4.676    -0.617    -8.8189 
 C                     4.4525    2.3604   -8.7974 
 H                     3.9866    3.2528   -9.2147 
 C                     5.9153    2.4997   -8.5264 
 H                     6.3741    1.5894   -8.1333 
 H                     6.4373    2.7622   -9.4526 
 H                     6.0813    3.3027   -7.8017 
 C                     0.7098   -1.0211   -5.1205 
 H                     1.5182   -0.6467   -4.4831 
 H                    -0.2088   -1.0326   -4.5264 
 H                     0.9611   -2.0506   -5.3976 
 C                     0.5264   -0.1844   -6.3576 
 C                    -0.5661   -0.6456   -7.2823 
 H                    -0.4136   -0.3117   -8.3125 
 H                    -0.6091   -1.7396   -7.3122 
 H                    -1.5344   -0.2721   -6.9355 
 C                     1.3291    0.8674   -6.6025 
 H                     2.1094    1.1141   -5.8823 
 C                     1.2948    1.7673   -7.8078 
 H                     0.27      1.8605   -8.1859 
 H                     1.5817    2.7791   -7.4922 
 
 ITRead=  0  0  0  0  0  0  0  0  0  0  0  0  0  0  0  0  0  0  0  0
 ITRead=  0  0  0  0  0  0  0  0
 MicOpt= -1 -1 -1 -1 -1 -1 -1 -1 -1 -1 -1 -1 -1 -1 -1 -1 -1 -1 -1 -1
 MicOpt= -1 -1 -1 -1 -1 -1 -1 -1
 NAtoms=     28 NQM=       28 NQMF=       0 NMMI=      0 NMMIF=      0
                NMic=       0 NMicF=      0.
                    Isotopes and Nuclear Properties:
 (Nuclear quadrupole moments (NQMom) in fm**2, nuclear magnetic moments (NMagM)
  in nuclear magnetons)

  Atom         1           2           3           4           5           6           7           8           9          10
 IAtWgt=          12           1           1          12          12           1           1           1          12           1
 AtmWgt=  12.0000000   1.0078250   1.0078250  12.0000000  12.0000000   1.0078250   1.0078250   1.0078250  12.0000000   1.0078250
 NucSpn=           0           1           1           0           0           1           1           1           0           1
 AtZEff=  -0.0000000  -0.0000000  -0.0000000  -0.0000000  -0.0000000  -0.0000000  -0.0000000  -0.0000000  -0.0000000  -0.0000000
 NQMom=    0.0000000   0.0000000   0.0000000   0.0000000   0.0000000   0.0000000   0.0000000   0.0000000   0.0000000   0.0000000
 NMagM=    0.0000000   2.7928460   2.7928460   0.0000000   0.0000000   2.7928460   2.7928460   2.7928460   0.0000000   2.7928460
 AtZNuc=   6.0000000   1.0000000   1.0000000   6.0000000   6.0000000   1.0000000   1.0000000   1.0000000   6.0000000   1.0000000

  Atom        11          12          13          14          15          16          17          18          19          20
 IAtWgt=          12           1           1           1          12           1           1           1          12          12
 AtmWgt=  12.0000000   1.0078250   1.0078250   1.0078250  12.0000000   1.0078250   1.0078250   1.0078250  12.0000000  12.0000000
 NucSpn=           0           1           1           1           0           1           1           1           0           0
 AtZEff=  -0.0000000  -0.0000000  -0.0000000  -0.0000000  -0.0000000  -0.0000000  -0.0000000  -0.0000000  -0.0000000  -0.0000000
 NQMom=    0.0000000   0.0000000   0.0000000   0.0000000   0.0000000   0.0000000   0.0000000   0.0000000   0.0000000   0.0000000
 NMagM=    0.0000000   2.7928460   2.7928460   2.7928460   0.0000000   2.7928460   2.7928460   2.7928460   0.0000000   0.0000000
 AtZNuc=   6.0000000   1.0000000   1.0000000   1.0000000   6.0000000   1.0000000   1.0000000   1.0000000   6.0000000   6.0000000

  Atom        21          22          23          24          25          26          27          28
 IAtWgt=           1           1           1          12           1          12           1           1
 AtmWgt=   1.0078250   1.0078250   1.0078250  12.0000000   1.0078250  12.0000000   1.0078250   1.0078250
 NucSpn=           1           1           1           0           1           0           1           1
 AtZEff=  -0.0000000  -0.0000000  -0.0000000  -0.0000000  -0.0000000  -0.0000000  -0.0000000  -0.0000000
 NQMom=    0.0000000   0.0000000   0.0000000   0.0000000   0.0000000   0.0000000   0.0000000   0.0000000
 NMagM=    2.7928460   2.7928460   2.7928460   0.0000000   2.7928460   0.0000000   2.7928460   2.7928460
 AtZNuc=   1.0000000   1.0000000   1.0000000   6.0000000   1.0000000   6.0000000   1.0000000   1.0000000
 Leave Link  101 at Fri Sep 17 20:09:25 2021, MaxMem=   524288000 cpu:               0.1 elap:               0.2
 (Enter /opt/gaussian/g16_legacy/l103.exe)

 GradGradGradGradGradGradGradGradGradGradGradGradGradGradGradGradGradGrad
 Berny optimization.
 Initialization pass.
                           ----------------------------
                           !    Initial Parameters    !
                           ! (Angstroms and Degrees)  !
 --------------------------                            --------------------------
 ! Name  Definition              Value          Derivative Info.                !
 --------------------------------------------------------------------------------
 ! R1    R(1,2)                  1.0977         estimate D2E/DX2                !
 ! R2    R(1,3)                  1.0981         estimate D2E/DX2                !
 ! R3    R(1,4)                  1.517          estimate D2E/DX2                !
 ! R4    R(1,26)                 1.5373         estimate D2E/DX2                !
 ! R5    R(4,5)                  1.5058         estimate D2E/DX2                !
 ! R6    R(4,9)                  1.3487         estimate D2E/DX2                !
 ! R7    R(5,6)                  1.094          estimate D2E/DX2                !
 ! R8    R(5,7)                  1.094          estimate D2E/DX2                !
 ! R9    R(5,8)                  1.0943         estimate D2E/DX2                !
 ! R10   R(9,10)                 1.0898         estimate D2E/DX2                !
 ! R11   R(9,11)                 1.4942         estimate D2E/DX2                !
 ! R12   R(11,12)                1.0926         estimate D2E/DX2                !
 ! R13   R(11,13)                1.0951         estimate D2E/DX2                !
 ! R14   R(11,14)                1.0943         estimate D2E/DX2                !
 ! R15   R(15,16)                1.0954         estimate D2E/DX2                !
 ! R16   R(15,17)                1.094          estimate D2E/DX2                !
 ! R17   R(15,18)                1.0954         estimate D2E/DX2                !
 ! R18   R(15,19)                1.5047         estimate D2E/DX2                !
 ! R19   R(19,20)                1.5038         estimate D2E/DX2                !
 ! R20   R(19,24)                1.3456         estimate D2E/DX2                !
 ! R21   R(20,21)                1.0936         estimate D2E/DX2                !
 ! R22   R(20,22)                1.0953         estimate D2E/DX2                !
 ! R23   R(20,23)                1.0942         estimate D2E/DX2                !
 ! R24   R(24,25)                1.0901         estimate D2E/DX2                !
 ! R25   R(24,26)                1.5046         estimate D2E/DX2                !
 ! R26   R(26,27)                1.0963         estimate D2E/DX2                !
 ! R27   R(26,28)                1.098          estimate D2E/DX2                !
 ! A1    A(2,1,3)              105.1811         estimate D2E/DX2                !
 ! A2    A(2,1,4)              109.5228         estimate D2E/DX2                !
 ! A3    A(2,1,26)             110.3284         estimate D2E/DX2                !
 ! A4    A(3,1,4)              109.3312         estimate D2E/DX2                !
 ! A5    A(3,1,26)             107.956          estimate D2E/DX2                !
 ! A6    A(4,1,26)             114.1228         estimate D2E/DX2                !
 ! A7    A(1,4,5)              116.2382         estimate D2E/DX2                !
 ! A8    A(1,4,9)              120.2317         estimate D2E/DX2                !
 ! A9    A(5,4,9)              123.5209         estimate D2E/DX2                !
 ! A10   A(4,5,6)              111.835          estimate D2E/DX2                !
 ! A11   A(4,5,7)              111.7866         estimate D2E/DX2                !
 ! A12   A(4,5,8)              110.1261         estimate D2E/DX2                !
 ! A13   A(6,5,7)              106.3458         estimate D2E/DX2                !
 ! A14   A(6,5,8)              109.2259         estimate D2E/DX2                !
 ! A15   A(7,5,8)              107.3433         estimate D2E/DX2                !
 ! A16   A(4,9,10)             118.53           estimate D2E/DX2                !
 ! A17   A(4,9,11)             127.1604         estimate D2E/DX2                !
 ! A18   A(10,9,11)            114.3084         estimate D2E/DX2                !
 ! A19   A(9,11,12)            113.4963         estimate D2E/DX2                !
 ! A20   A(9,11,13)            109.6093         estimate D2E/DX2                !
 ! A21   A(9,11,14)            109.6954         estimate D2E/DX2                !
 ! A22   A(12,11,13)           107.6894         estimate D2E/DX2                !
 ! A23   A(12,11,14)           108.0235         estimate D2E/DX2                !
 ! A24   A(13,11,14)           108.1737         estimate D2E/DX2                !
 ! A25   A(16,15,17)           107.8937         estimate D2E/DX2                !
 ! A26   A(16,15,18)           107.4051         estimate D2E/DX2                !
 ! A27   A(16,15,19)           112.2276         estimate D2E/DX2                !
 ! A28   A(17,15,18)           108.6708         estimate D2E/DX2                !
 ! A29   A(17,15,19)           110.4852         estimate D2E/DX2                !
 ! A30   A(18,15,19)           110.0355         estimate D2E/DX2                !
 ! A31   A(15,19,20)           115.0603         estimate D2E/DX2                !
 ! A32   A(15,19,24)           120.7691         estimate D2E/DX2                !
 ! A33   A(20,19,24)           124.1396         estimate D2E/DX2                !
 ! A34   A(19,20,21)           112.6006         estimate D2E/DX2                !
 ! A35   A(19,20,22)           110.5885         estimate D2E/DX2                !
 ! A36   A(19,20,23)           110.0789         estimate D2E/DX2                !
 ! A37   A(21,20,22)           106.542          estimate D2E/DX2                !
 ! A38   A(21,20,23)           108.5254         estimate D2E/DX2                !
 ! A39   A(22,20,23)           108.3518         estimate D2E/DX2                !
 ! A40   A(19,24,25)           118.9238         estimate D2E/DX2                !
 ! A41   A(19,24,26)           126.8503         estimate D2E/DX2                !
 ! A42   A(25,24,26)           114.2175         estimate D2E/DX2                !
 ! A43   A(1,26,24)            113.3452         estimate D2E/DX2                !
 ! A44   A(1,26,27)            109.1476         estimate D2E/DX2                !
 ! A45   A(1,26,28)            109.9234         estimate D2E/DX2                !
 ! A46   A(24,26,27)           110.3923         estimate D2E/DX2                !
 ! A47   A(24,26,28)           108.3567         estimate D2E/DX2                !
 ! A48   A(27,26,28)           105.3693         estimate D2E/DX2                !
 ! D1    D(2,1,4,5)            -33.1593         estimate D2E/DX2                !
 ! D2    D(2,1,4,9)            145.779          estimate D2E/DX2                !
 ! D3    D(3,1,4,5)           -147.9199         estimate D2E/DX2                !
 ! D4    D(3,1,4,9)             31.0183         estimate D2E/DX2                !
 ! D5    D(26,1,4,5)            91.0788         estimate D2E/DX2                !
 ! D6    D(26,1,4,9)           -89.9829         estimate D2E/DX2                !
 ! D7    D(2,1,26,24)           60.9933         estimate D2E/DX2                !
 ! D8    D(2,1,26,27)          -62.4834         estimate D2E/DX2                !
 ! D9    D(2,1,26,28)         -177.588          estimate D2E/DX2                !
 ! D10   D(3,1,26,24)          175.4259         estimate D2E/DX2                !
 ! D11   D(3,1,26,27)           51.9491         estimate D2E/DX2                !
 ! D12   D(3,1,26,28)          -63.1555         estimate D2E/DX2                !
 ! D13   D(4,1,26,24)          -62.8122         estimate D2E/DX2                !
 ! D14   D(4,1,26,27)          173.711          estimate D2E/DX2                !
 ! D15   D(4,1,26,28)           58.6064         estimate D2E/DX2                !
 ! D16   D(1,4,5,6)           -141.8369         estimate D2E/DX2                !
 ! D17   D(1,4,5,7)            -22.7157         estimate D2E/DX2                !
 ! D18   D(1,4,5,8)             96.5184         estimate D2E/DX2                !
 ! D19   D(9,4,5,6)             39.2634         estimate D2E/DX2                !
 ! D20   D(9,4,5,7)            158.3846         estimate D2E/DX2                !
 ! D21   D(9,4,5,8)            -82.3812         estimate D2E/DX2                !
 ! D22   D(1,4,9,10)             0.7793         estimate D2E/DX2                !
 ! D23   D(1,4,9,11)          -178.8075         estimate D2E/DX2                !
 ! D24   D(5,4,9,10)           179.637          estimate D2E/DX2                !
 ! D25   D(5,4,9,11)             0.0502         estimate D2E/DX2                !
 ! D26   D(4,9,11,12)            1.1316         estimate D2E/DX2                !
 ! D27   D(4,9,11,13)          121.5699         estimate D2E/DX2                !
 ! D28   D(4,9,11,14)         -119.7966         estimate D2E/DX2                !
 ! D29   D(10,9,11,12)        -178.4701         estimate D2E/DX2                !
 ! D30   D(10,9,11,13)         -58.0318         estimate D2E/DX2                !
 ! D31   D(10,9,11,14)          60.6017         estimate D2E/DX2                !
 ! D32   D(16,15,19,20)        179.7902         estimate D2E/DX2                !
 ! D33   D(16,15,19,24)          1.7353         estimate D2E/DX2                !
 ! D34   D(17,15,19,20)        -59.746          estimate D2E/DX2                !
 ! D35   D(17,15,19,24)        122.1991         estimate D2E/DX2                !
 ! D36   D(18,15,19,20)         60.2535         estimate D2E/DX2                !
 ! D37   D(18,15,19,24)       -117.8014         estimate D2E/DX2                !
 ! D38   D(15,19,20,21)       -156.0776         estimate D2E/DX2                !
 ! D39   D(15,19,20,22)        -37.0117         estimate D2E/DX2                !
 ! D40   D(15,19,20,23)         82.6849         estimate D2E/DX2                !
 ! D41   D(24,19,20,21)         21.9031         estimate D2E/DX2                !
 ! D42   D(24,19,20,22)        140.969          estimate D2E/DX2                !
 ! D43   D(24,19,20,23)        -99.3344         estimate D2E/DX2                !
 ! D44   D(15,19,24,25)         -0.803          estimate D2E/DX2                !
 ! D45   D(15,19,24,26)        178.0748         estimate D2E/DX2                !
 ! D46   D(20,19,24,25)       -178.674          estimate D2E/DX2                !
 ! D47   D(20,19,24,26)          0.2038         estimate D2E/DX2                !
 ! D48   D(19,24,26,1)         -90.9802         estimate D2E/DX2                !
 ! D49   D(19,24,26,27)         31.8112         estimate D2E/DX2                !
 ! D50   D(19,24,26,28)        146.726          estimate D2E/DX2                !
 ! D51   D(25,24,26,1)          87.9427         estimate D2E/DX2                !
 ! D52   D(25,24,26,27)       -149.2659         estimate D2E/DX2                !
 ! D53   D(25,24,26,28)        -34.351          estimate D2E/DX2                !
 --------------------------------------------------------------------------------
 Trust Radius=3.00D-01 FncErr=1.00D-07 GrdErr=1.00D-07 EigMax=2.50D+02 EigMin=1.00D-04
 Number of steps in this run=    138 maximum allowed number of steps=    168.
 GradGradGradGradGradGradGradGradGradGradGradGradGradGradGradGradGradGrad

 Leave Link  103 at Fri Sep 17 20:09:25 2021, MaxMem=   524288000 cpu:               0.0 elap:               0.1
 (Enter /opt/gaussian/g16_legacy/l202.exe)
                          Input orientation:                          
 ---------------------------------------------------------------------
 Center     Atomic      Atomic             Coordinates (Angstroms)
 Number     Number       Type             X           Y           Z
 ---------------------------------------------------------------------
      1          6           0        2.211700    1.294300   -8.947500
      2          1           0        1.903600    0.300500   -9.297300
      3          1           0        2.057100    1.961900   -9.805600
      4          6           0        3.685400    1.271000   -8.588500
      5          6           0        4.213100   -0.022100   -8.025600
      6          1           0        4.944400    0.148800   -7.230100
      7          1           0        3.416000   -0.628800   -7.585900
      8          1           0        4.676000   -0.617000   -8.818900
      9          6           0        4.452500    2.360400   -8.797400
     10          1           0        3.986600    3.252800   -9.214700
     11          6           0        5.915300    2.499700   -8.526400
     12          1           0        6.374100    1.589400   -8.133300
     13          1           0        6.437300    2.762200   -9.452600
     14          1           0        6.081300    3.302700   -7.801700
     15          6           0        0.709800   -1.021100   -5.120500
     16          1           0        1.518200   -0.646700   -4.483100
     17          1           0       -0.208800   -1.032600   -4.526400
     18          1           0        0.961100   -2.050600   -5.397600
     19          6           0        0.526400   -0.184400   -6.357600
     20          6           0       -0.566100   -0.645600   -7.282300
     21          1           0       -0.413600   -0.311700   -8.312500
     22          1           0       -0.609100   -1.739600   -7.312200
     23          1           0       -1.534400   -0.272100   -6.935500
     24          6           0        1.329100    0.867400   -6.602500
     25          1           0        2.109400    1.114100   -5.882300
     26          6           0        1.294800    1.767300   -7.807800
     27          1           0        0.270000    1.860500   -8.185900
     28          1           0        1.581700    2.779100   -7.492200
 ---------------------------------------------------------------------
                    Distance matrix (angstroms):
                    1          2          3          4          5
     1  C    0.000000
     2  H    1.097690   0.000000
     3  H    1.098147   1.744185   0.000000
     4  C    1.516976   2.149204   2.147099   0.000000
     5  C    2.566790   2.656140   3.428264   1.505799   0.000000
     6  H    3.424804   3.680053   4.272825   2.165563   1.093996
     7  H    2.646244   2.465734   3.672248   2.164953   1.093979
     8  H    3.121279   2.959202   3.805646   2.144508   1.094307
     9  C    2.486018   3.315114   2.629299   1.348656   2.515809
    10  H    2.656575   3.614109   2.395528   2.100090   3.491451
    11  C    3.917521   4.639451   4.100157   2.546765   3.083466
    12  H    4.251538   4.795991   4.644549   2.745486   2.697861
    13  H    4.501728   5.161252   4.466681   3.247045   3.838713
    14  H    4.507808   5.357537   4.691220   3.238394   3.820288
    15  C    4.718338   4.540643   5.715214   5.112235   4.659476
    16  H    4.917244   4.921610   5.951824   5.022812   4.494654
    17  H    5.551523   5.385246   6.478525   6.080462   5.728762
    18  H    5.035290   4.650122   6.060680   5.351325   4.647225
    19  C    3.425547   3.282323   4.340317   4.132116   4.049731
    20  C    3.775219   3.324868   4.477419   4.843012   4.876679
    21  H    3.142397   2.591146   3.674638   4.402603   4.644624
    22  H    4.453725   3.796879   5.198728   5.397720   5.168400
    23  H    4.531558   4.210204   5.111468   5.688574   5.855303
    24  C    2.541702   2.813072   3.462335   3.107932   3.336747
    25  H    3.072196   3.516607   4.014198   3.135588   3.210956
    26  C    1.537319   2.177326   2.147132   2.563352   3.430141
    27  H    2.161207   2.517431   2.414008   3.489205   4.372404
    28  H    2.172425   3.083093   2.499128   2.811013   3.880142
                    6          7          8          9         10
     6  H    0.000000
     7  H    1.751360   0.000000
     8  H    1.784033   1.762960   0.000000
     9  C    2.754917   3.387828   2.985854   0.000000
    10  H    3.806683   4.247987   3.950605   1.089761   0.000000
    11  C    2.854780   4.113217   3.366785   1.494199   2.181926
    12  H    2.221518   3.737702   2.867367   2.174400   3.104268
    13  H    3.741406   4.910367   3.862997   2.128418   2.510620
    14  H    3.400934   4.754691   4.286445   2.128929   2.527217
    15  C    4.873491   3.681795   5.438033   6.241950   6.765066
    16  H    4.462922   3.637215   5.363930   6.022122   6.609625
    17  H    5.938112   4.760543   6.516099   7.175068   7.612240
    18  H    4.905313   3.582835   5.249856   6.573084   7.200691
    19  C    4.515640   3.171120   4.843998   5.276636   5.652464
    20  C    5.567711   3.993692   5.462744   6.043005   6.297521
    21  H    5.485601   3.910797   5.123834   5.572627   5.734229
    22  H    5.866358   4.184521   5.609158   6.680989   7.047271
    23  H    6.499138   5.005668   6.498863   6.799978   6.935497
    24  C    3.739072   2.749698   4.279908   4.099056   4.424481
    25  H    3.284143   2.765349   4.267055   3.942232   4.382101
    26  C    4.033963   3.207807   4.259075   3.361866   3.381104
    27  H    5.068874   4.056344   5.094265   4.256423   4.100005
    28  H    4.277257   3.871333   4.782083   3.181250   2.995821
                   11         12         13         14         15
    11  C    0.000000
    12  H    1.092553   0.000000
    13  H    1.095097   1.766354   0.000000
    14  H    1.094329   1.769488   1.773231   0.000000
    15  C    7.147966   6.926469   8.116939   7.398452   0.000000
    16  H    6.751488   6.473320   7.779079   6.887144   1.095429
    17  H    8.122915   7.951049   9.101571   8.311906   1.094035
    18  H    7.418808   7.073487   8.342352   7.788066   1.095357
    19  C    6.399088   6.363574   7.293848   6.715818   1.504699
    20  C    7.310899   7.340695   8.085228   7.748985   2.538169
    21  H    6.928542   7.051182   7.594967   7.450405   3.457476
    22  H    7.874880   7.779558   8.631296   8.392011   2.656932
    23  H    8.106286   8.212447   8.893299   8.457445   2.981889
    24  C    5.234408   5.321340   6.148743   5.472858   2.479171
    25  H    4.836944   4.845676   5.847563   4.924435   2.664263
    26  C    4.733056   5.092827   5.490036   5.026736   3.916501
    27  H    5.691566   6.110344   6.360282   5.999897   4.230097
    28  H    4.464048   4.979306   5.236440   4.540523   4.563627
                   16         17         18         19         20
    16  H    0.000000
    17  H    1.770119   0.000000
    18  H    1.765674   1.778758   0.000000
    19  C    2.170516   2.147849   2.143191   0.000000
    20  C    3.489961   2.805783   2.803294   1.503773   0.000000
    21  H    4.302137   3.859559   3.661996   2.172887   1.093644
    22  H    3.704543   2.901856   2.495585   2.149248   1.095253
    23  H    3.933568   2.852953   3.428661   2.142092   1.094247
    24  C    2.611535   3.207075   3.178354   1.345580   2.518547
    25  H    2.325445   3.438144   3.401302   2.101880   3.494974
    26  C    4.114722   4.568133   4.527337   2.550030   3.092117
    27  H    4.642713   4.689479   4.852725   2.755002   2.792149
    28  H    4.560134   5.150817   5.300801   3.344145   4.047922
                   21         22         23         24         25
    21  H    0.000000
    22  H    1.754343   0.000000
    23  H    1.775919   1.775286   0.000000
    24  C    2.711343   3.325168   3.099836   0.000000
    25  H    3.782103   4.192667   4.038324   1.090145   0.000000
    26  C    2.737808   4.021045   3.595057   1.504575   2.190387
    27  H    2.280743   3.807478   3.060611   2.148277   3.040901
    28  H    3.769238   5.025003   4.396569   2.123669   2.375388
                   26         27         28
    26  C    0.000000
    27  H    1.096294   0.000000
    28  H    1.098023   1.745165   0.000000
 Stoichiometry    C10H18
 Framework group  C1[X(C10H18)]
 Deg. of freedom    78
 Full point group                 C1      NOp   1
 Largest Abelian subgroup         C1      NOp   1
 Largest concise Abelian subgroup C1      NOp   1
                         Standard orientation:                         
 ---------------------------------------------------------------------
 Center     Atomic      Atomic             Coordinates (Angstroms)
 Number     Number       Type             X           Y           Z
 ---------------------------------------------------------------------
      1          6           0        0.615970   -1.221796    0.508619
      2          1           0        0.080021   -1.110327    1.460070
      3          1           0        1.116964   -2.196860    0.573291
      4          6           0        1.659826   -0.128197    0.383632
      5          6           0        1.311708    1.198542    1.004928
      6          1           0        1.662294    2.037328    0.396360
      7          1           0        0.230368    1.325946    1.111054
      8          1           0        1.748583    1.271945    2.005558
      9          6           0        2.831414   -0.375485   -0.236936
     10          1           0        3.000529   -1.368316   -0.653189
     11          6           0        3.970913    0.572576   -0.424951
     12          1           0        3.798001    1.555209    0.020252
     13          1           0        4.875144    0.155329    0.030581
     14          1           0        4.160889    0.713618   -1.493394
     15          6           0       -3.114622    1.515193   -0.415656
     16          1           0       -2.551591    2.194173   -1.065232
     17          1           0       -4.101539    1.363516   -0.862759
     18          1           0       -3.240544    2.015438    0.550629
     19          6           0       -2.414059    0.197055   -0.226336
     20          6           0       -3.130654   -0.783552    0.660362
     21          1           0       -2.454562   -1.517550    1.107803
     22          1           0       -3.621367   -0.264705    1.490770
     23          1           0       -3.895028   -1.318282    0.088371
     24          6           0       -1.215330   -0.032983   -0.792655
     25          1           0       -0.762621    0.747676   -1.404246
     26          6           0       -0.379333   -1.277052   -0.661710
     27          1           0       -1.021242   -2.158272   -0.546542
     28          1           0        0.160694   -1.431679   -1.605169
 ---------------------------------------------------------------------
 Rotational constants (GHZ):           2.5469636           0.5799994           0.5339947
 Leave Link  202 at Fri Sep 17 20:09:25 2021, MaxMem=   524288000 cpu:               0.0 elap:               0.1
 (Enter /opt/gaussian/g16_legacy/l301.exe)
 Standard basis: 6-31G(d,p) (6D, 7F)
 Ernie: Thresh=  0.10000D-02 Tol=  0.10000D-05 Strict=F.
 There are   240 symmetry adapted cartesian basis functions of A   symmetry.
 There are   240 symmetry adapted basis functions of A   symmetry.
   240 basis functions,   406 primitive gaussians,   240 cartesian basis functions
    39 alpha electrons       39 beta electrons
       nuclear repulsion energy       523.6667374816 Hartrees.
 IExCor=    0 DFT=F Ex=HF Corr=None ExCW=0 ScaHFX=  1.000000
 ScaDFX=  1.000000  1.000000  1.000000  1.000000 ScalE2=  1.000000  1.000000
 IRadAn=      5 IRanWt=     -1 IRanGd=            0 ICorTp=0 IEmpDi=  4
 NAtoms=   28 NActive=   28 NUniq=   28 SFac= 1.00D+00 NAtFMM=   60 NAOKFM=F Big=F
 Integral buffers will be    131072 words long.
 Raffenetti 1 integral format.
 Two-electron integral symmetry is turned on.
 Leave Link  301 at Fri Sep 17 20:09:26 2021, MaxMem=   524288000 cpu:               0.0 elap:               0.1
 (Enter /opt/gaussian/g16_legacy/l302.exe)
 NPDir=0 NMtPBC=     1 NCelOv=     1 NCel=       1 NClECP=     1 NCelD=      1
         NCelK=      1 NCelE2=     1 NClLst=     1 CellRange=     0.0.
 One-electron integrals computed using PRISM.
 One-electron integral symmetry used in STVInt
 NBasis=   240 RedAO= T EigKep=  2.30D-03  NBF=   240
 NBsUse=   240 1.00D-06 EigRej= -1.00D+00 NBFU=   240
 Leave Link  302 at Fri Sep 17 20:09:26 2021, MaxMem=   524288000 cpu:               0.2 elap:               0.3
 (Enter /opt/gaussian/g16_legacy/l303.exe)
 DipDrv:  MaxL=1.
 Leave Link  303 at Fri Sep 17 20:09:26 2021, MaxMem=   524288000 cpu:               0.0 elap:               0.2
 (Enter /opt/gaussian/g16_legacy/l401.exe)
 ExpMin= 1.61D-01 ExpMax= 3.05D+03 ExpMxC= 4.57D+02 IAcc=3 IRadAn=         5 AccDes= 0.00D+00
 Harris functional with IExCor=  205 and IRadAn=       5 diagonalized for initial guess.
 HarFok:  IExCor=  205 AccDes= 0.00D+00 IRadAn=         5 IDoV= 1 UseB2=F ITyADJ=14
 ICtDFT=  3500011 ScaDFX=  1.000000  1.000000  1.000000  1.000000
 FoFCou: FMM=F IPFlag=           0 FMFlag=      100000 FMFlg1=           0
         NFxFlg=           0 DoJE=T BraDBF=F KetDBF=T FulRan=T
         wScrn=  0.000000 ICntrl=       500 IOpCl=  0 I1Cent=   200000004 NGrid=           0
         NMat0=    1 NMatS0=      1 NMatT0=    0 NMatD0=    1 NMtDS0=    0 NMtDT0=    0
 Petite list used in FoFCou.
 Harris En= -390.109186923227    
 JPrj=0 DoOrth=F DoCkMO=F.
 Leave Link  401 at Fri Sep 17 20:09:33 2021, MaxMem=   524288000 cpu:               6.4 elap:               6.6
 (Enter /opt/gaussian/g16_legacy/l502.exe)
 Keep R1 ints in memory in canonical form, NReq=425198025.
 FoFCou: FMM=F IPFlag=           0 FMFlag=           0 FMFlg1=           0
         NFxFlg=           0 DoJE=F BraDBF=F KetDBF=F FulRan=T
         wScrn=  0.000000 ICntrl=       600 IOpCl=  0 I1Cent=           0 NGrid=           0
         NMat0=    1 NMatS0=  28920 NMatT0=    0 NMatD0=    1 NMtDS0=    0 NMtDT0=    0
 Symmetry not used in FoFCou.
 Two-electron integral symmetry not used.
 Closed shell SCF:
 Using DIIS extrapolation, IDIIS=  1040.
 NGot=   524288000 LenX=   105970886 LenY=   105912845
 Requested convergence on RMS density matrix=1.00D-08 within 128 cycles.
 Requested convergence on MAX density matrix=1.00D-06.
 Requested convergence on             energy=1.00D-06.
 No special actions if energy rises.

 Cycle   1  Pass 1  IDiag  1:
 E= -388.525990725505    
 DIIS: error= 5.56D-02 at cycle   1 NSaved=   1.
 NSaved= 1 IEnMin= 1 EnMin= -388.525990725505     IErMin= 1 ErrMin= 5.56D-02
 ErrMax= 5.56D-02  0.00D+00 EMaxC= 1.00D-01 BMatC= 8.11D-01 BMatP= 8.11D-01
 IDIUse=3 WtCom= 4.44D-01 WtEn= 5.56D-01
 Coeff-Com:  0.100D+01
 Coeff-En:   0.100D+01
 Coeff:      0.100D+01
 Gap=     0.510 Goal=   None    Shift=    0.000
 GapD=    0.510 DampG=2.000 DampE=0.500 DampFc=1.0000 IDamp=-1.
 RMSDP=4.03D-03 MaxDP=1.15D-01              OVMax= 1.34D-01

 Cycle   2  Pass 1  IDiag  1:
 E= -389.064520187058     Delta-E=       -0.538529461552 Rises=F Damp=F
 DIIS: error= 1.50D-02 at cycle   2 NSaved=   2.
 NSaved= 2 IEnMin= 2 EnMin= -389.064520187058     IErMin= 2 ErrMin= 1.50D-02
 ErrMax= 1.50D-02  0.00D+00 EMaxC= 1.00D-01 BMatC= 9.13D-02 BMatP= 8.11D-01
 IDIUse=3 WtCom= 8.50D-01 WtEn= 1.50D-01
 Coeff-Com:  0.188D+00 0.812D+00
 Coeff-En:   0.000D+00 0.100D+01
 Coeff:      0.160D+00 0.840D+00
 Gap=     0.544 Goal=   None    Shift=    0.000
 RMSDP=1.76D-03 MaxDP=3.02D-02 DE=-5.39D-01 OVMax= 4.81D-02

 Cycle   3  Pass 1  IDiag  1:
 E= -389.146251997848     Delta-E=       -0.081731810791 Rises=F Damp=F
 DIIS: error= 2.56D-03 at cycle   3 NSaved=   3.
 NSaved= 3 IEnMin= 3 EnMin= -389.146251997848     IErMin= 3 ErrMin= 2.56D-03
 ErrMax= 2.56D-03  0.00D+00 EMaxC= 1.00D-01 BMatC= 3.75D-03 BMatP= 9.13D-02
 IDIUse=3 WtCom= 9.74D-01 WtEn= 2.56D-02
 Coeff-Com: -0.230D-01 0.117D+00 0.906D+00
 Coeff-En:   0.000D+00 0.000D+00 0.100D+01
 Coeff:     -0.224D-01 0.114D+00 0.909D+00
 Gap=     0.491 Goal=   None    Shift=    0.000
 RMSDP=2.95D-04 MaxDP=7.45D-03 DE=-8.17D-02 OVMax= 1.26D-02

 Cycle   4  Pass 1  IDiag  1:
 E= -389.150416877392     Delta-E=       -0.004164879544 Rises=F Damp=F
 DIIS: error= 5.31D-04 at cycle   4 NSaved=   4.
 NSaved= 4 IEnMin= 4 EnMin= -389.150416877392     IErMin= 4 ErrMin= 5.31D-04
 ErrMax= 5.31D-04  0.00D+00 EMaxC= 1.00D-01 BMatC= 1.75D-04 BMatP= 3.75D-03
 IDIUse=3 WtCom= 9.95D-01 WtEn= 5.31D-03
 Coeff-Com: -0.717D-02 0.969D-02 0.190D+00 0.808D+00
 Coeff-En:   0.000D+00 0.000D+00 0.000D+00 0.100D+01
 Coeff:     -0.713D-02 0.963D-02 0.189D+00 0.809D+00
 Gap=     0.490 Goal=   None    Shift=    0.000
 RMSDP=8.91D-05 MaxDP=2.33D-03 DE=-4.16D-03 OVMax= 4.98D-03

 Cycle   5  Pass 1  IDiag  1:
 E= -389.150613468948     Delta-E=       -0.000196591555 Rises=F Damp=F
 DIIS: error= 1.94D-04 at cycle   5 NSaved=   5.
 NSaved= 5 IEnMin= 5 EnMin= -389.150613468948     IErMin= 5 ErrMin= 1.94D-04
 ErrMax= 1.94D-04  0.00D+00 EMaxC= 1.00D-01 BMatC= 2.34D-05 BMatP= 1.75D-04
 IDIUse=3 WtCom= 9.98D-01 WtEn= 1.94D-03
 Coeff-Com:  0.185D-02-0.149D-01-0.869D-01 0.150D+00 0.950D+00
 Coeff-En:   0.000D+00 0.000D+00 0.000D+00 0.000D+00 0.100D+01
 Coeff:      0.184D-02-0.148D-01-0.867D-01 0.150D+00 0.950D+00
 Gap=     0.491 Goal=   None    Shift=    0.000
 RMSDP=3.58D-05 MaxDP=8.11D-04 DE=-1.97D-04 OVMax= 1.71D-03

 Cycle   6  Pass 1  IDiag  1:
 E= -389.150646223644     Delta-E=       -0.000032754696 Rises=F Damp=F
 DIIS: error= 4.53D-05 at cycle   6 NSaved=   6.
 NSaved= 6 IEnMin= 6 EnMin= -389.150646223644     IErMin= 6 ErrMin= 4.53D-05
 ErrMax= 4.53D-05  0.00D+00 EMaxC= 1.00D-01 BMatC= 1.01D-06 BMatP= 2.34D-05
 IDIUse=1 WtCom= 1.00D+00 WtEn= 0.00D+00
 Coeff-Com:  0.841D-03-0.383D-02-0.294D-01-0.272D-01 0.161D+00 0.899D+00
 Coeff:      0.841D-03-0.383D-02-0.294D-01-0.272D-01 0.161D+00 0.899D+00
 Gap=     0.491 Goal=   None    Shift=    0.000
 RMSDP=7.95D-06 MaxDP=2.03D-04 DE=-3.28D-05 OVMax= 3.57D-04

 Cycle   7  Pass 1  IDiag  1:
 E= -389.150647761804     Delta-E=       -0.000001538161 Rises=F Damp=F
 DIIS: error= 1.07D-05 at cycle   7 NSaved=   7.
 NSaved= 7 IEnMin= 7 EnMin= -389.150647761804     IErMin= 7 ErrMin= 1.07D-05
 ErrMax= 1.07D-05  0.00D+00 EMaxC= 1.00D-01 BMatC= 4.06D-08 BMatP= 1.01D-06
 IDIUse=1 WtCom= 1.00D+00 WtEn= 0.00D+00
 Coeff-Com: -0.881D-06 0.213D-03 0.116D-02-0.687D-02-0.269D-01 0.589D-01
 Coeff-Com:  0.973D+00
 Coeff:     -0.881D-06 0.213D-03 0.116D-02-0.687D-02-0.269D-01 0.589D-01
 Coeff:      0.973D+00
 Gap=     0.491 Goal=   None    Shift=    0.000
 RMSDP=1.81D-06 MaxDP=5.18D-05 DE=-1.54D-06 OVMax= 1.50D-04

 Cycle   8  Pass 1  IDiag  1:
 E= -389.150647861960     Delta-E=       -0.000000100156 Rises=F Damp=F
 DIIS: error= 4.07D-06 at cycle   8 NSaved=   8.
 NSaved= 8 IEnMin= 8 EnMin= -389.150647861960     IErMin= 8 ErrMin= 4.07D-06
 ErrMax= 4.07D-06  0.00D+00 EMaxC= 1.00D-01 BMatC= 1.07D-08 BMatP= 4.06D-08
 IDIUse=1 WtCom= 1.00D+00 WtEn= 0.00D+00
 Coeff-Com: -0.942D-04 0.444D-03 0.350D-02 0.341D-02-0.223D-01-0.108D+00
 Coeff-Com:  0.130D+00 0.993D+00
 Coeff:     -0.942D-04 0.444D-03 0.350D-02 0.341D-02-0.223D-01-0.108D+00
 Coeff:      0.130D+00 0.993D+00
 Gap=     0.491 Goal=   None    Shift=    0.000
 RMSDP=8.83D-07 MaxDP=2.22D-05 DE=-1.00D-07 OVMax= 4.89D-05

 Cycle   9  Pass 1  IDiag  1:
 E= -389.150647884092     Delta-E=       -0.000000022132 Rises=F Damp=F
 DIIS: error= 1.74D-06 at cycle   9 NSaved=   9.
 NSaved= 9 IEnMin= 9 EnMin= -389.150647884092     IErMin= 9 ErrMin= 1.74D-06
 ErrMax= 1.74D-06  0.00D+00 EMaxC= 1.00D-01 BMatC= 1.05D-09 BMatP= 1.07D-08
 IDIUse=1 WtCom= 1.00D+00 WtEn= 0.00D+00
 Coeff-Com: -0.751D-05 0.475D-05 0.112D-03 0.161D-02 0.155D-02-0.180D-01
 Coeff-Com: -0.825D-01-0.384D-01 0.114D+01
 Coeff:     -0.751D-05 0.475D-05 0.112D-03 0.161D-02 0.155D-02-0.180D-01
 Coeff:     -0.825D-01-0.384D-01 0.114D+01
 Gap=     0.491 Goal=   None    Shift=    0.000
 RMSDP=3.71D-07 MaxDP=1.24D-05 DE=-2.21D-08 OVMax= 3.97D-05

 Cycle  10  Pass 1  IDiag  1:
 E= -389.150647888397     Delta-E=       -0.000000004306 Rises=F Damp=F
 DIIS: error= 6.33D-07 at cycle  10 NSaved=  10.
 NSaved=10 IEnMin=10 EnMin= -389.150647888397     IErMin=10 ErrMin= 6.33D-07
 ErrMax= 6.33D-07  0.00D+00 EMaxC= 1.00D-01 BMatC= 2.99D-10 BMatP= 1.05D-09
 IDIUse=1 WtCom= 1.00D+00 WtEn= 0.00D+00
 Coeff-Com:  0.140D-04-0.706D-04-0.550D-03-0.334D-03 0.338D-02 0.157D-01
 Coeff-Com: -0.113D-01-0.234D+00 0.142D+00 0.109D+01
 Coeff:      0.140D-04-0.706D-04-0.550D-03-0.334D-03 0.338D-02 0.157D-01
 Coeff:     -0.113D-01-0.234D+00 0.142D+00 0.109D+01
 Gap=     0.491 Goal=   None    Shift=    0.000
 RMSDP=1.89D-07 MaxDP=4.79D-06 DE=-4.31D-09 OVMax= 1.37D-05

 Cycle  11  Pass 1  IDiag  1:
 E= -389.150647889132     Delta-E=       -0.000000000735 Rises=F Damp=F
 DIIS: error= 1.72D-07 at cycle  11 NSaved=  11.
 NSaved=11 IEnMin=11 EnMin= -389.150647889132     IErMin=11 ErrMin= 1.72D-07
 ErrMax= 1.72D-07  0.00D+00 EMaxC= 1.00D-01 BMatC= 1.20D-11 BMatP= 2.99D-10
 IDIUse=1 WtCom= 1.00D+00 WtEn= 0.00D+00
 Coeff-Com:  0.123D-05-0.305D-05-0.285D-04-0.151D-03-0.148D-03 0.224D-02
 Coeff-Com:  0.123D-01-0.132D-01-0.851D-01 0.332D-02 0.108D+01
 Coeff:      0.123D-05-0.305D-05-0.285D-04-0.151D-03-0.148D-03 0.224D-02
 Coeff:      0.123D-01-0.132D-01-0.851D-01 0.332D-02 0.108D+01
 Gap=     0.491 Goal=   None    Shift=    0.000
 RMSDP=4.01D-08 MaxDP=9.80D-07 DE=-7.35D-10 OVMax= 3.49D-06

 Cycle  12  Pass 1  IDiag  1:
 E= -389.150647889174     Delta-E=       -0.000000000042 Rises=F Damp=F
 DIIS: error= 3.50D-08 at cycle  12 NSaved=  12.
 NSaved=12 IEnMin=12 EnMin= -389.150647889174     IErMin=12 ErrMin= 3.50D-08
 ErrMax= 3.50D-08  0.00D+00 EMaxC= 1.00D-01 BMatC= 9.73D-13 BMatP= 1.20D-11
 IDIUse=1 WtCom= 1.00D+00 WtEn= 0.00D+00
 Coeff-Com: -0.105D-05 0.550D-05 0.429D-04 0.334D-04-0.281D-03-0.129D-02
 Coeff-Com:  0.101D-02 0.165D-01-0.654D-02-0.949D-01-0.206D-01 0.111D+01
 Coeff:     -0.105D-05 0.550D-05 0.429D-04 0.334D-04-0.281D-03-0.129D-02
 Coeff:      0.101D-02 0.165D-01-0.654D-02-0.949D-01-0.206D-01 0.111D+01
 Gap=     0.491 Goal=   None    Shift=    0.000
 RMSDP=1.17D-08 MaxDP=2.15D-07 DE=-4.18D-11 OVMax= 8.21D-07

 Cycle  13  Pass 1  IDiag  1:
 E= -389.150647889177     Delta-E=       -0.000000000003 Rises=F Damp=F
 DIIS: error= 8.95D-09 at cycle  13 NSaved=  13.
 NSaved=13 IEnMin=13 EnMin= -389.150647889177     IErMin=13 ErrMin= 8.95D-09
 ErrMax= 8.95D-09  0.00D+00 EMaxC= 1.00D-01 BMatC= 4.94D-14 BMatP= 9.73D-13
 IDIUse=1 WtCom= 1.00D+00 WtEn= 0.00D+00
 Coeff-Com: -0.125D-06 0.493D-06 0.394D-05 0.127D-04-0.104D-04-0.201D-03
 Coeff-Com: -0.646D-03 0.153D-02 0.575D-02-0.565D-02-0.677D-01 0.725D-01
 Coeff-Com:  0.994D+00
 Coeff:     -0.125D-06 0.493D-06 0.394D-05 0.127D-04-0.104D-04-0.201D-03
 Coeff:     -0.646D-03 0.153D-02 0.575D-02-0.565D-02-0.677D-01 0.725D-01
 Coeff:      0.994D+00
 Gap=     0.491 Goal=   None    Shift=    0.000
 RMSDP=2.17D-09 MaxDP=5.27D-08 DE=-3.30D-12 OVMax= 9.73D-08

 SCF Done:  E(RHF) =  -389.150647889     A.U. after   13 cycles
            NFock= 13  Conv=0.22D-08     -V/T= 2.0013
 KE= 3.886449114808D+02 PE=-1.952087602885D+03 EE= 6.506253060336D+02
 Leave Link  502 at Fri Sep 17 20:09:56 2021, MaxMem=   524288000 cpu:              22.9 elap:              23.1
 (Enter /opt/gaussian/g16_legacy/l801.exe)
 ExpMin= 1.61D-01 ExpMax= 3.05D+03 ExpMxC= 4.57D+02 IAcc=3 IRadAn=         5 AccDes= 0.00D+00
 HarFok:  IExCor=  205 AccDes= 0.00D+00 IRadAn=         5 IDoV=-2 UseB2=F ITyADJ=14
 ICtDFT= 12500011 ScaDFX=  1.000000  1.000000  1.000000  1.000000
 Largest valence mixing into a core orbital is  1.98D-04
 Largest core mixing into a valence orbital is  3.53D-05
 Range of M.O.s used for correlation:    11   240
 NBasis=   240 NAE=    39 NBE=    39 NFC=    10 NFV=     0
 NROrb=    230 NOA=    29 NOB=    29 NVA=   201 NVB=   201
 Leave Link  801 at Fri Sep 17 20:09:57 2021, MaxMem=   524288000 cpu:               0.9 elap:               0.9
 (Enter /opt/gaussian/g16_legacy/l906.exe)
 Frozen-core derivative calculation, NFC=  10 NFV=   0.
 FulOut=F Deriv=T AODrv=T NAtomX=    28
   MMem=          86  MDisk=          29 MDiskD=          29
  W3Min=     2246400 MinDsk=     2795480 NBas6D=         240
 NBas2D=       29244    NTT=       28920    LW2=     2040000
    MDV=   523623330 MDiskM=       30186 NBas2p=       24839
 Fully direct method using O(ONN) memory.
 IMap=   1   2   3   4   5   6   7   8   9  10  11  12  13  14  15  16  17  18  19  20
 IMap=  21  22  23  24  25  26  27  28  29  30  31  32  33  34  35  36  37  38  39
 JobTyp=1 Pass  1:  I=  11 to  39 NPSUse=  1 ParTrn=F ParDer=F DoDerP=T.
 Spin components of T(2) and E(2):
     alpha-alpha T2 =       0.5731737593D-01 E2=     -0.1641915985D+00
     alpha-beta  T2 =       0.3624884020D+00 E2=     -0.1090622716D+01
     beta-beta   T2 =       0.5731737593D-01 E2=     -0.1641915985D+00
 The integrals were generated   1 times.
 ANorm=    0.1215369554D+01
 E2 =    -0.1419005913D+01 EUMP2 =    -0.39056965380228D+03
 Leave Link  906 at Fri Sep 17 20:12:51 2021, MaxMem=   524288000 cpu:             173.8 elap:             173.9
 (Enter /opt/gaussian/g16_legacy/l1002.exe)
 Minotr:  Closed shell wavefunction.
          Computing MP2/KS-MP2 derivatives.
          Using Z-Vector for PSCF gradient.
          Skipping F1 and S1 gradient terms here.
          IDoAtm=1111111111111111111111111111
          Frozen-core window.
          Direct CPHF calculation.
          Differentiating once with respect to electric field.
                with respect to dipole field.
          Differentiating once with respect to nuclear coordinates.
          Requested convergence is 1.0D-10 RMS, and 1.0D-09 maximum.
          NewPWx=F KeepS1=T KeepF1=T KeepIn=T MapXYZ=F SortEE=F KeepMc=T.
 Keep R1 ints in memory in canonical form, NReq=425201067.
 FoFCou: FMM=F IPFlag=           0 FMFlag=           0 FMFlg1=           0
         NFxFlg=           0 DoJE=F BraDBF=F KetDBF=F FulRan=T
         wScrn=  0.000000 ICntrl=       600 IOpCl=  0 I1Cent=           0 NGrid=           0
         NMat0=    1 NMatS0=  28920 NMatT0=    0 NMatD0=    1 NMtDS0=    0 NMtDT0=    0
 Symmetry not used in FoFCou.
 Two-electron integral symmetry not used.
          MDV=     524288000 using IRadAn=       5.
          Solving linear equations separately, MaxMat=       0.
          There are     1 degrees of freedom in the 1st order CPHF.  IDoFFX=0 NUNeed=     1.
 LinEq1:  Iter=  0 NonCon=     1 RMS=2.53D-03 Max=3.37D-02 NDo=     1
 AX will form     1 AO Fock derivatives at one time.
 LinEq1:  Iter=  1 NonCon=     1 RMS=6.95D-04 Max=1.04D-02 NDo=     1
 LinEq1:  Iter=  2 NonCon=     1 RMS=1.71D-04 Max=4.30D-03 NDo=     1
 LinEq1:  Iter=  3 NonCon=     1 RMS=4.67D-05 Max=1.03D-03 NDo=     1
 LinEq1:  Iter=  4 NonCon=     1 RMS=2.11D-05 Max=8.62D-04 NDo=     1
 LinEq1:  Iter=  5 NonCon=     1 RMS=5.87D-06 Max=1.50D-04 NDo=     1
 LinEq1:  Iter=  6 NonCon=     1 RMS=1.87D-06 Max=5.63D-05 NDo=     1
 LinEq1:  Iter=  7 NonCon=     1 RMS=6.76D-07 Max=1.47D-05 NDo=     1
 LinEq1:  Iter=  8 NonCon=     1 RMS=2.05D-07 Max=2.75D-06 NDo=     1
 LinEq1:  Iter=  9 NonCon=     1 RMS=5.48D-08 Max=7.29D-07 NDo=     1
 LinEq1:  Iter= 10 NonCon=     1 RMS=1.48D-08 Max=3.08D-07 NDo=     1
 LinEq1:  Iter= 11 NonCon=     1 RMS=3.84D-09 Max=7.02D-08 NDo=     1
 LinEq1:  Iter= 12 NonCon=     1 RMS=1.08D-09 Max=1.63D-08 NDo=     1
 LinEq1:  Iter= 13 NonCon=     1 RMS=3.11D-10 Max=5.76D-09 NDo=     1
 LinEq1:  Iter= 14 NonCon=     0 RMS=7.90D-11 Max=9.95D-10 NDo=     1
 Linear equations converged to 1.000D-10 1.000D-09 after    14 iterations.
 End of Minotr F.D. properties file   721 does not exist.
 End of Minotr F.D. properties file   722 does not exist.
 End of Minotr F.D. properties file   788 does not exist.
 Leave Link 1002 at Fri Sep 17 20:13:13 2021, MaxMem=   524288000 cpu:              21.9 elap:              21.9
 (Enter /opt/gaussian/g16_legacy/l601.exe)
 Copying SCF densities to generalized density rwf, IOpCl= 0 IROHF=0.

 **********************************************************************

            Population analysis using the SCF density.

 **********************************************************************

 Orbital symmetries:
       Occupied  (A) (A) (A) (A) (A) (A) (A) (A) (A) (A) (A) (A)
                 (A) (A) (A) (A) (A) (A) (A) (A) (A) (A) (A) (A)
                 (A) (A) (A) (A) (A) (A) (A) (A) (A) (A) (A) (A)
                 (A) (A) (A)
       Virtual   (A) (A) (A) (A) (A) (A) (A) (A) (A) (A) (A) (A)
                 (A) (A) (A) (A) (A) (A) (A) (A) (A) (A) (A) (A)
                 (A) (A) (A) (A) (A) (A) (A) (A) (A) (A) (A) (A)
                 (A) (A) (A) (A) (A) (A) (A) (A) (A) (A) (A) (A)
                 (A) (A) (A) (A) (A) (A) (A) (A) (A) (A) (A) (A)
                 (A) (A) (A) (A) (A) (A) (A) (A) (A) (A) (A) (A)
                 (A) (A) (A) (A) (A) (A) (A) (A) (A) (A) (A) (A)
                 (A) (A) (A) (A) (A) (A) (A) (A) (A) (A) (A) (A)
                 (A) (A) (A) (A) (A) (A) (A) (A) (A) (A) (A) (A)
                 (A) (A) (A) (A) (A) (A) (A) (A) (A) (A) (A) (A)
                 (A) (A) (A) (A) (A) (A) (A) (A) (A) (A) (A) (A)
                 (A) (A) (A) (A) (A) (A) (A) (A) (A) (A) (A) (A)
                 (A) (A) (A) (A) (A) (A) (A) (A) (A) (A) (A) (A)
                 (A) (A) (A) (A) (A) (A) (A) (A) (A) (A) (A) (A)
                 (A) (A) (A) (A) (A) (A) (A) (A) (A) (A) (A) (A)
                 (A) (A) (A) (A) (A) (A) (A) (A) (A) (A) (A) (A)
                 (A) (A) (A) (A) (A) (A) (A) (A) (A)
 The electronic state is 1-A.
 Alpha  occ. eigenvalues --  -11.22906 -11.22394 -11.21853 -11.21846 -11.21794
 Alpha  occ. eigenvalues --  -11.21650 -11.21364 -11.21270 -11.21214 -11.21094
 Alpha  occ. eigenvalues --   -1.10587  -1.08128  -1.01878  -0.97070  -0.93690
 Alpha  occ. eigenvalues --   -0.92325  -0.87222  -0.81806  -0.70800  -0.68650
 Alpha  occ. eigenvalues --   -0.63637  -0.62328  -0.59840  -0.58794  -0.57677
 Alpha  occ. eigenvalues --   -0.57397  -0.55096  -0.53816  -0.53604  -0.52866
 Alpha  occ. eigenvalues --   -0.52447  -0.50981  -0.50604  -0.49528  -0.47280
 Alpha  occ. eigenvalues --   -0.45726  -0.44033  -0.33290  -0.31118
 Alpha virt. eigenvalues --    0.17955   0.19115   0.22790   0.25241   0.26597
 Alpha virt. eigenvalues --    0.27134   0.27731   0.29383   0.29996   0.31289
 Alpha virt. eigenvalues --    0.31581   0.32620   0.32928   0.33769   0.34168
 Alpha virt. eigenvalues --    0.34453   0.35251   0.36597   0.37566   0.38686
 Alpha virt. eigenvalues --    0.40454   0.42065   0.43559   0.44095   0.47731
 Alpha virt. eigenvalues --    0.51137   0.52748   0.60110   0.61194   0.69946
 Alpha virt. eigenvalues --    0.71022   0.72477   0.73919   0.74574   0.77519
 Alpha virt. eigenvalues --    0.78283   0.79259   0.80840   0.81746   0.82990
 Alpha virt. eigenvalues --    0.83601   0.85462   0.89120   0.90880   0.91907
 Alpha virt. eigenvalues --    0.92284   0.94968   0.96228   0.98176   0.99293
 Alpha virt. eigenvalues --    1.00571   1.02723   1.03502   1.05498   1.06002
 Alpha virt. eigenvalues --    1.07612   1.08645   1.10506   1.11183   1.12844
 Alpha virt. eigenvalues --    1.13693   1.14052   1.14309   1.14725   1.15007
 Alpha virt. eigenvalues --    1.16216   1.16829   1.17445   1.18536   1.19739
 Alpha virt. eigenvalues --    1.20983   1.21502   1.23625   1.25458   1.25860
 Alpha virt. eigenvalues --    1.28813   1.31810   1.40473   1.41269   1.46766
 Alpha virt. eigenvalues --    1.47788   1.53693   1.55066   1.56652   1.58525
 Alpha virt. eigenvalues --    1.60801   1.67274   1.68400   1.69119   1.72164
 Alpha virt. eigenvalues --    1.76268   1.79677   1.91326   1.93504   1.95662
 Alpha virt. eigenvalues --    1.99486   2.00620   2.03425   2.04825   2.07067
 Alpha virt. eigenvalues --    2.10129   2.11052   2.11564   2.12946   2.14634
 Alpha virt. eigenvalues --    2.17985   2.19049   2.20679   2.28019   2.28602
 Alpha virt. eigenvalues --    2.30135   2.31788   2.34502   2.35208   2.35799
 Alpha virt. eigenvalues --    2.36167   2.37247   2.38574   2.39957   2.40253
 Alpha virt. eigenvalues --    2.41640   2.41991   2.43161   2.44393   2.45392
 Alpha virt. eigenvalues --    2.47058   2.48585   2.49315   2.52464   2.53661
 Alpha virt. eigenvalues --    2.56021   2.58407   2.60239   2.62329   2.64064
 Alpha virt. eigenvalues --    2.66190   2.68821   2.70178   2.72109   2.73681
 Alpha virt. eigenvalues --    2.75326   2.76666   2.78212   2.83299   2.85567
 Alpha virt. eigenvalues --    2.87640   2.88154   2.89829   2.91231   2.93465
 Alpha virt. eigenvalues --    2.96541   2.97965   3.00112   3.02631   3.03332
 Alpha virt. eigenvalues --    3.05629   3.07674   3.10642   3.11058   3.12451
 Alpha virt. eigenvalues --    3.16630   3.18021   3.19438   3.21073   3.21661
 Alpha virt. eigenvalues --    3.22796   3.24687   3.25294   3.28057   3.37058
 Alpha virt. eigenvalues --    3.39464   3.45294   3.45607   3.55575   3.56618
 Alpha virt. eigenvalues --    3.60310   3.62276   3.68481   3.69391   3.78725
 Alpha virt. eigenvalues --    3.80073   3.80859   3.81764   3.82113   3.82445
 Alpha virt. eigenvalues --    3.83396   3.85600   3.87097   3.89144   3.91886
 Alpha virt. eigenvalues --    3.95074   4.59184   4.62199   4.74097   4.85154
 Alpha virt. eigenvalues --    4.91900   4.92065   4.92440   5.08380   5.12325
 Alpha virt. eigenvalues --    5.16523
          Condensed to atoms (all electrons):
               1          2          3          4          5          6
     1  C    4.970095   0.412220   0.410971   0.344731  -0.049177   0.003402
     2  H    0.412220   0.594407  -0.031960  -0.046466  -0.004126   0.000126
     3  H    0.410971  -0.031960   0.590910  -0.043614   0.003676  -0.000113
     4  C    0.344731  -0.046466  -0.043614   4.973782   0.335486  -0.040198
     5  C   -0.049177  -0.004126   0.003676   0.335486   4.930741   0.403787
     6  H    0.003402   0.000126  -0.000113  -0.040198   0.403787   0.576202
     7  H   -0.004325  -0.000352   0.000227  -0.040127   0.407132  -0.029246
     8  H    0.000430   0.000963  -0.000162  -0.040680   0.396125  -0.026393
     9  C   -0.050975   0.002587  -0.004583   0.693941  -0.053811  -0.003889
    10  H   -0.005548   0.000115   0.001824  -0.038359   0.003297  -0.000011
    11  C    0.002965  -0.000092   0.000084  -0.050005  -0.006720  -0.001713
    12  H    0.000122  -0.000001   0.000003  -0.000903  -0.001520  -0.001102
    13  H   -0.000113   0.000008   0.000009  -0.000639   0.000228  -0.000107
    14  H   -0.000089  -0.000001  -0.000013  -0.000101   0.000268   0.000317
    15  C   -0.000122  -0.000036   0.000002   0.000004   0.000030  -0.000003
    16  H   -0.000002  -0.000001   0.000000  -0.000003   0.000009   0.000002
    17  H   -0.000005   0.000001   0.000000  -0.000000  -0.000001   0.000000
    18  H    0.000029  -0.000002  -0.000000  -0.000001   0.000051  -0.000002
    19  C   -0.003228   0.001745  -0.000009   0.000037  -0.001503   0.000030
    20  C   -0.000080  -0.000466  -0.000004   0.000029   0.000024  -0.000000
    21  H    0.000227   0.000380  -0.000016  -0.000016   0.000018  -0.000000
    22  H    0.000063  -0.000020  -0.000003   0.000000   0.000008  -0.000000
    23  H   -0.000079   0.000022   0.000004  -0.000000  -0.000001   0.000000
    24  C   -0.060031  -0.003716   0.005719  -0.005057  -0.004807   0.000138
    25  H    0.000540   0.000138  -0.000118   0.002462  -0.000942   0.000166
    26  C    0.338251  -0.040746  -0.041872  -0.055153   0.000611  -0.000079
    27  H   -0.042291  -0.002196  -0.003878   0.005579  -0.000163   0.000004
    28  H   -0.041476   0.004338  -0.002153  -0.002710   0.000141   0.000000
               7          8          9         10         11         12
     1  C   -0.004325   0.000430  -0.050975  -0.005548   0.002965   0.000122
     2  H   -0.000352   0.000963   0.002587   0.000115  -0.000092  -0.000001
     3  H    0.000227  -0.000162  -0.004583   0.001824   0.000084   0.000003
     4  C   -0.040127  -0.040680   0.693941  -0.038359  -0.050005  -0.000903
     5  C    0.407132   0.396125  -0.053811   0.003297  -0.006720  -0.001520
     6  H   -0.029246  -0.026393  -0.003889  -0.000011  -0.001713  -0.001102
     7  H    0.558897  -0.029464   0.002759  -0.000100   0.000146   0.000021
     8  H   -0.029464   0.578258  -0.004276  -0.000113   0.000659  -0.000268
     9  C    0.002759  -0.004276   4.949733   0.404775   0.341855  -0.041569
    10  H   -0.000100  -0.000113   0.404775   0.561078  -0.042862   0.003338
    11  C    0.000146   0.000659   0.341855  -0.042862   4.899604   0.408383
    12  H    0.000021  -0.000268  -0.041569   0.003338   0.408383   0.572046
    13  H   -0.000009   0.000209  -0.043905  -0.001497   0.402633  -0.028707
    14  H    0.000006  -0.000081  -0.044576  -0.001271   0.399889  -0.028197
    15  C    0.000057  -0.000001   0.000000  -0.000000   0.000000   0.000000
    16  H    0.000027  -0.000000  -0.000000   0.000000   0.000000   0.000000
    17  H    0.000009   0.000000  -0.000000  -0.000000  -0.000000  -0.000000
    18  H   -0.000069  -0.000002  -0.000000  -0.000000  -0.000000   0.000000
    19  C    0.002436   0.000041  -0.000001   0.000001  -0.000000  -0.000000
    20  C   -0.000047  -0.000001  -0.000000   0.000000   0.000000   0.000000
    21  H   -0.000007  -0.000001   0.000001   0.000000  -0.000000   0.000000
    22  H   -0.000027  -0.000000   0.000000  -0.000000   0.000000   0.000000
    23  H    0.000005   0.000000   0.000000   0.000000  -0.000000  -0.000000
    24  C    0.004663   0.000197  -0.000007   0.000034   0.000003   0.000000
    25  H   -0.000778   0.000034   0.000267  -0.000003  -0.000005  -0.000001
    26  C   -0.000630  -0.000055  -0.005008   0.000273  -0.000079  -0.000005
    27  H   -0.000026   0.000006   0.000046  -0.000039   0.000002   0.000000
    28  H    0.000039   0.000005   0.002373   0.000469  -0.000059   0.000000
              13         14         15         16         17         18
     1  C   -0.000113  -0.000089  -0.000122  -0.000002  -0.000005   0.000029
     2  H    0.000008  -0.000001  -0.000036  -0.000001   0.000001  -0.000002
     3  H    0.000009  -0.000013   0.000002   0.000000   0.000000  -0.000000
     4  C   -0.000639  -0.000101   0.000004  -0.000003  -0.000000  -0.000001
     5  C    0.000228   0.000268   0.000030   0.000009  -0.000001   0.000051
     6  H   -0.000107   0.000317  -0.000003   0.000002   0.000000  -0.000002
     7  H   -0.000009   0.000006   0.000057   0.000027   0.000009  -0.000069
     8  H    0.000209  -0.000081  -0.000001  -0.000000   0.000000  -0.000002
     9  C   -0.043905  -0.044576   0.000000  -0.000000  -0.000000  -0.000000
    10  H   -0.001497  -0.001271  -0.000000   0.000000  -0.000000  -0.000000
    11  C    0.402633   0.399889   0.000000   0.000000  -0.000000  -0.000000
    12  H   -0.028707  -0.028197   0.000000   0.000000  -0.000000   0.000000
    13  H    0.586126  -0.033674   0.000000  -0.000000   0.000000  -0.000000
    14  H   -0.033674   0.589540  -0.000000   0.000000  -0.000000   0.000000
    15  C    0.000000  -0.000000   4.897002   0.405784   0.399662   0.397600
    16  H   -0.000000   0.000000   0.405784   0.568822  -0.027366  -0.027990
    17  H    0.000000  -0.000000   0.399662  -0.027366   0.592893  -0.034705
    18  H   -0.000000   0.000000   0.397600  -0.027990  -0.034705   0.595318
    19  C    0.000000  -0.000000   0.352900  -0.041315  -0.046662  -0.044086
    20  C   -0.000000   0.000000  -0.061402   0.003752  -0.000073  -0.002995
    21  H    0.000000   0.000000   0.003517  -0.000115  -0.000032  -0.000042
    22  H    0.000000  -0.000000  -0.004505   0.000094  -0.000601   0.002568
    23  H    0.000000  -0.000000  -0.000118  -0.000125   0.001696  -0.000188
    24  C    0.000000  -0.000000  -0.045138  -0.002294  -0.001076  -0.000617
    25  H    0.000000  -0.000002  -0.006343   0.002145   0.000137   0.000219
    26  C   -0.000005   0.000028   0.003178   0.000148  -0.000129  -0.000082
    27  H    0.000000  -0.000000   0.000056   0.000003   0.000011  -0.000008
    28  H    0.000002  -0.000006  -0.000096  -0.000010   0.000008  -0.000001
              19         20         21         22         23         24
     1  C   -0.003228  -0.000080   0.000227   0.000063  -0.000079  -0.060031
     2  H    0.001745  -0.000466   0.000380  -0.000020   0.000022  -0.003716
     3  H   -0.000009  -0.000004  -0.000016  -0.000003   0.000004   0.005719
     4  C    0.000037   0.000029  -0.000016   0.000000  -0.000000  -0.005057
     5  C   -0.001503   0.000024   0.000018   0.000008  -0.000001  -0.004807
     6  H    0.000030  -0.000000  -0.000000  -0.000000   0.000000   0.000138
     7  H    0.002436  -0.000047  -0.000007  -0.000027   0.000005   0.004663
     8  H    0.000041  -0.000001  -0.000001  -0.000000   0.000000   0.000197
     9  C   -0.000001  -0.000000   0.000001   0.000000   0.000000  -0.000007
    10  H    0.000001   0.000000   0.000000  -0.000000   0.000000   0.000034
    11  C   -0.000000   0.000000  -0.000000   0.000000  -0.000000   0.000003
    12  H   -0.000000   0.000000   0.000000   0.000000  -0.000000   0.000000
    13  H    0.000000  -0.000000   0.000000   0.000000   0.000000   0.000000
    14  H   -0.000000   0.000000   0.000000  -0.000000  -0.000000  -0.000000
    15  C    0.352900  -0.061402   0.003517  -0.004505  -0.000118  -0.045138
    16  H   -0.041315   0.003752  -0.000115   0.000094  -0.000125  -0.002294
    17  H   -0.046662  -0.000073  -0.000032  -0.000601   0.001696  -0.001076
    18  H   -0.044086  -0.002995  -0.000042   0.002568  -0.000188  -0.000617
    19  C    4.938586   0.342878  -0.037294  -0.043047  -0.042657   0.691224
    20  C    0.342878   4.914854   0.406583   0.404520   0.398152  -0.048590
    21  H   -0.037294   0.406583   0.568174  -0.030170  -0.026353  -0.003609
    22  H   -0.043047   0.404520  -0.030170   0.583496  -0.031236   0.002082
    23  H   -0.042657   0.398152  -0.026353  -0.031236   0.575850  -0.002545
    24  C    0.691224  -0.048590  -0.003609   0.002082  -0.002545   4.977654
    25  H   -0.038342   0.003273   0.000045  -0.000104  -0.000123   0.405990
    26  C   -0.053803  -0.005268  -0.002144   0.000175   0.000179   0.338685
    27  H   -0.002558  -0.001246  -0.002206  -0.000036   0.000422  -0.044653
    28  H    0.002883   0.000060   0.000044  -0.000006   0.000033  -0.041508
              25         26         27         28
     1  C    0.000540   0.338251  -0.042291  -0.041476
     2  H    0.000138  -0.040746  -0.002196   0.004338
     3  H   -0.000118  -0.041872  -0.003878  -0.002153
     4  C    0.002462  -0.055153   0.005579  -0.002710
     5  C   -0.000942   0.000611  -0.000163   0.000141
     6  H    0.000166  -0.000079   0.000004   0.000000
     7  H   -0.000778  -0.000630  -0.000026   0.000039
     8  H    0.000034  -0.000055   0.000006   0.000005
     9  C    0.000267  -0.005008   0.000046   0.002373
    10  H   -0.000003   0.000273  -0.000039   0.000469
    11  C   -0.000005  -0.000079   0.000002  -0.000059
    12  H   -0.000001  -0.000005   0.000000   0.000000
    13  H    0.000000  -0.000005   0.000000   0.000002
    14  H   -0.000002   0.000028  -0.000000  -0.000006
    15  C   -0.006343   0.003178   0.000056  -0.000096
    16  H    0.002145   0.000148   0.000003  -0.000010
    17  H    0.000137  -0.000129   0.000011   0.000008
    18  H    0.000219  -0.000082  -0.000008  -0.000001
    19  C   -0.038342  -0.053803  -0.002558   0.002883
    20  C    0.003273  -0.005268  -0.001246   0.000060
    21  H    0.000045  -0.002144  -0.002206   0.000044
    22  H   -0.000104   0.000175  -0.000036  -0.000006
    23  H   -0.000123   0.000179   0.000422   0.000033
    24  C    0.405990   0.338685  -0.044653  -0.041508
    25  H    0.549712  -0.041177   0.003534  -0.004484
    26  C   -0.041177   4.973918   0.411607   0.410514
    27  H    0.003534   0.411607   0.593560  -0.030418
    28  H   -0.004484   0.410514  -0.030418   0.581649
 Mulliken charges:
               1
     1  C   -0.226504
     2  H    0.113130
     3  H    0.115069
     4  C    0.007980
     5  C   -0.358861
     6  H    0.118681
     7  H    0.128784
     8  H    0.124572
     9  C   -0.145734
    10  H    0.114598
    11  C   -0.354687
    12  H    0.118360
    13  H    0.119441
    14  H    0.117964
    15  C   -0.342029
    16  H    0.118434
    17  H    0.116233
    18  H    0.115003
    19  C    0.021746
    20  C   -0.353952
    21  H    0.123014
    22  H    0.116748
    23  H    0.127062
    24  C   -0.162740
    25  H    0.123762
    26  C   -0.231332
    27  H    0.114887
    28  H    0.120369
 Sum of Mulliken charges =  -0.00000
 Mulliken charges with hydrogens summed into heavy atoms:
               1
     1  C    0.001696
     4  C    0.007980
     5  C    0.013177
     9  C   -0.031136
    11  C    0.001078
    15  C    0.007642
    19  C    0.021746
    20  C    0.012873
    24  C   -0.038978
    26  C    0.003923
 Electronic spatial extent (au):  <R**2>=           2304.3819
 Charge=             -0.0000 electrons
 Dipole moment (field-independent basis, Debye):
    X=             -0.3743    Y=              0.0530    Z=              0.2213  Tot=              0.4381
 Quadrupole moment (field-independent basis, Debye-Ang):
   XX=            -64.1215   YY=            -64.3999   ZZ=            -66.1664
   XY=              0.1485   XZ=             -1.8186   YZ=              0.0517
 Traceless Quadrupole moment (field-independent basis, Debye-Ang):
   XX=              0.7745   YY=              0.4960   ZZ=             -1.2705
   XY=              0.1485   XZ=             -1.8186   YZ=              0.0517
 Octapole moment (field-independent basis, Debye-Ang**2):
  XXX=             -5.1958  YYY=             -1.1124  ZZZ=              1.7790  XYY=              1.0461
  XXY=             -0.2646  XXZ=             -0.4576  XZZ=              0.6519  YZZ=              1.6796
  YYZ=             -1.1976  XYZ=              1.7474
 Hexadecapole moment (field-independent basis, Debye-Ang**3):
 XXXX=          -2420.2969 YYYY=           -502.1707 ZZZZ=           -269.0743 XXXY=             -3.3360
 XXXZ=             -6.9332 YYYX=              2.0286 YYYZ=             -1.5199 ZZZX=             -8.3321
 ZZZY=              0.3657 XXYY=           -491.5202 XXZZ=           -457.3857 YYZZ=           -129.1306
 XXYZ=              7.4070 YYXZ=             -1.7535 ZZXY=             -1.3912
 N-N= 5.236667374816D+02 E-N=-1.952087602517D+03  KE= 3.886449114808D+02
 No NMR shielding tensors so no spin-rotation constants.
 Leave Link  601 at Fri Sep 17 20:13:13 2021, MaxMem=   524288000 cpu:               0.2 elap:               0.2
 (Enter /opt/gaussian/g16_legacy/l701.exe)
 ... and contract with generalized density number  2.
 Compute integral first derivatives.
 Leave Link  701 at Fri Sep 17 20:13:13 2021, MaxMem=   524288000 cpu:               0.2 elap:               0.2
 (Enter /opt/gaussian/g16_legacy/l702.exe)
 L702 exits ... SP integral derivatives will be done elsewhere.
 Leave Link  702 at Fri Sep 17 20:13:13 2021, MaxMem=   524288000 cpu:               0.0 elap:               0.0
 (Enter /opt/gaussian/g16_legacy/l703.exe)
 Integral derivatives from FoFJK, PRISM(SPDF).
 Compute integral first derivatives, UseDBF=F ICtDFT=           0.
 Calling FoFJK, ICntrl=  10002127 FMM=F ISym2X=0 I1Cent= 0 IOpClX= 0 NMat=1 NMatS=1 NMatT=0.
 FoFJK:  IHMeth= 1 ICntrl=10002127 DoSepK=F KAlg= 0 I1Cent=           0 FoldK=F
 IRaf=         0 NMat=       1 IRICut=       1 DoRegI=T DoRafI=F ISym2E= 0 IDoP0=0 IntGTp=1.
 FoFCou: FMM=F IPFlag=           0 FMFlag=      100000 FMFlg1=         800
         NFxFlg=           0 DoJE=F BraDBF=F KetDBF=F FulRan=T
         wScrn=  0.000000 ICntrl=  10002127 IOpCl=  0 I1Cent=           0 NGrid=           0
         NMat0=    1 NMatS0=      1 NMatT0=    0 NMatD0=    1 NMtDS0=    0 NMtDT0=    0
 Symmetry not used in FoFCou.
 Leave Link  703 at Fri Sep 17 20:13:33 2021, MaxMem=   524288000 cpu:              19.9 elap:              19.9
 (Enter /opt/gaussian/g16_legacy/l716.exe)
 Dipole        =-9.95699300D-02 2.33542369D-02 6.90544595D-02
 ***** Axes restored to original set *****
 -------------------------------------------------------------------
 Center     Atomic                   Forces (Hartrees/Bohr)
 Number     Number              X              Y              Z
 -------------------------------------------------------------------
      1        6           0.002971332    0.005627421   -0.008927019
      2        1          -0.000265687    0.001518554    0.004221957
      3        1           0.001581851   -0.000088838    0.002707290
      4        6          -0.005766275    0.003130516    0.000025788
      5        6           0.001645722   -0.003438204    0.004764689
      6        1           0.000503816   -0.001482741   -0.004407887
      7        1           0.000625398    0.003880114   -0.002798766
      8        1           0.001232851   -0.000201994    0.002690605
      9        6          -0.004276034   -0.002921542   -0.000300259
     10        1          -0.001205992   -0.002955501   -0.000098053
     11        6           0.002956072   -0.000293938    0.001636746
     12        1          -0.002784421    0.002248370   -0.001342501
     13        1           0.000402644    0.000673115    0.003462938
     14        1           0.002572458   -0.000779092   -0.002318437
     15        6           0.002635013    0.001534250    0.002530040
     16        1          -0.003240909    0.000336476   -0.003103311
     17        1           0.001128018   -0.002907156   -0.000659999
     18        1          -0.003085308    0.001168883    0.001961258
     19        6           0.007376938   -0.002937466    0.000596035
     20        6          -0.000441910    0.000933489   -0.004757041
     21        1          -0.001246045    0.001288200    0.004082899
     22        1          -0.000941975    0.003217804    0.002138433
     23        1          -0.000140670   -0.002736960   -0.001672064
     24        6           0.003386853    0.004872380   -0.000085771
     25        1          -0.002562587   -0.003549935    0.000258712
     26        6          -0.007223360   -0.000674746    0.002994311
     27        1           0.002021858   -0.001940837   -0.000171932
     28        1           0.002140350   -0.003520621   -0.003428661
 -------------------------------------------------------------------
 Cartesian Forces:  Max     0.008927019 RMS     0.002926706
 Leave Link  716 at Fri Sep 17 20:13:33 2021, MaxMem=   524288000 cpu:               0.0 elap:               0.0
 (Enter /opt/gaussian/g16_legacy/l103.exe)

 GradGradGradGradGradGradGradGradGradGradGradGradGradGradGradGradGradGrad
 Berny optimization.
 FormGI is forming the generalized inverse of G from B-inverse, IUseBI=4.
 Internal  Forces:  Max     0.005031772 RMS     0.001990947
 Search for a local minimum.
 Step number   1 out of a maximum of  138
 All quantities printed in internal units (Hartrees-Bohrs-Radians)
 RMS Force = .19909D-02 SwitMx=.10000D-02 MixMth= 1
 Mixed Optimization -- RFO/linear search
 Second derivative matrix not updated -- first step.
 ITU=  0
     Eigenvalues ---    0.00272   0.00541   0.00689   0.00704   0.00705
     Eigenvalues ---    0.00716   0.00843   0.01202   0.01295   0.01589
     Eigenvalues ---    0.01647   0.02768   0.02809   0.03807   0.03942
     Eigenvalues ---    0.05316   0.05340   0.07060   0.07068   0.07073
     Eigenvalues ---    0.07115   0.07210   0.07307   0.07316   0.07510
     Eigenvalues ---    0.09544   0.09601   0.12955   0.13020   0.15998
     Eigenvalues ---    0.16000   0.16000   0.16000   0.16000   0.16000
     Eigenvalues ---    0.16000   0.16000   0.16000   0.16000   0.16000
     Eigenvalues ---    0.16000   0.16000   0.16000   0.21905   0.21916
     Eigenvalues ---    0.22000   0.22000   0.24982   0.24991   0.24995
     Eigenvalues ---    0.24997   0.28758   0.30660   0.31776   0.31889
     Eigenvalues ---    0.31902   0.31985   0.32994   0.33888   0.33902
     Eigenvalues ---    0.33939   0.34095   0.34193   0.34201   0.34213
     Eigenvalues ---    0.34230   0.34317   0.34320   0.34326   0.34350
     Eigenvalues ---    0.34355   0.34357   0.34395   0.34519   0.34796
     Eigenvalues ---    0.34840   0.55308   0.55972
 RFO step:  Lambda=-3.74091051D-03 EMin= 2.72284432D-03
 Linear search not attempted -- first point.
 Iteration  1 RMS(Cart)=  0.06782871 RMS(Int)=  0.00151700
 Iteration  2 RMS(Cart)=  0.00245247 RMS(Int)=  0.00017996
 Iteration  3 RMS(Cart)=  0.00000290 RMS(Int)=  0.00017995
 Iteration  4 RMS(Cart)=  0.00000000 RMS(Int)=  0.00017995
 ITry= 1 IFail=0 DXMaxC= 2.06D-01 DCOld= 1.00D+10 DXMaxT= 3.00D-01 DXLimC= 3.00D+00 Rises=F
 Variable       Old X    -DE/DX   Delta X   Delta X   Delta X     New X
                                 (Linear)    (Quad)   (Total)
    R1        2.07433  -0.00265   0.00000  -0.00771  -0.00771   2.06662
    R2        2.07520  -0.00239   0.00000  -0.00698  -0.00698   2.06821
    R3        2.86667  -0.00363   0.00000  -0.01171  -0.01171   2.85496
    R4        2.90511  -0.00089   0.00000  -0.00306  -0.00306   2.90205
    R5        2.84555   0.00256   0.00000   0.00798   0.00798   2.85353
    R6        2.54859  -0.00474   0.00000  -0.00852  -0.00852   2.54007
    R7        2.06735  -0.00310   0.00000  -0.00893  -0.00893   2.05843
    R8        2.06732  -0.00373   0.00000  -0.01075  -0.01075   2.05657
    R9        2.06794  -0.00132   0.00000  -0.00380  -0.00380   2.06414
   R10        2.05935  -0.00187   0.00000  -0.00530  -0.00530   2.05405
   R11        2.82363   0.00351   0.00000   0.01053   0.01053   2.83416
   R12        2.06463  -0.00353   0.00000  -0.01010  -0.01010   2.05452
   R13        2.06943  -0.00258   0.00000  -0.00744  -0.00744   2.06199
   R14        2.06798  -0.00172   0.00000  -0.00495  -0.00495   2.06303
   R15        2.07006  -0.00408   0.00000  -0.01181  -0.01181   2.05825
   R16        2.06743  -0.00127   0.00000  -0.00367  -0.00367   2.06376
   R17        2.06992  -0.00230   0.00000  -0.00666  -0.00666   2.06326
   R18        2.84347   0.00021   0.00000   0.00066   0.00066   2.84413
   R19        2.84172   0.00131   0.00000   0.00405   0.00405   2.84577
   R20        2.54278  -0.00094   0.00000  -0.00166  -0.00166   2.54112
   R21        2.06669  -0.00363   0.00000  -0.01043  -0.01043   2.05626
   R22        2.06973  -0.00324   0.00000  -0.00935  -0.00935   2.06037
   R23        2.06783  -0.00134   0.00000  -0.00386  -0.00386   2.06397
   R24        2.06008  -0.00247   0.00000  -0.00701  -0.00701   2.05306
   R25        2.84323   0.00037   0.00000   0.00114   0.00114   2.84438
   R26        2.07170  -0.00200   0.00000  -0.00579  -0.00579   2.06591
   R27        2.07496  -0.00367   0.00000  -0.01071  -0.01071   2.06425
    A1        1.83576   0.00123   0.00000   0.02793   0.02814   1.86390
    A2        1.91153   0.00156   0.00000  -0.00475  -0.00567   1.90587
    A3        1.92559  -0.00201   0.00000  -0.02979  -0.03023   1.89536
    A4        1.90819   0.00046   0.00000   0.01049   0.01059   1.91878
    A5        1.88419   0.00185   0.00000   0.01956   0.01978   1.90396
    A6        1.99182  -0.00275   0.00000  -0.01873  -0.01913   1.97268
    A7        2.02874   0.00260   0.00000   0.01030   0.01028   2.03902
    A8        2.09844  -0.00161   0.00000  -0.00630  -0.00632   2.09212
    A9        2.15585  -0.00098   0.00000  -0.00381  -0.00383   2.15202
   A10        1.95189   0.00163   0.00000   0.01017   0.01020   1.96209
   A11        1.95104  -0.00459   0.00000  -0.02584  -0.02574   1.92530
   A12        1.92206   0.00310   0.00000   0.01659   0.01664   1.93870
   A13        1.85608   0.00234   0.00000   0.01865   0.01874   1.87482
   A14        1.90635  -0.00328   0.00000  -0.02402  -0.02404   1.88231
   A15        1.87349   0.00066   0.00000   0.00371   0.00381   1.87731
   A16        2.06874  -0.00232   0.00000  -0.01454  -0.01454   2.05420
   A17        2.21937  -0.00043   0.00000  -0.00192  -0.00192   2.21745
   A18        1.99506   0.00275   0.00000   0.01648   0.01648   2.01153
   A19        1.98088  -0.00320   0.00000  -0.01942  -0.01933   1.96156
   A20        1.91304   0.00266   0.00000   0.01559   0.01554   1.92858
   A21        1.91455   0.00393   0.00000   0.02454   0.02451   1.93905
   A22        1.87953   0.00001   0.00000  -0.00090  -0.00084   1.87870
   A23        1.88537  -0.00030   0.00000  -0.00062  -0.00052   1.88485
   A24        1.88799  -0.00330   0.00000  -0.02038  -0.02056   1.86743
   A25        1.88310   0.00045   0.00000   0.00396   0.00399   1.88709
   A26        1.87457   0.00127   0.00000   0.01300   0.01303   1.88761
   A27        1.95874  -0.00266   0.00000  -0.01290  -0.01287   1.94588
   A28        1.89666  -0.00335   0.00000  -0.02707  -0.02707   1.86960
   A29        1.92833   0.00219   0.00000   0.01063   0.01065   1.93898
   A30        1.92048   0.00198   0.00000   0.01150   0.01152   1.93200
   A31        2.00818   0.00120   0.00000   0.00532   0.00463   2.01281
   A32        2.10782   0.00206   0.00000   0.00884   0.00814   2.11596
   A33        2.16664  -0.00323   0.00000  -0.01205  -0.01271   2.15393
   A34        1.96525  -0.00097   0.00000  -0.00292  -0.00292   1.96233
   A35        1.93013  -0.00106   0.00000  -0.00619  -0.00617   1.92397
   A36        1.92124   0.00339   0.00000   0.01749   0.01751   1.93875
   A37        1.85951   0.00218   0.00000   0.01937   0.01937   1.87888
   A38        1.89413  -0.00140   0.00000  -0.00887  -0.00887   1.88526
   A39        1.89110  -0.00229   0.00000  -0.01990  -0.01986   1.87124
   A40        2.07561  -0.00238   0.00000  -0.01671  -0.01671   2.05890
   A41        2.21395  -0.00266   0.00000  -0.01188  -0.01188   2.20208
   A42        1.99347   0.00503   0.00000   0.02855   0.02855   2.02202
   A43        1.97825   0.00067   0.00000  -0.00034  -0.00042   1.97783
   A44        1.90499  -0.00006   0.00000   0.00237   0.00238   1.90737
   A45        1.91852  -0.00371   0.00000  -0.03725  -0.03728   1.88125
   A46        1.92671   0.00000   0.00000   0.00936   0.00930   1.93601
   A47        1.89118   0.00161   0.00000   0.00751   0.00722   1.89840
   A48        1.83904   0.00153   0.00000   0.01939   0.01929   1.85833
    D1       -0.57874   0.00155   0.00000  -0.01560  -0.01562  -0.59436
    D2        2.54432   0.00172   0.00000  -0.00466  -0.00467   2.53965
    D3       -2.58169  -0.00104   0.00000  -0.05215  -0.05219  -2.63388
    D4        0.54137  -0.00087   0.00000  -0.04121  -0.04124   0.50013
[...]
                 (A) (A) (A) (A) (A) (A) (A) (A) (A) (A) (A) (A)
                 (A) (A) (A) (A) (A) (A) (A) (A) (A) (A) (A) (A)
                 (A) (A) (A) (A) (A) (A) (A) (A) (A) (A) (A) (A)
                 (A) (A) (A) (A) (A) (A) (A) (A) (A) (A) (A) (A)
                 (A) (A) (A) (A) (A) (A) (A) (A) (A) (A) (A) (A)
                 (A) (A) (A) (A) (A) (A) (A) (A) (A) (A) (A) (A)
                 (A) (A) (A) (A) (A) (A) (A) (A) (A) (A) (A) (A)
                 (A) (A) (A) (A) (A) (A) (A) (A) (A) (A) (A) (A)
                 (A) (A) (A) (A) (A) (A) (A) (A) (A) (A) (A) (A)
                 (A) (A) (A) (A) (A) (A) (A) (A) (A) (A) (A) (A)
                 (A) (A) (A) (A) (A) (A) (A) (A) (A) (A) (A) (A)
                 (A) (A) (A) (A) (A) (A) (A) (A) (A) (A) (A) (A)
                 (A) (A) (A) (A) (A) (A) (A) (A) (A) (A) (A) (A)
                 (A) (A) (A) (A) (A) (A) (A) (A) (A)
 The electronic state is 1-A.
 Alpha  occ. eigenvalues --  -11.22962 -11.22417 -11.21792 -11.21683 -11.21675
 Alpha  occ. eigenvalues --  -11.21535 -11.21354 -11.21284 -11.21265 -11.21012
 Alpha  occ. eigenvalues --   -1.10804  -1.08206  -1.01895  -0.97250  -0.93820
 Alpha  occ. eigenvalues --   -0.92468  -0.87518  -0.81991  -0.70952  -0.68583
 Alpha  occ. eigenvalues --   -0.63918  -0.62733  -0.60156  -0.58813  -0.57941
 Alpha  occ. eigenvalues --   -0.57307  -0.55024  -0.53608  -0.53296  -0.53224
 Alpha  occ. eigenvalues --   -0.52542  -0.51121  -0.50742  -0.49799  -0.47074
 Alpha  occ. eigenvalues --   -0.46306  -0.44283  -0.33410  -0.31178
 Alpha virt. eigenvalues --    0.18327   0.19352   0.22788   0.25390   0.26270
 Alpha virt. eigenvalues --    0.27086   0.28390   0.29184   0.30263   0.30493
 Alpha virt. eigenvalues --    0.31600   0.32587   0.32977   0.33580   0.34754
 Alpha virt. eigenvalues --    0.35165   0.35882   0.37294   0.39686   0.40161
 Alpha virt. eigenvalues --    0.40408   0.41688   0.43630   0.43892   0.48212
 Alpha virt. eigenvalues --    0.50702   0.52778   0.61698   0.62994   0.70238
 Alpha virt. eigenvalues --    0.70499   0.72574   0.73565   0.74612   0.76459
 Alpha virt. eigenvalues --    0.77369   0.79269   0.81178   0.81708   0.83132
 Alpha virt. eigenvalues --    0.84506   0.85400   0.88381   0.89150   0.91114
 Alpha virt. eigenvalues --    0.92821   0.94485   0.97397   0.98078   0.98652
 Alpha virt. eigenvalues --    1.00047   1.02143   1.02631   1.05943   1.06290
 Alpha virt. eigenvalues --    1.07526   1.09269   1.10547   1.11529   1.12723
 Alpha virt. eigenvalues --    1.13224   1.14074   1.15263   1.15452   1.16106
 Alpha virt. eigenvalues --    1.16742   1.17818   1.19018   1.20099   1.20416
 Alpha virt. eigenvalues --    1.21844   1.22169   1.23481   1.25311   1.26545
 Alpha virt. eigenvalues --    1.29842   1.34309   1.40826   1.42526   1.46507
 Alpha virt. eigenvalues --    1.47270   1.50609   1.54684   1.56739   1.58513
 Alpha virt. eigenvalues --    1.59737   1.67175   1.67718   1.72513   1.73728
 Alpha virt. eigenvalues --    1.75159   1.79056   1.91770   1.93743   1.96805
 Alpha virt. eigenvalues --    2.00271   2.01241   2.03797   2.05703   2.07161
 Alpha virt. eigenvalues --    2.08633   2.10173   2.10745   2.14125   2.14756
 Alpha virt. eigenvalues --    2.17026   2.18108   2.21495   2.26676   2.28475
 Alpha virt. eigenvalues --    2.30184   2.31509   2.33796   2.35278   2.35722
 Alpha virt. eigenvalues --    2.35865   2.36121   2.39456   2.40328   2.41112
 Alpha virt. eigenvalues --    2.43013   2.43516   2.43802   2.44454   2.46312
 Alpha virt. eigenvalues --    2.47322   2.49599   2.51092   2.52160   2.53332
 Alpha virt. eigenvalues --    2.55465   2.59138   2.60848   2.62379   2.64107
 Alpha virt. eigenvalues --    2.68672   2.69143   2.69735   2.72301   2.73724
 Alpha virt. eigenvalues --    2.75701   2.77899   2.78309   2.83640   2.84893
 Alpha virt. eigenvalues --    2.86090   2.87526   2.89729   2.92207   2.94640
 Alpha virt. eigenvalues --    2.96496   2.98585   3.00159   3.03361   3.04038
 Alpha virt. eigenvalues --    3.06589   3.08351   3.11108   3.12791   3.15252
 Alpha virt. eigenvalues --    3.17793   3.18851   3.19861   3.20492   3.22057
 Alpha virt. eigenvalues --    3.23665   3.26028   3.26762   3.28887   3.38747
 Alpha virt. eigenvalues --    3.40948   3.44732   3.46018   3.56124   3.57833
 Alpha virt. eigenvalues --    3.61827   3.63367   3.68506   3.71124   3.79331
 Alpha virt. eigenvalues --    3.80833   3.81851   3.82883   3.83517   3.84334
 Alpha virt. eigenvalues --    3.84449   3.86726   3.88736   3.89696   3.90699
 Alpha virt. eigenvalues --    3.95400   4.59206   4.62178   4.74000   4.84685
 Alpha virt. eigenvalues --    4.92014   4.92281   4.92550   5.10084   5.11969
 Alpha virt. eigenvalues --    5.17368
          Condensed to atoms (all electrons):
               1          2          3          4          5          6
     1  C    4.988636   0.411425   0.410283   0.342674  -0.054559   0.003874
     2  H    0.411425   0.592448  -0.028739  -0.047455  -0.004487   0.000148
     3  H    0.410283  -0.028739   0.580577  -0.040635   0.003402  -0.000111
     4  C    0.342674  -0.047455  -0.040635   4.961938   0.350842  -0.040960
     5  C   -0.054559  -0.004487   0.003402   0.350842   4.905510   0.404662
     6  H    0.003874   0.000148  -0.000111  -0.040960   0.404662   0.580016
     7  H   -0.000809  -0.000214   0.000073  -0.044558   0.402447  -0.026509
     8  H   -0.003693   0.001937  -0.000064  -0.041512   0.398243  -0.027776
     9  C   -0.057297   0.003582  -0.005149   0.696258  -0.044471  -0.002745
    10  H   -0.005830   0.000136   0.001634  -0.043548   0.003552   0.000029
    11  C    0.002926  -0.000090   0.000044  -0.044367  -0.008062  -0.002205
    12  H    0.000089  -0.000001   0.000003   0.000013  -0.002028  -0.001397
    13  H   -0.000114   0.000006   0.000014  -0.001109   0.000274  -0.000044
    14  H   -0.000075  -0.000000  -0.000013  -0.000304   0.000279   0.000034
    15  C   -0.000106  -0.000027   0.000002  -0.000001   0.000027  -0.000001
    16  H   -0.000003  -0.000002   0.000000  -0.000007   0.000002   0.000000
    17  H   -0.000004   0.000001   0.000000  -0.000000  -0.000002   0.000000
    18  H    0.000024  -0.000004  -0.000000   0.000001   0.000052  -0.000002
    19  C   -0.002994   0.001692  -0.000016  -0.000056  -0.001614   0.000040
    20  C    0.000261   0.000057  -0.000008   0.000002   0.000007  -0.000000
    21  H   -0.000205   0.000300   0.000024  -0.000004  -0.000000  -0.000000
    22  H    0.000137  -0.000070  -0.000004   0.000002   0.000025  -0.000000
    23  H   -0.000043   0.000013   0.000001  -0.000000  -0.000001   0.000000
    24  C   -0.059937  -0.002726   0.005612  -0.009649  -0.005140   0.000191
    25  H   -0.000574   0.000131  -0.000093   0.004129  -0.001192   0.000064
    26  C    0.340287  -0.042354  -0.040655  -0.053428   0.000841  -0.000146
    27  H   -0.042496  -0.003108  -0.002748   0.005768  -0.000147   0.000003
    28  H   -0.045850   0.004805  -0.002901  -0.003494   0.000122   0.000006
               7          8          9         10         11         12
     1  C   -0.000809  -0.003693  -0.057297  -0.005830   0.002926   0.000089
     2  H   -0.000214   0.001937   0.003582   0.000136  -0.000090  -0.000001
     3  H    0.000073  -0.000064  -0.005149   0.001634   0.000044   0.000003
     4  C   -0.044558  -0.041512   0.696258  -0.043548  -0.044367   0.000013
     5  C    0.402447   0.398243  -0.044471   0.003552  -0.008062  -0.002028
     6  H   -0.026509  -0.027776  -0.002745   0.000029  -0.002205  -0.001397
     7  H    0.567122  -0.033709   0.000356  -0.000129   0.000224  -0.000037
     8  H   -0.033709   0.587554  -0.000754  -0.000120   0.000349  -0.000067
     9  C    0.000356  -0.000754   4.944772   0.406232   0.342073  -0.043747
    10  H   -0.000129  -0.000120   0.406232   0.566086  -0.041814   0.003414
    11  C    0.000224   0.000349   0.342073  -0.041814   4.890779   0.408307
    12  H   -0.000037  -0.000067  -0.043747   0.003414   0.408307   0.576303
    13  H   -0.000020   0.000068  -0.042400  -0.001009   0.401791  -0.028309
    14  H    0.000035  -0.000029  -0.042664  -0.001459   0.401399  -0.028245
    15  C    0.000074  -0.000002  -0.000000  -0.000000   0.000000  -0.000000
    16  H    0.000092  -0.000000  -0.000001   0.000000   0.000000   0.000000
    17  H    0.000012   0.000000  -0.000000  -0.000000   0.000000  -0.000000
    18  H   -0.000082  -0.000002  -0.000000  -0.000000   0.000000   0.000000
    19  C    0.002145   0.000061   0.000013   0.000001  -0.000000  -0.000000
    20  C   -0.000029  -0.000001  -0.000000   0.000000  -0.000000   0.000000
    21  H   -0.000000  -0.000000   0.000000   0.000000  -0.000000   0.000000
    22  H   -0.000048  -0.000002   0.000000  -0.000000   0.000000   0.000000
    23  H    0.000004   0.000000   0.000000   0.000000  -0.000000  -0.000000
    24  C    0.005616   0.000169  -0.000519   0.000098   0.000001   0.000001
    25  H   -0.001749   0.000067   0.000989  -0.000001  -0.000012   0.000001
    26  C   -0.000408   0.000062  -0.005991  -0.000076  -0.000069  -0.000006
    27  H   -0.000053   0.000012   0.000106  -0.000048   0.000002   0.000000
    28  H    0.000040   0.000006   0.002758   0.000640  -0.000067   0.000000
              13         14         15         16         17         18
     1  C   -0.000114  -0.000075  -0.000106  -0.000003  -0.000004   0.000024
     2  H    0.000006  -0.000000  -0.000027  -0.000002   0.000001  -0.000004
     3  H    0.000014  -0.000013   0.000002   0.000000   0.000000  -0.000000
     4  C   -0.001109  -0.000304  -0.000001  -0.000007  -0.000000   0.000001
     5  C    0.000274   0.000279   0.000027   0.000002  -0.000002   0.000052
     6  H   -0.000044   0.000034  -0.000001   0.000000   0.000000  -0.000002
     7  H   -0.000020   0.000035   0.000074   0.000092   0.000012  -0.000082
     8  H    0.000068  -0.000029  -0.000002  -0.000000   0.000000  -0.000002
     9  C   -0.042400  -0.042664  -0.000000  -0.000001  -0.000000  -0.000000
    10  H   -0.001009  -0.001459  -0.000000   0.000000  -0.000000  -0.000000
    11  C    0.401791   0.401399   0.000000   0.000000   0.000000   0.000000
    12  H   -0.028309  -0.028245  -0.000000   0.000000  -0.000000   0.000000
    13  H    0.587768  -0.036423  -0.000000  -0.000000   0.000000  -0.000000
    14  H   -0.036423   0.589168   0.000000   0.000000   0.000000   0.000000
    15  C   -0.000000   0.000000   4.900247   0.406205   0.399134   0.398087
    16  H   -0.000000   0.000000   0.406205   0.565680  -0.026322  -0.026846
    17  H    0.000000   0.000000   0.399134  -0.026322   0.592725  -0.037811
    18  H   -0.000000   0.000000   0.398087  -0.026846  -0.037811   0.596176
    19  C    0.000000  -0.000000   0.353282  -0.041845  -0.044071  -0.044393
    20  C   -0.000000   0.000000  -0.064953   0.003793  -0.001239  -0.001962
    21  H   -0.000000   0.000000   0.003750  -0.000114  -0.000030  -0.000071
    22  H   -0.000000  -0.000000  -0.002568  -0.000038  -0.000465   0.002760
    23  H    0.000000  -0.000000  -0.002275  -0.000049   0.002799  -0.000483
    24  C   -0.000000   0.000002  -0.044770  -0.002488  -0.001266  -0.000336
    25  H    0.000001  -0.000011  -0.006582   0.002252   0.000153   0.000191
    26  C   -0.000006   0.000031   0.003147   0.000151  -0.000131  -0.000071
    27  H    0.000000  -0.000001   0.000047   0.000005   0.000008  -0.000006
    28  H    0.000003  -0.000006  -0.000096  -0.000010   0.000009  -0.000002
              19         20         21         22         23         24
     1  C   -0.002994   0.000261  -0.000205   0.000137  -0.000043  -0.059937
     2  H    0.001692   0.000057   0.000300  -0.000070   0.000013  -0.002726
     3  H   -0.000016  -0.000008   0.000024  -0.000004   0.000001   0.005612
     4  C   -0.000056   0.000002  -0.000004   0.000002  -0.000000  -0.009649
     5  C   -0.001614   0.000007  -0.000000   0.000025  -0.000001  -0.005140
     6  H    0.000040  -0.000000  -0.000000  -0.000000   0.000000   0.000191
     7  H    0.002145  -0.000029  -0.000000  -0.000048   0.000004   0.005616
     8  H    0.000061  -0.000001  -0.000000  -0.000002   0.000000   0.000169
     9  C    0.000013  -0.000000   0.000000   0.000000   0.000000  -0.000519
    10  H    0.000001   0.000000   0.000000  -0.000000   0.000000   0.000098
    11  C   -0.000000  -0.000000  -0.000000   0.000000  -0.000000   0.000001
    12  H   -0.000000   0.000000   0.000000   0.000000  -0.000000   0.000001
    13  H    0.000000  -0.000000  -0.000000  -0.000000   0.000000  -0.000000
    14  H   -0.000000   0.000000   0.000000  -0.000000  -0.000000   0.000002
    15  C    0.353282  -0.064953   0.003750  -0.002568  -0.002275  -0.044770
    16  H   -0.041845   0.003793  -0.000114  -0.000038  -0.000049  -0.002488
    17  H   -0.044071  -0.001239  -0.000030  -0.000465   0.002799  -0.001266
    18  H   -0.044393  -0.001962  -0.000071   0.002760  -0.000483  -0.000336
    19  C    4.928586   0.350282  -0.037790  -0.043464  -0.044063   0.691251
    20  C    0.350282   4.904280   0.407234   0.400921   0.400445  -0.043784
    21  H   -0.037790   0.407234   0.567998  -0.028110  -0.026565  -0.002999
    22  H   -0.043464   0.400921  -0.028110   0.587505  -0.035883  -0.000050
    23  H   -0.044063   0.400445  -0.026565  -0.035883   0.586166  -0.000389
    24  C    0.691251  -0.043784  -0.002999  -0.000050  -0.000389   4.974252
    25  H   -0.040968   0.003404   0.000051  -0.000113  -0.000122   0.406210
    26  C   -0.050796  -0.007273  -0.002531   0.000310   0.000118   0.342688
    27  H   -0.001000  -0.002475  -0.001614  -0.000088   0.000142  -0.045019
    28  H    0.002291   0.000152   0.000079  -0.000014   0.000022  -0.042615
              25         26         27         28
     1  C   -0.000574   0.340287  -0.042496  -0.045850
     2  H    0.000131  -0.042354  -0.003108   0.004805
     3  H   -0.000093  -0.040655  -0.002748  -0.002901
     4  C    0.004129  -0.053428   0.005768  -0.003494
     5  C   -0.001192   0.000841  -0.000147   0.000122
     6  H    0.000064  -0.000146   0.000003   0.000006
     7  H   -0.001749  -0.000408  -0.000053   0.000040
     8  H    0.000067   0.000062   0.000012   0.000006
     9  C    0.000989  -0.005991   0.000106   0.002758
    10  H   -0.000001  -0.000076  -0.000048   0.000640
    11  C   -0.000012  -0.000069   0.000002  -0.000067
    12  H    0.000001  -0.000006   0.000000   0.000000
    13  H    0.000001  -0.000006   0.000000   0.000003
    14  H   -0.000011   0.000031  -0.000001  -0.000006
    15  C   -0.006582   0.003147   0.000047  -0.000096
    16  H    0.002252   0.000151   0.000005  -0.000010
    17  H    0.000153  -0.000131   0.000008   0.000009
    18  H    0.000191  -0.000071  -0.000006  -0.000002
    19  C   -0.040968  -0.050796  -0.001000   0.002291
    20  C    0.003404  -0.007273  -0.002475   0.000152
    21  H    0.000051  -0.002531  -0.001614   0.000079
    22  H   -0.000113   0.000310  -0.000088  -0.000014
    23  H   -0.000122   0.000118   0.000142   0.000022
    24  C    0.406210   0.342688  -0.045019  -0.042615
    25  H    0.546659  -0.038619   0.003483  -0.003816
    26  C   -0.038619   4.961144   0.411299   0.411459
    27  H    0.003483   0.411299   0.593427  -0.028835
    28  H   -0.003816   0.411459  -0.028835   0.586041
 Mulliken charges:
               1
     1  C   -0.226027
     2  H    0.112594
     3  H    0.119467
     4  C    0.009461
     5  C   -0.348585
     6  H    0.112829
     7  H    0.130116
     8  H    0.119204
     9  C   -0.151401
    10  H    0.112212
    11  C   -0.351206
    12  H    0.115705
    13  H    0.119511
    14  H    0.118284
    15  C   -0.342619
    16  H    0.119544
    17  H    0.116501
    18  H    0.114780
    19  C    0.023427
    20  C   -0.349114
    21  H    0.120598
    22  H    0.119255
    23  H    0.120161
    24  C   -0.164404
    25  H    0.126068
    26  C   -0.228973
    27  H    0.113338
    28  H    0.119273
 Sum of Mulliken charges =  -0.00000
 Mulliken charges with hydrogens summed into heavy atoms:
               1
     1  C    0.006034
     4  C    0.009461
     5  C    0.013565
     9  C   -0.039189
    11  C    0.002294
    15  C    0.008206
    19  C    0.023427
    20  C    0.010900
    24  C   -0.038336
    26  C    0.003638
 Electronic spatial extent (au):  <R**2>=           2248.8190
 Charge=             -0.0000 electrons
 Dipole moment (field-independent basis, Debye):
    X=             -0.4062    Y=              0.0417    Z=              0.1928  Tot=              0.4515
 Quadrupole moment (field-independent basis, Debye-Ang):
   XX=            -64.1246   YY=            -64.2712   ZZ=            -66.2531
   XY=              0.2454   XZ=             -1.9666   YZ=              0.1498
 Traceless Quadrupole moment (field-independent basis, Debye-Ang):
   XX=              0.7584   YY=              0.6118   ZZ=             -1.3702
   XY=              0.2454   XZ=             -1.9666   YZ=              0.1498
 Octapole moment (field-independent basis, Debye-Ang**2):
  XXX=             -6.9854  YYY=             -1.3734  ZZZ=              2.3183  XYY=              0.9452
  XXY=              1.8554  XXZ=             -2.1208  XZZ=              1.1283  YZZ=              1.1728
  YYZ=             -1.0163  XYZ=              2.1599
 Hexadecapole moment (field-independent basis, Debye-Ang**3):
 XXXX=          -2293.4658 YYYY=           -512.3342 ZZZZ=           -297.2751 XXXY=             -0.9249
 XXXZ=             -9.8617 YYYX=              3.4295 YYYZ=              0.0469 ZZZX=             -9.6493
 ZZZY=             -0.9385 XXYY=           -474.0027 XXZZ=           -442.9969 YYZZ=           -137.2096
 XXYZ=              6.5806 YYXZ=             -1.6631 ZZXY=             -2.0965
 N-N= 5.257931955922D+02 E-N=-1.956384192464D+03  KE= 3.887490289701D+02
 No NMR shielding tensors so no spin-rotation constants.
 Leave Link  601 at Fri Sep 17 21:16:11 2021, MaxMem=   524288000 cpu:               0.2 elap:               0.8
 (Enter /opt/gaussian/g16_legacy/l9999.exe)
 1\1\GINC-TRUENO93\FOpt\RMP2-FC\6-31G(d,p)\C10H18\JRAMOS\17-Sep-2021\0\
 \#p opt mp2/6-31g(d,p)\\Conformer number 008. Energy MM = 26.045 kcal/
 mol\\0,1\C,2.2375204014,1.2617603234,-9.0900344001\H,1.9231284883,0.27
 12239823,-9.4301557368\H,2.1356157845,1.9399857306,-9.9412058013\C,3.6
 827231278,1.2125742697,-8.6439454496\C,4.1778971952,-0.1343867798,-8.1
 932781217\H,5.1733195847,-0.0997122852,-7.7572147749\H,3.4947350535,-0
 .5591455876,-7.4573571562\H,4.2045791514,-0.8246251554,-9.0397593876\C
 ,4.4189978407,2.339590643,-8.6676865382\H,3.9312193707,3.2372881734,-9
 .0410950847\C,5.8442737105,2.525013222,-8.2442141858\H,6.2938615891,1.
 6078246605,-7.8726586941\H,6.4516755065,2.8792502012,-9.079150902\H,5.
 9185316241,3.2772122867,-7.4566900351\C,0.8148298785,-0.8834920433,-5.
 0946652684\H,1.6616667602,-0.4779212357,-4.543012728\H,-0.0674075063,-
 0.8348575,-4.4522118413\H,1.0065617722,-1.9413054442,-5.2887590315\C,0
 .5833112597,-0.1354179127,-6.3786544252\C,-0.5729632596,-0.6358377161,
 -7.1988370612\H,-0.7001933634,-0.0896726831,-8.1299501264\H,-0.4313326
 396,-1.6904909017,-7.4447422926\H,-1.5035949154,-0.5665011171,-6.63113
 24566\C,1.3745017683,0.8969773924,-6.7285217971\H,2.1900131014,1.15120
 13273,-6.0572019978\C,1.2819776497,1.7288046049,-7.974249221\H,0.26142
 70048,1.7419356706,-8.3615059104\H,1.5360240608,2.7625238739,-7.726009
 5744\\Version=EM64L-G16RevA.03\State=1-A\HF=-389.1537954\MP2=-390.5726
 197\RMSD=5.440e-09\RMSF=3.048e-06\Dipole=-0.0783419,-0.1042677,0.02550
 25\PG=C01 [X(C10H18)]\\@


 HEAVEN'S NET CASTS WIDE.
 THOUGH ITS MESHES ARE COARSE, NOTHING SLIPS THROUGH.

                                          -- LAO-TSU
 Job cpu time:       0 days  1 hours  6 minutes 38.4 seconds.
 Elapsed time:       0 days  1 hours  6 minutes 42.4 seconds.
 File lengths (MBytes):  RWF=     32 Int=      0 D2E=      0 Chk=      7 Scr=      1
 Normal termination of Gaussian 16 at Fri Sep 17 21:16:11 2021.
