 Entering Gaussian System, Link 0=/opt/gaussian/g16_legacy/g16
 Input=02-IsoP_026_gaussian.com
 Output=02-IsoP_026_gaussian.log
 Initial command:
 /opt/gaussian/g16_legacy/l1.exe "/scratch-local/jramos/2661518/Gau-7233.inp" -scrdir="/scratch-local/jramos/2661518/"
 Entering Link 1 = /opt/gaussian/g16_legacy/l1.exe PID=      7243.
  
 Copyright (c) 1988,1990,1992,1993,1995,1998,2003,2009,2016,
            Gaussian, Inc.  All Rights Reserved.
  
 This is part of the Gaussian(R) 16 program.  It is based on
 the Gaussian(R) 09 system (copyright 2009, Gaussian, Inc.),
 the Gaussian(R) 03 system (copyright 2003, Gaussian, Inc.),
 the Gaussian(R) 98 system (copyright 1998, Gaussian, Inc.),
 the Gaussian(R) 94 system (copyright 1995, Gaussian, Inc.),
 the Gaussian 92(TM) system (copyright 1992, Gaussian, Inc.),
 the Gaussian 90(TM) system (copyright 1990, Gaussian, Inc.),
 the Gaussian 88(TM) system (copyright 1988, Gaussian, Inc.),
 the Gaussian 86(TM) system (copyright 1986, Carnegie Mellon
 University), and the Gaussian 82(TM) system (copyright 1983,
 Carnegie Mellon University). Gaussian is a federally registered
 trademark of Gaussian, Inc.
  
 This software contains proprietary and confidential information,
 including trade secrets, belonging to Gaussian, Inc.
  
 This software is provided under written license and may be
 used, copied, transmitted, or stored only in accord with that
 written license.
  
 The following legend is applicable only to US Government
 contracts under FAR:
  
                    RESTRICTED RIGHTS LEGEND
  
 Use, reproduction and disclosure by the US Government is
 subject to restrictions as set forth in subparagraphs (a)
 and (c) of the Commercial Computer Software - Restricted
 Rights clause in FAR 52.227-19.
  
 Gaussian, Inc.
 340 Quinnipiac St., Bldg. 40, Wallingford CT 06492
  
  
 ---------------------------------------------------------------
 Warning -- This program may not be used in any manner that
 competes with the business of Gaussian, Inc. or will provide
 assistance to any competitor of Gaussian, Inc.  The licensee
 of this program is prohibited from giving any competitor of
 Gaussian, Inc. access to this program.  By using this program,
 the user acknowledges that Gaussian, Inc. is engaged in the
 business of creating and licensing software in the field of
 computational chemistry and represents and warrants to the
 licensee that it is not a competitor of Gaussian, Inc. and that
 it will not use this program in any manner prohibited above.
 ---------------------------------------------------------------
  

 Cite this work as:
 Gaussian 16, Revision A.03,
 M. J. Frisch, G. W. Trucks, H. B. Schlegel, G. E. Scuseria, 
 M. A. Robb, J. R. Cheeseman, G. Scalmani, V. Barone, 
 G. A. Petersson, H. Nakatsuji, X. Li, M. Caricato, A. V. Marenich, 
 J. Bloino, B. G. Janesko, R. Gomperts, B. Mennucci, H. P. Hratchian, 
 J. V. Ortiz, A. F. Izmaylov, J. L. Sonnenberg, D. Williams-Young, 
 F. Ding, F. Lipparini, F. Egidi, J. Goings, B. Peng, A. Petrone, 
 T. Henderson, D. Ranasinghe, V. G. Zakrzewski, J. Gao, N. Rega, 
 G. Zheng, W. Liang, M. Hada, M. Ehara, K. Toyota, R. Fukuda, 
 J. Hasegawa, M. Ishida, T. Nakajima, Y. Honda, O. Kitao, H. Nakai, 
 T. Vreven, K. Throssell, J. A. Montgomery, Jr., J. E. Peralta, 
 F. Ogliaro, M. J. Bearpark, J. J. Heyd, E. N. Brothers, K. N. Kudin, 
 V. N. Staroverov, T. A. Keith, R. Kobayashi, J. Normand, 
 K. Raghavachari, A. P. Rendell, J. C. Burant, S. S. Iyengar, 
 J. Tomasi, M. Cossi, J. M. Millam, M. Klene, C. Adamo, R. Cammi, 
 J. W. Ochterski, R. L. Martin, K. Morokuma, O. Farkas, 
 J. B. Foresman, and D. J. Fox, Gaussian, Inc., Wallingford CT, 2016.
 
 ******************************************
 Gaussian 16:  EM64L-G16RevA.03 25-Dec-2016
                17-Sep-2021 
 ******************************************
 %chk=02-IsoP_026_gaussian.chk
 %nproc=1
 Will use up to    1 processors via shared memory.
 %mem=4000Mb
 ---------------------
 #p opt mp2/6-31g(d,p)
 ---------------------
 1/18=20,19=15,38=1/1,3;
 2/9=110,12=2,17=6,18=5,40=1/2;
 3/5=1,6=6,7=101,11=9,25=1,30=1,71=1/1,2,3;
 4//1;
 5/5=2,38=5/2;
 8/6=4,10=2/1;
 9/15=2,16=-3/6;
 10/5=1/2;
 6/7=2,8=2,9=2,10=2/1;
 7/12=2/1,2,3,16;
 1/18=20,19=15/3(2);
 2/9=110/2;
 99//99;
 2/9=110/2;
 3/5=1,6=6,7=101,11=9,25=1,30=1,71=1/1,2,3;
 4/5=5,16=3,69=1/1;
 5/5=2,38=5/2;
 8/6=4,10=2/1;
 9/15=2,16=-3/6;
 10/5=1/2;
 7/12=2/1,2,3,16;
 1/18=20,19=15/3(-8);
 2/9=110/2;
 6/7=2,8=2,9=2,10=2/1;
 99//99;
 Leave Link    1 at Fri Sep 17 20:09:27 2021, MaxMem=   524288000 cpu:               0.0 elap:               0.1
 (Enter /opt/gaussian/g16_legacy/l101.exe)
 -------------------------------------------------
 Conformer number 026. Energy MM = 30.027 kcal/mol
 -------------------------------------------------
 Symbolic Z-matrix:
 Charge =  0 Multiplicity = 1
 C                     2.187     1.3417   -8.8831 
 H                     1.9282    0.3008   -9.1213 
 H                     2.0492    1.9212   -9.8061 
 C                     3.6645    1.379    -8.5005 
 C                     4.0474    1.8488   -7.123 
 H                     5.0667    2.2399   -7.0825 
 H                     3.4165    2.6738   -6.7828 
 H                     3.9608    1.024    -6.4096 
 C                     4.5737    0.9529   -9.4046 
 H                     4.2192    0.6236   -10.3796 
 C                     6.0551    0.8282   -9.2209 
 H                     6.4       1.0837   -8.2183 
 H                     6.3599   -0.2051   -9.4129 
 H                     6.5731    1.4755   -9.9346 
 C                    -2.4589    0.57     -8.365 
 H                    -2.7797    1.5021   -8.8409 
 H                    -2.6451   -0.2497   -9.0691 
 H                    -3.0869    0.4193   -7.4816 
 C                    -1.0076    0.6007   -7.9699 
 C                    -0.5049   -0.6494   -7.2994 
 H                     0.3015   -0.4537   -6.588 
 H                    -1.3061   -1.1382   -6.7349 
 H                    -0.1411   -1.3557   -8.0528 
 C                    -0.241     1.6813   -8.2203 
 H                    -0.6847    2.5334   -8.7342 
 C                     1.1994    1.8638   -7.8292 
 H                     1.362     2.9383   -7.6736 
 H                     1.3841    1.389    -6.8604 
 
 ITRead=  0  0  0  0  0  0  0  0  0  0  0  0  0  0  0  0  0  0  0  0
 ITRead=  0  0  0  0  0  0  0  0
 MicOpt= -1 -1 -1 -1 -1 -1 -1 -1 -1 -1 -1 -1 -1 -1 -1 -1 -1 -1 -1 -1
 MicOpt= -1 -1 -1 -1 -1 -1 -1 -1
 NAtoms=     28 NQM=       28 NQMF=       0 NMMI=      0 NMMIF=      0
                NMic=       0 NMicF=      0.
                    Isotopes and Nuclear Properties:
 (Nuclear quadrupole moments (NQMom) in fm**2, nuclear magnetic moments (NMagM)
  in nuclear magnetons)

  Atom         1           2           3           4           5           6           7           8           9          10
 IAtWgt=          12           1           1          12          12           1           1           1          12           1
 AtmWgt=  12.0000000   1.0078250   1.0078250  12.0000000  12.0000000   1.0078250   1.0078250   1.0078250  12.0000000   1.0078250
 NucSpn=           0           1           1           0           0           1           1           1           0           1
 AtZEff=  -0.0000000  -0.0000000  -0.0000000  -0.0000000  -0.0000000  -0.0000000  -0.0000000  -0.0000000  -0.0000000  -0.0000000
 NQMom=    0.0000000   0.0000000   0.0000000   0.0000000   0.0000000   0.0000000   0.0000000   0.0000000   0.0000000   0.0000000
 NMagM=    0.0000000   2.7928460   2.7928460   0.0000000   0.0000000   2.7928460   2.7928460   2.7928460   0.0000000   2.7928460
 AtZNuc=   6.0000000   1.0000000   1.0000000   6.0000000   6.0000000   1.0000000   1.0000000   1.0000000   6.0000000   1.0000000

  Atom        11          12          13          14          15          16          17          18          19          20
 IAtWgt=          12           1           1           1          12           1           1           1          12          12
 AtmWgt=  12.0000000   1.0078250   1.0078250   1.0078250  12.0000000   1.0078250   1.0078250   1.0078250  12.0000000  12.0000000
 NucSpn=           0           1           1           1           0           1           1           1           0           0
 AtZEff=  -0.0000000  -0.0000000  -0.0000000  -0.0000000  -0.0000000  -0.0000000  -0.0000000  -0.0000000  -0.0000000  -0.0000000
 NQMom=    0.0000000   0.0000000   0.0000000   0.0000000   0.0000000   0.0000000   0.0000000   0.0000000   0.0000000   0.0000000
 NMagM=    0.0000000   2.7928460   2.7928460   2.7928460   0.0000000   2.7928460   2.7928460   2.7928460   0.0000000   0.0000000
 AtZNuc=   6.0000000   1.0000000   1.0000000   1.0000000   6.0000000   1.0000000   1.0000000   1.0000000   6.0000000   6.0000000

  Atom        21          22          23          24          25          26          27          28
 IAtWgt=           1           1           1          12           1          12           1           1
 AtmWgt=   1.0078250   1.0078250   1.0078250  12.0000000   1.0078250  12.0000000   1.0078250   1.0078250
 NucSpn=           1           1           1           0           1           0           1           1
 AtZEff=  -0.0000000  -0.0000000  -0.0000000  -0.0000000  -0.0000000  -0.0000000  -0.0000000  -0.0000000
 NQMom=    0.0000000   0.0000000   0.0000000   0.0000000   0.0000000   0.0000000   0.0000000   0.0000000
 NMagM=    2.7928460   2.7928460   2.7928460   0.0000000   2.7928460   0.0000000   2.7928460   2.7928460
 AtZNuc=   1.0000000   1.0000000   1.0000000   6.0000000   1.0000000   6.0000000   1.0000000   1.0000000
 Leave Link  101 at Fri Sep 17 20:09:27 2021, MaxMem=   524288000 cpu:               0.3 elap:               0.3
 (Enter /opt/gaussian/g16_legacy/l103.exe)

 GradGradGradGradGradGradGradGradGradGradGradGradGradGradGradGradGradGrad
 Berny optimization.
 Initialization pass.
                           ----------------------------
                           !    Initial Parameters    !
                           ! (Angstroms and Degrees)  !
 --------------------------                            --------------------------
 ! Name  Definition              Value          Derivative Info.                !
 --------------------------------------------------------------------------------
 ! R1    R(1,2)                  1.0987         estimate D2E/DX2                !
 ! R2    R(1,3)                  1.0985         estimate D2E/DX2                !
 ! R3    R(1,4)                  1.5267         estimate D2E/DX2                !
 ! R4    R(1,26)                 1.5358         estimate D2E/DX2                !
 ! R5    R(4,5)                  1.5049         estimate D2E/DX2                !
 ! R6    R(4,9)                  1.3511         estimate D2E/DX2                !
 ! R7    R(5,6)                  1.0925         estimate D2E/DX2                !
 ! R8    R(5,7)                  1.0929         estimate D2E/DX2                !
 ! R9    R(5,8)                  1.094          estimate D2E/DX2                !
 ! R10   R(9,10)                 1.0885         estimate D2E/DX2                !
 ! R11   R(9,11)                 1.4979         estimate D2E/DX2                !
 ! R12   R(11,12)                1.0906         estimate D2E/DX2                !
 ! R13   R(11,13)                1.0943         estimate D2E/DX2                !
 ! R14   R(11,14)                1.0939         estimate D2E/DX2                !
 ! R15   R(15,16)                1.0946         estimate D2E/DX2                !
 ! R16   R(15,17)                1.0965         estimate D2E/DX2                !
 ! R17   R(15,18)                1.0943         estimate D2E/DX2                !
 ! R18   R(15,19)                1.5044         estimate D2E/DX2                !
 ! R19   R(19,20)                1.505          estimate D2E/DX2                !
 ! R20   R(19,24)                1.3484         estimate D2E/DX2                !
 ! R21   R(20,21)                1.093          estimate D2E/DX2                !
 ! R22   R(20,22)                1.0952         estimate D2E/DX2                !
 ! R23   R(20,23)                1.0949         estimate D2E/DX2                !
 ! R24   R(24,25)                1.0895         estimate D2E/DX2                !
 ! R25   R(24,26)                1.5037         estimate D2E/DX2                !
 ! R26   R(26,27)                1.0978         estimate D2E/DX2                !
 ! R27   R(26,28)                1.0946         estimate D2E/DX2                !
 ! A1    A(2,1,3)              106.742          estimate D2E/DX2                !
 ! A2    A(2,1,4)              107.7843         estimate D2E/DX2                !
 ! A3    A(2,1,26)             108.6247         estimate D2E/DX2                !
 ! A4    A(3,1,4)              108.6072         estimate D2E/DX2                !
 ! A5    A(3,1,26)             108.4563         estimate D2E/DX2                !
 ! A6    A(4,1,26)             116.2353         estimate D2E/DX2                !
 ! A7    A(1,4,5)              118.8976         estimate D2E/DX2                !
 ! A8    A(1,4,9)              118.4136         estimate D2E/DX2                !
 ! A9    A(5,4,9)              122.6641         estimate D2E/DX2                !
 ! A10   A(4,5,6)              112.5237         estimate D2E/DX2                !
 ! A11   A(4,5,7)              111.9442         estimate D2E/DX2                !
 ! A12   A(4,5,8)              109.9622         estimate D2E/DX2                !
 ! A13   A(6,5,7)              104.8815         estimate D2E/DX2                !
 ! A14   A(6,5,8)              108.6381         estimate D2E/DX2                !
 ! A15   A(7,5,8)              108.6905         estimate D2E/DX2                !
 ! A16   A(4,9,10)             118.4008         estimate D2E/DX2                !
 ! A17   A(4,9,11)             127.5657         estimate D2E/DX2                !
 ! A18   A(10,9,11)            114.0015         estimate D2E/DX2                !
 ! A19   A(9,11,12)            113.9529         estimate D2E/DX2                !
 ! A20   A(9,11,13)            109.4236         estimate D2E/DX2                !
 ! A21   A(9,11,14)            109.8173         estimate D2E/DX2                !
 ! A22   A(12,11,13)           107.123          estimate D2E/DX2                !
 ! A23   A(12,11,14)           108.1433         estimate D2E/DX2                !
 ! A24   A(13,11,14)           108.2024         estimate D2E/DX2                !
 ! A25   A(16,15,17)           107.916          estimate D2E/DX2                !
 ! A26   A(16,15,18)           107.4607         estimate D2E/DX2                !
 ! A27   A(16,15,19)           112.304          estimate D2E/DX2                !
 ! A28   A(17,15,18)           108.5404         estimate D2E/DX2                !
 ! A29   A(17,15,19)           110.3471         estimate D2E/DX2                !
 ! A30   A(18,15,19)           110.1461         estimate D2E/DX2                !
 ! A31   A(15,19,20)           114.9783         estimate D2E/DX2                !
 ! A32   A(15,19,24)           121.0674         estimate D2E/DX2                !
 ! A33   A(20,19,24)           123.9531         estimate D2E/DX2                !
 ! A34   A(19,20,21)           112.8102         estimate D2E/DX2                !
 ! A35   A(19,20,22)           110.8542         estimate D2E/DX2                !
 ! A36   A(19,20,23)           109.892          estimate D2E/DX2                !
 ! A37   A(21,20,22)           106.5085         estimate D2E/DX2                !
 ! A38   A(21,20,23)           108.5551         estimate D2E/DX2                !
 ! A39   A(22,20,23)           108.0487         estimate D2E/DX2                !
 ! A40   A(19,24,25)           118.8711         estimate D2E/DX2                !
 ! A41   A(19,24,26)           126.412          estimate D2E/DX2                !
 ! A42   A(25,24,26)           114.7003         estimate D2E/DX2                !
 ! A43   A(1,26,24)            113.3442         estimate D2E/DX2                !
 ! A44   A(1,26,27)            109.5576         estimate D2E/DX2                !
 ! A45   A(1,26,28)            110.5727         estimate D2E/DX2                !
 ! A46   A(24,26,27)           107.3098         estimate D2E/DX2                !
 ! A47   A(24,26,28)           109.8282         estimate D2E/DX2                !
 ! A48   A(27,26,28)           105.9094         estimate D2E/DX2                !
 ! D1    D(2,1,4,5)           -119.1851         estimate D2E/DX2                !
 ! D2    D(2,1,4,9)             59.0543         estimate D2E/DX2                !
 ! D3    D(3,1,4,5)            125.5251         estimate D2E/DX2                !
 ! D4    D(3,1,4,9)            -56.2355         estimate D2E/DX2                !
 ! D5    D(26,1,4,5)             2.9552         estimate D2E/DX2                !
 ! D6    D(26,1,4,9)          -178.8054         estimate D2E/DX2                !
 ! D7    D(2,1,26,24)          -53.0047         estimate D2E/DX2                !
 ! D8    D(2,1,26,27)         -172.8214         estimate D2E/DX2                !
 ! D9    D(2,1,26,28)           70.8159         estimate D2E/DX2                !
 ! D10   D(3,1,26,24)           62.6497         estimate D2E/DX2                !
 ! D11   D(3,1,26,27)          -57.1669         estimate D2E/DX2                !
 ! D12   D(3,1,26,28)         -173.5297         estimate D2E/DX2                !
 ! D13   D(4,1,26,24)         -174.7013         estimate D2E/DX2                !
 ! D14   D(4,1,26,27)           65.4821         estimate D2E/DX2                !
 ! D15   D(4,1,26,28)          -50.8807         estimate D2E/DX2                !
 ! D16   D(1,4,5,6)           -155.4938         estimate D2E/DX2                !
 ! D17   D(1,4,5,7)            -37.6653         estimate D2E/DX2                !
 ! D18   D(1,4,5,8)             83.2595         estimate D2E/DX2                !
 ! D19   D(9,4,5,6)             26.3456         estimate D2E/DX2                !
 ! D20   D(9,4,5,7)            144.1741         estimate D2E/DX2                !
 ! D21   D(9,4,5,8)            -94.9011         estimate D2E/DX2                !
 ! D22   D(1,4,9,10)             1.5379         estimate D2E/DX2                !
 ! D23   D(1,4,9,11)          -176.2662         estimate D2E/DX2                !
 ! D24   D(5,4,9,10)           179.7069         estimate D2E/DX2                !
 ! D25   D(5,4,9,11)             1.9029         estimate D2E/DX2                !
 ! D26   D(4,9,11,12)            2.4531         estimate D2E/DX2                !
 ! D27   D(4,9,11,13)          122.3381         estimate D2E/DX2                !
 ! D28   D(4,9,11,14)         -119.0321         estimate D2E/DX2                !
 ! D29   D(10,9,11,12)        -175.4325         estimate D2E/DX2                !
 ! D30   D(10,9,11,13)         -55.5474         estimate D2E/DX2                !
 ! D31   D(10,9,11,14)          63.0824         estimate D2E/DX2                !
 ! D32   D(16,15,19,20)        179.5538         estimate D2E/DX2                !
 ! D33   D(16,15,19,24)         -0.825          estimate D2E/DX2                !
 ! D34   D(17,15,19,20)        -59.9986         estimate D2E/DX2                !
 ! D35   D(17,15,19,24)        119.6226         estimate D2E/DX2                !
 ! D36   D(18,15,19,20)         59.8219         estimate D2E/DX2                !
 ! D37   D(18,15,19,24)       -120.5568         estimate D2E/DX2                !
 ! D38   D(15,19,20,21)       -149.8592         estimate D2E/DX2                !
 ! D39   D(15,19,20,22)        -30.5126         estimate D2E/DX2                !
 ! D40   D(15,19,20,23)         88.8558         estimate D2E/DX2                !
 ! D41   D(24,19,20,21)         30.5319         estimate D2E/DX2                !
 ! D42   D(24,19,20,22)        149.8785         estimate D2E/DX2                !
 ! D43   D(24,19,20,23)        -90.7531         estimate D2E/DX2                !
 ! D44   D(15,19,24,25)         -1.1493         estimate D2E/DX2                !
 ! D45   D(15,19,24,26)        177.2821         estimate D2E/DX2                !
 ! D46   D(20,19,24,25)        178.4368         estimate D2E/DX2                !
 ! D47   D(20,19,24,26)         -3.1318         estimate D2E/DX2                !
 ! D48   D(19,24,26,1)          88.8666         estimate D2E/DX2                !
 ! D49   D(19,24,26,27)       -150.0423         estimate D2E/DX2                !
 ! D50   D(19,24,26,28)        -35.3597         estimate D2E/DX2                !
 ! D51   D(25,24,26,1)         -92.6453         estimate D2E/DX2                !
 ! D52   D(25,24,26,27)         28.4457         estimate D2E/DX2                !
 ! D53   D(25,24,26,28)        143.1283         estimate D2E/DX2                !
 --------------------------------------------------------------------------------
 Trust Radius=3.00D-01 FncErr=1.00D-07 GrdErr=1.00D-07 EigMax=2.50D+02 EigMin=1.00D-04
 Number of steps in this run=    138 maximum allowed number of steps=    168.
 GradGradGradGradGradGradGradGradGradGradGradGradGradGradGradGradGradGrad

 Leave Link  103 at Fri Sep 17 20:09:27 2021, MaxMem=   524288000 cpu:               0.0 elap:               0.0
 (Enter /opt/gaussian/g16_legacy/l202.exe)
                          Input orientation:                          
 ---------------------------------------------------------------------
 Center     Atomic      Atomic             Coordinates (Angstroms)
 Number     Number       Type             X           Y           Z
 ---------------------------------------------------------------------
      1          6           0        2.187000    1.341700   -8.883100
      2          1           0        1.928200    0.300800   -9.121300
      3          1           0        2.049200    1.921200   -9.806100
      4          6           0        3.664500    1.379000   -8.500500
      5          6           0        4.047400    1.848800   -7.123000
      6          1           0        5.066700    2.239900   -7.082500
      7          1           0        3.416500    2.673800   -6.782800
      8          1           0        3.960800    1.024000   -6.409600
      9          6           0        4.573700    0.952900   -9.404600
     10          1           0        4.219200    0.623600  -10.379600
     11          6           0        6.055100    0.828200   -9.220900
     12          1           0        6.400000    1.083700   -8.218300
     13          1           0        6.359900   -0.205100   -9.412900
     14          1           0        6.573100    1.475500   -9.934600
     15          6           0       -2.458900    0.570000   -8.365000
     16          1           0       -2.779700    1.502100   -8.840900
     17          1           0       -2.645100   -0.249700   -9.069100
     18          1           0       -3.086900    0.419300   -7.481600
     19          6           0       -1.007600    0.600700   -7.969900
     20          6           0       -0.504900   -0.649400   -7.299400
     21          1           0        0.301500   -0.453700   -6.588000
     22          1           0       -1.306100   -1.138200   -6.734900
     23          1           0       -0.141100   -1.355700   -8.052800
     24          6           0       -0.241000    1.681300   -8.220300
     25          1           0       -0.684700    2.533400   -8.734200
     26          6           0        1.199400    1.863800   -7.829200
     27          1           0        1.362000    2.938300   -7.673600
     28          1           0        1.384100    1.389000   -6.860400
 ---------------------------------------------------------------------
                    Distance matrix (angstroms):
                    1          2          3          4          5
     1  C    0.000000
     2  H    1.098722   0.000000
     3  H    1.098516   1.763317   0.000000
     4  C    1.526689   2.136035   2.146571   0.000000
     5  C    2.610784   3.298563   3.346202   1.504935   0.000000
     6  H    3.513061   4.215092   4.077361   2.172104   1.092507
     7  H    2.774423   3.648938   3.402390   2.165295   1.092884
     8  H    3.060311   3.465227   3.999424   2.141420   1.093953
     9  C    2.473755   2.739373   2.733479   1.351149   2.507055
    10  H    2.623932   2.633667   2.592599   2.099842   3.483687
    11  C    3.916630   4.161655   4.193369   2.556819   3.077932
    12  H    4.272925   4.628751   4.706589   2.765827   2.705510
    13  H    4.481782   4.470003   4.822644   3.256843   3.848351
    14  H    4.512364   4.859678   4.547618   3.244366   3.797843
    15  C    4.737967   4.459944   4.921938   6.178096   6.746098
    16  H    4.969469   4.866833   4.942219   6.454358   7.048452
    17  H    5.090809   4.606609   5.224216   6.541179   7.278775
    18  H    5.534351   5.277678   5.834255   6.894968   7.284937
    19  C    3.404186   3.167741   3.802549   4.766110   5.275227
    20  C    3.703905   3.184678   4.406241   4.789671   5.195725
    21  H    3.470743   3.103713   4.364719   4.280913   4.429390
    22  H    4.792329   4.269230   5.481810   5.844699   6.142699
    23  H    3.658608   2.857917   4.313879   4.707612   5.355080
    24  C    2.539649   2.724520   2.795949   3.927191   4.429729
    25  H    3.112713   3.458554   2.999661   4.505862   5.045534
    26  C    1.535789   2.154911   2.152577   2.600460   2.934288
    27  H    2.166252   3.061507   2.460547   2.901153   2.949838
    28  H    2.176741   2.567468   3.066389   2.808959   2.715427
                    6          7          8          9         10
     6  H    0.000000
     7  H    1.732411   0.000000
     8  H    1.776013   1.776902   0.000000
     9  C    2.700290   3.342820   3.057896   0.000000
    10  H    3.768494   4.217181   3.998499   1.088455   0.000000
    11  C    2.746377   4.038908   3.511102   1.497946   2.180591
    12  H    2.098697   3.672921   3.037212   2.181694   3.104641
    13  H    3.616788   4.885601   4.035614   2.128742   2.490753
    14  H    3.314819   4.618862   4.410622   2.133451   2.542559
    15  C    7.814603   6.438141   6.726236   7.119329   6.975565
    16  H    8.074795   6.633366   7.181514   7.395395   7.219693
    17  H    8.343653   7.107532   7.234167   7.325973   7.042633
    18  H    8.363914   6.918476   7.154364   7.916278   7.862521
    19  C    6.353863   5.027883   5.224817   5.773501   5.755573
    20  C    6.279954   5.166034   4.851236   5.726378   5.781460
    21  H    5.496102   4.418419   3.950430   5.306925   5.557444
    22  H    7.221147   6.069315   5.702733   6.787639   6.849578
    23  H    6.402422   5.523250   5.018831   5.420917   5.323894
    24  C    5.456950   4.053242   4.622316   5.011434   5.067020
    25  H    5.991065   4.543954   5.409503   5.531563   5.513884
    26  C    3.956643   2.581973   3.216498   3.833735   4.142684
    27  H    3.816014   2.254874   3.466411   4.153696   4.565508
    28  H    3.786146   2.405698   2.641179   4.103253   4.583492
                   11         12         13         14         15
    11  C    0.000000
    12  H    1.090616   0.000000
    13  H    1.094292   1.757749   0.000000
    14  H    1.093933   1.768942   1.772580   0.000000
    15  C    8.560808   8.874994   8.914601   9.211981   0.000000
    16  H    8.868609   9.210298   9.315257   9.416568   1.094625
    17  H    8.768032   9.182355   9.011671   9.418100   1.096511
    18  H    9.314963   9.538628   9.662392  10.022393   1.094299
    19  C    7.176245   7.427485   7.550604   7.879869   1.504433
    20  C    6.993502   7.178137   7.196511   7.845863   2.537825
    21  H    6.455954   6.497167   6.689251   7.365766   3.438822
    22  H    8.014624   8.156059   8.173733   8.896702   2.627569
    23  H    6.672838   6.983126   6.740679   7.525779   3.029519
    24  C    6.431940   6.667834   6.967975   7.029448   2.484956
    25  H    6.969181   7.249880   7.588571   7.432077   2.671897
    26  C    5.156270   5.273158   5.780935   5.784474   3.917162
    27  H    5.373253   5.396080   6.155090   5.865788   4.548204
    28  H    5.263525   5.205416   5.815066   6.031908   4.207521
                   16         17         18         19         20
    16  H    0.000000
    17  H    1.771721   0.000000
    18  H    1.764801   1.778456   0.000000
    19  C    2.170599   2.147749   2.143556   0.000000
    20  C    3.489970   2.805718   2.800364   1.505001   0.000000
    21  H    4.288882   3.857451   3.611358   2.176040   1.093009
    22  H    3.684823   2.833874   2.480850   2.153625   1.095220
    23  H    3.968669   2.919952   3.486349   2.141307   1.094907
    24  C    2.619591   3.198268   3.199604   1.348359   2.519893
    25  H    2.337518   3.420668   3.436421   2.103271   3.495883
    26  C    4.121602   4.558993   4.536494   2.546776   3.082450
    27  H    4.536402   5.307317   5.116145   3.341732   4.061642
    28  H    4.612201   4.878334   4.616931   2.751842   2.813559
                   21         22         23         24         25
    21  H    0.000000
    22  H    1.753425   0.000000
    23  H    1.776271   1.772397   0.000000
    24  C    2.741703   3.360124   3.043256   0.000000
    25  H    3.808088   4.226581   3.985587   1.089512   0.000000
    26  C    2.778058   4.060422   3.494584   1.503668   2.194817
    27  H    3.716026   4.961630   4.565253   2.109156   2.340469
    28  H    2.154476   3.693192   3.358784   2.139093   3.016739
                   26         27         28
    26  C    0.000000
    27  H    1.097816   0.000000
    28  H    1.094588   1.749889   0.000000
 Stoichiometry    C10H18
 Framework group  C1[X(C10H18)]
 Deg. of freedom    78
 Full point group                 C1      NOp   1
 Largest Abelian subgroup         C1      NOp   1
 Largest concise Abelian subgroup C1      NOp   1
                         Standard orientation:                         
 ---------------------------------------------------------------------
 Center     Atomic      Atomic             Coordinates (Angstroms)
 Number     Number       Type             X           Y           Z
 ---------------------------------------------------------------------
      1          6           0        0.524887   -0.141401   -0.618512
      2          1           0        0.186927   -1.099807   -0.200862
      3          1           0        0.554573   -0.264610   -1.709693
      4          6           0        1.944995    0.110549   -0.117918
      5          6           0        2.216025    1.334087    0.715347
      6          1           0        3.259523    1.653366    0.662962
      7          1           0        1.640730    2.197596    0.372149
      8          1           0        1.962702    1.137307    1.761214
      9          6           0        2.901258   -0.797231   -0.413045
     10          1           0        2.627285   -1.659814   -1.017712
     11          6           0        4.330812   -0.796093    0.034409
     12          1           0        4.584408    0.026254    0.704392
     13          1           0        4.545203   -1.725918    0.570076
     14          1           0        4.991719   -0.742798   -0.835677
     15          6           0       -4.204989   -0.368420   -0.460188
     16          1           0       -4.369884    0.065074   -1.451700
     17          1           0       -4.395014   -1.446244   -0.527427
     18          1           0       -4.941689    0.073153    0.217880
     19          6           0       -2.812880   -0.113517    0.050081
     20          6           0       -2.523814   -0.675552    1.415945
     21          1           0       -1.787456   -0.087016    1.969183
     22          1           0       -3.430891   -0.695285    2.029401
     23          1           0       -2.152949   -1.701774    1.325670
     24          6           0       -1.913519    0.564818   -0.690921
     25          1           0       -2.203917    0.913482   -1.681446
     26          6           0       -0.515775    0.935813   -0.278984
     27          1           0       -0.259934    1.869869   -0.795980
     28          1           0       -0.493334    1.168846    0.790275
 ---------------------------------------------------------------------
 Rotational constants (GHZ):           3.1932551           0.4527329           0.4469041
 Leave Link  202 at Fri Sep 17 20:09:27 2021, MaxMem=   524288000 cpu:               0.0 elap:               0.0
 (Enter /opt/gaussian/g16_legacy/l301.exe)
 Standard basis: 6-31G(d,p) (6D, 7F)
 Ernie: Thresh=  0.10000D-02 Tol=  0.10000D-05 Strict=F.
 There are   240 symmetry adapted cartesian basis functions of A   symmetry.
 There are   240 symmetry adapted basis functions of A   symmetry.
   240 basis functions,   406 primitive gaussians,   240 cartesian basis functions
    39 alpha electrons       39 beta electrons
       nuclear repulsion energy       510.0826631954 Hartrees.
 IExCor=    0 DFT=F Ex=HF Corr=None ExCW=0 ScaHFX=  1.000000
 ScaDFX=  1.000000  1.000000  1.000000  1.000000 ScalE2=  1.000000  1.000000
 IRadAn=      5 IRanWt=     -1 IRanGd=            0 ICorTp=0 IEmpDi=  4
 NAtoms=   28 NActive=   28 NUniq=   28 SFac= 1.00D+00 NAtFMM=   60 NAOKFM=F Big=F
 Integral buffers will be    131072 words long.
 Raffenetti 1 integral format.
 Two-electron integral symmetry is turned on.
 Leave Link  301 at Fri Sep 17 20:09:27 2021, MaxMem=   524288000 cpu:               0.1 elap:               0.1
 (Enter /opt/gaussian/g16_legacy/l302.exe)
 NPDir=0 NMtPBC=     1 NCelOv=     1 NCel=       1 NClECP=     1 NCelD=      1
         NCelK=      1 NCelE2=     1 NClLst=     1 CellRange=     0.0.
 One-electron integrals computed using PRISM.
 One-electron integral symmetry used in STVInt
 NBasis=   240 RedAO= T EigKep=  2.23D-03  NBF=   240
 NBsUse=   240 1.00D-06 EigRej= -1.00D+00 NBFU=   240
 Leave Link  302 at Fri Sep 17 20:09:28 2021, MaxMem=   524288000 cpu:               0.3 elap:               0.3
 (Enter /opt/gaussian/g16_legacy/l303.exe)
 DipDrv:  MaxL=1.
 Leave Link  303 at Fri Sep 17 20:09:28 2021, MaxMem=   524288000 cpu:               0.1 elap:               0.1
 (Enter /opt/gaussian/g16_legacy/l401.exe)
 ExpMin= 1.61D-01 ExpMax= 3.05D+03 ExpMxC= 4.57D+02 IAcc=3 IRadAn=         5 AccDes= 0.00D+00
 Harris functional with IExCor=  205 and IRadAn=       5 diagonalized for initial guess.
 HarFok:  IExCor=  205 AccDes= 0.00D+00 IRadAn=         5 IDoV= 1 UseB2=F ITyADJ=14
 ICtDFT=  3500011 ScaDFX=  1.000000  1.000000  1.000000  1.000000
 FoFCou: FMM=F IPFlag=           0 FMFlag=      100000 FMFlg1=           0
         NFxFlg=           0 DoJE=T BraDBF=F KetDBF=T FulRan=T
         wScrn=  0.000000 ICntrl=       500 IOpCl=  0 I1Cent=   200000004 NGrid=           0
         NMat0=    1 NMatS0=      1 NMatT0=    0 NMatD0=    1 NMtDS0=    0 NMtDT0=    0
 Petite list used in FoFCou.
 Harris En= -390.103553567470    
 JPrj=0 DoOrth=F DoCkMO=F.
 Leave Link  401 at Fri Sep 17 20:09:39 2021, MaxMem=   524288000 cpu:              10.8 elap:              10.8
 (Enter /opt/gaussian/g16_legacy/l502.exe)
 Keep R1 ints in memory in canonical form, NReq=425198025.
 FoFCou: FMM=F IPFlag=           0 FMFlag=           0 FMFlg1=           0
         NFxFlg=           0 DoJE=F BraDBF=F KetDBF=F FulRan=T
         wScrn=  0.000000 ICntrl=       600 IOpCl=  0 I1Cent=           0 NGrid=           0
         NMat0=    1 NMatS0=  28920 NMatT0=    0 NMatD0=    1 NMtDS0=    0 NMtDT0=    0
 Symmetry not used in FoFCou.
 Two-electron integral symmetry not used.
 Closed shell SCF:
 Using DIIS extrapolation, IDIIS=  1040.
 NGot=   524288000 LenX=   105970886 LenY=   105912845
 Requested convergence on RMS density matrix=1.00D-08 within 128 cycles.
 Requested convergence on MAX density matrix=1.00D-06.
 Requested convergence on             energy=1.00D-06.
 No special actions if energy rises.

 Cycle   1  Pass 1  IDiag  1:
 E= -388.524149548867    
 DIIS: error= 4.69D-02 at cycle   1 NSaved=   1.
 NSaved= 1 IEnMin= 1 EnMin= -388.524149548867     IErMin= 1 ErrMin= 4.69D-02
 ErrMax= 4.69D-02  0.00D+00 EMaxC= 1.00D-01 BMatC= 8.07D-01 BMatP= 8.07D-01
 IDIUse=3 WtCom= 5.31D-01 WtEn= 4.69D-01
 Coeff-Com:  0.100D+01
 Coeff-En:   0.100D+01
 Coeff:      0.100D+01
 Gap=     0.512 Goal=   None    Shift=    0.000
 GapD=    0.512 DampG=2.000 DampE=0.500 DampFc=1.0000 IDamp=-1.
 RMSDP=4.02D-03 MaxDP=1.16D-01              OVMax= 1.31D-01

 Cycle   2  Pass 1  IDiag  1:
 E= -389.064842804452     Delta-E=       -0.540693255584 Rises=F Damp=F
 DIIS: error= 1.37D-02 at cycle   2 NSaved=   2.
 NSaved= 2 IEnMin= 2 EnMin= -389.064842804452     IErMin= 2 ErrMin= 1.37D-02
 ErrMax= 1.37D-02  0.00D+00 EMaxC= 1.00D-01 BMatC= 8.61D-02 BMatP= 8.07D-01
 IDIUse=3 WtCom= 8.63D-01 WtEn= 1.37D-01
 Coeff-Com:  0.182D+00 0.818D+00
 Coeff-En:   0.000D+00 0.100D+01
 Coeff:      0.157D+00 0.843D+00
 Gap=     0.547 Goal=   None    Shift=    0.000
 RMSDP=1.59D-03 MaxDP=3.10D-02 DE=-5.41D-01 OVMax= 4.40D-02

 Cycle   3  Pass 1  IDiag  1:
 E= -389.141626672365     Delta-E=       -0.076783867913 Rises=F Damp=F
 DIIS: error= 2.78D-03 at cycle   3 NSaved=   3.
 NSaved= 3 IEnMin= 3 EnMin= -389.141626672365     IErMin= 3 ErrMin= 2.78D-03
 ErrMax= 2.78D-03  0.00D+00 EMaxC= 1.00D-01 BMatC= 2.94D-03 BMatP= 8.61D-02
 IDIUse=3 WtCom= 9.72D-01 WtEn= 2.78D-02
 Coeff-Com: -0.243D-01 0.101D+00 0.923D+00
 Coeff-En:   0.000D+00 0.000D+00 0.100D+01
 Coeff:     -0.237D-01 0.982D-01 0.925D+00
 Gap=     0.499 Goal=   None    Shift=    0.000
 RMSDP=2.51D-04 MaxDP=6.08D-03 DE=-7.68D-02 OVMax= 9.61D-03

 Cycle   4  Pass 1  IDiag  1:
 E= -389.145033499423     Delta-E=       -0.003406827058 Rises=F Damp=F
 DIIS: error= 4.57D-04 at cycle   4 NSaved=   4.
 NSaved= 4 IEnMin= 4 EnMin= -389.145033499423     IErMin= 4 ErrMin= 4.57D-04
 ErrMax= 4.57D-04  0.00D+00 EMaxC= 1.00D-01 BMatC= 8.18D-05 BMatP= 2.94D-03
 IDIUse=3 WtCom= 9.95D-01 WtEn= 4.57D-03
 Coeff-Com: -0.347D-02-0.484D-02 0.704D-01 0.938D+00
 Coeff-En:   0.000D+00 0.000D+00 0.000D+00 0.100D+01
 Coeff:     -0.345D-02-0.482D-02 0.701D-01 0.938D+00
 Gap=     0.499 Goal=   None    Shift=    0.000
 RMSDP=7.24D-05 MaxDP=1.65D-03 DE=-3.41D-03 OVMax= 3.50D-03

 Cycle   5  Pass 1  IDiag  1:
 E= -389.145147518500     Delta-E=       -0.000114019077 Rises=F Damp=F
 DIIS: error= 1.49D-04 at cycle   5 NSaved=   5.
 NSaved= 5 IEnMin= 5 EnMin= -389.145147518500     IErMin= 5 ErrMin= 1.49D-04
 ErrMax= 1.49D-04  0.00D+00 EMaxC= 1.00D-01 BMatC= 1.64D-05 BMatP= 8.18D-05
 IDIUse=3 WtCom= 9.99D-01 WtEn= 1.49D-03
 Coeff-Com:  0.222D-02-0.145D-01-0.970D-01 0.212D+00 0.898D+00
 Coeff-En:   0.000D+00 0.000D+00 0.000D+00 0.000D+00 0.100D+01
 Coeff:      0.222D-02-0.145D-01-0.968D-01 0.211D+00 0.898D+00
 Gap=     0.500 Goal=   None    Shift=    0.000
 RMSDP=2.81D-05 MaxDP=6.40D-04 DE=-1.14D-04 OVMax= 8.07D-04

 Cycle   6  Pass 1  IDiag  1:
 E= -389.145168370957     Delta-E=       -0.000020852457 Rises=F Damp=F
 DIIS: error= 3.71D-05 at cycle   6 NSaved=   6.
 NSaved= 6 IEnMin= 6 EnMin= -389.145168370957     IErMin= 6 ErrMin= 3.71D-05
 ErrMax= 3.71D-05  0.00D+00 EMaxC= 1.00D-01 BMatC= 5.53D-07 BMatP= 1.64D-05
 IDIUse=1 WtCom= 1.00D+00 WtEn= 0.00D+00
 Coeff-Com:  0.661D-03-0.289D-02-0.237D-01-0.108D-01 0.149D+00 0.888D+00
 Coeff:      0.661D-03-0.289D-02-0.237D-01-0.108D-01 0.149D+00 0.888D+00
 Gap=     0.500 Goal=   None    Shift=    0.000
 RMSDP=5.84D-06 MaxDP=1.37D-04 DE=-2.09D-05 OVMax= 3.73D-04

 Cycle   7  Pass 1  IDiag  1:
 E= -389.145169361214     Delta-E=       -0.000000990257 Rises=F Damp=F
 DIIS: error= 1.19D-05 at cycle   7 NSaved=   7.
 NSaved= 7 IEnMin= 7 EnMin= -389.145169361214     IErMin= 7 ErrMin= 1.19D-05
 ErrMax= 1.19D-05  0.00D+00 EMaxC= 1.00D-01 BMatC= 6.31D-08 BMatP= 5.53D-07
 IDIUse=1 WtCom= 1.00D+00 WtEn= 0.00D+00
 Coeff-Com: -0.459D-04 0.421D-03 0.291D-02-0.944D-02-0.498D-01 0.125D+00
 Coeff-Com:  0.931D+00
 Coeff:     -0.459D-04 0.421D-03 0.291D-02-0.944D-02-0.498D-01 0.125D+00
 Coeff:      0.931D+00
 Gap=     0.500 Goal=   None    Shift=    0.000
 RMSDP=1.77D-06 MaxDP=3.53D-05 DE=-9.90D-07 OVMax= 8.69D-05

 Cycle   8  Pass 1  IDiag  1:
 E= -389.145169469077     Delta-E=       -0.000000107864 Rises=F Damp=F
 DIIS: error= 3.72D-06 at cycle   8 NSaved=   8.
 NSaved= 8 IEnMin= 8 EnMin= -389.145169469077     IErMin= 8 ErrMin= 3.72D-06
 ErrMax= 3.72D-06  0.00D+00 EMaxC= 1.00D-01 BMatC= 8.15D-09 BMatP= 6.31D-08
 IDIUse=1 WtCom= 1.00D+00 WtEn= 0.00D+00
 Coeff-Com: -0.747D-04 0.304D-03 0.268D-02 0.442D-02-0.237D-01-0.937D-01
 Coeff-Com: -0.126D+00 0.124D+01
 Coeff:     -0.747D-04 0.304D-03 0.268D-02 0.442D-02-0.237D-01-0.937D-01
 Coeff:     -0.126D+00 0.124D+01
 Gap=     0.500 Goal=   None    Shift=    0.000
 RMSDP=9.72D-07 MaxDP=2.15D-05 DE=-1.08D-07 OVMax= 8.48D-05

 Cycle   9  Pass 1  IDiag  1:
 E= -389.145169494565     Delta-E=       -0.000000025488 Rises=F Damp=F
 DIIS: error= 1.77D-06 at cycle   9 NSaved=   9.
 NSaved= 9 IEnMin= 9 EnMin= -389.145169494565     IErMin= 9 ErrMin= 1.77D-06
 ErrMax= 1.77D-06  0.00D+00 EMaxC= 1.00D-01 BMatC= 1.18D-09 BMatP= 8.15D-09
 IDIUse=1 WtCom= 1.00D+00 WtEn= 0.00D+00
 Coeff-Com:  0.171D-04-0.103D-03-0.795D-03 0.130D-02 0.610D-02 0.123D-01
 Coeff-Com: -0.105D+00-0.222D+00 0.131D+01
 Coeff:      0.171D-04-0.103D-03-0.795D-03 0.130D-02 0.610D-02 0.123D-01
 Coeff:     -0.105D+00-0.222D+00 0.131D+01
 Gap=     0.500 Goal=   None    Shift=    0.000
 RMSDP=4.25D-07 MaxDP=9.88D-06 DE=-2.55D-08 OVMax= 3.52D-05

 Cycle  10  Pass 1  IDiag  1:
 E= -389.145169498269     Delta-E=       -0.000000003703 Rises=F Damp=F
 DIIS: error= 3.78D-07 at cycle  10 NSaved=  10.
 NSaved=10 IEnMin=10 EnMin= -389.145169498269     IErMin=10 ErrMin= 3.78D-07
 ErrMax= 3.78D-07  0.00D+00 EMaxC= 1.00D-01 BMatC= 8.70D-11 BMatP= 1.18D-09
 IDIUse=1 WtCom= 1.00D+00 WtEn= 0.00D+00
 Coeff-Com:  0.952D-05-0.434D-04-0.366D-03-0.194D-03 0.238D-02 0.135D-01
 Coeff-Com:  0.332D-02-0.155D+00 0.116D+00 0.102D+01
 Coeff:      0.952D-05-0.434D-04-0.366D-03-0.194D-03 0.238D-02 0.135D-01
 Coeff:      0.332D-02-0.155D+00 0.116D+00 0.102D+01
 Gap=     0.500 Goal=   None    Shift=    0.000
 RMSDP=1.04D-07 MaxDP=3.01D-06 DE=-3.70D-09 OVMax= 9.62D-06

 Cycle  11  Pass 1  IDiag  1:
 E= -389.145169498503     Delta-E=       -0.000000000235 Rises=F Damp=F
 DIIS: error= 1.51D-07 at cycle  11 NSaved=  11.
 NSaved=11 IEnMin=11 EnMin= -389.145169498503     IErMin=11 ErrMin= 1.51D-07
 ErrMax= 1.51D-07  0.00D+00 EMaxC= 1.00D-01 BMatC= 7.52D-12 BMatP= 8.70D-11
 IDIUse=1 WtCom= 1.00D+00 WtEn= 0.00D+00
 Coeff-Com: -0.378D-06 0.405D-05 0.296D-04-0.114D-03-0.420D-03 0.682D-03
 Coeff-Com:  0.959D-02 0.308D-02-0.109D+00 0.112D+00 0.985D+00
 Coeff:     -0.378D-06 0.405D-05 0.296D-04-0.114D-03-0.420D-03 0.682D-03
 Coeff:      0.959D-02 0.308D-02-0.109D+00 0.112D+00 0.985D+00
 Gap=     0.500 Goal=   None    Shift=    0.000
 RMSDP=2.72D-08 MaxDP=7.17D-07 DE=-2.35D-10 OVMax= 2.38D-06

 Cycle  12  Pass 1  IDiag  1:
 E= -389.145169498522     Delta-E=       -0.000000000018 Rises=F Damp=F
 DIIS: error= 3.99D-08 at cycle  12 NSaved=  12.
 NSaved=12 IEnMin=12 EnMin= -389.145169498522     IErMin=12 ErrMin= 3.99D-08
 ErrMax= 3.99D-08  0.00D+00 EMaxC= 1.00D-01 BMatC= 7.55D-13 BMatP= 7.52D-12
 IDIUse=1 WtCom= 1.00D+00 WtEn= 0.00D+00
 Coeff-Com: -0.105D-05 0.540D-05 0.444D-04 0.670D-06-0.365D-03-0.124D-02
 Coeff-Com:  0.167D-02 0.170D-01-0.356D-01-0.817D-01 0.205D+00 0.895D+00
 Coeff:     -0.105D-05 0.540D-05 0.444D-04 0.670D-06-0.365D-03-0.124D-02
 Coeff:      0.167D-02 0.170D-01-0.356D-01-0.817D-01 0.205D+00 0.895D+00
 Gap=     0.500 Goal=   None    Shift=    0.000
 RMSDP=7.12D-09 MaxDP=1.69D-07 DE=-1.83D-11 OVMax= 5.57D-07

 SCF Done:  E(RHF) =  -389.145169499     A.U. after   12 cycles
            NFock= 12  Conv=0.71D-08     -V/T= 2.0014
 KE= 3.886191614232D+02 PE=-1.924849048905D+03 EE= 6.370020547877D+02
 Leave Link  502 at Fri Sep 17 20:10:13 2021, MaxMem=   524288000 cpu:              34.6 elap:              34.7
 (Enter /opt/gaussian/g16_legacy/l801.exe)
 ExpMin= 1.61D-01 ExpMax= 3.05D+03 ExpMxC= 4.57D+02 IAcc=3 IRadAn=         5 AccDes= 0.00D+00
 HarFok:  IExCor=  205 AccDes= 0.00D+00 IRadAn=         5 IDoV=-2 UseB2=F ITyADJ=14
 ICtDFT= 12500011 ScaDFX=  1.000000  1.000000  1.000000  1.000000
 Largest valence mixing into a core orbital is  1.98D-04
 Largest core mixing into a valence orbital is  3.51D-05
 Range of M.O.s used for correlation:    11   240
 NBasis=   240 NAE=    39 NBE=    39 NFC=    10 NFV=     0
 NROrb=    230 NOA=    29 NOB=    29 NVA=   201 NVB=   201
 Leave Link  801 at Fri Sep 17 20:10:15 2021, MaxMem=   524288000 cpu:               1.6 elap:               1.6
 (Enter /opt/gaussian/g16_legacy/l906.exe)
 Frozen-core derivative calculation, NFC=  10 NFV=   0.
 FulOut=F Deriv=T AODrv=T NAtomX=    28
   MMem=          91  MDisk=          29 MDiskD=          29
  W3Min=     2246400 MinDsk=     2795480 NBas6D=         240
 NBas2D=       29244    NTT=       28920    LW2=     2040000
    MDV=   523632846 MDiskM=       30187 NBas2p=       23600
 Fully direct method using O(ONN) memory.
 IMap=   1   2   3   4   5   6   7   8   9  10  11  12  13  14  15  16  17  18  19  20
 IMap=  21  22  23  24  25  26  27  28  29  30  31  32  33  34  35  36  37  38  39
 JobTyp=1 Pass  1:  I=  11 to  39 NPSUse=  1 ParTrn=F ParDer=F DoDerP=T.
 Spin components of T(2) and E(2):
     alpha-alpha T2 =       0.5711386765D-01 E2=     -0.1638092504D+00
     alpha-beta  T2 =       0.3624440391D+00 E2=     -0.1090244344D+01
     beta-beta   T2 =       0.5711386765D-01 E2=     -0.1638092504D+00
 The integrals were generated   1 times.
 ANorm=    0.1215183844D+01
 E2 =    -0.1417862845D+01 EUMP2 =    -0.39056303234374D+03
 Leave Link  906 at Fri Sep 17 20:14:37 2021, MaxMem=   524288000 cpu:             262.1 elap:             262.3
 (Enter /opt/gaussian/g16_legacy/l1002.exe)
 Minotr:  Closed shell wavefunction.
          Computing MP2/KS-MP2 derivatives.
          Using Z-Vector for PSCF gradient.
          Skipping F1 and S1 gradient terms here.
          IDoAtm=1111111111111111111111111111
          Frozen-core window.
          Direct CPHF calculation.
          Differentiating once with respect to electric field.
                with respect to dipole field.
          Differentiating once with respect to nuclear coordinates.
          Requested convergence is 1.0D-10 RMS, and 1.0D-09 maximum.
          NewPWx=F KeepS1=T KeepF1=T KeepIn=T MapXYZ=F SortEE=F KeepMc=T.
 Keep R1 ints in memory in canonical form, NReq=425201067.
 FoFCou: FMM=F IPFlag=           0 FMFlag=           0 FMFlg1=           0
         NFxFlg=           0 DoJE=F BraDBF=F KetDBF=F FulRan=T
         wScrn=  0.000000 ICntrl=       600 IOpCl=  0 I1Cent=           0 NGrid=           0
         NMat0=    1 NMatS0=  28920 NMatT0=    0 NMatD0=    1 NMtDS0=    0 NMtDT0=    0
 Symmetry not used in FoFCou.
 Two-electron integral symmetry not used.
          MDV=     524288000 using IRadAn=       5.
          Solving linear equations separately, MaxMat=       0.
          There are     1 degrees of freedom in the 1st order CPHF.  IDoFFX=0 NUNeed=     1.
 LinEq1:  Iter=  0 NonCon=     1 RMS=2.54D-03 Max=4.74D-02 NDo=     1
 AX will form     1 AO Fock derivatives at one time.
 LinEq1:  Iter=  1 NonCon=     1 RMS=6.94D-04 Max=9.45D-03 NDo=     1
 LinEq1:  Iter=  2 NonCon=     1 RMS=1.70D-04 Max=4.31D-03 NDo=     1
 LinEq1:  Iter=  3 NonCon=     1 RMS=4.81D-05 Max=5.23D-04 NDo=     1
 LinEq1:  Iter=  4 NonCon=     1 RMS=2.32D-05 Max=7.86D-04 NDo=     1
 LinEq1:  Iter=  5 NonCon=     1 RMS=5.46D-06 Max=7.91D-05 NDo=     1
 LinEq1:  Iter=  6 NonCon=     1 RMS=1.51D-06 Max=2.43D-05 NDo=     1
 LinEq1:  Iter=  7 NonCon=     1 RMS=3.95D-07 Max=5.44D-06 NDo=     1
 LinEq1:  Iter=  8 NonCon=     1 RMS=1.07D-07 Max=1.88D-06 NDo=     1
 LinEq1:  Iter=  9 NonCon=     1 RMS=3.51D-08 Max=8.85D-07 NDo=     1
 LinEq1:  Iter= 10 NonCon=     1 RMS=1.16D-08 Max=1.82D-07 NDo=     1
 LinEq1:  Iter= 11 NonCon=     1 RMS=3.22D-09 Max=5.69D-08 NDo=     1
 LinEq1:  Iter= 12 NonCon=     1 RMS=9.16D-10 Max=1.33D-08 NDo=     1
 LinEq1:  Iter= 13 NonCon=     1 RMS=2.39D-10 Max=3.99D-09 NDo=     1
 LinEq1:  Iter= 14 NonCon=     0 RMS=6.45D-11 Max=9.86D-10 NDo=     1
 Linear equations converged to 1.000D-10 1.000D-09 after    14 iterations.
 End of Minotr F.D. properties file   721 does not exist.
 End of Minotr F.D. properties file   722 does not exist.
 End of Minotr F.D. properties file   788 does not exist.
 Leave Link 1002 at Fri Sep 17 20:15:11 2021, MaxMem=   524288000 cpu:              33.1 elap:              33.4
 (Enter /opt/gaussian/g16_legacy/l601.exe)
 Copying SCF densities to generalized density rwf, IOpCl= 0 IROHF=0.

 **********************************************************************

            Population analysis using the SCF density.

 **********************************************************************

 Orbital symmetries:
       Occupied  (A) (A) (A) (A) (A) (A) (A) (A) (A) (A) (A) (A)
                 (A) (A) (A) (A) (A) (A) (A) (A) (A) (A) (A) (A)
                 (A) (A) (A) (A) (A) (A) (A) (A) (A) (A) (A) (A)
                 (A) (A) (A)
       Virtual   (A) (A) (A) (A) (A) (A) (A) (A) (A) (A) (A) (A)
                 (A) (A) (A) (A) (A) (A) (A) (A) (A) (A) (A) (A)
                 (A) (A) (A) (A) (A) (A) (A) (A) (A) (A) (A) (A)
                 (A) (A) (A) (A) (A) (A) (A) (A) (A) (A) (A) (A)
                 (A) (A) (A) (A) (A) (A) (A) (A) (A) (A) (A) (A)
                 (A) (A) (A) (A) (A) (A) (A) (A) (A) (A) (A) (A)
                 (A) (A) (A) (A) (A) (A) (A) (A) (A) (A) (A) (A)
                 (A) (A) (A) (A) (A) (A) (A) (A) (A) (A) (A) (A)
                 (A) (A) (A) (A) (A) (A) (A) (A) (A) (A) (A) (A)
                 (A) (A) (A) (A) (A) (A) (A) (A) (A) (A) (A) (A)
                 (A) (A) (A) (A) (A) (A) (A) (A) (A) (A) (A) (A)
                 (A) (A) (A) (A) (A) (A) (A) (A) (A) (A) (A) (A)
                 (A) (A) (A) (A) (A) (A) (A) (A) (A) (A) (A) (A)
                 (A) (A) (A) (A) (A) (A) (A) (A) (A) (A) (A) (A)
                 (A) (A) (A) (A) (A) (A) (A) (A) (A) (A) (A) (A)
                 (A) (A) (A) (A) (A) (A) (A) (A) (A) (A) (A) (A)
                 (A) (A) (A) (A) (A) (A) (A) (A) (A)
 The electronic state is 1-A.
 Alpha  occ. eigenvalues --  -11.23043 -11.22607 -11.21910 -11.21863 -11.21852
 Alpha  occ. eigenvalues --  -11.21691 -11.21462 -11.21299 -11.21281 -11.21085
 Alpha  occ. eigenvalues --   -1.10421  -1.08212  -1.01997  -0.96964  -0.93682
 Alpha  occ. eigenvalues --   -0.92494  -0.87752  -0.81024  -0.70100  -0.69504
 Alpha  occ. eigenvalues --   -0.63875  -0.63290  -0.59129  -0.58923  -0.57900
 Alpha  occ. eigenvalues --   -0.56997  -0.55858  -0.54799  -0.53914  -0.52366
 Alpha  occ. eigenvalues --   -0.51555  -0.50674  -0.50014  -0.48932  -0.47825
 Alpha  occ. eigenvalues --   -0.46646  -0.44397  -0.32397  -0.31553
 Alpha virt. eigenvalues --    0.18407   0.18693   0.22510   0.24682   0.25954
 Alpha virt. eigenvalues --    0.26837   0.27602   0.29219   0.29852   0.30598
 Alpha virt. eigenvalues --    0.31716   0.32259   0.33118   0.33481   0.34417
 Alpha virt. eigenvalues --    0.35494   0.36598   0.37171   0.37818   0.39597
 Alpha virt. eigenvalues --    0.41268   0.42314   0.43181   0.45863   0.49010
 Alpha virt. eigenvalues --    0.50951   0.53995   0.59117   0.62631   0.70065
 Alpha virt. eigenvalues --    0.70831   0.72774   0.74528   0.75645   0.76345
 Alpha virt. eigenvalues --    0.77873   0.79638   0.80246   0.82552   0.83638
 Alpha virt. eigenvalues --    0.86034   0.86449   0.88404   0.90820   0.91211
 Alpha virt. eigenvalues --    0.93243   0.94579   0.95954   0.98353   0.99012
 Alpha virt. eigenvalues --    0.99982   1.01011   1.02732   1.04373   1.06859
 Alpha virt. eigenvalues --    1.07571   1.09719   1.11247   1.11869   1.12852
 Alpha virt. eigenvalues --    1.13476   1.13826   1.14273   1.14591   1.15599
 Alpha virt. eigenvalues --    1.16461   1.16584   1.17672   1.17911   1.19663
 Alpha virt. eigenvalues --    1.20533   1.21478   1.23054   1.25199   1.26954
 Alpha virt. eigenvalues --    1.28642   1.34714   1.38929   1.42403   1.46022
 Alpha virt. eigenvalues --    1.47312   1.49360   1.54735   1.57224   1.59163
 Alpha virt. eigenvalues --    1.63279   1.65596   1.68061   1.71116   1.72503
 Alpha virt. eigenvalues --    1.76767   1.81555   1.88404   1.92697   1.96254
 Alpha virt. eigenvalues --    1.99402   2.00094   2.01429   2.02705   2.07398
 Alpha virt. eigenvalues --    2.08477   2.10886   2.11505   2.14596   2.15212
 Alpha virt. eigenvalues --    2.17970   2.18920   2.21920   2.23709   2.27301
 Alpha virt. eigenvalues --    2.28556   2.30734   2.34200   2.35187   2.36016
 Alpha virt. eigenvalues --    2.36511   2.37467   2.39276   2.40114   2.40257
 Alpha virt. eigenvalues --    2.41640   2.42718   2.44059   2.44352   2.44888
 Alpha virt. eigenvalues --    2.46597   2.49263   2.49840   2.51133   2.52303
 Alpha virt. eigenvalues --    2.56121   2.58574   2.61298   2.62435   2.64433
 Alpha virt. eigenvalues --    2.66838   2.68131   2.70009   2.72665   2.74078
 Alpha virt. eigenvalues --    2.76312   2.78488   2.80826   2.85426   2.86886
 Alpha virt. eigenvalues --    2.87813   2.89066   2.90580   2.91979   2.94775
 Alpha virt. eigenvalues --    2.96545   2.99514   3.02261   3.03991   3.04690
 Alpha virt. eigenvalues --    3.05840   3.09053   3.10090   3.12233   3.12762
 Alpha virt. eigenvalues --    3.16935   3.18203   3.19978   3.20850   3.22369
 Alpha virt. eigenvalues --    3.23179   3.24150   3.25591   3.28038   3.38618
 Alpha virt. eigenvalues --    3.39694   3.43304   3.46170   3.55498   3.56871
 Alpha virt. eigenvalues --    3.60138   3.61997   3.65534   3.73872   3.77961
 Alpha virt. eigenvalues --    3.79433   3.80058   3.81288   3.82419   3.82504
 Alpha virt. eigenvalues --    3.83759   3.86128   3.86690   3.89821   3.90657
 Alpha virt. eigenvalues --    3.94859   4.58450   4.60775   4.73948   4.82825
 Alpha virt. eigenvalues --    4.88568   4.91488   4.92617   5.00910   5.10912
 Alpha virt. eigenvalues --    5.19626
          Condensed to atoms (all electrons):
               1          2          3          4          5          6
     1  C    4.965587   0.410942   0.408023   0.335908  -0.046712   0.002988
     2  H    0.410942   0.578080  -0.027516  -0.042440   0.002987  -0.000087
     3  H    0.408023  -0.027516   0.577196  -0.039941   0.002662  -0.000097
     4  C    0.335908  -0.042440  -0.039941   4.965957   0.340400  -0.037462
     5  C   -0.046712   0.002987   0.002662   0.340400   4.912983   0.408876
     6  H    0.002988  -0.000087  -0.000097  -0.037462   0.408876   0.570179
     7  H   -0.005189   0.000061   0.000168  -0.040051   0.407429  -0.032530
     8  H    0.002312   0.000080  -0.000091  -0.044981   0.399428  -0.026532
     9  C   -0.058577  -0.008892  -0.006476   0.695518  -0.050137  -0.003622
    10  H   -0.004365   0.001049   0.001366  -0.042874   0.003410   0.000040
    11  C    0.002592  -0.000054  -0.000029  -0.045814  -0.008261  -0.002805
    12  H    0.000067  -0.000001  -0.000001  -0.000912  -0.002320  -0.001606
    13  H   -0.000070   0.000043  -0.000014  -0.000112   0.000254  -0.000070
    14  H   -0.000078  -0.000015   0.000033  -0.000940   0.000337   0.000254
    15  C   -0.000088  -0.000052   0.000003   0.000001   0.000000  -0.000000
    16  H   -0.000003  -0.000002   0.000001   0.000000   0.000000   0.000000
    17  H    0.000020  -0.000003  -0.000002  -0.000000  -0.000000  -0.000000
    18  H   -0.000004   0.000002   0.000000   0.000000  -0.000000   0.000000
    19  C   -0.004316   0.000962   0.000722   0.000076  -0.000009   0.000000
    20  C    0.000545  -0.000101  -0.000035  -0.000022  -0.000009   0.000000
    21  H   -0.000632   0.000026   0.000009   0.000080   0.000000  -0.000000
    22  H   -0.000015   0.000029  -0.000000   0.000000   0.000000   0.000000
    23  H    0.000487  -0.000063  -0.000014  -0.000048   0.000001  -0.000000
    24  C   -0.053359  -0.002162  -0.001489   0.004587   0.000192  -0.000000
    25  H    0.001163   0.000100   0.000530  -0.000098  -0.000001   0.000000
    26  C    0.338097  -0.043351  -0.040743  -0.041916  -0.010895   0.000283
    27  H   -0.044143   0.004560  -0.004317  -0.000601  -0.002180  -0.000039
    28  H   -0.041902  -0.002257   0.004358  -0.003092  -0.001371   0.000089
               7          8          9         10         11         12
     1  C   -0.005189   0.002312  -0.058577  -0.004365   0.002592   0.000067
     2  H    0.000061   0.000080  -0.008892   0.001049  -0.000054  -0.000001
     3  H    0.000168  -0.000091  -0.006476   0.001366  -0.000029  -0.000001
     4  C   -0.040051  -0.044981   0.695518  -0.042874  -0.045814  -0.000912
     5  C    0.407429   0.399428  -0.050137   0.003410  -0.008261  -0.002320
     6  H   -0.032530  -0.026532  -0.003622   0.000040  -0.002805  -0.001606
     7  H    0.583024  -0.031359   0.002405  -0.000101   0.000184   0.000022
     8  H   -0.031359   0.580734  -0.004196  -0.000148   0.000727  -0.000157
     9  C    0.002405  -0.004196   4.960971   0.407208   0.342219  -0.040742
    10  H   -0.000101  -0.000148   0.407208   0.563792  -0.042794   0.003352
    11  C    0.000184   0.000727   0.342219  -0.042794   4.894861   0.408284
    12  H    0.000022  -0.000157  -0.040742   0.003352   0.408284   0.576161
    13  H   -0.000015   0.000150  -0.044086  -0.001995   0.402526  -0.029629
    14  H    0.000020  -0.000070  -0.044854  -0.000819   0.400098  -0.028238
    15  C   -0.000000  -0.000000  -0.000000  -0.000000   0.000000  -0.000000
    16  H    0.000000  -0.000000   0.000000   0.000000   0.000000   0.000000
    17  H   -0.000000   0.000000   0.000000   0.000000  -0.000000   0.000000
    18  H    0.000000   0.000000  -0.000000  -0.000000   0.000000  -0.000000
    19  C   -0.000001   0.000000  -0.000003  -0.000000   0.000000  -0.000000
    20  C   -0.000000   0.000005  -0.000000  -0.000000  -0.000000   0.000000
    21  H   -0.000002   0.000032  -0.000002  -0.000000   0.000000   0.000000
    22  H    0.000000   0.000000  -0.000000  -0.000000   0.000000  -0.000000
    23  H   -0.000000   0.000000   0.000000   0.000000  -0.000000   0.000000
    24  C    0.000141  -0.000038  -0.000100  -0.000002   0.000001   0.000000
    25  H   -0.000003  -0.000000   0.000002   0.000000  -0.000000  -0.000000
    26  C   -0.002370  -0.000891   0.003326   0.000125  -0.000061   0.000003
    27  H   -0.000937   0.000241  -0.000084   0.000001  -0.000000  -0.000000
    28  H   -0.001459  -0.000333   0.000032  -0.000000  -0.000002  -0.000001
              13         14         15         16         17         18
     1  C   -0.000070  -0.000078  -0.000088  -0.000003   0.000020  -0.000004
     2  H    0.000043  -0.000015  -0.000052  -0.000002  -0.000003   0.000002
     3  H   -0.000014   0.000033   0.000003   0.000001  -0.000002   0.000000
     4  C   -0.000112  -0.000940   0.000001   0.000000  -0.000000   0.000000
     5  C    0.000254   0.000337   0.000000   0.000000  -0.000000  -0.000000
     6  H   -0.000070   0.000254  -0.000000   0.000000  -0.000000   0.000000
     7  H   -0.000015   0.000020  -0.000000   0.000000  -0.000000   0.000000
     8  H    0.000150  -0.000070  -0.000000  -0.000000   0.000000   0.000000
     9  C   -0.044086  -0.044854  -0.000000   0.000000   0.000000  -0.000000
    10  H   -0.001995  -0.000819  -0.000000   0.000000   0.000000  -0.000000
    11  C    0.402526   0.400098   0.000000   0.000000  -0.000000   0.000000
    12  H   -0.029629  -0.028238  -0.000000   0.000000   0.000000  -0.000000
    13  H    0.589281  -0.034117  -0.000000  -0.000000   0.000000  -0.000000
    14  H   -0.034117   0.590516  -0.000000  -0.000000   0.000000  -0.000000
    15  C   -0.000000  -0.000000   4.895299   0.405793   0.398852   0.398496
    16  H   -0.000000  -0.000000   0.405793   0.569108  -0.027456  -0.027952
    17  H    0.000000   0.000000   0.398852  -0.027456   0.594556  -0.034714
    18  H   -0.000000  -0.000000   0.398496  -0.027952  -0.034714   0.591642
    19  C   -0.000000   0.000000   0.353998  -0.041537  -0.047081  -0.042971
    20  C    0.000000  -0.000000  -0.059874   0.003798   0.000004  -0.003363
    21  H   -0.000000  -0.000000   0.003445  -0.000117  -0.000049   0.000003
    22  H    0.000000  -0.000000  -0.005202   0.000128  -0.000721   0.002590
    23  H    0.000000  -0.000000   0.000560  -0.000132   0.001343  -0.000131
    24  C   -0.000000  -0.000000  -0.045425  -0.002263  -0.000892  -0.000767
    25  H    0.000000  -0.000000  -0.006411   0.002280   0.000152   0.000194
    26  C    0.000001   0.000001   0.003220   0.000137  -0.000081  -0.000129
    27  H    0.000000  -0.000000  -0.000105  -0.000010  -0.000001   0.000007
    28  H   -0.000000   0.000000   0.000055   0.000007  -0.000010   0.000019
              19         20         21         22         23         24
     1  C   -0.004316   0.000545  -0.000632  -0.000015   0.000487  -0.053359
     2  H    0.000962  -0.000101   0.000026   0.000029  -0.000063  -0.002162
     3  H    0.000722  -0.000035   0.000009  -0.000000  -0.000014  -0.001489
     4  C    0.000076  -0.000022   0.000080   0.000000  -0.000048   0.004587
     5  C   -0.000009  -0.000009   0.000000   0.000000   0.000001   0.000192
     6  H    0.000000   0.000000  -0.000000   0.000000  -0.000000  -0.000000
     7  H   -0.000001  -0.000000  -0.000002   0.000000  -0.000000   0.000141
     8  H    0.000000   0.000005   0.000032   0.000000   0.000000  -0.000038
     9  C   -0.000003  -0.000000  -0.000002  -0.000000   0.000000  -0.000100
    10  H   -0.000000  -0.000000  -0.000000  -0.000000   0.000000  -0.000002
    11  C    0.000000  -0.000000   0.000000   0.000000  -0.000000   0.000001
    12  H   -0.000000   0.000000   0.000000  -0.000000   0.000000   0.000000
    13  H   -0.000000   0.000000  -0.000000   0.000000   0.000000  -0.000000
    14  H    0.000000  -0.000000  -0.000000  -0.000000  -0.000000  -0.000000
    15  C    0.353998  -0.059874   0.003445  -0.005202   0.000560  -0.045425
    16  H   -0.041537   0.003798  -0.000117   0.000128  -0.000132  -0.002263
    17  H   -0.047081   0.000004  -0.000049  -0.000721   0.001343  -0.000892
    18  H   -0.042971  -0.003363   0.000003   0.002590  -0.000131  -0.000767
    19  C    4.925189   0.342886  -0.037686  -0.042935  -0.041416   0.695449
    20  C    0.342886   4.919841   0.403703   0.404522   0.399489  -0.049304
    21  H   -0.037686   0.403703   0.568206  -0.029177  -0.026784  -0.003535
    22  H   -0.042935   0.404522  -0.029177   0.583708  -0.031334   0.002716
    23  H   -0.041416   0.399489  -0.026784  -0.031334   0.572158  -0.004056
    24  C    0.695449  -0.049304  -0.003535   0.002716  -0.004056   4.955752
    25  H   -0.036346   0.003328   0.000029  -0.000104  -0.000122   0.405063
    26  C   -0.052190  -0.008506  -0.001668   0.000054   0.000637   0.350487
    27  H    0.002118   0.000209   0.000092   0.000005  -0.000024  -0.041626
    28  H   -0.000936  -0.001785   0.000875   0.000050  -0.000359  -0.046044
              25         26         27         28
     1  C    0.001163   0.338097  -0.044143  -0.041902
     2  H    0.000100  -0.043351   0.004560  -0.002257
     3  H    0.000530  -0.040743  -0.004317   0.004358
     4  C   -0.000098  -0.041916  -0.000601  -0.003092
     5  C   -0.000001  -0.010895  -0.002180  -0.001371
     6  H    0.000000   0.000283  -0.000039   0.000089
     7  H   -0.000003  -0.002370  -0.000937  -0.001459
     8  H   -0.000000  -0.000891   0.000241  -0.000333
     9  C    0.000002   0.003326  -0.000084   0.000032
    10  H    0.000000   0.000125   0.000001  -0.000000
    11  C   -0.000000  -0.000061  -0.000000  -0.000002
    12  H   -0.000000   0.000003  -0.000000  -0.000001
    13  H    0.000000   0.000001   0.000000  -0.000000
    14  H   -0.000000   0.000001  -0.000000   0.000000
    15  C   -0.006411   0.003220  -0.000105   0.000055
    16  H    0.002280   0.000137  -0.000010   0.000007
    17  H    0.000152  -0.000081  -0.000001  -0.000010
    18  H    0.000194  -0.000129   0.000007   0.000019
    19  C   -0.036346  -0.052190   0.002118  -0.000936
    20  C    0.003328  -0.008506   0.000209  -0.001785
    21  H    0.000029  -0.001668   0.000092   0.000875
    22  H   -0.000104   0.000054   0.000005   0.000050
    23  H   -0.000122   0.000637  -0.000024  -0.000359
    24  C    0.405063   0.350487  -0.041626  -0.046044
    25  H    0.554074  -0.040874  -0.005214   0.003351
    26  C   -0.040874   4.974532   0.412802   0.416242
    27  H   -0.005214   0.412802   0.596122  -0.032325
    28  H    0.003351   0.416242  -0.032325   0.586319
 Mulliken charges:
               1
     1  C   -0.209280
     2  H    0.128076
     3  H    0.125691
     4  C   -0.001223
     5  C   -0.357065
     6  H    0.122141
     7  H    0.120565
     8  H    0.125087
     9  C   -0.149909
    10  H    0.112756
    11  C   -0.351672
    12  H    0.115719
    13  H    0.117852
    14  H    0.117871
    15  C   -0.342565
    16  H    0.118219
    17  H    0.116082
    18  H    0.117077
    19  C    0.026029
    20  C   -0.355331
    21  H    0.123150
    22  H    0.115685
    23  H    0.129806
    24  C   -0.163325
    25  H    0.118908
    26  C   -0.256272
    27  H    0.115448
    28  H    0.120479
 Sum of Mulliken charges =  -0.00000
 Mulliken charges with hydrogens summed into heavy atoms:
               1
     1  C    0.044487
     4  C   -0.001223
     5  C    0.010728
     9  C   -0.037153
    11  C   -0.000230
    15  C    0.008813
    19  C    0.026029
    20  C    0.013310
    24  C   -0.044417
    26  C   -0.020345
 Electronic spatial extent (au):  <R**2>=           2702.8871
 Charge=             -0.0000 electrons
 Dipole moment (field-independent basis, Debye):
    X=             -0.3048    Y=             -0.0023    Z=              0.3110  Tot=              0.4355
 Quadrupole moment (field-independent basis, Debye-Ang):
   XX=            -64.6798   YY=            -65.2772   ZZ=            -64.9685
   XY=              1.0743   XZ=              0.0534   YZ=             -0.1055
 Traceless Quadrupole moment (field-independent basis, Debye-Ang):
   XX=              0.2954   YY=             -0.3020   ZZ=              0.0067
   XY=              1.0743   XZ=              0.0534   YZ=             -0.1055
 Octapole moment (field-independent basis, Debye-Ang**2):
  XXX=             -4.1848  YYY=             -2.6512  ZZZ=             -0.4380  XYY=              3.2483
  XXY=             -2.9463  XXZ=              3.4696  XZZ=             -3.5160  YZZ=              1.6551
  YYZ=             -1.3225  XYZ=              3.6809
 Hexadecapole moment (field-independent basis, Debye-Ang**3):
 XXXX=          -3109.7381 YYYY=           -342.4858 ZZZZ=           -301.1912 XXXY=              9.0814
 XXXZ=             -6.4257 YYYX=              3.9397 YYYZ=             -2.1896 ZZZX=              4.6088
 ZZZY=             -0.5082 XXYY=           -580.8581 XXZZ=           -567.8462 YYZZ=           -109.3341
 XXYZ=              2.4109 YYXZ=             -0.0446 ZZXY=             -6.0575
 N-N= 5.100826631954D+02 E-N=-1.924849049539D+03  KE= 3.886191614232D+02
 No NMR shielding tensors so no spin-rotation constants.
 Leave Link  601 at Fri Sep 17 20:15:12 2021, MaxMem=   524288000 cpu:               0.4 elap:               1.1
 (Enter /opt/gaussian/g16_legacy/l701.exe)
 ... and contract with generalized density number  2.
 Compute integral first derivatives.
 Leave Link  701 at Fri Sep 17 20:15:13 2021, MaxMem=   524288000 cpu:               0.4 elap:               0.9
 (Enter /opt/gaussian/g16_legacy/l702.exe)
 L702 exits ... SP integral derivatives will be done elsewhere.
 Leave Link  702 at Fri Sep 17 20:15:14 2021, MaxMem=   524288000 cpu:               0.1 elap:               0.1
 (Enter /opt/gaussian/g16_legacy/l703.exe)
 Integral derivatives from FoFJK, PRISM(SPDF).
 Compute integral first derivatives, UseDBF=F ICtDFT=           0.
 Calling FoFJK, ICntrl=  10002127 FMM=F ISym2X=0 I1Cent= 0 IOpClX= 0 NMat=1 NMatS=1 NMatT=0.
 FoFJK:  IHMeth= 1 ICntrl=10002127 DoSepK=F KAlg= 0 I1Cent=           0 FoldK=F
 IRaf=         0 NMat=       1 IRICut=       1 DoRegI=T DoRafI=F ISym2E= 0 IDoP0=0 IntGTp=1.
 FoFCou: FMM=F IPFlag=           0 FMFlag=      100000 FMFlg1=         800
         NFxFlg=           0 DoJE=F BraDBF=F KetDBF=F FulRan=T
         wScrn=  0.000000 ICntrl=  10002127 IOpCl=  0 I1Cent=           0 NGrid=           0
         NMat0=    1 NMatS0=      1 NMatT0=    0 NMatD0=    1 NMtDS0=    0 NMtDT0=    0
 Symmetry not used in FoFCou.
 Leave Link  703 at Fri Sep 17 20:15:48 2021, MaxMem=   524288000 cpu:              33.7 elap:              34.1
 (Enter /opt/gaussian/g16_legacy/l716.exe)
 Dipole        =-6.64100165D-02-1.69475519D-02 1.08692824D-01
 ***** Axes restored to original set *****
 -------------------------------------------------------------------
 Center     Atomic                   Forces (Hartrees/Bohr)
 Number     Number              X              Y              Z
 -------------------------------------------------------------------
      1        6           0.000384429   -0.002668822   -0.001352879
      2        1          -0.001790485    0.004132903    0.000380606
      3        1          -0.001222198   -0.003193409    0.002255077
      4        6           0.004160317    0.001976571   -0.007092170
      5        6           0.002400705    0.003990642    0.002344150
      6        1          -0.001346189   -0.005062525   -0.001159518
      7        1          -0.001010987   -0.004766911   -0.000514847
      8        1           0.000077005    0.003578147    0.002243756
      9        6          -0.003511053    0.000745856    0.006151849
     10        1          -0.001963426    0.000851231    0.001263825
     11        6           0.001504851    0.000367745   -0.000336802
     12        1          -0.002472164    0.000267851   -0.002135517
     13        1           0.001343000    0.002691465   -0.001082547
     14        1           0.001764992   -0.002773922    0.001037545
     15        6          -0.000616664    0.001742081   -0.004347457
     16        1           0.002785402   -0.002709985    0.000964944
     17        1          -0.001856908    0.001260698    0.003441906
     18        1           0.000372698   -0.002105041   -0.002331733
     19        6          -0.001394559    0.006060160    0.000665272
     20        6           0.000918353   -0.001142833    0.003274791
     21        1           0.000282993    0.000016414   -0.004131767
     22        1           0.001502296    0.001041865   -0.003361659
     23        1          -0.000506581   -0.000428969    0.003287262
     24        6           0.000226328    0.001382341    0.000768630
     25        1          -0.001872334   -0.003763296    0.000088659
     26        6          -0.000135512    0.003149196    0.002636348
     27        1           0.001179494   -0.003586263   -0.000316718
     28        1           0.000796197   -0.001053189   -0.002641005
 -------------------------------------------------------------------
 Cartesian Forces:  Max     0.007092170 RMS     0.002508011
 Leave Link  716 at Fri Sep 17 20:15:48 2021, MaxMem=   524288000 cpu:               0.1 elap:               0.2
 (Enter /opt/gaussian/g16_legacy/l103.exe)

 GradGradGradGradGradGradGradGradGradGradGradGradGradGradGradGradGradGrad
 Berny optimization.
 FormGI is forming the generalized inverse of G from B-inverse, IUseBI=4.
 Internal  Forces:  Max     0.006199099 RMS     0.002009988
 Search for a local minimum.
 Step number   1 out of a maximum of  138
 All quantities printed in internal units (Hartrees-Bohrs-Radians)
 RMS Force = .20100D-02 SwitMx=.10000D-02 MixMth= 1
 Mixed Optimization -- RFO/linear search
 Second derivative matrix not updated -- first step.
 ITU=  0
     Eigenvalues ---    0.00293   0.00413   0.00700   0.00701   0.00707
     Eigenvalues ---    0.00717   0.00793   0.01121   0.01279   0.01577
     Eigenvalues ---    0.01607   0.02735   0.02772   0.03653   0.03959
     Eigenvalues ---    0.05284   0.05324   0.06974   0.07022   0.07057
     Eigenvalues ---    0.07108   0.07147   0.07295   0.07320   0.07483
     Eigenvalues ---    0.09586   0.09850   0.12956   0.13174   0.15994
     Eigenvalues ---    0.15997   0.16000   0.16000   0.16000   0.16000
     Eigenvalues ---    0.16000   0.16000   0.16000   0.16000   0.16000
     Eigenvalues ---    0.16000   0.16000   0.16000   0.21925   0.22001
     Eigenvalues ---    0.22002   0.22024   0.24987   0.24992   0.24999
     Eigenvalues ---    0.25000   0.28895   0.29731   0.31858   0.31865
     Eigenvalues ---    0.31917   0.31996   0.32594   0.33824   0.33847
     Eigenvalues ---    0.33925   0.34071   0.34216   0.34252   0.34284
     Eigenvalues ---    0.34288   0.34321   0.34321   0.34360   0.34362
     Eigenvalues ---    0.34467   0.34481   0.34525   0.34742   0.34869
     Eigenvalues ---    0.34992   0.54778   0.55372
 RFO step:  Lambda=-3.58792938D-03 EMin= 2.92529703D-03
 Linear search not attempted -- first point.
 Iteration  1 RMS(Cart)=  0.07518122 RMS(Int)=  0.00149534
 Iteration  2 RMS(Cart)=  0.00293200 RMS(Int)=  0.00015506
 Iteration  3 RMS(Cart)=  0.00000225 RMS(Int)=  0.00015505
 Iteration  4 RMS(Cart)=  0.00000000 RMS(Int)=  0.00015505
 ITry= 1 IFail=0 DXMaxC= 2.92D-01 DCOld= 1.00D+10 DXMaxT= 3.00D-01 DXLimC= 3.00D+00 Rises=F
 Variable       Old X    -DE/DX   Delta X   Delta X   Delta X     New X
                                 (Linear)    (Quad)   (Total)
    R1        2.07628  -0.00358   0.00000  -0.01046  -0.01046   2.06582
    R2        2.07589  -0.00343   0.00000  -0.01002  -0.01002   2.06588
    R3        2.88502   0.00114   0.00000   0.00380   0.00380   2.88882
    R4        2.90222  -0.00250   0.00000  -0.00855  -0.00855   2.89367
    R5        2.84392   0.00199   0.00000   0.00618   0.00618   2.85010
    R6        2.55330  -0.00620   0.00000  -0.01124  -0.01124   2.54206
    R7        2.06454  -0.00311   0.00000  -0.00892  -0.00892   2.05562
    R8        2.06525  -0.00318   0.00000  -0.00911  -0.00911   2.05614
    R9        2.06727  -0.00124   0.00000  -0.00357  -0.00357   2.06370
   R10        2.05688  -0.00075   0.00000  -0.00212  -0.00212   2.05476
   R11        2.83071   0.00176   0.00000   0.00535   0.00535   2.83606
   R12        2.06097  -0.00268   0.00000  -0.00764  -0.00764   2.05332
   R13        2.06791  -0.00198   0.00000  -0.00570  -0.00570   2.06221
   R14        2.06723  -0.00148   0.00000  -0.00427  -0.00427   2.06296
   R15        2.06854  -0.00354   0.00000  -0.01023  -0.01023   2.05831
   R16        2.07210  -0.00284   0.00000  -0.00824  -0.00824   2.06386
   R17        2.06793  -0.00181   0.00000  -0.00521  -0.00521   2.06272
   R18        2.84297  -0.00003   0.00000  -0.00008  -0.00008   2.84288
   R19        2.84404   0.00075   0.00000   0.00231   0.00231   2.84635
   R20        2.54803  -0.00431   0.00000  -0.00773  -0.00773   2.54030
   R21        2.06549  -0.00248   0.00000  -0.00711  -0.00711   2.05837
   R22        2.06967  -0.00330   0.00000  -0.00953  -0.00953   2.06013
   R23        2.06907  -0.00215   0.00000  -0.00622  -0.00622   2.06285
   R24        2.05888  -0.00222   0.00000  -0.00631  -0.00631   2.05257
   R25        2.84152   0.00043   0.00000   0.00131   0.00131   2.84284
   R26        2.07457  -0.00338   0.00000  -0.00986  -0.00986   2.06471
   R27        2.06847  -0.00175   0.00000  -0.00504  -0.00504   2.06343
    A1        1.86300  -0.00060   0.00000  -0.01616  -0.01638   1.84662
    A2        1.88119   0.00181   0.00000   0.02176   0.02180   1.90299
    A3        1.89586  -0.00200   0.00000  -0.01437  -0.01456   1.88130
    A4        1.89555   0.00024   0.00000   0.00611   0.00615   1.90170
    A5        1.89292  -0.00072   0.00000  -0.00847  -0.00856   1.88436
    A6        2.02869   0.00114   0.00000   0.00893   0.00892   2.03761
    A7        2.07515   0.00134   0.00000   0.00520   0.00519   2.08034
    A8        2.06671  -0.00171   0.00000  -0.00684  -0.00686   2.05985
    A9        2.14089   0.00037   0.00000   0.00136   0.00134   2.14224
   A10        1.96391  -0.00288   0.00000  -0.01431  -0.01424   1.94967
   A11        1.95380  -0.00173   0.00000  -0.00887  -0.00881   1.94498
   A12        1.91920   0.00525   0.00000   0.02720   0.02730   1.94650
   A13        1.83053   0.00404   0.00000   0.03381   0.03384   1.86437
   A14        1.89609  -0.00190   0.00000  -0.01453  -0.01443   1.88166
   A15        1.89701  -0.00303   0.00000  -0.02462  -0.02453   1.87248
   A16        2.06648  -0.00333   0.00000  -0.01858  -0.01868   2.04781
   A17        2.22644   0.00177   0.00000   0.00810   0.00801   2.23445
   A18        1.98970   0.00157   0.00000   0.01126   0.01117   2.00087
   A19        1.98885  -0.00351   0.00000  -0.02082  -0.02072   1.96813
   A20        1.90980   0.00234   0.00000   0.01428   0.01425   1.92405
   A21        1.91667   0.00391   0.00000   0.02330   0.02329   1.93996
   A22        1.86965   0.00072   0.00000   0.00553   0.00560   1.87525
   A23        1.88746  -0.00034   0.00000  -0.00200  -0.00189   1.88556
   A24        1.88849  -0.00331   0.00000  -0.02154  -0.02167   1.86682
   A25        1.88349   0.00027   0.00000   0.00361   0.00365   1.88714
   A26        1.87554   0.00140   0.00000   0.01246   0.01248   1.88803
   A27        1.96007  -0.00257   0.00000  -0.01268  -0.01264   1.94743
   A28        1.89439  -0.00307   0.00000  -0.02481  -0.02480   1.86959
   A29        1.92592   0.00266   0.00000   0.01424   0.01427   1.94019
   A30        1.92241   0.00120   0.00000   0.00633   0.00635   1.92876
   A31        2.00675   0.00231   0.00000   0.00905   0.00881   2.01556
   A32        2.11303   0.00088   0.00000   0.00339   0.00315   2.11617
   A33        2.16339  -0.00319   0.00000  -0.01268  -0.01290   2.15049
   A34        1.96891  -0.00145   0.00000  -0.00763  -0.00761   1.96130
   A35        1.93477  -0.00102   0.00000  -0.00391  -0.00389   1.93088
   A36        1.91798   0.00337   0.00000   0.01706   0.01710   1.93507
   A37        1.85892   0.00247   0.00000   0.02164   0.02165   1.88057
   A38        1.89464  -0.00182   0.00000  -0.01526  -0.01522   1.87942
   A39        1.88581  -0.00167   0.00000  -0.01263  -0.01260   1.87320
   A40        2.07469  -0.00245   0.00000  -0.01629  -0.01679   2.05790
   A41        2.20631  -0.00226   0.00000  -0.00981  -0.01033   2.19597
   A42        2.00190   0.00473   0.00000   0.02744   0.02691   2.02881
   A43        1.97823  -0.00456   0.00000  -0.02303  -0.02311   1.95512
   A44        1.91214   0.00044   0.00000   0.00090   0.00108   1.91322
   A45        1.92986  -0.00030   0.00000  -0.01406  -0.01413   1.91572
   A46        1.87291   0.00255   0.00000   0.02149   0.02145   1.89436
   A47        1.91686   0.00229   0.00000   0.00838   0.00797   1.92483
   A48        1.84847  -0.00003   0.00000   0.00959   0.00944   1.85791
    D1       -2.08017   0.00058   0.00000   0.03430   0.03423  -2.04594
    D2        1.03069   0.00044   0.00000   0.02426   0.02420   1.05490
    D3        2.19083   0.00021   0.00000   0.03872   0.03873   2.22955
    D4       -0.98149   0.00007   0.00000   0.02868   0.02870  -0.95279
    D5        0.05158   0.00016   0.00000   0.03866   0.03871   0.09029
    D6       -3.12074   0.00002   0.00000   0.02863   0.02868  -3.09206
    D7       -0.92511   0.00135   0.00000  -0.01517  -0.01536  -0.94047
    D8       -3.01630   0.00080   0.00000  -0.02801  -0.02813  -3.04443
    D9        1.23597   0.00076   0.00000  -0.03203  -0.03201   1.20396
   D10        1.09344  -0.00080   0.00000  -0.04643  -0.04644   1.04700
   D11       -0.99775  -0.00135   0.00000  -0.05927  -0.05921  -1.05696
   D12       -3.02866  -0.00140   0.00000  -0.06329  -0.06310  -3.09176
   D13       -3.04911  -0.00025   0.00000  -0.03875  -0.03882  -3.08794
   D14        1.14288  -0.00080   0.00000  -0.05159  -0.05160   1.09128
   D15       -0.88804  -0.00085   0.00000  -0.05561  -0.05548  -0.94351
[...]
                 (A) (A) (A) (A) (A) (A) (A) (A) (A) (A) (A) (A)
                 (A) (A) (A) (A) (A) (A) (A) (A) (A) (A) (A) (A)
                 (A) (A) (A) (A) (A) (A) (A) (A) (A) (A) (A) (A)
                 (A) (A) (A) (A) (A) (A) (A) (A) (A) (A) (A) (A)
                 (A) (A) (A) (A) (A) (A) (A) (A) (A) (A) (A) (A)
                 (A) (A) (A) (A) (A) (A) (A) (A) (A) (A) (A) (A)
                 (A) (A) (A) (A) (A) (A) (A) (A) (A) (A) (A) (A)
                 (A) (A) (A) (A) (A) (A) (A) (A) (A) (A) (A) (A)
                 (A) (A) (A) (A) (A) (A) (A) (A) (A) (A) (A) (A)
                 (A) (A) (A) (A) (A) (A) (A) (A) (A) (A) (A) (A)
                 (A) (A) (A) (A) (A) (A) (A) (A) (A) (A) (A) (A)
                 (A) (A) (A) (A) (A) (A) (A) (A) (A) (A) (A) (A)
                 (A) (A) (A) (A) (A) (A) (A) (A) (A) (A) (A) (A)
                 (A) (A) (A) (A) (A) (A) (A) (A) (A)
 The electronic state is 1-A.
 Alpha  occ. eigenvalues --  -11.22942 -11.22511 -11.21700 -11.21672 -11.21623
 Alpha  occ. eigenvalues --  -11.21559 -11.21548 -11.21481 -11.21394 -11.21303
 Alpha  occ. eigenvalues --   -1.10735  -1.08460  -1.02106  -0.97425  -0.93781
 Alpha  occ. eigenvalues --   -0.92410  -0.87797  -0.81730  -0.70596  -0.69538
 Alpha  occ. eigenvalues --   -0.64148  -0.63199  -0.59865  -0.58878  -0.58400
 Alpha  occ. eigenvalues --   -0.56978  -0.55031  -0.54497  -0.53241  -0.52889
 Alpha  occ. eigenvalues --   -0.51756  -0.51256  -0.50605  -0.49958  -0.47402
 Alpha  occ. eigenvalues --   -0.46411  -0.44635  -0.33302  -0.31579
 Alpha virt. eigenvalues --    0.18278   0.19823   0.22639   0.24479   0.26352
 Alpha virt. eigenvalues --    0.26979   0.28135   0.29580   0.30260   0.30764
 Alpha virt. eigenvalues --    0.31180   0.32645   0.32687   0.33226   0.34299
 Alpha virt. eigenvalues --    0.34576   0.36343   0.37295   0.39458   0.40230
 Alpha virt. eigenvalues --    0.41256   0.41630   0.43426   0.45036   0.46639
 Alpha virt. eigenvalues --    0.51537   0.53909   0.61377   0.63257   0.69965
 Alpha virt. eigenvalues --    0.70399   0.71526   0.74746   0.75481   0.75903
 Alpha virt. eigenvalues --    0.76554   0.78915   0.80391   0.80901   0.83217
 Alpha virt. eigenvalues --    0.84039   0.86130   0.87564   0.89581   0.91235
 Alpha virt. eigenvalues --    0.93291   0.95752   0.97228   0.97974   0.98236
 Alpha virt. eigenvalues --    0.99468   1.01633   1.02735   1.04986   1.05902
 Alpha virt. eigenvalues --    1.08075   1.08413   1.09417   1.11452   1.12053
 Alpha virt. eigenvalues --    1.12713   1.13741   1.14423   1.15190   1.15534
 Alpha virt. eigenvalues --    1.16795   1.17229   1.17578   1.19003   1.20867
 Alpha virt. eigenvalues --    1.21679   1.22376   1.23487   1.25518   1.26419
 Alpha virt. eigenvalues --    1.30166   1.39975   1.41610   1.44045   1.46080
 Alpha virt. eigenvalues --    1.47724   1.54496   1.55572   1.57700   1.58594
 Alpha virt. eigenvalues --    1.61704   1.62699   1.67734   1.69145   1.73211
 Alpha virt. eigenvalues --    1.73872   1.81023   1.88665   1.92060   1.95529
 Alpha virt. eigenvalues --    1.99492   2.01375   2.03415   2.06003   2.07268
 Alpha virt. eigenvalues --    2.08180   2.09791   2.10261   2.12902   2.14760
 Alpha virt. eigenvalues --    2.15554   2.16167   2.20233   2.23287   2.27079
 Alpha virt. eigenvalues --    2.29523   2.30283   2.31624   2.35381   2.35719
 Alpha virt. eigenvalues --    2.35904   2.36890   2.38606   2.40275   2.41123
 Alpha virt. eigenvalues --    2.43219   2.43386   2.43969   2.45254   2.46004
 Alpha virt. eigenvalues --    2.47480   2.49675   2.50500   2.50940   2.55815
 Alpha virt. eigenvalues --    2.57212   2.59139   2.62378   2.64175   2.65553
 Alpha virt. eigenvalues --    2.65955   2.68919   2.69922   2.72160   2.74352
 Alpha virt. eigenvalues --    2.75378   2.78666   2.79435   2.82557   2.85253
 Alpha virt. eigenvalues --    2.86770   2.89131   2.90664   2.93364   2.95194
 Alpha virt. eigenvalues --    2.96789   3.01062   3.01749   3.02842   3.05840
 Alpha virt. eigenvalues --    3.06821   3.08229   3.11046   3.13060   3.15037
 Alpha virt. eigenvalues --    3.17644   3.18677   3.19603   3.21230   3.22103
 Alpha virt. eigenvalues --    3.23523   3.25546   3.27098   3.28316   3.39604
 Alpha virt. eigenvalues --    3.40342   3.43965   3.46562   3.56151   3.57284
 Alpha virt. eigenvalues --    3.61439   3.63308   3.66169   3.73762   3.78524
 Alpha virt. eigenvalues --    3.79891   3.80625   3.82070   3.83586   3.84047
 Alpha virt. eigenvalues --    3.84433   3.86378   3.88485   3.90968   3.91574
 Alpha virt. eigenvalues --    3.96730   4.58901   4.61963   4.74169   4.83816
 Alpha virt. eigenvalues --    4.89947   4.91397   4.92472   5.05969   5.10292
 Alpha virt. eigenvalues --    5.16502
          Condensed to atoms (all electrons):
               1          2          3          4          5          6
     1  C    4.974988   0.403408   0.415411   0.356023  -0.058956   0.003374
     2  H    0.403408   0.599714  -0.026798  -0.043341  -0.003339  -0.000064
     3  H    0.415411  -0.026798   0.578838  -0.048072   0.003758  -0.000099
     4  C    0.356023  -0.043341  -0.048072   4.938927   0.341780  -0.037392
     5  C   -0.058956  -0.003339   0.003758   0.341780   4.910358   0.407891
     6  H    0.003374  -0.000064  -0.000099  -0.037392   0.407891   0.566823
     7  H   -0.001323  -0.000069  -0.000113  -0.040628   0.401349  -0.027794
     8  H   -0.003547   0.003111   0.000063  -0.044719   0.401593  -0.027469
     9  C   -0.041250   0.000134  -0.002476   0.699900  -0.045207  -0.002940
    10  H   -0.007287   0.000242   0.002363  -0.040058   0.003549   0.000036
    11  C    0.003156  -0.000112   0.000190  -0.047772  -0.007872  -0.002284
    12  H    0.000098   0.000001   0.000005  -0.000145  -0.002067  -0.001240
    13  H   -0.000112   0.000015  -0.000005  -0.000990   0.000313   0.000112
    14  H   -0.000088  -0.000003  -0.000011  -0.000135   0.000209  -0.000070
    15  C   -0.000099  -0.000035  -0.000005   0.000001  -0.000000   0.000000
    16  H   -0.000003  -0.000002   0.000002   0.000000  -0.000000   0.000000
    17  H    0.000023  -0.000008  -0.000002  -0.000000   0.000000  -0.000000
    18  H   -0.000005   0.000002   0.000000   0.000000  -0.000000   0.000000
    19  C   -0.003672   0.001313   0.000704   0.000010   0.000012  -0.000000
    20  C    0.000497   0.000102  -0.000013  -0.000023  -0.000025   0.000000
    21  H   -0.000096   0.000163  -0.000010  -0.000028   0.000104  -0.000001
    22  H   -0.000038   0.000019   0.000000   0.000001  -0.000000   0.000000
    23  H    0.000111  -0.000102  -0.000001  -0.000003   0.000000  -0.000000
    24  C   -0.059428  -0.000848  -0.002419   0.005534  -0.000112   0.000001
    25  H   -0.000252   0.000104   0.001229  -0.000121  -0.000001   0.000000
    26  C    0.330777  -0.050607  -0.041635  -0.062303  -0.001255   0.000071
    27  H   -0.048600   0.005194  -0.001948   0.001693   0.000081  -0.000024
    28  H   -0.040252  -0.002993   0.004187  -0.002733  -0.000624   0.000052
               7          8          9         10         11         12
     1  C   -0.001323  -0.003547  -0.041250  -0.007287   0.003156   0.000098
     2  H   -0.000069   0.003111   0.000134   0.000242  -0.000112   0.000001
     3  H   -0.000113   0.000063  -0.002476   0.002363   0.000190   0.000005
     4  C   -0.040628  -0.044719   0.699900  -0.040058  -0.047772  -0.000145
     5  C    0.401349   0.401593  -0.045207   0.003549  -0.007872  -0.002067
     6  H   -0.027794  -0.027469  -0.002940   0.000036  -0.002284  -0.001240
     7  H    0.581357  -0.035111  -0.002532  -0.000126   0.000483  -0.000121
     8  H   -0.035111   0.588696   0.001781  -0.000112   0.000170   0.000009
     9  C   -0.002532   0.001781   4.935711   0.405808   0.340021  -0.043588
    10  H   -0.000126  -0.000112   0.405808   0.560479  -0.041928   0.003343
    11  C    0.000483   0.000170   0.340021  -0.041928   4.898099   0.408372
    12  H   -0.000121   0.000009  -0.043588   0.003343   0.408372   0.576336
    13  H   -0.000040   0.000028  -0.042072  -0.000928   0.401060  -0.027841
    14  H    0.000090  -0.000017  -0.042036  -0.001475   0.402090  -0.028754
    15  C   -0.000000   0.000000   0.000000  -0.000000   0.000000   0.000000
    16  H    0.000000  -0.000000   0.000000  -0.000000   0.000000   0.000000
    17  H   -0.000000   0.000000   0.000000   0.000000  -0.000000  -0.000000
    18  H    0.000000  -0.000000  -0.000000  -0.000000   0.000000  -0.000000
    19  C    0.000006   0.000000  -0.000003  -0.000000   0.000000  -0.000000
    20  C   -0.000003  -0.000017  -0.000000   0.000000  -0.000000  -0.000000
    21  H    0.000018   0.000181  -0.000000  -0.000000   0.000000  -0.000000
    22  H    0.000000  -0.000000  -0.000000  -0.000000   0.000000   0.000000
    23  H   -0.000000   0.000001   0.000000   0.000000  -0.000000  -0.000000
    24  C    0.000014  -0.000056  -0.000063  -0.000017   0.000001   0.000000
    25  H   -0.000001  -0.000000   0.000001   0.000001  -0.000000  -0.000000
    26  C    0.001290  -0.001206  -0.004326   0.000244  -0.000085  -0.000004
    27  H    0.000077   0.000102   0.001491   0.000113  -0.000046   0.000001
    28  H   -0.001926   0.000260   0.000274  -0.000007   0.000003  -0.000000
              13         14         15         16         17         18
     1  C   -0.000112  -0.000088  -0.000099  -0.000003   0.000023  -0.000005
     2  H    0.000015  -0.000003  -0.000035  -0.000002  -0.000008   0.000002
     3  H   -0.000005  -0.000011  -0.000005   0.000002  -0.000002   0.000000
     4  C   -0.000990  -0.000135   0.000001   0.000000  -0.000000   0.000000
     5  C    0.000313   0.000209  -0.000000  -0.000000   0.000000  -0.000000
     6  H    0.000112  -0.000070   0.000000   0.000000  -0.000000   0.000000
     7  H   -0.000040   0.000090  -0.000000   0.000000  -0.000000   0.000000
     8  H    0.000028  -0.000017   0.000000  -0.000000   0.000000  -0.000000
     9  C   -0.042072  -0.042036   0.000000   0.000000   0.000000  -0.000000
    10  H   -0.000928  -0.001475  -0.000000  -0.000000   0.000000  -0.000000
    11  C    0.401060   0.402090   0.000000   0.000000  -0.000000   0.000000
    12  H   -0.027841  -0.028754   0.000000   0.000000  -0.000000  -0.000000
    13  H    0.585846  -0.035752   0.000000  -0.000000  -0.000000   0.000000
    14  H   -0.035752   0.585553  -0.000000  -0.000000   0.000000  -0.000000
    15  C    0.000000  -0.000000   4.900365   0.406156   0.398129   0.398842
    16  H   -0.000000  -0.000000   0.406156   0.566018  -0.026658  -0.026583
    17  H   -0.000000   0.000000   0.398129  -0.026658   0.594722  -0.037889
    18  H    0.000000  -0.000000   0.398842  -0.026583  -0.037889   0.594300
    19  C   -0.000000   0.000000   0.353360  -0.041652  -0.043733  -0.044451
    20  C   -0.000000   0.000000  -0.065128   0.003792  -0.001987  -0.001172
    21  H    0.000000  -0.000000   0.003755  -0.000115  -0.000071  -0.000029
    22  H    0.000000  -0.000000  -0.002169  -0.000056  -0.000451   0.002761
    23  H   -0.000000   0.000000  -0.002671  -0.000028   0.002771  -0.000490
    24  C    0.000000  -0.000000  -0.044088  -0.002558  -0.000516  -0.001249
    25  H    0.000000   0.000000  -0.006999   0.002365   0.000179   0.000191
    26  C   -0.000004   0.000020   0.003163   0.000146  -0.000073  -0.000128
    27  H    0.000001  -0.000007  -0.000090  -0.000009  -0.000002   0.000009
    28  H    0.000000  -0.000000   0.000055   0.000007  -0.000004   0.000006
              19         20         21         22         23         24
     1  C   -0.003672   0.000497  -0.000096  -0.000038   0.000111  -0.059428
     2  H    0.001313   0.000102   0.000163   0.000019  -0.000102  -0.000848
     3  H    0.000704  -0.000013  -0.000010   0.000000  -0.000001  -0.002419
     4  C    0.000010  -0.000023  -0.000028   0.000001  -0.000003   0.005534
     5  C    0.000012  -0.000025   0.000104  -0.000000   0.000000  -0.000112
     6  H   -0.000000   0.000000  -0.000001   0.000000  -0.000000   0.000001
     7  H    0.000006  -0.000003   0.000018   0.000000  -0.000000   0.000014
     8  H    0.000000  -0.000017   0.000181  -0.000000   0.000001  -0.000056
     9  C   -0.000003  -0.000000  -0.000000  -0.000000   0.000000  -0.000063
    10  H   -0.000000   0.000000  -0.000000  -0.000000   0.000000  -0.000017
    11  C    0.000000  -0.000000   0.000000   0.000000  -0.000000   0.000001
    12  H   -0.000000  -0.000000  -0.000000   0.000000  -0.000000   0.000000
    13  H   -0.000000  -0.000000   0.000000   0.000000  -0.000000   0.000000
    14  H    0.000000   0.000000  -0.000000  -0.000000   0.000000  -0.000000
    15  C    0.353360  -0.065128   0.003755  -0.002169  -0.002671  -0.044088
    16  H   -0.041652   0.003792  -0.000115  -0.000056  -0.000028  -0.002558
    17  H   -0.043733  -0.001987  -0.000071  -0.000451   0.002771  -0.000516
    18  H   -0.044451  -0.001172  -0.000029   0.002761  -0.000490  -0.001249
    19  C    4.916373   0.350747  -0.037860  -0.043661  -0.043350   0.697001
    20  C    0.350747   4.904914   0.406941   0.400028   0.401144  -0.044228
    21  H   -0.037860   0.406941   0.570752  -0.026741  -0.028143  -0.002949
    22  H   -0.043661   0.400028  -0.026741   0.585891  -0.035834  -0.000395
    23  H   -0.043350   0.401144  -0.028143  -0.035834   0.587024  -0.000050
    24  C    0.697001  -0.044228  -0.002949  -0.000395  -0.000050   4.948624
    25  H   -0.038546   0.003538   0.000052  -0.000119  -0.000122   0.404397
    26  C   -0.050689  -0.007895  -0.002866   0.000161   0.000349   0.349912
    27  H    0.001494   0.000164   0.000074   0.000024  -0.000014  -0.040495
    28  H    0.000117  -0.002487  -0.001923   0.000078  -0.000062  -0.043960
              25         26         27         28
     1  C   -0.000252   0.330777  -0.048600  -0.040252
     2  H    0.000104  -0.050607   0.005194  -0.002993
     3  H    0.001229  -0.041635  -0.001948   0.004187
     4  C   -0.000121  -0.062303   0.001693  -0.002733
     5  C   -0.000001  -0.001255   0.000081  -0.000624
     6  H    0.000000   0.000071  -0.000024   0.000052
     7  H   -0.000001   0.001290   0.000077  -0.001926
     8  H   -0.000000  -0.001206   0.000102   0.000260
     9  C    0.000001  -0.004326   0.001491   0.000274
    10  H    0.000001   0.000244   0.000113  -0.000007
    11  C   -0.000000  -0.000085  -0.000046   0.000003
    12  H   -0.000000  -0.000004   0.000001  -0.000000
    13  H    0.000000  -0.000004   0.000001   0.000000
    14  H    0.000000   0.000020  -0.000007  -0.000000
    15  C   -0.006999   0.003163  -0.000090   0.000055
    16  H    0.002365   0.000146  -0.000009   0.000007
    17  H    0.000179  -0.000073  -0.000002  -0.000004
    18  H    0.000191  -0.000128   0.000009   0.000006
    19  C   -0.038546  -0.050689   0.001494   0.000117
    20  C    0.003538  -0.007895   0.000164  -0.002487
    21  H    0.000052  -0.002866   0.000074  -0.001923
    22  H   -0.000119   0.000161   0.000024   0.000078
    23  H   -0.000122   0.000349  -0.000014  -0.000062
    24  C    0.404397   0.349912  -0.040495  -0.043960
    25  H    0.557197  -0.040255  -0.003447   0.003321
    26  C   -0.040255   4.996586   0.408555   0.414833
    27  H   -0.003447   0.408555   0.583067  -0.029530
    28  H    0.003321   0.414833  -0.029530   0.586456
 Mulliken charges:
               1
     1  C   -0.222858
     2  H    0.114798
     3  H    0.116854
     4  C    0.024596
     5  C   -0.351538
     6  H    0.121017
     7  H    0.125105
     8  H    0.116258
     9  C   -0.158628
    10  H    0.115762
    11  C   -0.353548
    12  H    0.115594
    13  H    0.120368
    14  H    0.120385
    15  C   -0.342542
    16  H    0.119179
    17  H    0.115569
    18  H    0.115885
    19  C    0.026481
    20  C   -0.348889
    21  H    0.118792
    22  H    0.120502
    23  H    0.119470
    24  C   -0.162051
    25  H    0.117291
    26  C   -0.242778
    27  H    0.122073
    28  H    0.116854
 Sum of Mulliken charges =  -0.00000
 Mulliken charges with hydrogens summed into heavy atoms:
               1
     1  C    0.008793
     4  C    0.024596
     5  C    0.010842
     9  C   -0.042866
    11  C    0.002799
    15  C    0.008091
    19  C    0.026481
    20  C    0.009874
    24  C   -0.044761
    26  C   -0.003851
 Electronic spatial extent (au):  <R**2>=           2732.9304
 Charge=             -0.0000 electrons
 Dipole moment (field-independent basis, Debye):
    X=             -0.1804    Y=              0.3344    Z=              0.0137  Tot=              0.3802
 Quadrupole moment (field-independent basis, Debye-Ang):
   XX=            -63.3690   YY=            -63.3487   ZZ=            -67.5455
   XY=             -0.5271   XZ=             -1.2943   YZ=             -0.0439
 Traceless Quadrupole moment (field-independent basis, Debye-Ang):
   XX=              1.3854   YY=              1.4057   ZZ=             -2.7911
   XY=             -0.5271   XZ=             -1.2943   YZ=             -0.0439
 Octapole moment (field-independent basis, Debye-Ang**2):
  XXX=             -1.8541  YYY=             -4.2578  ZZZ=              0.6175  XYY=              1.3386
  XXY=              2.1921  XXZ=              1.0246  XZZ=             -1.0360  YZZ=              1.6476
  YYZ=             -0.5218  XYZ=             -0.7897
 Hexadecapole moment (field-independent basis, Debye-Ang**3):
 XXXX=          -3157.8103 YYYY=           -445.8907 ZZZZ=           -164.8126 XXXY=            -13.1540
 XXXZ=             -3.4752 YYYX=              3.7998 YYYZ=             -0.1961 ZZZX=            -10.6021
 ZZZY=              1.0555 XXYY=           -598.7696 XXZZ=           -570.2515 YYZZ=           -101.8217
 XXYZ=             -3.4436 YYXZ=              2.1848 ZZXY=             -5.1632
 N-N= 5.102624097082D+02 E-N=-1.925255940113D+03  KE= 3.887443557049D+02
 No NMR shielding tensors so no spin-rotation constants.
 Leave Link  601 at Fri Sep 17 22:04:45 2021, MaxMem=   524288000 cpu:               0.3 elap:               0.6
 (Enter /opt/gaussian/g16_legacy/l9999.exe)
 1\1\GINC-TRUENO90\FOpt\RMP2-FC\6-31G(d,p)\C10H18\JRAMOS\17-Sep-2021\0\
 \#p opt mp2/6-31g(d,p)\\Conformer number 026. Energy MM = 30.027 kcal/
 mol\\0,1\C,2.3001952545,0.7359840763,-8.8604886973\H,2.0410214688,-0.2
 940315892,-8.5923942533\H,2.1582955496,0.825935693,-9.9404322473\C,3.7
 392869345,1.0123185219,-8.5101445374\C,4.105205884,0.79018082,-7.06627
 14788\H,5.1794886004,0.7313912245,-6.910302899\H,3.7199590306,1.589715
 0617,-6.4306138425\H,3.6652845974,-0.1429129456,-6.7088728132\C,4.5920
 374643,1.4543943343,-9.4536413295\H,4.1984124657,1.5705365692,-10.4598
 228264\C,6.0379457375,1.8132362088,-9.2927071938\H,6.3853214748,1.7060
 404709,-8.2683431898\H,6.6668369888,1.1889960725,-9.9301099911\H,6.210
 2721788,2.8483041286,-9.5931316211\C,-2.4063506973,0.5236531981,-8.563
 307934\H,-2.5022274336,1.0551956949,-9.5088333536\H,-2.622279083,-0.53
 23959179,-8.7403358738\H,-3.1761948893,0.8942720998,-7.8826378433\C,-1
 .0365745233,0.6984680491,-7.9675962395\C,-0.8292085024,-0.0026428073,-
 6.6536946926\H,0.181306045,0.1069201607,-6.2683332918\H,-1.5247869289,
 0.377885492,-5.9023536347\H,-1.0335265724,-1.0700476406,-6.7610728845\
 C,-0.1005106422,1.4368943045,-8.5929278015\H,-0.3681189388,1.875789864
 8,-9.550900427\C,1.3115389788,1.6769002243,-8.1478416456\H,1.595012586
 7,2.7085478349,-8.3739450437\H,1.4046569714,1.5596707956,-7.0680424137
 \\Version=EM64L-G16RevA.03\State=1-A\HF=-389.1568226\MP2=-390.5733484\
 RMSD=3.863e-09\RMSF=1.294e-06\Dipole=-0.0103427,-0.043459,0.1094359\PG
 =C01 [X(C10H18)]\\@


 If your ship doesn't come in, swim out to it!
                          -- Jonathan Winters
 Job cpu time:       0 days  1 hours 55 minutes  7.7 seconds.
 Elapsed time:       0 days  1 hours 55 minutes 13.5 seconds.
 File lengths (MBytes):  RWF=     32 Int=      0 D2E=      0 Chk=      7 Scr=      1
 Normal termination of Gaussian 16 at Fri Sep 17 22:04:45 2021.
