 Entering Gaussian System, Link 0=/opt/gaussian/g16_legacy/g16
 Input=02-IsoP_034_gaussian.com
 Output=02-IsoP_034_gaussian.log
 Initial command:
 /opt/gaussian/g16_legacy/l1.exe "/scratch-local/jramos/2661524/Gau-12061.inp" -scrdir="/scratch-local/jramos/2661524/"
 Entering Link 1 = /opt/gaussian/g16_legacy/l1.exe PID=     12073.
  
 Copyright (c) 1988,1990,1992,1993,1995,1998,2003,2009,2016,
            Gaussian, Inc.  All Rights Reserved.
  
 This is part of the Gaussian(R) 16 program.  It is based on
 the Gaussian(R) 09 system (copyright 2009, Gaussian, Inc.),
 the Gaussian(R) 03 system (copyright 2003, Gaussian, Inc.),
 the Gaussian(R) 98 system (copyright 1998, Gaussian, Inc.),
 the Gaussian(R) 94 system (copyright 1995, Gaussian, Inc.),
 the Gaussian 92(TM) system (copyright 1992, Gaussian, Inc.),
 the Gaussian 90(TM) system (copyright 1990, Gaussian, Inc.),
 the Gaussian 88(TM) system (copyright 1988, Gaussian, Inc.),
 the Gaussian 86(TM) system (copyright 1986, Carnegie Mellon
 University), and the Gaussian 82(TM) system (copyright 1983,
 Carnegie Mellon University). Gaussian is a federally registered
 trademark of Gaussian, Inc.
  
 This software contains proprietary and confidential information,
 including trade secrets, belonging to Gaussian, Inc.
  
 This software is provided under written license and may be
 used, copied, transmitted, or stored only in accord with that
 written license.
  
 The following legend is applicable only to US Government
 contracts under FAR:
  
                    RESTRICTED RIGHTS LEGEND
  
 Use, reproduction and disclosure by the US Government is
 subject to restrictions as set forth in subparagraphs (a)
 and (c) of the Commercial Computer Software - Restricted
 Rights clause in FAR 52.227-19.
  
 Gaussian, Inc.
 340 Quinnipiac St., Bldg. 40, Wallingford CT 06492
  
  
 ---------------------------------------------------------------
 Warning -- This program may not be used in any manner that
 competes with the business of Gaussian, Inc. or will provide
 assistance to any competitor of Gaussian, Inc.  The licensee
 of this program is prohibited from giving any competitor of
 Gaussian, Inc. access to this program.  By using this program,
 the user acknowledges that Gaussian, Inc. is engaged in the
 business of creating and licensing software in the field of
 computational chemistry and represents and warrants to the
 licensee that it is not a competitor of Gaussian, Inc. and that
 it will not use this program in any manner prohibited above.
 ---------------------------------------------------------------
  

 Cite this work as:
 Gaussian 16, Revision A.03,
 M. J. Frisch, G. W. Trucks, H. B. Schlegel, G. E. Scuseria, 
 M. A. Robb, J. R. Cheeseman, G. Scalmani, V. Barone, 
 G. A. Petersson, H. Nakatsuji, X. Li, M. Caricato, A. V. Marenich, 
 J. Bloino, B. G. Janesko, R. Gomperts, B. Mennucci, H. P. Hratchian, 
 J. V. Ortiz, A. F. Izmaylov, J. L. Sonnenberg, D. Williams-Young, 
 F. Ding, F. Lipparini, F. Egidi, J. Goings, B. Peng, A. Petrone, 
 T. Henderson, D. Ranasinghe, V. G. Zakrzewski, J. Gao, N. Rega, 
 G. Zheng, W. Liang, M. Hada, M. Ehara, K. Toyota, R. Fukuda, 
 J. Hasegawa, M. Ishida, T. Nakajima, Y. Honda, O. Kitao, H. Nakai, 
 T. Vreven, K. Throssell, J. A. Montgomery, Jr., J. E. Peralta, 
 F. Ogliaro, M. J. Bearpark, J. J. Heyd, E. N. Brothers, K. N. Kudin, 
 V. N. Staroverov, T. A. Keith, R. Kobayashi, J. Normand, 
 K. Raghavachari, A. P. Rendell, J. C. Burant, S. S. Iyengar, 
 J. Tomasi, M. Cossi, J. M. Millam, M. Klene, C. Adamo, R. Cammi, 
 J. W. Ochterski, R. L. Martin, K. Morokuma, O. Farkas, 
 J. B. Foresman, and D. J. Fox, Gaussian, Inc., Wallingford CT, 2016.
 
 ******************************************
 Gaussian 16:  EM64L-G16RevA.03 25-Dec-2016
                17-Sep-2021 
 ******************************************
 %chk=02-IsoP_034_gaussian.chk
 %nproc=1
 Will use up to    1 processors via shared memory.
 %mem=4000Mb
 ---------------------
 #p opt mp2/6-31g(d,p)
 ---------------------
 1/18=20,19=15,38=1/1,3;
 2/9=110,12=2,17=6,18=5,40=1/2;
 3/5=1,6=6,7=101,11=9,25=1,30=1,71=1/1,2,3;
 4//1;
 5/5=2,38=5/2;
 8/6=4,10=2/1;
 9/15=2,16=-3/6;
 10/5=1/2;
 6/7=2,8=2,9=2,10=2/1;
 7/12=2/1,2,3,16;
 1/18=20,19=15/3(2);
 2/9=110/2;
 99//99;
 2/9=110/2;
 3/5=1,6=6,7=101,11=9,25=1,30=1,71=1/1,2,3;
 4/5=5,16=3,69=1/1;
 5/5=2,38=5/2;
 8/6=4,10=2/1;
 9/15=2,16=-3/6;
 10/5=1/2;
 7/12=2/1,2,3,16;
 1/18=20,19=15/3(-8);
 2/9=110/2;
 6/7=2,8=2,9=2,10=2/1;
 99//99;
 Leave Link    1 at Fri Sep 17 20:09:28 2021, MaxMem=   524288000 cpu:               0.0 elap:               0.3
 (Enter /opt/gaussian/g16_legacy/l101.exe)
 -------------------------------------------------
 Conformer number 034. Energy MM = 27.665 kcal/mol
 -------------------------------------------------
 Symbolic Z-matrix:
 Charge =  0 Multiplicity = 1
 C                     2.1403    1.1848   -9.0081 
 H                     1.8082    0.171    -9.2668 
 H                     1.9388    1.793    -9.9 
 C                     3.6344    1.1765   -8.7305 
 C                     4.1847   -0.1033   -8.1598 
 H                     4.9348    0.0835   -7.3824 
 H                     3.4044   -0.7087   -7.6921 
 H                     4.6382   -0.707    -8.9526 
 C                     4.3794    2.2777   -8.9532 
 H                     3.8916    3.1633   -9.3582 
 C                     5.8368    2.4549   -8.6627 
 H                     6.3079    1.5654   -8.2382 
 H                     6.3713    2.7132   -9.5807 
 H                     5.9674    3.2743   -7.9479 
 C                     2.5155    0.3344   -4.3946 
 H                     1.81     -0.5026   -4.4226 
 H                     3.5287   -0.0824   -4.4041 
 H                     2.3661    0.8668   -3.4502 
 C                     2.3391    1.2686   -5.5623 
 C                     3.2611    2.4602   -5.5468 
 H                     2.929     3.2673   -6.2044 
 H                     3.3258    2.8821   -4.54 
 H                     4.2677    2.1584   -5.8517 
 C                     1.4739    0.9809   -6.5525 
 H                     0.8741    0.0736   -6.4789 
 C                     1.2936    1.7383   -7.8445 
 H                     0.2337    1.6809   -8.1259 
 H                     1.4958    2.8061   -7.7123 
 
 ITRead=  0  0  0  0  0  0  0  0  0  0  0  0  0  0  0  0  0  0  0  0
 ITRead=  0  0  0  0  0  0  0  0
 MicOpt= -1 -1 -1 -1 -1 -1 -1 -1 -1 -1 -1 -1 -1 -1 -1 -1 -1 -1 -1 -1
 MicOpt= -1 -1 -1 -1 -1 -1 -1 -1
 NAtoms=     28 NQM=       28 NQMF=       0 NMMI=      0 NMMIF=      0
                NMic=       0 NMicF=      0.
                    Isotopes and Nuclear Properties:
 (Nuclear quadrupole moments (NQMom) in fm**2, nuclear magnetic moments (NMagM)
  in nuclear magnetons)

  Atom         1           2           3           4           5           6           7           8           9          10
 IAtWgt=          12           1           1          12          12           1           1           1          12           1
 AtmWgt=  12.0000000   1.0078250   1.0078250  12.0000000  12.0000000   1.0078250   1.0078250   1.0078250  12.0000000   1.0078250
 NucSpn=           0           1           1           0           0           1           1           1           0           1
 AtZEff=  -0.0000000  -0.0000000  -0.0000000  -0.0000000  -0.0000000  -0.0000000  -0.0000000  -0.0000000  -0.0000000  -0.0000000
 NQMom=    0.0000000   0.0000000   0.0000000   0.0000000   0.0000000   0.0000000   0.0000000   0.0000000   0.0000000   0.0000000
 NMagM=    0.0000000   2.7928460   2.7928460   0.0000000   0.0000000   2.7928460   2.7928460   2.7928460   0.0000000   2.7928460
 AtZNuc=   6.0000000   1.0000000   1.0000000   6.0000000   6.0000000   1.0000000   1.0000000   1.0000000   6.0000000   1.0000000

  Atom        11          12          13          14          15          16          17          18          19          20
 IAtWgt=          12           1           1           1          12           1           1           1          12          12
 AtmWgt=  12.0000000   1.0078250   1.0078250   1.0078250  12.0000000   1.0078250   1.0078250   1.0078250  12.0000000  12.0000000
 NucSpn=           0           1           1           1           0           1           1           1           0           0
 AtZEff=  -0.0000000  -0.0000000  -0.0000000  -0.0000000  -0.0000000  -0.0000000  -0.0000000  -0.0000000  -0.0000000  -0.0000000
 NQMom=    0.0000000   0.0000000   0.0000000   0.0000000   0.0000000   0.0000000   0.0000000   0.0000000   0.0000000   0.0000000
 NMagM=    0.0000000   2.7928460   2.7928460   2.7928460   0.0000000   2.7928460   2.7928460   2.7928460   0.0000000   0.0000000
 AtZNuc=   6.0000000   1.0000000   1.0000000   1.0000000   6.0000000   1.0000000   1.0000000   1.0000000   6.0000000   6.0000000

  Atom        21          22          23          24          25          26          27          28
 IAtWgt=           1           1           1          12           1          12           1           1
 AtmWgt=   1.0078250   1.0078250   1.0078250  12.0000000   1.0078250  12.0000000   1.0078250   1.0078250
 NucSpn=           1           1           1           0           1           0           1           1
 AtZEff=  -0.0000000  -0.0000000  -0.0000000  -0.0000000  -0.0000000  -0.0000000  -0.0000000  -0.0000000
 NQMom=    0.0000000   0.0000000   0.0000000   0.0000000   0.0000000   0.0000000   0.0000000   0.0000000
 NMagM=    2.7928460   2.7928460   2.7928460   0.0000000   2.7928460   0.0000000   2.7928460   2.7928460
 AtZNuc=   1.0000000   1.0000000   1.0000000   6.0000000   1.0000000   6.0000000   1.0000000   1.0000000
 Leave Link  101 at Fri Sep 17 20:09:28 2021, MaxMem=   524288000 cpu:               0.3 elap:               0.4
 (Enter /opt/gaussian/g16_legacy/l103.exe)

 GradGradGradGradGradGradGradGradGradGradGradGradGradGradGradGradGradGrad
 Berny optimization.
 Initialization pass.
                           ----------------------------
                           !    Initial Parameters    !
                           ! (Angstroms and Degrees)  !
 --------------------------                            --------------------------
 ! Name  Definition              Value          Derivative Info.                !
 --------------------------------------------------------------------------------
 ! R1    R(1,2)                  1.0977         estimate D2E/DX2                !
 ! R2    R(1,3)                  1.0982         estimate D2E/DX2                !
 ! R3    R(1,4)                  1.5197         estimate D2E/DX2                !
 ! R4    R(1,26)                 1.5418         estimate D2E/DX2                !
 ! R5    R(4,5)                  1.5055         estimate D2E/DX2                !
 ! R6    R(4,9)                  1.3481         estimate D2E/DX2                !
 ! R7    R(5,6)                  1.0963         estimate D2E/DX2                !
 ! R8    R(5,7)                  1.0928         estimate D2E/DX2                !
 ! R9    R(5,8)                  1.0948         estimate D2E/DX2                !
 ! R10   R(9,10)                 1.0892         estimate D2E/DX2                !
 ! R11   R(9,11)                 1.4966         estimate D2E/DX2                !
 ! R12   R(11,12)                1.0924         estimate D2E/DX2                !
 ! R13   R(11,13)                1.0932         estimate D2E/DX2                !
 ! R14   R(11,14)                1.0952         estimate D2E/DX2                !
 ! R15   R(15,16)                1.095          estimate D2E/DX2                !
 ! R16   R(15,17)                1.0956         estimate D2E/DX2                !
 ! R17   R(15,18)                1.0944         estimate D2E/DX2                !
 ! R18   R(15,19)                1.5058         estimate D2E/DX2                !
 ! R19   R(19,20)                1.5067         estimate D2E/DX2                !
 ! R20   R(19,24)                1.346          estimate D2E/DX2                !
 ! R21   R(20,21)                1.0928         estimate D2E/DX2                !
 ! R22   R(20,22)                1.0935         estimate D2E/DX2                !
 ! R23   R(20,23)                1.0942         estimate D2E/DX2                !
 ! R24   R(24,25)                1.0901         estimate D2E/DX2                !
 ! R25   R(24,26)                1.5085         estimate D2E/DX2                !
 ! R26   R(26,27)                1.0981         estimate D2E/DX2                !
 ! R27   R(26,28)                1.0948         estimate D2E/DX2                !
 ! A1    A(2,1,3)              105.3415         estimate D2E/DX2                !
 ! A2    A(2,1,4)              109.5996         estimate D2E/DX2                !
 ! A3    A(2,1,26)             110.0757         estimate D2E/DX2                !
 ! A4    A(3,1,4)              109.3767         estimate D2E/DX2                !
 ! A5    A(3,1,26)             108.2613         estimate D2E/DX2                !
 ! A6    A(4,1,26)             113.829          estimate D2E/DX2                !
 ! A7    A(1,4,5)              115.6752         estimate D2E/DX2                !
 ! A8    A(1,4,9)              120.5774         estimate D2E/DX2                !
 ! A9    A(5,4,9)              123.7138         estimate D2E/DX2                !
 ! A10   A(4,5,6)              111.9665         estimate D2E/DX2                !
 ! A11   A(4,5,7)              111.8513         estimate D2E/DX2                !
 ! A12   A(4,5,8)              110.2221         estimate D2E/DX2                !
 ! A13   A(6,5,7)              106.2284         estimate D2E/DX2                !
 ! A14   A(6,5,8)              108.9068         estimate D2E/DX2                !
 ! A15   A(7,5,8)              107.4709         estimate D2E/DX2                !
 ! A16   A(4,9,10)             118.563          estimate D2E/DX2                !
 ! A17   A(4,9,11)             127.0725         estimate D2E/DX2                !
 ! A18   A(10,9,11)            114.3333         estimate D2E/DX2                !
 ! A19   A(9,11,12)            113.5141         estimate D2E/DX2                !
 ! A20   A(9,11,13)            109.9437         estimate D2E/DX2                !
 ! A21   A(9,11,14)            109.354          estimate D2E/DX2                !
 ! A22   A(12,11,13)           107.9297         estimate D2E/DX2                !
 ! A23   A(12,11,14)           107.7081         estimate D2E/DX2                !
 ! A24   A(13,11,14)           108.2393         estimate D2E/DX2                !
 ! A25   A(16,15,17)           107.7464         estimate D2E/DX2                !
 ! A26   A(16,15,18)           107.8162         estimate D2E/DX2                !
 ! A27   A(16,15,19)           112.2664         estimate D2E/DX2                !
 ! A28   A(17,15,18)           108.5903         estimate D2E/DX2                !
 ! A29   A(17,15,19)           109.7326         estimate D2E/DX2                !
 ! A30   A(18,15,19)           110.5724         estimate D2E/DX2                !
 ! A31   A(15,19,20)           114.267          estimate D2E/DX2                !
 ! A32   A(15,19,24)           120.8749         estimate D2E/DX2                !
 ! A33   A(20,19,24)           124.7452         estimate D2E/DX2                !
 ! A34   A(19,20,21)           113.076          estimate D2E/DX2                !
 ! A35   A(19,20,22)           110.536          estimate D2E/DX2                !
 ! A36   A(19,20,23)           109.9946         estimate D2E/DX2                !
 ! A37   A(21,20,22)           106.6826         estimate D2E/DX2                !
 ! A38   A(21,20,23)           108.3973         estimate D2E/DX2                !
 ! A39   A(22,20,23)           107.9707         estimate D2E/DX2                !
 ! A40   A(19,24,25)           118.8086         estimate D2E/DX2                !
 ! A41   A(19,24,26)           126.8404         estimate D2E/DX2                !
 ! A42   A(25,24,26)           114.2023         estimate D2E/DX2                !
 ! A43   A(1,26,24)            113.61           estimate D2E/DX2                !
 ! A44   A(1,26,27)            108.5349         estimate D2E/DX2                !
 ! A45   A(1,26,28)            109.8676         estimate D2E/DX2                !
 ! A46   A(24,26,27)           107.9752         estimate D2E/DX2                !
 ! A47   A(24,26,28)           111.3599         estimate D2E/DX2                !
 ! A48   A(27,26,28)           105.0814         estimate D2E/DX2                !
 ! D1    D(2,1,4,5)            -30.6381         estimate D2E/DX2                !
 ! D2    D(2,1,4,9)            151.3922         estimate D2E/DX2                !
 ! D3    D(3,1,4,5)           -145.6583         estimate D2E/DX2                !
 ! D4    D(3,1,4,9)             36.3721         estimate D2E/DX2                !
 ! D5    D(26,1,4,5)            93.1134         estimate D2E/DX2                !
 ! D6    D(26,1,4,9)           -84.8563         estimate D2E/DX2                !
 ! D7    D(2,1,26,24)           65.039          estimate D2E/DX2                !
 ! D8    D(2,1,26,27)          -55.0781         estimate D2E/DX2                !
 ! D9    D(2,1,26,28)         -169.4681         estimate D2E/DX2                !
 ! D10   D(3,1,26,24)          179.6981         estimate D2E/DX2                !
 ! D11   D(3,1,26,27)           59.581          estimate D2E/DX2                !
 ! D12   D(3,1,26,28)          -54.8091         estimate D2E/DX2                !
 ! D13   D(4,1,26,24)          -58.4542         estimate D2E/DX2                !
 ! D14   D(4,1,26,27)         -178.5713         estimate D2E/DX2                !
 ! D15   D(4,1,26,28)           67.0387         estimate D2E/DX2                !
 ! D16   D(1,4,5,6)           -139.8855         estimate D2E/DX2                !
 ! D17   D(1,4,5,7)            -20.7802         estimate D2E/DX2                !
 ! D18   D(1,4,5,8)             98.7201         estimate D2E/DX2                !
 ! D19   D(9,4,5,6)             38.013          estimate D2E/DX2                !
 ! D20   D(9,4,5,7)            157.1184         estimate D2E/DX2                !
 ! D21   D(9,4,5,8)            -83.3814         estimate D2E/DX2                !
 ! D22   D(1,4,9,10)            -1.454          estimate D2E/DX2                !
 ! D23   D(1,4,9,11)           176.3919         estimate D2E/DX2                !
 ! D24   D(5,4,9,10)          -179.2541         estimate D2E/DX2                !
 ! D25   D(5,4,9,11)            -1.4082         estimate D2E/DX2                !
 ! D26   D(4,9,11,12)            0.8978         estimate D2E/DX2                !
 ! D27   D(4,9,11,13)          121.8971         estimate D2E/DX2                !
 ! D28   D(4,9,11,14)         -119.3945         estimate D2E/DX2                !
 ! D29   D(10,9,11,12)         178.8215         estimate D2E/DX2                !
 ! D30   D(10,9,11,13)         -60.1792         estimate D2E/DX2                !
 ! D31   D(10,9,11,14)          58.5291         estimate D2E/DX2                !
 ! D32   D(16,15,19,20)        178.2769         estimate D2E/DX2                !
 ! D33   D(16,15,19,24)         -5.4085         estimate D2E/DX2                !
 ! D34   D(17,15,19,20)        -61.9361         estimate D2E/DX2                !
 ! D35   D(17,15,19,24)        114.3786         estimate D2E/DX2                !
 ! D36   D(18,15,19,20)         57.825          estimate D2E/DX2                !
 ! D37   D(18,15,19,24)       -125.8604         estimate D2E/DX2                !
 ! D38   D(15,19,20,21)       -162.3924         estimate D2E/DX2                !
 ! D39   D(15,19,20,22)        -42.8672         estimate D2E/DX2                !
 ! D40   D(15,19,20,23)         76.2701         estimate D2E/DX2                !
 ! D41   D(24,19,20,21)         21.4573         estimate D2E/DX2                !
 ! D42   D(24,19,20,22)        140.9825         estimate D2E/DX2                !
 ! D43   D(24,19,20,23)        -99.8802         estimate D2E/DX2                !
 ! D44   D(15,19,24,25)          2.1178         estimate D2E/DX2                !
 ! D45   D(15,19,24,26)       -173.1743         estimate D2E/DX2                !
 ! D46   D(20,19,24,25)        178.0284         estimate D2E/DX2                !
 ! D47   D(20,19,24,26)          2.7363         estimate D2E/DX2                !
 ! D48   D(19,24,26,1)          93.0319         estimate D2E/DX2                !
 ! D49   D(19,24,26,27)       -146.5348         estimate D2E/DX2                !
 ! D50   D(19,24,26,28)        -31.662          estimate D2E/DX2                !
 ! D51   D(25,24,26,1)         -82.4458         estimate D2E/DX2                !
 ! D52   D(25,24,26,27)         37.9876         estimate D2E/DX2                !
 ! D53   D(25,24,26,28)        152.8603         estimate D2E/DX2                !
 --------------------------------------------------------------------------------
 Trust Radius=3.00D-01 FncErr=1.00D-07 GrdErr=1.00D-07 EigMax=2.50D+02 EigMin=1.00D-04
 Number of steps in this run=    138 maximum allowed number of steps=    168.
 GradGradGradGradGradGradGradGradGradGradGradGradGradGradGradGradGradGrad

 Leave Link  103 at Fri Sep 17 20:09:28 2021, MaxMem=   524288000 cpu:               0.1 elap:               0.1
 (Enter /opt/gaussian/g16_legacy/l202.exe)
                          Input orientation:                          
 ---------------------------------------------------------------------
 Center     Atomic      Atomic             Coordinates (Angstroms)
 Number     Number       Type             X           Y           Z
 ---------------------------------------------------------------------
      1          6           0        2.140300    1.184800   -9.008100
      2          1           0        1.808200    0.171000   -9.266800
      3          1           0        1.938800    1.793000   -9.900000
      4          6           0        3.634400    1.176500   -8.730500
      5          6           0        4.184700   -0.103300   -8.159800
      6          1           0        4.934800    0.083500   -7.382400
      7          1           0        3.404400   -0.708700   -7.692100
      8          1           0        4.638200   -0.707000   -8.952600
      9          6           0        4.379400    2.277700   -8.953200
     10          1           0        3.891600    3.163300   -9.358200
     11          6           0        5.836800    2.454900   -8.662700
     12          1           0        6.307900    1.565400   -8.238200
     13          1           0        6.371300    2.713200   -9.580700
     14          1           0        5.967400    3.274300   -7.947900
     15          6           0        2.515500    0.334400   -4.394600
     16          1           0        1.810000   -0.502600   -4.422600
     17          1           0        3.528700   -0.082400   -4.404100
     18          1           0        2.366100    0.866800   -3.450200
     19          6           0        2.339100    1.268600   -5.562300
     20          6           0        3.261100    2.460200   -5.546800
     21          1           0        2.929000    3.267300   -6.204400
     22          1           0        3.325800    2.882100   -4.540000
     23          1           0        4.267700    2.158400   -5.851700
     24          6           0        1.473900    0.980900   -6.552500
     25          1           0        0.874100    0.073600   -6.478900
     26          6           0        1.293600    1.738300   -7.844500
     27          1           0        0.233700    1.680900   -8.125900
     28          1           0        1.495800    2.806100   -7.712300
 ---------------------------------------------------------------------
                    Distance matrix (angstroms):
                    1          2          3          4          5
     1  C    0.000000
     2  H    1.097728   0.000000
     3  H    1.098178   1.746105   0.000000
     4  C    1.519693   2.152592   2.150084   0.000000
     5  C    2.560935   2.635990   3.415892   1.505462   0.000000
     6  H    3.415405   3.651609   4.270447   2.168655   1.096310
     7  H    2.629667   2.408611   3.644353   2.164522   1.092758
     8  H    3.133926   2.979682   3.799253   2.145813   1.094828
     9  C    2.492190   3.338802   2.662310   1.348059   2.517251
    10  H    2.665349   3.647296   2.446364   2.099413   3.491811
    11  C    3.923846   4.670198   4.142877   2.547444   3.086540
    12  H    4.255172   4.821791   4.680002   2.746125   2.701608
    13  H    4.534891   5.232896   4.538257   3.251908   3.838339
    14  H    4.487397   5.354336   4.715354   3.233592   3.825062
    15  C    4.706202   4.925983   5.724467   4.556435   4.141804
    16  H    4.897267   4.890809   5.940394   4.970494   4.445819
    17  H    4.972953   5.164318   6.020783   4.507077   3.812618
    18  H    5.571567   5.884575   6.529958   5.439308   5.140888
    19  C    3.452547   3.899987   4.387582   3.424000   3.469201
    20  C    3.855313   4.603233   4.598259   3.452996   3.775227
    21  H    3.580445   4.496839   4.100185   3.354134   4.094059
    22  H    4.924445   5.656484   5.642651   4.534820   4.770039
    23  H    3.928942   4.654225   4.684658   3.106877   3.232569
    24  C    2.552574   2.852213   3.475830   3.074037   3.332768
    25  H    3.038895   2.941839   3.974147   3.728987   3.717094
    26  C    1.541826   2.178114   2.155077   2.565143   3.442290
    27  H    2.158591   2.461808   2.463202   3.490662   4.335311
    28  H    2.173267   3.075356   2.451255   2.875054   3.986859
                    6          7          8          9         10
     6  H    0.000000
     7  H    1.750891   0.000000
     8  H    1.782804   1.763838   0.000000
     9  C    2.755067   3.385201   2.995899   0.000000
    10  H    3.804894   4.243305   3.962467   1.089156   0.000000
    11  C    2.841885   4.106945   3.393861   1.496598   2.183885
    12  H    2.194043   3.728280   2.908963   2.176628   3.105832
    13  H    3.716366   4.907006   3.885346   2.133327   2.530021
    14  H    3.401067   4.743279   4.315894   2.127342   2.512014
    15  C    3.852650   3.570953   5.134757   5.294466   5.876534
    16  H    4.343766   3.643380   5.344286   5.904085   6.490919
    17  H    3.297713   3.349425   4.723343   5.195005   5.933749
    18  H    4.761720   4.642627   6.157572   6.027190   6.519626
    19  C    3.384507   3.095259   4.547856   4.084031   4.517632
    20  C    3.437936   3.829461   4.850467   3.589911   3.926659
    21  H    3.943032   4.271748   5.125332   3.261728   3.299071
    22  H    4.301195   4.778677   5.837386   4.577303   4.859450
    23  H    2.663320   3.514630   4.238321   3.105803   3.666990
    24  C    3.670407   2.807181   4.315354   3.985848   4.298848
    25  H    4.160011   2.913120   4.571321   4.823624   5.190561
    26  C    4.026194   3.235199   4.288791   3.323000   3.327389
    27  H    5.020440   3.993959   5.077905   4.269359   4.134768
    28  H    4.398648   3.999623   4.873899   3.183424   2.928555
                   11         12         13         14         15
    11  C    0.000000
    12  H    1.092404   0.000000
    13  H    1.093221   1.767419   0.000000
    14  H    1.095177   1.766509   1.773134   0.000000
    15  C    5.808979   5.538133   6.886328   5.760605   0.000000
    16  H    6.552890   6.250323   7.599528   6.631492   1.095027
    17  H    5.468171   5.013933   6.533984   5.456483   1.095622
    18  H    6.460494   6.241055   7.552076   6.244576   1.094377
    19  C    4.822208   4.795822   5.873078   4.783145   1.505779
    20  C    4.042659   4.162606   5.099971   3.708382   2.530318
    21  H    3.893396   4.295320   4.853438   3.503101   3.471060
    22  H    4.846058   4.929838   5.891711   4.329625   2.677406
    23  H    3.232910   3.195223   4.317219   2.920320   2.918959
    24  C    5.065621   5.152745   6.012935   5.234345   2.481819
    25  H    5.921821   5.903117   6.841627   6.192265   2.665805
    26  C    4.671577   5.032703   5.454160   4.920812   3.919922
    27  H    5.681722   6.076336   6.391574   5.953648   4.576273
    28  H    4.457677   4.997221   5.222073   4.502213   4.261012
                   16         17         18         19         20
    16  H    0.000000
    17  H    1.769418   0.000000
    18  H    1.769199   1.778354   0.000000
    19  C    2.171638   2.140508   2.150149   0.000000
    20  C    3.485355   2.800391   2.781309   1.506730   0.000000
    21  H    4.317305   3.849832   3.696603   2.180614   1.092766
    22  H    3.710475   2.974542   2.483973   2.149897   1.093541
    23  H    3.894039   2.768186   3.324382   2.143594   1.094208
    24  C    2.617290   3.157282   3.230063   1.346045   2.528605
    25  H    2.331584   3.372837   3.468177   2.101049   3.501777
    26  C    4.122827   4.488538   4.606478   2.553845   3.109923
    27  H    4.578955   5.274282   5.203082   3.342865   4.052680
    28  H    4.676360   4.839453   4.762752   2.774448   2.815195
                   21         22         23         24         25
    21  H    0.000000
    22  H    1.753869   0.000000
    23  H    1.773746   1.769597   0.000000
    24  C    2.732419   3.330803   3.111743   0.000000
    25  H    3.807582   4.202123   4.031909   1.090124   0.000000
    26  C    2.775302   4.044482   3.604581   1.508452   2.193643
    27  H    3.670622   4.884940   4.655443   2.122188   2.388752
    28  H    2.130852   3.663081   3.400702   2.162631   3.061755
                   26         27         28
    26  C    0.000000
    27  H    1.098121   0.000000
    28  H    1.094787   1.740700   0.000000
 Stoichiometry    C10H18
 Framework group  C1[X(C10H18)]
 Deg. of freedom    78
 Full point group                 C1      NOp   1
 Largest Abelian subgroup         C1      NOp   1
 Largest concise Abelian subgroup C1      NOp   1
                         Standard orientation:                         
 ---------------------------------------------------------------------
 Center     Atomic      Atomic             Coordinates (Angstroms)
 Number     Number       Type             X           Y           Z
 ---------------------------------------------------------------------
      1          6           0       -0.766523    1.838023    0.008606
      2          1           0       -0.595282    2.432793    0.915211
      3          1           0       -1.490328    2.413360   -0.583921
      4          6           0       -1.375575    0.497749    0.385681
      5          6           0       -0.976976   -0.044050    1.732525
      6          1           0       -0.804529   -1.126349    1.704497
      7          1           0       -0.047545    0.404064    2.092348
      8          1           0       -1.754243    0.172289    2.472593
      9          6           0       -2.182695   -0.155010   -0.474392
     10          1           0       -2.406882    0.310233   -1.433323
     11          6           0       -2.796419   -1.506979   -0.286434
     12          1           0       -2.546419   -1.969829    0.670967
     13          1           0       -3.885317   -1.434441   -0.351033
     14          1           0       -2.449764   -2.176544   -1.080741
     15          6           0        2.909780   -1.020853    0.686808
     16          1           0        3.441857   -0.298815    1.315010
     17          1           0        2.416064   -1.740132    1.349583
     18          1           0        3.653177   -1.553535    0.085748
     19          6           0        1.886867   -0.361122   -0.199630
     20          6           0        1.155740   -1.309741   -1.113857
     21          1           0        0.655801   -0.804691   -1.943992
     22          1           0        1.851083   -2.028314   -1.556557
     23          1           0        0.405283   -1.870497   -0.548473
     24          6           0        1.626359    0.955141   -0.092744
     25          1           0        2.194858    1.546558    0.625173
     26          6           0        0.539238    1.722583   -0.803115
     27          1           0        0.915270    2.734338   -1.005154
     28          1           0        0.328128    1.295076   -1.788625
 ---------------------------------------------------------------------
 Rotational constants (GHZ):           1.6543264           0.8826451           0.7533390
 Leave Link  202 at Fri Sep 17 20:09:28 2021, MaxMem=   524288000 cpu:               0.1 elap:               0.2
 (Enter /opt/gaussian/g16_legacy/l301.exe)
 Standard basis: 6-31G(d,p) (6D, 7F)
 Ernie: Thresh=  0.10000D-02 Tol=  0.10000D-05 Strict=F.
 There are   240 symmetry adapted cartesian basis functions of A   symmetry.
 There are   240 symmetry adapted basis functions of A   symmetry.
   240 basis functions,   406 primitive gaussians,   240 cartesian basis functions
    39 alpha electrons       39 beta electrons
       nuclear repulsion energy       544.3069525569 Hartrees.
 IExCor=    0 DFT=F Ex=HF Corr=None ExCW=0 ScaHFX=  1.000000
 ScaDFX=  1.000000  1.000000  1.000000  1.000000 ScalE2=  1.000000  1.000000
 IRadAn=      5 IRanWt=     -1 IRanGd=            0 ICorTp=0 IEmpDi=  4
 NAtoms=   28 NActive=   28 NUniq=   28 SFac= 1.00D+00 NAtFMM=   60 NAOKFM=F Big=F
 Integral buffers will be    131072 words long.
 Raffenetti 1 integral format.
 Two-electron integral symmetry is turned on.
 Leave Link  301 at Fri Sep 17 20:09:29 2021, MaxMem=   524288000 cpu:               0.1 elap:               0.3
 (Enter /opt/gaussian/g16_legacy/l302.exe)
 NPDir=0 NMtPBC=     1 NCelOv=     1 NCel=       1 NClECP=     1 NCelD=      1
         NCelK=      1 NCelE2=     1 NClLst=     1 CellRange=     0.0.
 One-electron integrals computed using PRISM.
 One-electron integral symmetry used in STVInt
 NBasis=   240 RedAO= T EigKep=  2.27D-03  NBF=   240
 NBsUse=   240 1.00D-06 EigRej= -1.00D+00 NBFU=   240
 Leave Link  302 at Fri Sep 17 20:09:30 2021, MaxMem=   524288000 cpu:               0.3 elap:               0.7
 (Enter /opt/gaussian/g16_legacy/l303.exe)
 DipDrv:  MaxL=1.
 Leave Link  303 at Fri Sep 17 20:09:30 2021, MaxMem=   524288000 cpu:               0.1 elap:               0.3
 (Enter /opt/gaussian/g16_legacy/l401.exe)
 ExpMin= 1.61D-01 ExpMax= 3.05D+03 ExpMxC= 4.57D+02 IAcc=3 IRadAn=         5 AccDes= 0.00D+00
 Harris functional with IExCor=  205 and IRadAn=       5 diagonalized for initial guess.
 HarFok:  IExCor=  205 AccDes= 0.00D+00 IRadAn=         5 IDoV= 1 UseB2=F ITyADJ=14
 ICtDFT=  3500011 ScaDFX=  1.000000  1.000000  1.000000  1.000000
 FoFCou: FMM=F IPFlag=           0 FMFlag=      100000 FMFlg1=           0
         NFxFlg=           0 DoJE=T BraDBF=F KetDBF=T FulRan=T
         wScrn=  0.000000 ICntrl=       500 IOpCl=  0 I1Cent=   200000004 NGrid=           0
         NMat0=    1 NMatS0=      1 NMatT0=    0 NMatD0=    1 NMtDS0=    0 NMtDT0=    0
 Petite list used in FoFCou.
 Harris En= -390.107390663548    
 JPrj=0 DoOrth=F DoCkMO=F.
 Leave Link  401 at Fri Sep 17 20:09:42 2021, MaxMem=   524288000 cpu:              12.0 elap:              12.4
 (Enter /opt/gaussian/g16_legacy/l502.exe)
 Keep R1 ints in memory in canonical form, NReq=425198025.
 FoFCou: FMM=F IPFlag=           0 FMFlag=           0 FMFlg1=           0
         NFxFlg=           0 DoJE=F BraDBF=F KetDBF=F FulRan=T
         wScrn=  0.000000 ICntrl=       600 IOpCl=  0 I1Cent=           0 NGrid=           0
         NMat0=    1 NMatS0=  28920 NMatT0=    0 NMatD0=    1 NMtDS0=    0 NMtDT0=    0
 Symmetry not used in FoFCou.
 Two-electron integral symmetry not used.
 Closed shell SCF:
 Using DIIS extrapolation, IDIIS=  1040.
 NGot=   524288000 LenX=   105970886 LenY=   105912845
 Requested convergence on RMS density matrix=1.00D-08 within 128 cycles.
 Requested convergence on MAX density matrix=1.00D-06.
 Requested convergence on             energy=1.00D-06.
 No special actions if energy rises.

 Cycle   1  Pass 1  IDiag  1:
 E= -388.525577977338    
 DIIS: error= 5.38D-02 at cycle   1 NSaved=   1.
 NSaved= 1 IEnMin= 1 EnMin= -388.525577977338     IErMin= 1 ErrMin= 5.38D-02
 ErrMax= 5.38D-02  0.00D+00 EMaxC= 1.00D-01 BMatC= 8.11D-01 BMatP= 8.11D-01
 IDIUse=3 WtCom= 4.62D-01 WtEn= 5.38D-01
 Coeff-Com:  0.100D+01
 Coeff-En:   0.100D+01
 Coeff:      0.100D+01
 Gap=     0.502 Goal=   None    Shift=    0.000
 GapD=    0.502 DampG=2.000 DampE=0.500 DampFc=1.0000 IDamp=-1.
 RMSDP=4.07D-03 MaxDP=1.15D-01              OVMax= 1.36D-01

 Cycle   2  Pass 1  IDiag  1:
 E= -389.056730046201     Delta-E=       -0.531152068863 Rises=F Damp=F
 DIIS: error= 1.41D-02 at cycle   2 NSaved=   2.
 NSaved= 2 IEnMin= 2 EnMin= -389.056730046201     IErMin= 2 ErrMin= 1.41D-02
 ErrMax= 1.41D-02  0.00D+00 EMaxC= 1.00D-01 BMatC= 9.69D-02 BMatP= 8.11D-01
 IDIUse=3 WtCom= 8.59D-01 WtEn= 1.41D-01
 Coeff-Com:  0.194D+00 0.806D+00
 Coeff-En:   0.000D+00 0.100D+01
 Coeff:      0.167D+00 0.833D+00
 Gap=     0.540 Goal=   None    Shift=    0.000
 RMSDP=1.90D-03 MaxDP=3.27D-02 DE=-5.31D-01 OVMax= 4.96D-02

 Cycle   3  Pass 1  IDiag  1:
 E= -389.143244317767     Delta-E=       -0.086514271566 Rises=F Damp=F
 DIIS: error= 3.31D-03 at cycle   3 NSaved=   3.
 NSaved= 3 IEnMin= 3 EnMin= -389.143244317767     IErMin= 3 ErrMin= 3.31D-03
 ErrMax= 3.31D-03  0.00D+00 EMaxC= 1.00D-01 BMatC= 4.63D-03 BMatP= 9.69D-02
 IDIUse=3 WtCom= 9.67D-01 WtEn= 3.31D-02
 Coeff-Com: -0.212D-01 0.130D+00 0.891D+00
 Coeff-En:   0.000D+00 0.000D+00 0.100D+01
 Coeff:     -0.205D-01 0.126D+00 0.894D+00
 Gap=     0.492 Goal=   None    Shift=    0.000
 RMSDP=3.32D-04 MaxDP=8.40D-03 DE=-8.65D-02 OVMax= 1.29D-02

 Cycle   4  Pass 1  IDiag  1:
 E= -389.148183992340     Delta-E=       -0.004939674573 Rises=F Damp=F
 DIIS: error= 8.84D-04 at cycle   4 NSaved=   4.
 NSaved= 4 IEnMin= 4 EnMin= -389.148183992340     IErMin= 4 ErrMin= 8.84D-04
 ErrMax= 8.84D-04  0.00D+00 EMaxC= 1.00D-01 BMatC= 2.39D-04 BMatP= 4.63D-03
 IDIUse=3 WtCom= 9.91D-01 WtEn= 8.84D-03
 Coeff-Com: -0.822D-02 0.129D-01 0.213D+00 0.783D+00
 Coeff-En:   0.000D+00 0.000D+00 0.000D+00 0.100D+01
 Coeff:     -0.814D-02 0.128D-01 0.211D+00 0.784D+00
 Gap=     0.492 Goal=   None    Shift=    0.000
 RMSDP=9.86D-05 MaxDP=2.46D-03 DE=-4.94D-03 OVMax= 5.29D-03

 Cycle   5  Pass 1  IDiag  1:
 E= -389.148443202289     Delta-E=       -0.000259209949 Rises=F Damp=F
 DIIS: error= 1.83D-04 at cycle   5 NSaved=   5.
 NSaved= 5 IEnMin= 5 EnMin= -389.148443202289     IErMin= 5 ErrMin= 1.83D-04
 ErrMax= 1.83D-04  0.00D+00 EMaxC= 1.00D-01 BMatC= 2.21D-05 BMatP= 2.39D-04
 IDIUse=3 WtCom= 9.98D-01 WtEn= 1.83D-03
 Coeff-Com:  0.145D-02-0.136D-01-0.724D-01 0.966D-01 0.988D+00
 Coeff-En:   0.000D+00 0.000D+00 0.000D+00 0.000D+00 0.100D+01
 Coeff:      0.145D-02-0.136D-01-0.722D-01 0.964D-01 0.988D+00
 Gap=     0.492 Goal=   None    Shift=    0.000
 RMSDP=3.71D-05 MaxDP=8.13D-04 DE=-2.59D-04 OVMax= 1.50D-03

 Cycle   6  Pass 1  IDiag  1:
 E= -389.148474917885     Delta-E=       -0.000031715595 Rises=F Damp=F
 DIIS: error= 5.43D-05 at cycle   6 NSaved=   6.
 NSaved= 6 IEnMin= 6 EnMin= -389.148474917885     IErMin= 6 ErrMin= 5.43D-05
 ErrMax= 5.43D-05  0.00D+00 EMaxC= 1.00D-01 BMatC= 1.29D-06 BMatP= 2.21D-05
 IDIUse=1 WtCom= 1.00D+00 WtEn= 0.00D+00
 Coeff-Com:  0.924D-03-0.426D-02-0.315D-01-0.367D-01 0.192D+00 0.880D+00
 Coeff:      0.924D-03-0.426D-02-0.315D-01-0.367D-01 0.192D+00 0.880D+00
 Gap=     0.492 Goal=   None    Shift=    0.000
 RMSDP=8.79D-06 MaxDP=1.95D-04 DE=-3.17D-05 OVMax= 4.76D-04

 Cycle   7  Pass 1  IDiag  1:
 E= -389.148476859194     Delta-E=       -0.000001941309 Rises=F Damp=F
 DIIS: error= 8.04D-06 at cycle   7 NSaved=   7.
 NSaved= 7 IEnMin= 7 EnMin= -389.148476859194     IErMin= 7 ErrMin= 8.04D-06
 ErrMax= 8.04D-06  0.00D+00 EMaxC= 1.00D-01 BMatC= 5.16D-08 BMatP= 1.29D-06
 IDIUse=1 WtCom= 1.00D+00 WtEn= 0.00D+00
 Coeff-Com:  0.487D-04 0.473D-06-0.547D-03-0.654D-02-0.242D-01 0.982D-01
 Coeff-Com:  0.933D+00
 Coeff:      0.487D-04 0.473D-06-0.547D-03-0.654D-02-0.242D-01 0.982D-01
 Coeff:      0.933D+00
 Gap=     0.492 Goal=   None    Shift=    0.000
 RMSDP=1.86D-06 MaxDP=4.43D-05 DE=-1.94D-06 OVMax= 1.31D-04

 Cycle   8  Pass 1  IDiag  1:
 E= -389.148476958653     Delta-E=       -0.000000099459 Rises=F Damp=F
 DIIS: error= 3.85D-06 at cycle   8 NSaved=   8.
 NSaved= 8 IEnMin= 8 EnMin= -389.148476958653     IErMin= 8 ErrMin= 3.85D-06
 ErrMax= 3.85D-06  0.00D+00 EMaxC= 1.00D-01 BMatC= 8.41D-09 BMatP= 5.16D-08
 IDIUse=1 WtCom= 1.00D+00 WtEn= 0.00D+00
 Coeff-Com: -0.779D-04 0.377D-03 0.286D-02 0.379D-02-0.225D-01-0.726D-01
 Coeff-Com:  0.916D-01 0.997D+00
 Coeff:     -0.779D-04 0.377D-03 0.286D-02 0.379D-02-0.225D-01-0.726D-01
 Coeff:      0.916D-01 0.997D+00
 Gap=     0.492 Goal=   None    Shift=    0.000
 RMSDP=7.78D-07 MaxDP=2.31D-05 DE=-9.95D-08 OVMax= 4.86D-05

 Cycle   9  Pass 1  IDiag  1:
 E= -389.148476975892     Delta-E=       -0.000000017240 Rises=F Damp=F
 DIIS: error= 1.99D-06 at cycle   9 NSaved=   9.
 NSaved= 9 IEnMin= 9 EnMin= -389.148476975892     IErMin= 9 ErrMin= 1.99D-06
 ErrMax= 1.99D-06  0.00D+00 EMaxC= 1.00D-01 BMatC= 1.00D-09 BMatP= 8.41D-09
 IDIUse=1 WtCom= 1.00D+00 WtEn= 0.00D+00
 Coeff-Com: -0.144D-04 0.393D-04 0.370D-03 0.168D-02-0.586D-03-0.180D-01
 Coeff-Com: -0.863D-01 0.416D-01 0.106D+01
 Coeff:     -0.144D-04 0.393D-04 0.370D-03 0.168D-02-0.586D-03-0.180D-01
 Coeff:     -0.863D-01 0.416D-01 0.106D+01
 Gap=     0.492 Goal=   None    Shift=    0.000
 RMSDP=3.21D-07 MaxDP=9.65D-06 DE=-1.72D-08 OVMax= 3.42D-05

 Cycle  10  Pass 1  IDiag  1:
 E= -389.148476979402     Delta-E=       -0.000000003509 Rises=F Damp=F
 DIIS: error= 8.12D-07 at cycle  10 NSaved=  10.
 NSaved=10 IEnMin=10 EnMin= -389.148476979402     IErMin=10 ErrMin= 8.12D-07
 ErrMax= 8.12D-07  0.00D+00 EMaxC= 1.00D-01 BMatC= 2.97D-10 BMatP= 1.00D-09
 IDIUse=1 WtCom= 1.00D+00 WtEn= 0.00D+00
 Coeff-Com:  0.120D-04-0.626D-04-0.471D-03-0.364D-03 0.315D-02 0.126D-01
 Coeff-Com: -0.108D-01-0.224D+00 0.125D+00 0.110D+01
 Coeff:      0.120D-04-0.626D-04-0.471D-03-0.364D-03 0.315D-02 0.126D-01
 Coeff:     -0.108D-01-0.224D+00 0.125D+00 0.110D+01
 Gap=     0.492 Goal=   None    Shift=    0.000
 RMSDP=1.80D-07 MaxDP=5.14D-06 DE=-3.51D-09 OVMax= 1.35D-05

 Cycle  11  Pass 1  IDiag  1:
 E= -389.148476980154     Delta-E=       -0.000000000752 Rises=F Damp=F
 DIIS: error= 2.23D-07 at cycle  11 NSaved=  11.
 NSaved=11 IEnMin=11 EnMin= -389.148476980154     IErMin=11 ErrMin= 2.23D-07
 ErrMax= 2.23D-07  0.00D+00 EMaxC= 1.00D-01 BMatC= 1.85D-11 BMatP= 2.97D-10
 IDIUse=1 WtCom= 1.00D+00 WtEn= 0.00D+00
 Coeff-Com:  0.270D-05-0.944D-05-0.784D-04-0.196D-03 0.252D-04 0.347D-02
 Coeff-Com:  0.148D-01-0.256D-01-0.107D+00 0.144D-02 0.111D+01
 Coeff:      0.270D-05-0.944D-05-0.784D-04-0.196D-03 0.252D-04 0.347D-02
 Coeff:      0.148D-01-0.256D-01-0.107D+00 0.144D-02 0.111D+01
 Gap=     0.492 Goal=   None    Shift=    0.000
 RMSDP=5.34D-08 MaxDP=1.63D-06 DE=-7.52D-10 OVMax= 4.85D-06

 Cycle  12  Pass 1  IDiag  1:
 E= -389.148476980206     Delta-E=       -0.000000000053 Rises=F Damp=F
 DIIS: error= 4.51D-08 at cycle  12 NSaved=  12.
 NSaved=12 IEnMin=12 EnMin= -389.148476980206     IErMin=12 ErrMin= 4.51D-08
 ErrMax= 4.51D-08  0.00D+00 EMaxC= 1.00D-01 BMatC= 1.49D-12 BMatP= 1.85D-11
 IDIUse=1 WtCom= 1.00D+00 WtEn= 0.00D+00
 Coeff-Com: -0.127D-05 0.637D-05 0.490D-04 0.655D-04-0.325D-03-0.144D-02
 Coeff-Com: -0.433D-03 0.203D-01 0.591D-02-0.113D+00-0.113D+00 0.120D+01
 Coeff:     -0.127D-05 0.637D-05 0.490D-04 0.655D-04-0.325D-03-0.144D-02
 Coeff:     -0.433D-03 0.203D-01 0.591D-02-0.113D+00-0.113D+00 0.120D+01
 Gap=     0.492 Goal=   None    Shift=    0.000
 RMSDP=1.61D-08 MaxDP=4.27D-07 DE=-5.25D-11 OVMax= 1.25D-06

 Cycle  13  Pass 1  IDiag  1:
 E= -389.148476980213     Delta-E=       -0.000000000007 Rises=F Damp=F
 DIIS: error= 8.83D-09 at cycle  13 NSaved=  13.
 NSaved=13 IEnMin=13 EnMin= -389.148476980213     IErMin=13 ErrMin= 8.83D-09
 ErrMax= 8.83D-09  0.00D+00 EMaxC= 1.00D-01 BMatC= 5.21D-14 BMatP= 1.49D-12
 IDIUse=1 WtCom= 1.00D+00 WtEn= 0.00D+00
 Coeff-Com: -0.163D-06 0.658D-06 0.514D-05 0.139D-04-0.165D-04-0.200D-03
 Coeff-Com: -0.752D-03 0.176D-02 0.630D-02-0.324D-02-0.581D-01 0.401D-01
 Coeff-Com:  0.101D+01
 Coeff:     -0.163D-06 0.658D-06 0.514D-05 0.139D-04-0.165D-04-0.200D-03
 Coeff:     -0.752D-03 0.176D-02 0.630D-02-0.324D-02-0.581D-01 0.401D-01
 Coeff:      0.101D+01
 Gap=     0.492 Goal=   None    Shift=    0.000
 RMSDP=2.20D-09 MaxDP=5.37D-08 DE=-6.71D-12 OVMax= 1.28D-07

 SCF Done:  E(RHF) =  -389.148476980     A.U. after   13 cycles
            NFock= 13  Conv=0.22D-08     -V/T= 2.0013
 KE= 3.886245549271D+02 PE=-1.993375666468D+03 EE= 6.712956820034D+02
 Leave Link  502 at Fri Sep 17 20:10:23 2021, MaxMem=   524288000 cpu:              41.0 elap:              41.0
 (Enter /opt/gaussian/g16_legacy/l801.exe)
 ExpMin= 1.61D-01 ExpMax= 3.05D+03 ExpMxC= 4.57D+02 IAcc=3 IRadAn=         5 AccDes= 0.00D+00
 HarFok:  IExCor=  205 AccDes= 0.00D+00 IRadAn=         5 IDoV=-2 UseB2=F ITyADJ=14
 ICtDFT= 12500011 ScaDFX=  1.000000  1.000000  1.000000  1.000000
 Largest valence mixing into a core orbital is  1.99D-04
 Largest core mixing into a valence orbital is  3.60D-05
 Range of M.O.s used for correlation:    11   240
 NBasis=   240 NAE=    39 NBE=    39 NFC=    10 NFV=     0
 NROrb=    230 NOA=    29 NOB=    29 NVA=   201 NVB=   201
 Leave Link  801 at Fri Sep 17 20:10:25 2021, MaxMem=   524288000 cpu:               1.7 elap:               1.7
 (Enter /opt/gaussian/g16_legacy/l906.exe)
 Frozen-core derivative calculation, NFC=  10 NFV=   0.
 FulOut=F Deriv=T AODrv=T NAtomX=    28
   MMem=          82  MDisk=          29 MDiskD=          29
  W3Min=     2246400 MinDsk=     2795480 NBas6D=         240
 NBas2D=       29244    NTT=       28920    LW2=     2040000
    MDV=   523609362 MDiskM=       30185 NBas2p=       26247
 Fully direct method using O(ONN) memory.
 IMap=   1   2   3   4   5   6   7   8   9  10  11  12  13  14  15  16  17  18  19  20
 IMap=  21  22  23  24  25  26  27  28  29  30  31  32  33  34  35  36  37  38  39
 JobTyp=1 Pass  1:  I=  11 to  39 NPSUse=  1 ParTrn=F ParDer=F DoDerP=T.
 Spin components of T(2) and E(2):
     alpha-alpha T2 =       0.5768540195D-01 E2=     -0.1648521914D+00
     alpha-beta  T2 =       0.3635210108D+00 E2=     -0.1092335978D+01
     beta-beta   T2 =       0.5768540195D-01 E2=     -0.1648521914D+00
 The integrals were generated   1 times.
 ANorm=    0.1216096959D+01
 E2 =    -0.1422040361D+01 EUMP2 =    -0.39057051734115D+03
 Leave Link  906 at Fri Sep 17 20:15:35 2021, MaxMem=   524288000 cpu:             309.9 elap:             310.0
 (Enter /opt/gaussian/g16_legacy/l1002.exe)
 Minotr:  Closed shell wavefunction.
          Computing MP2/KS-MP2 derivatives.
          Using Z-Vector for PSCF gradient.
          Skipping F1 and S1 gradient terms here.
          IDoAtm=1111111111111111111111111111
          Frozen-core window.
          Direct CPHF calculation.
          Differentiating once with respect to electric field.
                with respect to dipole field.
          Differentiating once with respect to nuclear coordinates.
          Requested convergence is 1.0D-10 RMS, and 1.0D-09 maximum.
          NewPWx=F KeepS1=T KeepF1=T KeepIn=T MapXYZ=F SortEE=F KeepMc=T.
 Keep R1 ints in memory in canonical form, NReq=425201067.
 FoFCou: FMM=F IPFlag=           0 FMFlag=           0 FMFlg1=           0
         NFxFlg=           0 DoJE=F BraDBF=F KetDBF=F FulRan=T
         wScrn=  0.000000 ICntrl=       600 IOpCl=  0 I1Cent=           0 NGrid=           0
         NMat0=    1 NMatS0=  28920 NMatT0=    0 NMatD0=    1 NMtDS0=    0 NMtDT0=    0
 Symmetry not used in FoFCou.
 Two-electron integral symmetry not used.
          MDV=     524288000 using IRadAn=       5.
          Solving linear equations separately, MaxMat=       0.
          There are     1 degrees of freedom in the 1st order CPHF.  IDoFFX=0 NUNeed=     1.
 LinEq1:  Iter=  0 NonCon=     1 RMS=2.54D-03 Max=4.17D-02 NDo=     1
 AX will form     1 AO Fock derivatives at one time.
 LinEq1:  Iter=  1 NonCon=     1 RMS=7.03D-04 Max=1.08D-02 NDo=     1
 LinEq1:  Iter=  2 NonCon=     1 RMS=1.94D-04 Max=6.26D-03 NDo=     1
 LinEq1:  Iter=  3 NonCon=     1 RMS=5.74D-05 Max=1.01D-03 NDo=     1
 LinEq1:  Iter=  4 NonCon=     1 RMS=2.62D-05 Max=1.06D-03 NDo=     1
 LinEq1:  Iter=  5 NonCon=     1 RMS=7.51D-06 Max=1.73D-04 NDo=     1
 LinEq1:  Iter=  6 NonCon=     1 RMS=2.23D-06 Max=7.30D-05 NDo=     1
 LinEq1:  Iter=  7 NonCon=     1 RMS=6.65D-07 Max=2.03D-05 NDo=     1
 LinEq1:  Iter=  8 NonCon=     1 RMS=2.23D-07 Max=5.13D-06 NDo=     1
 LinEq1:  Iter=  9 NonCon=     1 RMS=6.90D-08 Max=1.41D-06 NDo=     1
 LinEq1:  Iter= 10 NonCon=     1 RMS=1.92D-08 Max=3.94D-07 NDo=     1
 LinEq1:  Iter= 11 NonCon=     1 RMS=4.99D-09 Max=7.50D-08 NDo=     1
 LinEq1:  Iter= 12 NonCon=     1 RMS=1.17D-09 Max=1.59D-08 NDo=     1
 LinEq1:  Iter= 13 NonCon=     1 RMS=3.12D-10 Max=5.99D-09 NDo=     1
 LinEq1:  Iter= 14 NonCon=     1 RMS=8.74D-11 Max=1.13D-09 NDo=     1
 LinEq1:  Iter= 15 NonCon=     0 RMS=2.03D-11 Max=2.94D-10 NDo=     1
 Linear equations converged to 1.000D-10 1.000D-09 after    15 iterations.
 End of Minotr F.D. properties file   721 does not exist.
 End of Minotr F.D. properties file   722 does not exist.
 End of Minotr F.D. properties file   788 does not exist.
 Leave Link 1002 at Fri Sep 17 20:16:12 2021, MaxMem=   524288000 cpu:              36.7 elap:              36.7
 (Enter /opt/gaussian/g16_legacy/l601.exe)
 Copying SCF densities to generalized density rwf, IOpCl= 0 IROHF=0.

 **********************************************************************

            Population analysis using the SCF density.

 **********************************************************************

 Orbital symmetries:
       Occupied  (A) (A) (A) (A) (A) (A) (A) (A) (A) (A) (A) (A)
                 (A) (A) (A) (A) (A) (A) (A) (A) (A) (A) (A) (A)
                 (A) (A) (A) (A) (A) (A) (A) (A) (A) (A) (A) (A)
                 (A) (A) (A)
       Virtual   (A) (A) (A) (A) (A) (A) (A) (A) (A) (A) (A) (A)
                 (A) (A) (A) (A) (A) (A) (A) (A) (A) (A) (A) (A)
                 (A) (A) (A) (A) (A) (A) (A) (A) (A) (A) (A) (A)
                 (A) (A) (A) (A) (A) (A) (A) (A) (A) (A) (A) (A)
                 (A) (A) (A) (A) (A) (A) (A) (A) (A) (A) (A) (A)
                 (A) (A) (A) (A) (A) (A) (A) (A) (A) (A) (A) (A)
                 (A) (A) (A) (A) (A) (A) (A) (A) (A) (A) (A) (A)
                 (A) (A) (A) (A) (A) (A) (A) (A) (A) (A) (A) (A)
                 (A) (A) (A) (A) (A) (A) (A) (A) (A) (A) (A) (A)
                 (A) (A) (A) (A) (A) (A) (A) (A) (A) (A) (A) (A)
                 (A) (A) (A) (A) (A) (A) (A) (A) (A) (A) (A) (A)
                 (A) (A) (A) (A) (A) (A) (A) (A) (A) (A) (A) (A)
                 (A) (A) (A) (A) (A) (A) (A) (A) (A) (A) (A) (A)
                 (A) (A) (A) (A) (A) (A) (A) (A) (A) (A) (A) (A)
                 (A) (A) (A) (A) (A) (A) (A) (A) (A) (A) (A) (A)
                 (A) (A) (A) (A) (A) (A) (A) (A) (A) (A) (A) (A)
                 (A) (A) (A) (A) (A) (A) (A) (A) (A)
 The electronic state is 1-A.
 Alpha  occ. eigenvalues --  -11.22888 -11.22454 -11.21978 -11.21921 -11.21585
 Alpha  occ. eigenvalues --  -11.21491 -11.21330 -11.21321 -11.21222 -11.21196
 Alpha  occ. eigenvalues --   -1.10600  -1.07806  -1.01916  -0.97156  -0.93313
 Alpha  occ. eigenvalues --   -0.92206  -0.87350  -0.81844  -0.70272  -0.69228
 Alpha  occ. eigenvalues --   -0.63527  -0.62256  -0.59837  -0.58946  -0.57680
 Alpha  occ. eigenvalues --   -0.56988  -0.55254  -0.53743  -0.53366  -0.52884
 Alpha  occ. eigenvalues --   -0.52314  -0.50942  -0.50114  -0.49277  -0.47927
 Alpha  occ. eigenvalues --   -0.45145  -0.44343  -0.33023  -0.31345
 Alpha virt. eigenvalues --    0.17887   0.18903   0.22224   0.25381   0.25857
 Alpha virt. eigenvalues --    0.26970   0.28448   0.28880   0.29906   0.30841
 Alpha virt. eigenvalues --    0.32006   0.32374   0.32999   0.33574   0.34411
 Alpha virt. eigenvalues --    0.34887   0.36299   0.36932   0.39761   0.40547
 Alpha virt. eigenvalues --    0.40786   0.42381   0.43290   0.44272   0.47676
 Alpha virt. eigenvalues --    0.50873   0.53051   0.60158   0.62436   0.66960
 Alpha virt. eigenvalues --    0.69908   0.72155   0.73298   0.73643   0.76876
 Alpha virt. eigenvalues --    0.77424   0.78853   0.80824   0.82092   0.84228
 Alpha virt. eigenvalues --    0.85340   0.87643   0.87938   0.90449   0.91937
 Alpha virt. eigenvalues --    0.94065   0.95555   0.98294   0.98919   1.00882
 Alpha virt. eigenvalues --    1.01047   1.02536   1.04247   1.05397   1.07572
 Alpha virt. eigenvalues --    1.08006   1.09210   1.10354   1.12057   1.12655
 Alpha virt. eigenvalues --    1.13416   1.14195   1.15209   1.15771   1.16748
 Alpha virt. eigenvalues --    1.17070   1.17809   1.17970   1.19072   1.20854
 Alpha virt. eigenvalues --    1.21660   1.23143   1.23897   1.26192   1.27377
 Alpha virt. eigenvalues --    1.29891   1.32964   1.40839   1.43159   1.45188
 Alpha virt. eigenvalues --    1.47129   1.53014   1.55899   1.57352   1.58986
 Alpha virt. eigenvalues --    1.61104   1.65795   1.68465   1.71205   1.73102
 Alpha virt. eigenvalues --    1.75131   1.77996   1.91405   1.92415   1.95104
 Alpha virt. eigenvalues --    1.97814   1.99790   2.02946   2.06426   2.07457
 Alpha virt. eigenvalues --    2.09152   2.10178   2.11980   2.14074   2.15411
 Alpha virt. eigenvalues --    2.18429   2.19043   2.21180   2.28527   2.29300
 Alpha virt. eigenvalues --    2.29761   2.31662   2.32692   2.35199   2.35705
 Alpha virt. eigenvalues --    2.36195   2.37808   2.39190   2.39961   2.41751
 Alpha virt. eigenvalues --    2.43223   2.43716   2.44374   2.44856   2.46794
 Alpha virt. eigenvalues --    2.47566   2.48566   2.50514   2.51049   2.53747
 Alpha virt. eigenvalues --    2.57524   2.58575   2.59522   2.62382   2.63687
 Alpha virt. eigenvalues --    2.66766   2.69059   2.70167   2.72695   2.73199
 Alpha virt. eigenvalues --    2.75446   2.76925   2.79968   2.82834   2.85124
 Alpha virt. eigenvalues --    2.86856   2.89944   2.90264   2.92875   2.93948
 Alpha virt. eigenvalues --    2.95137   2.98532   2.99873   3.01438   3.03239
 Alpha virt. eigenvalues --    3.05904   3.06951   3.10686   3.11185   3.15647
 Alpha virt. eigenvalues --    3.17396   3.17790   3.19422   3.19785   3.21454
 Alpha virt. eigenvalues --    3.24031   3.24666   3.25736   3.26075   3.37699
 Alpha virt. eigenvalues --    3.39225   3.45106   3.45272   3.55565   3.57286
 Alpha virt. eigenvalues --    3.61842   3.62247   3.65840   3.70304   3.79226
 Alpha virt. eigenvalues --    3.80041   3.81265   3.82019   3.82676   3.83468
 Alpha virt. eigenvalues --    3.85252   3.85919   3.87351   3.90326   3.91440
 Alpha virt. eigenvalues --    3.93514   4.58283   4.66136   4.75369   4.85787
 Alpha virt. eigenvalues --    4.89766   4.92019   4.95773   5.10387   5.11379
 Alpha virt. eigenvalues --    5.15947
          Condensed to atoms (all electrons):
               1          2          3          4          5          6
     1  C    4.983305   0.411424   0.410951   0.339851  -0.048632   0.003613
     2  H    0.411424   0.597753  -0.031452  -0.046839  -0.005137   0.000121
     3  H    0.410951  -0.031452   0.584677  -0.042535   0.003668  -0.000121
     4  C    0.339851  -0.046839  -0.042535   4.971495   0.337864  -0.040643
     5  C   -0.048632  -0.005137   0.003668   0.337864   4.918094   0.404235
     6  H    0.003613   0.000121  -0.000121  -0.040643   0.404235   0.583103
     7  H   -0.004148  -0.000350   0.000204  -0.040246   0.408620  -0.029375
     8  H    0.000253   0.000976  -0.000153  -0.040475   0.395801  -0.027710
     9  C   -0.052593   0.003232  -0.004069   0.691064  -0.053626  -0.004144
    10  H   -0.005226   0.000110   0.001850  -0.038761   0.003320  -0.000015
    11  C    0.002914  -0.000094   0.000039  -0.048968  -0.007049  -0.001818
    12  H    0.000122  -0.000001   0.000002  -0.000798  -0.001591  -0.001045
    13  H   -0.000112   0.000006   0.000008  -0.000522   0.000235  -0.000143
    14  H   -0.000083  -0.000001  -0.000012  -0.000315   0.000250   0.000368
    15  C   -0.000072  -0.000000   0.000002  -0.000108   0.000096   0.000014
    16  H   -0.000007   0.000002   0.000000   0.000004  -0.000012  -0.000004
    17  H    0.000046  -0.000002  -0.000000  -0.000036   0.000200   0.000229
    18  H   -0.000006   0.000000   0.000000   0.000000   0.000001   0.000001
    19  C   -0.004748   0.000486  -0.000073   0.001852  -0.003502   0.000114
    20  C    0.000525  -0.000012   0.000012  -0.000862  -0.000466  -0.000288
    21  H   -0.000314   0.000002   0.000034  -0.000052   0.000055  -0.000008
    22  H   -0.000054   0.000001   0.000001   0.000211  -0.000010  -0.000013
    23  H    0.000470  -0.000004  -0.000012  -0.000620  -0.000463   0.000055
    24  C   -0.063960  -0.002097   0.005092  -0.002837  -0.002940  -0.000238
    25  H    0.001158   0.000995  -0.000122  -0.000047  -0.000115   0.000010
    26  C    0.339424  -0.041592  -0.039388  -0.054677   0.000295  -0.000058
    27  H   -0.046513  -0.003014  -0.002509   0.005895  -0.000168   0.000003
    28  H   -0.038886   0.004271  -0.003922  -0.003579   0.000055   0.000007
               7          8          9         10         11         12
     1  C   -0.004148   0.000253  -0.052593  -0.005226   0.002914   0.000122
     2  H   -0.000350   0.000976   0.003232   0.000110  -0.000094  -0.000001
     3  H    0.000204  -0.000153  -0.004069   0.001850   0.000039   0.000002
     4  C   -0.040246  -0.040475   0.691064  -0.038761  -0.048968  -0.000798
     5  C    0.408620   0.395801  -0.053626   0.003320  -0.007049  -0.001591
     6  H   -0.029375  -0.027710  -0.004144  -0.000015  -0.001818  -0.001045
     7  H    0.565964  -0.030315   0.002677  -0.000103   0.000153   0.000020
     8  H   -0.030315   0.581654  -0.003536  -0.000108   0.000611  -0.000272
     9  C    0.002677  -0.003536   4.954303   0.404920   0.342156  -0.041840
    10  H   -0.000103  -0.000108   0.404920   0.561659  -0.042691   0.003327
    11  C    0.000153   0.000611   0.342156  -0.042691   4.900158   0.408217
    12  H    0.000020  -0.000272  -0.041840   0.003327   0.408217   0.573242
    13  H   -0.000010   0.000184  -0.042978  -0.001171   0.402599  -0.028335
    14  H    0.000008  -0.000076  -0.045404  -0.001582   0.399898  -0.028777
    15  C    0.000069  -0.000004  -0.000006  -0.000000   0.000000  -0.000000
    16  H    0.000032   0.000000   0.000000   0.000000  -0.000000   0.000000
    17  H   -0.000074  -0.000014  -0.000006  -0.000000   0.000000  -0.000000
    18  H    0.000009   0.000000  -0.000000   0.000000  -0.000000  -0.000000
    19  C    0.000224   0.000180   0.000174  -0.000006   0.000007  -0.000008
    20  C    0.000009   0.000009  -0.000796  -0.000033  -0.000121  -0.000010
    21  H   -0.000002   0.000001   0.000299   0.000057  -0.000022   0.000000
    22  H   -0.000001   0.000000   0.000172   0.000001  -0.000008  -0.000000
    23  H   -0.000138  -0.000030  -0.001039  -0.000008  -0.000238   0.000059
    24  C    0.002404   0.000274  -0.000054   0.000060  -0.000006   0.000001
    25  H    0.000267  -0.000003   0.000001   0.000001  -0.000000   0.000000
    26  C   -0.000417  -0.000048  -0.004814   0.000176  -0.000072  -0.000005
    27  H   -0.000041   0.000007   0.000064  -0.000029   0.000001   0.000000
    28  H    0.000019   0.000002   0.001769   0.000454  -0.000047   0.000001
              13         14         15         16         17         18
     1  C   -0.000112  -0.000083  -0.000072  -0.000007   0.000046  -0.000006
     2  H    0.000006  -0.000001  -0.000000   0.000002  -0.000002   0.000000
     3  H    0.000008  -0.000012   0.000002   0.000000  -0.000000   0.000000
     4  C   -0.000522  -0.000315  -0.000108   0.000004  -0.000036   0.000000
     5  C    0.000235   0.000250   0.000096  -0.000012   0.000200   0.000001
     6  H   -0.000143   0.000368   0.000014  -0.000004   0.000229   0.000001
     7  H   -0.000010   0.000008   0.000069   0.000032  -0.000074   0.000009
     8  H    0.000184  -0.000076  -0.000004   0.000000  -0.000014   0.000000
     9  C   -0.042978  -0.045404  -0.000006   0.000000  -0.000006  -0.000000
    10  H   -0.001171  -0.001582  -0.000000   0.000000  -0.000000   0.000000
    11  C    0.402599   0.399898   0.000000  -0.000000   0.000000  -0.000000
    12  H   -0.028335  -0.028777  -0.000000   0.000000  -0.000000  -0.000000
    13  H    0.583239  -0.033525   0.000000   0.000000  -0.000000  -0.000000
    14  H   -0.033525   0.591830   0.000000  -0.000000   0.000000   0.000000
    15  C    0.000000   0.000000   4.904113   0.404722   0.399668   0.396803
    16  H    0.000000  -0.000000   0.404722   0.570540  -0.027544  -0.027548
    17  H   -0.000000   0.000000   0.399668  -0.027544   0.594249  -0.034765
    18  H   -0.000000   0.000000   0.396803  -0.027548  -0.034765   0.592794
    19  C   -0.000001  -0.000000   0.353001  -0.040828  -0.047280  -0.042721
    20  C    0.000006   0.000141  -0.064134   0.003767  -0.000201  -0.003234
    21  H    0.000001   0.000059   0.003665  -0.000113  -0.000041  -0.000036
    22  H    0.000000  -0.000033  -0.005654   0.000075  -0.000657   0.002969
    23  H    0.000013   0.000217   0.000166  -0.000103   0.001947  -0.000276
    24  C   -0.000000   0.000001  -0.046090  -0.002283  -0.002425   0.000526
    25  H   -0.000000   0.000000  -0.006409   0.002307   0.000138   0.000210
    26  C   -0.000004   0.000030   0.003233   0.000125  -0.000081  -0.000125
    27  H    0.000000  -0.000000  -0.000109  -0.000007  -0.000002   0.000007
    28  H    0.000001  -0.000003   0.000051   0.000006  -0.000009   0.000010
              19         20         21         22         23         24
     1  C   -0.004748   0.000525  -0.000314  -0.000054   0.000470  -0.063960
     2  H    0.000486  -0.000012   0.000002   0.000001  -0.000004  -0.002097
     3  H   -0.000073   0.000012   0.000034   0.000001  -0.000012   0.005092
     4  C    0.001852  -0.000862  -0.000052   0.000211  -0.000620  -0.002837
     5  C   -0.003502  -0.000466   0.000055  -0.000010  -0.000463  -0.002940
     6  H    0.000114  -0.000288  -0.000008  -0.000013   0.000055  -0.000238
     7  H    0.000224   0.000009  -0.000002  -0.000001  -0.000138   0.002404
     8  H    0.000180   0.000009   0.000001   0.000000  -0.000030   0.000274
     9  C    0.000174  -0.000796   0.000299   0.000172  -0.001039  -0.000054
    10  H   -0.000006  -0.000033   0.000057   0.000001  -0.000008   0.000060
    11  C    0.000007  -0.000121  -0.000022  -0.000008  -0.000238  -0.000006
    12  H   -0.000008  -0.000010   0.000000  -0.000000   0.000059   0.000001
    13  H   -0.000001   0.000006   0.000001   0.000000   0.000013  -0.000000
    14  H   -0.000000   0.000141   0.000059  -0.000033   0.000217   0.000001
    15  C    0.353001  -0.064134   0.003665  -0.005654   0.000166  -0.046090
    16  H   -0.040828   0.003767  -0.000113   0.000075  -0.000103  -0.002283
    17  H   -0.047280  -0.000201  -0.000041  -0.000657   0.001947  -0.002425
    18  H   -0.042721  -0.003234  -0.000036   0.002969  -0.000276   0.000526
    19  C    4.917258   0.350870  -0.035984  -0.043379  -0.041900   0.691934
    20  C    0.350870   4.902101   0.405975   0.399017   0.400073  -0.044632
    21  H   -0.035984   0.405975   0.564829  -0.030306  -0.025597  -0.003284
    22  H   -0.043379   0.399017  -0.030306   0.600630  -0.034106   0.002252
    23  H   -0.041900   0.400073  -0.025597  -0.034106   0.576213  -0.003606
    24  C    0.691934  -0.044632  -0.003284   0.002252  -0.003606   4.977639
    25  H   -0.038010   0.003337   0.000035  -0.000105  -0.000137   0.404306
    26  C   -0.050847  -0.008079  -0.001758   0.000067   0.000671   0.347956
    27  H    0.002248   0.000197   0.000078   0.000012  -0.000026  -0.043867
    28  H   -0.000136  -0.001864  -0.000132   0.000111  -0.000312  -0.045041
              25         26         27         28
     1  C    0.001158   0.339424  -0.046513  -0.038886
     2  H    0.000995  -0.041592  -0.003014   0.004271
     3  H   -0.000122  -0.039388  -0.002509  -0.003922
     4  C   -0.000047  -0.054677   0.005895  -0.003579
     5  C   -0.000115   0.000295  -0.000168   0.000055
     6  H    0.000010  -0.000058   0.000003   0.000007
     7  H    0.000267  -0.000417  -0.000041   0.000019
     8  H   -0.000003  -0.000048   0.000007   0.000002
     9  C    0.000001  -0.004814   0.000064   0.001769
    10  H    0.000001   0.000176  -0.000029   0.000454
    11  C   -0.000000  -0.000072   0.000001  -0.000047
    12  H    0.000000  -0.000005   0.000000   0.000001
    13  H   -0.000000  -0.000004   0.000000   0.000001
    14  H    0.000000   0.000030  -0.000000  -0.000003
    15  C   -0.006409   0.003233  -0.000109   0.000051
    16  H    0.002307   0.000125  -0.000007   0.000006
    17  H    0.000138  -0.000081  -0.000002  -0.000009
    18  H    0.000210  -0.000125   0.000007   0.000010
    19  C   -0.038010  -0.050847   0.002248  -0.000136
    20  C    0.003337  -0.008079   0.000197  -0.001864
    21  H    0.000035  -0.001758   0.000078  -0.000132
    22  H   -0.000105   0.000067   0.000012   0.000111
    23  H   -0.000137   0.000671  -0.000026  -0.000312
    24  C    0.404306   0.347956  -0.043867  -0.045041
    25  H    0.559902  -0.042039  -0.004777   0.003440
    26  C   -0.042039   4.955588   0.408779   0.413901
    27  H   -0.004777   0.408779   0.603586  -0.031079
    28  H    0.003440   0.413901  -0.031079   0.582773
 Mulliken charges:
               1
     1  C   -0.228704
     2  H    0.111217
     3  H    0.117828
     4  C    0.014686
     5  C   -0.349077
     6  H    0.113748
     7  H    0.124544
     8  H    0.122787
     9  C   -0.145925
    10  H    0.113801
    11  C   -0.355618
    12  H    0.117690
    13  H    0.120509
    14  H    0.117010
    15  C   -0.343015
    16  H    0.116870
    17  H    0.116661
    18  H    0.115382
    19  C    0.031073
    20  C   -0.341305
    21  H    0.122560
    22  H    0.108808
    23  H    0.128730
    24  C   -0.169083
    25  H    0.115656
    26  C   -0.226239
    27  H    0.111267
    28  H    0.118140
 Sum of Mulliken charges =  -0.00000
 Mulliken charges with hydrogens summed into heavy atoms:
               1
     1  C    0.000341
     4  C    0.014686
     5  C    0.012002
     9  C   -0.032124
    11  C   -0.000409
    15  C    0.005897
    19  C    0.031073
    20  C    0.018793
    24  C   -0.053427
    26  C    0.003168
 Electronic spatial extent (au):  <R**2>=           1817.2069
 Charge=             -0.0000 electrons
 Dipole moment (field-independent basis, Debye):
    X=              0.0306    Y=             -0.2396    Z=              0.1236  Tot=              0.2713
 Quadrupole moment (field-independent basis, Debye-Ang):
   XX=            -67.0828   YY=            -64.2069   ZZ=            -64.7238
   XY=              0.0977   XZ=              1.6168   YZ=              0.3197
 Traceless Quadrupole moment (field-independent basis, Debye-Ang):
   XX=             -1.7450   YY=              1.1309   ZZ=              0.6140
   XY=              0.0977   XZ=              1.6168   YZ=              0.3197
 Octapole moment (field-independent basis, Debye-Ang**2):
  XXX=              0.1200  YYY=              1.7086  ZZZ=             -1.1891  XYY=              2.1701
  XXY=             -4.0052  XXZ=              0.7390  XZZ=             -2.4518  YZZ=              0.4707
  YYZ=              0.8366  XYZ=              3.2252
 Hexadecapole moment (field-independent basis, Debye-Ang**3):
 XXXX=          -1457.5681 YYYY=           -691.7982 ZZZZ=           -403.4964 XXXY=              0.7198
 XXXZ=             14.8631 YYYX=              1.8011 YYYZ=             -0.9618 ZZZX=              2.5803
 ZZZY=              1.7070 XXYY=           -357.4528 XXZZ=           -305.6718 YYZZ=           -180.5983
 XXYZ=              6.9322 YYXZ=              0.4548 ZZXY=             -1.3847
 N-N= 5.443069525569D+02 E-N=-1.993375665872D+03  KE= 3.886245549271D+02
 No NMR shielding tensors so no spin-rotation constants.
 Leave Link  601 at Fri Sep 17 20:16:12 2021, MaxMem=   524288000 cpu:               0.3 elap:               0.3
 (Enter /opt/gaussian/g16_legacy/l701.exe)
 ... and contract with generalized density number  2.
 Compute integral first derivatives.
 Leave Link  701 at Fri Sep 17 20:16:12 2021, MaxMem=   524288000 cpu:               0.3 elap:               0.3
 (Enter /opt/gaussian/g16_legacy/l702.exe)
 L702 exits ... SP integral derivatives will be done elsewhere.
 Leave Link  702 at Fri Sep 17 20:16:13 2021, MaxMem=   524288000 cpu:               0.1 elap:               0.1
 (Enter /opt/gaussian/g16_legacy/l703.exe)
 Integral derivatives from FoFJK, PRISM(SPDF).
 Compute integral first derivatives, UseDBF=F ICtDFT=           0.
 Calling FoFJK, ICntrl=  10002127 FMM=F ISym2X=0 I1Cent= 0 IOpClX= 0 NMat=1 NMatS=1 NMatT=0.
 FoFJK:  IHMeth= 1 ICntrl=10002127 DoSepK=F KAlg= 0 I1Cent=           0 FoldK=F
 IRaf=         0 NMat=       1 IRICut=       1 DoRegI=T DoRafI=F ISym2E= 0 IDoP0=0 IntGTp=1.
 FoFCou: FMM=F IPFlag=           0 FMFlag=      100000 FMFlg1=         800
         NFxFlg=           0 DoJE=F BraDBF=F KetDBF=F FulRan=T
         wScrn=  0.000000 ICntrl=  10002127 IOpCl=  0 I1Cent=           0 NGrid=           0
         NMat0=    1 NMatS0=      1 NMatT0=    0 NMatD0=    1 NMtDS0=    0 NMtDT0=    0
 Symmetry not used in FoFCou.
 Leave Link  703 at Fri Sep 17 20:16:54 2021, MaxMem=   524288000 cpu:              41.4 elap:              41.4
 (Enter /opt/gaussian/g16_legacy/l716.exe)
 Dipole        =-2.67409409D-02-9.94793975D-02 3.47344024D-02
 ***** Axes restored to original set *****
 -------------------------------------------------------------------
 Center     Atomic                   Forces (Hartrees/Bohr)
 Number     Number              X              Y              Z
 -------------------------------------------------------------------
      1        6           0.002997935    0.003197951   -0.008726798
      2        1           0.000622283    0.001924052    0.003205028
      3        1           0.000234526   -0.000272338    0.002957044
      4        6          -0.008572733    0.002564026    0.004315331
      5        6           0.004496811   -0.003095442    0.004292377
      6        1          -0.000763173   -0.001649071   -0.004989817
      7        1           0.000429874    0.003504854   -0.002717017
      8        1           0.001027005   -0.000027038    0.002655096
      9        6          -0.003053585   -0.002550738    0.001104799
     10        1          -0.001303344   -0.002576787   -0.000565315
     11        6           0.001166288   -0.000481755    0.001566992
     12        1          -0.002678793    0.001729996   -0.002036302
     13        1           0.001158344    0.000899594    0.002534504
     14        1           0.002172102   -0.000812100   -0.002697465
     15        6          -0.003480341   -0.002079800   -0.000190049
     16        1           0.002047461    0.003132525   -0.001313130
     17        1          -0.001592663    0.001760681    0.002673348
     18        1           0.002618793   -0.001732343   -0.000768875
     19        6           0.000207951   -0.001509991    0.001440852
     20        6          -0.002115497    0.003680238   -0.001136631
     21        1           0.001928231   -0.004371101   -0.000469894
     22        1           0.000572137   -0.002480980   -0.000274747
     23        1          -0.001288905    0.002168793    0.001049653
     24        6           0.000671515    0.000896755   -0.007492630
     25        1           0.002684163    0.000832544    0.002414113
     26        6          -0.006610844    0.000483276    0.004808175
     27        1           0.002518021   -0.000356391   -0.000958845
     28        1           0.003906436   -0.002779410   -0.000679798
 -------------------------------------------------------------------
 Cartesian Forces:  Max     0.008726798 RMS     0.002828863
 Leave Link  716 at Fri Sep 17 20:16:54 2021, MaxMem=   524288000 cpu:               0.1 elap:               0.1
 (Enter /opt/gaussian/g16_legacy/l103.exe)

 GradGradGradGradGradGradGradGradGradGradGradGradGradGradGradGradGradGrad
 Berny optimization.
 FormGI is forming the generalized inverse of G from B-inverse, IUseBI=4.
 GSVD:  received Info=                   1 from GESDD.
 Internal  Forces:  Max     0.005459150 RMS     0.001921833
 Search for a local minimum.
 Step number   1 out of a maximum of  138
 All quantities printed in internal units (Hartrees-Bohrs-Radians)
 RMS Force = .19218D-02 SwitMx=.10000D-02 MixMth= 1
 Mixed Optimization -- RFO/linear search
 Second derivative matrix not updated -- first step.
 ITU=  0
     Eigenvalues ---    0.00230   0.00505   0.00654   0.00677   0.00690
     Eigenvalues ---    0.00694   0.00811   0.01201   0.01287   0.01564
     Eigenvalues ---    0.01634   0.02776   0.02802   0.03814   0.03847
     Eigenvalues ---    0.05295   0.05345   0.06978   0.07039   0.07061
     Eigenvalues ---    0.07101   0.07189   0.07304   0.07336   0.07493
     Eigenvalues ---    0.09535   0.09552   0.12978   0.12990   0.15972
     Eigenvalues ---    0.15994   0.16000   0.16000   0.16000   0.16000
     Eigenvalues ---    0.16000   0.16000   0.16000   0.16000   0.16000
     Eigenvalues ---    0.16000   0.16000   0.16000   0.21903   0.21916
     Eigenvalues ---    0.22002   0.22008   0.24934   0.24967   0.24981
     Eigenvalues ---    0.24990   0.28358   0.30396   0.31507   0.31681
     Eigenvalues ---    0.31779   0.31811   0.32737   0.33884   0.33891
     Eigenvalues ---    0.33935   0.34094   0.34171   0.34221   0.34238
     Eigenvalues ---    0.34261   0.34265   0.34312   0.34331   0.34407
     Eigenvalues ---    0.34443   0.34495   0.34496   0.34536   0.34798
     Eigenvalues ---    0.34910   0.55437   0.55871
 RFO step:  Lambda=-3.66632976D-03 EMin= 2.30000000D-03
 Linear search not attempted -- first point.
 Iteration  1 RMS(Cart)=  0.09536919 RMS(Int)=  0.00256617
 Iteration  2 RMS(Cart)=  0.00399026 RMS(Int)=  0.00017927
 Iteration  3 RMS(Cart)=  0.00000778 RMS(Int)=  0.00017920
 Iteration  4 RMS(Cart)=  0.00000000 RMS(Int)=  0.00017920
 ITry= 1 IFail=0 DXMaxC= 3.94D-01 DCOld= 1.00D+10 DXMaxT= 3.00D-01 DXLimC= 3.00D+00 Rises=F
 Variable       Old X    -DE/DX   Delta X   Delta X   Delta X     New X
                                 (Linear)    (Quad)   (Total)
    R1        2.07441  -0.00272   0.00000  -0.00793  -0.00793   2.06647
    R2        2.07526  -0.00260   0.00000  -0.00758  -0.00758   2.06768
    R3        2.87180  -0.00518   0.00000  -0.01682  -0.01682   2.85498
    R4        2.91363  -0.00266   0.00000  -0.00925  -0.00925   2.90437
    R5        2.84491   0.00269   0.00000   0.00835   0.00835   2.85326
    R6        2.54746  -0.00449   0.00000  -0.00804  -0.00804   2.53942
    R7        2.07173  -0.00434   0.00000  -0.01260  -0.01260   2.05913
    R8        2.06501  -0.00341   0.00000  -0.00979  -0.00979   2.05523
    R9        2.06892  -0.00148   0.00000  -0.00428  -0.00428   2.06464
   R10        2.05821  -0.00130   0.00000  -0.00369  -0.00369   2.05452
   R11        2.82816   0.00181   0.00000   0.00545   0.00545   2.83361
   R12        2.06434  -0.00336   0.00000  -0.00961  -0.00961   2.05473
   R13        2.06589  -0.00135   0.00000  -0.00388  -0.00388   2.06201
   R14        2.06958  -0.00211   0.00000  -0.00610  -0.00610   2.06349
   R15        2.06930  -0.00368   0.00000  -0.01063  -0.01063   2.05867
   R16        2.07042  -0.00217   0.00000  -0.00627  -0.00627   2.06415
   R17        2.06807  -0.00186   0.00000  -0.00537  -0.00537   2.06270
   R18        2.84551  -0.00041   0.00000  -0.00127  -0.00127   2.84424
   R19        2.84731  -0.00136   0.00000  -0.00423  -0.00423   2.84308
   R20        2.54366  -0.00027   0.00000  -0.00048  -0.00048   2.54317
   R21        2.06503  -0.00353   0.00000  -0.01013  -0.01013   2.05490
   R22        2.06649  -0.00118   0.00000  -0.00338  -0.00338   2.06311
   R23        2.06775  -0.00208   0.00000  -0.00598  -0.00598   2.06177
   R24        2.06004  -0.00201   0.00000  -0.00571  -0.00571   2.05433
   R25        2.85056  -0.00336   0.00000  -0.01056  -0.01056   2.84001
   R26        2.07515  -0.00217   0.00000  -0.00632  -0.00632   2.06882
   R27        2.06885  -0.00207   0.00000  -0.00598  -0.00598   2.06287
    A1        1.83856   0.00094   0.00000   0.02046   0.02047   1.85903
    A2        1.91287   0.00105   0.00000  -0.00109  -0.00146   1.91141
    A3        1.92118  -0.00104   0.00000  -0.01746  -0.01762   1.90356
    A4        1.90898   0.00103   0.00000   0.01123   0.01124   1.92023
    A5        1.88952   0.00038   0.00000   0.00400   0.00410   1.89361
    A6        1.98669  -0.00211   0.00000  -0.01410  -0.01424   1.97245
    A7        2.01891   0.00546   0.00000   0.02202   0.02154   2.04046
    A8        2.10447  -0.00420   0.00000  -0.01595  -0.01642   2.08805
    A9        2.15921  -0.00123   0.00000  -0.00424  -0.00472   2.15450
   A10        1.95418   0.00150   0.00000   0.00950   0.00953   1.96371
   A11        1.95217  -0.00430   0.00000  -0.02457  -0.02449   1.92769
   A12        1.92374   0.00291   0.00000   0.01579   0.01582   1.93956
   A13        1.85404   0.00216   0.00000   0.01691   0.01698   1.87102
   A14        1.90078  -0.00294   0.00000  -0.02109  -0.02112   1.87966
   A15        1.87572   0.00056   0.00000   0.00284   0.00292   1.87864
   A16        2.06931  -0.00246   0.00000  -0.01467  -0.01486   2.05446
   A17        2.21783  -0.00004   0.00000   0.00004  -0.00014   2.21769
   A18        1.99549   0.00253   0.00000   0.01572   0.01554   2.01103
   A19        1.98119  -0.00330   0.00000  -0.01998  -0.01990   1.96130
   A20        1.91888   0.00302   0.00000   0.01700   0.01695   1.93583
   A21        1.90859   0.00338   0.00000   0.02189   0.02186   1.93045
   A22        1.88373  -0.00034   0.00000  -0.00427  -0.00421   1.87952
   A23        1.87986   0.00031   0.00000   0.00459   0.00468   1.88454
   A24        1.88913  -0.00325   0.00000  -0.02029  -0.02045   1.86868
   A25        1.88053   0.00053   0.00000   0.00552   0.00555   1.88608
   A26        1.88175   0.00074   0.00000   0.00794   0.00796   1.88971
   A27        1.95942  -0.00230   0.00000  -0.01109  -0.01106   1.94836
   A28        1.89526  -0.00313   0.00000  -0.02502  -0.02502   1.87024
   A29        1.91519   0.00203   0.00000   0.01059   0.01061   1.92580
   A30        1.92985   0.00200   0.00000   0.01109   0.01111   1.94096
   A31        1.99433   0.00149   0.00000   0.00657   0.00630   2.00063
   A32        2.10967  -0.00041   0.00000  -0.00077  -0.00105   2.10862
   A33        2.17721  -0.00103   0.00000  -0.00324  -0.00352   2.17370
   A34        1.97355  -0.00126   0.00000  -0.00606  -0.00605   1.96750
   A35        1.92922  -0.00160   0.00000  -0.00743  -0.00742   1.92180
   A36        1.91977   0.00236   0.00000   0.01048   0.01050   1.93027
   A37        1.86196   0.00282   0.00000   0.02447   0.02448   1.88644
   A38        1.89189  -0.00136   0.00000  -0.01240  -0.01239   1.87950
   A39        1.88444  -0.00098   0.00000  -0.00923  -0.00921   1.87524
   A40        2.07360  -0.00374   0.00000  -0.02041  -0.02088   2.05272
   A41        2.21378   0.00126   0.00000   0.00642   0.00596   2.21974
   A42        1.99321   0.00256   0.00000   0.01778   0.01733   2.01053
   A43        1.98287  -0.00033   0.00000  -0.00639  -0.00653   1.97634
   A44        1.89429  -0.00126   0.00000  -0.00687  -0.00681   1.88748
   A45        1.91755  -0.00146   0.00000  -0.02080  -0.02098   1.89657
   A46        1.88452   0.00149   0.00000   0.01907   0.01907   1.90359
   A47        1.94360   0.00021   0.00000  -0.00557  -0.00591   1.93769
   A48        1.83402   0.00151   0.00000   0.02384   0.02378   1.85780
    D1       -0.53474   0.00158   0.00000   0.01453   0.01458  -0.52015
    D2        2.64229   0.00072   0.00000  -0.04068  -0.04069   2.60160
    D3       -2.54222  -0.00070   0.00000  -0.01563  -0.01564  -2.55786
[...]
                 (A) (A) (A) (A) (A) (A) (A) (A) (A) (A) (A) (A)
                 (A) (A) (A) (A) (A) (A) (A) (A) (A) (A) (A) (A)
                 (A) (A) (A) (A) (A) (A) (A) (A) (A) (A) (A) (A)
                 (A) (A) (A) (A) (A) (A) (A) (A) (A) (A) (A) (A)
                 (A) (A) (A) (A) (A) (A) (A) (A) (A) (A) (A) (A)
                 (A) (A) (A) (A) (A) (A) (A) (A) (A) (A) (A) (A)
                 (A) (A) (A) (A) (A) (A) (A) (A) (A) (A) (A) (A)
                 (A) (A) (A) (A) (A) (A) (A) (A) (A) (A) (A) (A)
                 (A) (A) (A) (A) (A) (A) (A) (A) (A) (A) (A) (A)
                 (A) (A) (A) (A) (A) (A) (A) (A) (A) (A) (A) (A)
                 (A) (A) (A) (A) (A) (A) (A) (A) (A) (A) (A) (A)
                 (A) (A) (A) (A) (A) (A) (A) (A) (A) (A) (A) (A)
                 (A) (A) (A) (A) (A) (A) (A) (A) (A) (A) (A) (A)
                 (A) (A) (A) (A) (A) (A) (A) (A) (A)
 The electronic state is 1-A.
 Alpha  occ. eigenvalues --  -11.22905 -11.22417 -11.21815 -11.21726 -11.21476
 Alpha  occ. eigenvalues --  -11.21353 -11.21281 -11.21253 -11.21241 -11.20944
 Alpha  occ. eigenvalues --   -1.10826  -1.08027  -1.01971  -0.97278  -0.93554
 Alpha  occ. eigenvalues --   -0.92408  -0.87489  -0.81946  -0.70431  -0.69260
 Alpha  occ. eigenvalues --   -0.63913  -0.62527  -0.59470  -0.59239  -0.58025
 Alpha  occ. eigenvalues --   -0.57118  -0.55206  -0.53892  -0.53054  -0.52843
 Alpha  occ. eigenvalues --   -0.52471  -0.51203  -0.50221  -0.49364  -0.47950
 Alpha  occ. eigenvalues --   -0.45452  -0.44722  -0.33172  -0.31265
 Alpha virt. eigenvalues --    0.18606   0.18963   0.22658   0.25754   0.25952
 Alpha virt. eigenvalues --    0.27099   0.28218   0.29765   0.29950   0.30981
 Alpha virt. eigenvalues --    0.31952   0.32552   0.32836   0.33436   0.34120
 Alpha virt. eigenvalues --    0.35441   0.36567   0.37297   0.39976   0.40247
 Alpha virt. eigenvalues --    0.41208   0.41954   0.43404   0.43991   0.47370
 Alpha virt. eigenvalues --    0.50788   0.52611   0.61808   0.64251   0.66717
 Alpha virt. eigenvalues --    0.70396   0.71100   0.73867   0.74205   0.77046
 Alpha virt. eigenvalues --    0.77686   0.80673   0.81026   0.82171   0.83993
 Alpha virt. eigenvalues --    0.85714   0.86730   0.88399   0.89064   0.91826
 Alpha virt. eigenvalues --    0.92907   0.94853   0.97129   0.98133   1.00191
 Alpha virt. eigenvalues --    1.01161   1.02720   1.04011   1.04622   1.06349
 Alpha virt. eigenvalues --    1.08728   1.08946   1.09909   1.12408   1.12687
 Alpha virt. eigenvalues --    1.13342   1.13876   1.15527   1.15714   1.16332
 Alpha virt. eigenvalues --    1.17647   1.18625   1.19518   1.20008   1.21082
 Alpha virt. eigenvalues --    1.22008   1.23356   1.24736   1.26473   1.28126
 Alpha virt. eigenvalues --    1.29167   1.31103   1.42230   1.44092   1.45995
 Alpha virt. eigenvalues --    1.46978   1.48216   1.54739   1.58394   1.59751
 Alpha virt. eigenvalues --    1.61495   1.67277   1.69429   1.70412   1.73911
 Alpha virt. eigenvalues --    1.76146   1.77707   1.90627   1.92053   1.96209
 Alpha virt. eigenvalues --    1.99311   2.01611   2.02699   2.06572   2.07061
 Alpha virt. eigenvalues --    2.09086   2.09794   2.11363   2.14309   2.15261
 Alpha virt. eigenvalues --    2.16800   2.19014   2.21113   2.26450   2.28519
 Alpha virt. eigenvalues --    2.29801   2.31417   2.33414   2.35542   2.35813
 Alpha virt. eigenvalues --    2.36024   2.36580   2.39137   2.40021   2.41943
 Alpha virt. eigenvalues --    2.43876   2.44127   2.44816   2.45321   2.46530
 Alpha virt. eigenvalues --    2.47183   2.49172   2.50865   2.52030   2.54022
 Alpha virt. eigenvalues --    2.56612   2.58265   2.59666   2.64075   2.64545
 Alpha virt. eigenvalues --    2.67464   2.69790   2.70567   2.73172   2.74164
 Alpha virt. eigenvalues --    2.75902   2.76635   2.79601   2.82899   2.84682
 Alpha virt. eigenvalues --    2.86620   2.87873   2.90363   2.93552   2.94984
 Alpha virt. eigenvalues --    2.95536   2.98970   3.00135   3.02278   3.03569
 Alpha virt. eigenvalues --    3.06313   3.07958   3.11385   3.14746   3.15174
 Alpha virt. eigenvalues --    3.18287   3.19141   3.19560   3.20426   3.22505
 Alpha virt. eigenvalues --    3.23485   3.26147   3.27281   3.27653   3.39598
 Alpha virt. eigenvalues --    3.40167   3.44372   3.45778   3.56285   3.58114
 Alpha virt. eigenvalues --    3.62761   3.63553   3.66884   3.71308   3.79632
 Alpha virt. eigenvalues --    3.80748   3.82615   3.83484   3.83800   3.84211
 Alpha virt. eigenvalues --    3.85438   3.86924   3.87414   3.90179   3.91804
 Alpha virt. eigenvalues --    3.94499   4.58875   4.64382   4.74906   4.85592
 Alpha virt. eigenvalues --    4.91791   4.92126   4.93439   5.10660   5.12449
 Alpha virt. eigenvalues --    5.16087
          Condensed to atoms (all electrons):
               1          2          3          4          5          6
     1  C    5.011979   0.411106   0.411567   0.334983  -0.052476   0.003808
     2  H    0.411106   0.595025  -0.028999  -0.047259  -0.004703   0.000133
     3  H    0.411567  -0.028999   0.575252  -0.039923   0.003179  -0.000118
     4  C    0.334983  -0.047259  -0.039923   4.953968   0.350397  -0.040964
     5  C   -0.052476  -0.004703   0.003179   0.350397   4.906023   0.405636
     6  H    0.003808   0.000133  -0.000118  -0.040964   0.405636   0.579873
     7  H   -0.000518  -0.000150   0.000040  -0.044382   0.401733  -0.026171
     8  H   -0.004482   0.002099  -0.000017  -0.041752   0.396938  -0.028096
     9  C   -0.057545   0.003723  -0.004590   0.695526  -0.043617  -0.002597
    10  H   -0.005954   0.000140   0.001709  -0.044261   0.003575   0.000033
    11  C    0.002922  -0.000092   0.000035  -0.043826  -0.008256  -0.002296
    12  H    0.000086   0.000000   0.000004   0.000005  -0.002057  -0.001379
    13  H   -0.000111   0.000005   0.000013  -0.000945   0.000272  -0.000027
    14  H   -0.000073  -0.000000  -0.000013  -0.000475   0.000278   0.000005
    15  C   -0.000090  -0.000000   0.000002  -0.000059   0.000046  -0.000006
    16  H   -0.000006   0.000002   0.000000   0.000003  -0.000006  -0.000000
    17  H    0.000028  -0.000001  -0.000000  -0.000016   0.000166  -0.000007
    18  H   -0.000006   0.000000   0.000000   0.000001  -0.000004   0.000000
    19  C   -0.004220   0.000482  -0.000046   0.003768  -0.004536   0.000213
    20  C    0.000569  -0.000018  -0.000005  -0.000755   0.000166  -0.000019
    21  H   -0.000315   0.000001   0.000041   0.001178  -0.000010  -0.000002
    22  H   -0.000057   0.000000   0.000001   0.000102  -0.000011   0.000001
    23  H    0.000128  -0.000000  -0.000003  -0.000232   0.000287  -0.000023
    24  C   -0.065799  -0.003117   0.005150  -0.003351  -0.006071   0.000077
    25  H    0.000352   0.001460  -0.000123  -0.000222   0.000046   0.000004
    26  C    0.337503  -0.042556  -0.038828  -0.055693   0.001254  -0.000121
    27  H   -0.047954  -0.002260  -0.002955   0.006170  -0.000173   0.000003
    28  H   -0.040644   0.004530  -0.003451  -0.005536   0.000147   0.000003
               7          8          9         10         11         12
     1  C   -0.000518  -0.004482  -0.057545  -0.005954   0.002922   0.000086
     2  H   -0.000150   0.002099   0.003723   0.000140  -0.000092   0.000000
     3  H    0.000040  -0.000017  -0.004590   0.001709   0.000035   0.000004
     4  C   -0.044382  -0.041752   0.695526  -0.044261  -0.043826   0.000005
     5  C    0.401733   0.396938  -0.043617   0.003575  -0.008256  -0.002057
     6  H   -0.026171  -0.028096  -0.002597   0.000033  -0.002296  -0.001379
     7  H    0.565740  -0.033839  -0.000291  -0.000135   0.000262  -0.000067
     8  H   -0.033839   0.592257  -0.000020  -0.000119   0.000293  -0.000031
     9  C   -0.000291  -0.000020   4.948145   0.406305   0.342485  -0.043719
    10  H   -0.000135  -0.000119   0.406305   0.568397  -0.041979   0.003432
    11  C    0.000262   0.000293   0.342485  -0.041979   4.889640   0.408352
    12  H   -0.000067  -0.000031  -0.043719   0.003432   0.408352   0.576324
    13  H   -0.000022   0.000052  -0.042300  -0.001181   0.401933  -0.028146
    14  H    0.000047  -0.000028  -0.043287  -0.001290   0.401027  -0.028428
    15  C    0.000005  -0.000000  -0.000001  -0.000000  -0.000000  -0.000000
    16  H    0.000014   0.000000   0.000000  -0.000000  -0.000000  -0.000000
    17  H   -0.000139  -0.000003  -0.000002  -0.000000   0.000000  -0.000000
    18  H    0.000020   0.000000  -0.000000   0.000000  -0.000000  -0.000000
    19  C    0.001551   0.000123   0.000590  -0.000004  -0.000017  -0.000002
    20  C   -0.000205   0.000002  -0.001020  -0.000034   0.000010  -0.000002
    21  H   -0.000077   0.000003   0.001667   0.000029  -0.000087  -0.000003
    22  H    0.000005   0.000000   0.000078   0.000001  -0.000002   0.000000
    23  H   -0.000150  -0.000003  -0.000122  -0.000003   0.000076   0.000014
    24  C    0.005607   0.000310  -0.000376   0.000095  -0.000005   0.000003
    25  H    0.000105  -0.000019  -0.000008   0.000001  -0.000000   0.000000
    26  C   -0.000435   0.000057  -0.006087  -0.000072  -0.000061  -0.000008
    27  H   -0.000017   0.000012   0.000121  -0.000042   0.000002   0.000000
    28  H    0.000044  -0.000001   0.001733   0.000720  -0.000068   0.000001
              13         14         15         16         17         18
     1  C   -0.000111  -0.000073  -0.000090  -0.000006   0.000028  -0.000006
     2  H    0.000005  -0.000000  -0.000000   0.000002  -0.000001   0.000000
     3  H    0.000013  -0.000013   0.000002   0.000000  -0.000000   0.000000
     4  C   -0.000945  -0.000475  -0.000059   0.000003  -0.000016   0.000001
     5  C    0.000272   0.000278   0.000046  -0.000006   0.000166  -0.000004
     6  H   -0.000027   0.000005  -0.000006  -0.000000  -0.000007   0.000000
     7  H   -0.000022   0.000047   0.000005   0.000014  -0.000139   0.000020
     8  H    0.000052  -0.000028  -0.000000   0.000000  -0.000003   0.000000
     9  C   -0.042300  -0.043287  -0.000001   0.000000  -0.000002  -0.000000
    10  H   -0.001181  -0.001290  -0.000000  -0.000000  -0.000000   0.000000
    11  C    0.401933   0.401027  -0.000000  -0.000000   0.000000  -0.000000
    12  H   -0.028146  -0.028428  -0.000000  -0.000000  -0.000000  -0.000000
    13  H    0.588174  -0.036623   0.000000   0.000000  -0.000000  -0.000000
    14  H   -0.036623   0.591045   0.000000  -0.000000   0.000000   0.000000
    15  C    0.000000   0.000000   4.903641   0.405822   0.397622   0.398954
    16  H    0.000000  -0.000000   0.405822   0.568121  -0.026898  -0.026577
    17  H   -0.000000   0.000000   0.397622  -0.026898   0.596102  -0.037759
    18  H   -0.000000   0.000000   0.398954  -0.026577  -0.037759   0.592381
    19  C    0.000000  -0.000008   0.353330  -0.041858  -0.044089  -0.043734
    20  C    0.000001   0.000109  -0.065397   0.003806  -0.001940  -0.001295
    21  H    0.000008  -0.000030   0.003732  -0.000113  -0.000074  -0.000031
    22  H    0.000000  -0.000011  -0.002342  -0.000047  -0.000501   0.002720
    23  H   -0.000000   0.000135  -0.002697  -0.000027   0.002902  -0.000493
    24  C   -0.000000   0.000001  -0.045067  -0.002604  -0.000797  -0.000963
    25  H   -0.000000   0.000000  -0.007040   0.002364   0.000203   0.000184
    26  C   -0.000005   0.000030   0.003183   0.000145  -0.000080  -0.000125
    27  H    0.000000  -0.000001  -0.000103  -0.000008  -0.000003   0.000011
    28  H    0.000001  -0.000000   0.000082   0.000006  -0.000004   0.000005
              19         20         21         22         23         24
     1  C   -0.004220   0.000569  -0.000315  -0.000057   0.000128  -0.065799
     2  H    0.000482  -0.000018   0.000001   0.000000  -0.000000  -0.003117
     3  H   -0.000046  -0.000005   0.000041   0.000001  -0.000003   0.005150
     4  C    0.003768  -0.000755   0.001178   0.000102  -0.000232  -0.003351
     5  C   -0.004536   0.000166  -0.000010  -0.000011   0.000287  -0.006071
     6  H    0.000213  -0.000019  -0.000002   0.000001  -0.000023   0.000077
     7  H    0.001551  -0.000205  -0.000077   0.000005  -0.000150   0.005607
     8  H    0.000123   0.000002   0.000003   0.000000  -0.000003   0.000310
     9  C    0.000590  -0.001020   0.001667   0.000078  -0.000122  -0.000376
    10  H   -0.000004  -0.000034   0.000029   0.000001  -0.000003   0.000095
    11  C   -0.000017   0.000010  -0.000087  -0.000002   0.000076  -0.000005
    12  H   -0.000002  -0.000002  -0.000003   0.000000   0.000014   0.000003
    13  H    0.000000   0.000001   0.000008   0.000000  -0.000000  -0.000000
    14  H   -0.000008   0.000109  -0.000030  -0.000011   0.000135   0.000001
    15  C    0.353330  -0.065397   0.003732  -0.002342  -0.002697  -0.045067
    16  H   -0.041858   0.003806  -0.000113  -0.000047  -0.000027  -0.002604
    17  H   -0.044089  -0.001940  -0.000074  -0.000501   0.002902  -0.000797
    18  H   -0.043734  -0.001295  -0.000031   0.002720  -0.000493  -0.000963
    19  C    4.912980   0.351794  -0.036502  -0.044683  -0.043397   0.694595
    20  C    0.351794   4.902030   0.406988   0.396676   0.401430  -0.041922
    21  H   -0.036502   0.406988   0.556736  -0.025724  -0.027678  -0.002834
    22  H   -0.044683   0.396676  -0.025724   0.595993  -0.036647  -0.000457
    23  H   -0.043397   0.401430  -0.027678  -0.036647   0.588277  -0.000282
    24  C    0.694595  -0.041922  -0.002834  -0.000457  -0.000282   4.969968
    25  H   -0.039351   0.003500   0.000035  -0.000128  -0.000121   0.403348
    26  C   -0.048652  -0.008017  -0.002718   0.000190   0.000360   0.349197
    27  H    0.001516   0.000136   0.000111   0.000035  -0.000016  -0.043649
    28  H    0.000544  -0.002576  -0.001443   0.000076  -0.000076  -0.047421
              25         26         27         28
     1  C    0.000352   0.337503  -0.047954  -0.040644
     2  H    0.001460  -0.042556  -0.002260   0.004530
     3  H   -0.000123  -0.038828  -0.002955  -0.003451
     4  C   -0.000222  -0.055693   0.006170  -0.005536
     5  C    0.000046   0.001254  -0.000173   0.000147
     6  H    0.000004  -0.000121   0.000003   0.000003
     7  H    0.000105  -0.000435  -0.000017   0.000044
     8  H   -0.000019   0.000057   0.000012  -0.000001
     9  C   -0.000008  -0.006087   0.000121   0.001733
    10  H    0.000001  -0.000072  -0.000042   0.000720
    11  C   -0.000000  -0.000061   0.000002  -0.000068
    12  H    0.000000  -0.000008   0.000000   0.000001
    13  H   -0.000000  -0.000005   0.000000   0.000001
    14  H    0.000000   0.000030  -0.000001  -0.000000
    15  C   -0.007040   0.003183  -0.000103   0.000082
    16  H    0.002364   0.000145  -0.000008   0.000006
    17  H    0.000203  -0.000080  -0.000003  -0.000004
    18  H    0.000184  -0.000125   0.000011   0.000005
    19  C   -0.039351  -0.048652   0.001516   0.000544
    20  C    0.003500  -0.008017   0.000136  -0.002576
    21  H    0.000035  -0.002718   0.000111  -0.001443
    22  H   -0.000128   0.000190   0.000035   0.000076
    23  H   -0.000121   0.000360  -0.000016  -0.000076
    24  C    0.403348   0.349197  -0.043649  -0.047421
    25  H    0.561460  -0.040938  -0.003495   0.003471
    26  C   -0.040938   4.950054   0.410759   0.417784
    27  H   -0.003495   0.410759   0.596564  -0.029426
    28  H    0.003471   0.417784  -0.029426   0.583765
 Mulliken charges:
               1
     1  C   -0.234782
     2  H    0.110448
     3  H    0.122080
     4  C    0.023551
     5  C   -0.348222
     6  H    0.112037
     7  H    0.131424
     8  H    0.116265
     9  C   -0.154795
    10  H    0.110634
    11  C   -0.350348
    12  H    0.115622
    13  H    0.118902
    14  H    0.117589
    15  C   -0.343617
    16  H    0.117859
    17  H    0.115290
    18  H    0.116709
    19  C    0.029613
    20  C   -0.344013
    21  H    0.127111
    22  H    0.114731
    23  H    0.118363
    24  C   -0.163637
    25  H    0.114912
    26  C   -0.226120
    27  H    0.114661
    28  H    0.117732
 Sum of Mulliken charges =  -0.00000
 Mulliken charges with hydrogens summed into heavy atoms:
               1
     1  C   -0.002254
     4  C    0.023551
     5  C    0.011504
     9  C   -0.044161
    11  C    0.001764
    15  C    0.006242
    19  C    0.029613
    20  C    0.016193
    24  C   -0.048725
    26  C    0.006273
 Electronic spatial extent (au):  <R**2>=           1885.9653
 Charge=             -0.0000 electrons
 Dipole moment (field-independent basis, Debye):
    X=              0.1613    Y=             -0.1827    Z=              0.0695  Tot=              0.2535
 Quadrupole moment (field-independent basis, Debye-Ang):
   XX=            -66.8100   YY=            -63.9417   ZZ=            -64.7083
   XY=             -0.0092   XZ=              1.4127   YZ=              0.2964
 Traceless Quadrupole moment (field-independent basis, Debye-Ang):
   XX=             -1.6567   YY=              1.2116   ZZ=              0.4451
   XY=             -0.0092   XZ=              1.4127   YZ=              0.2964
 Octapole moment (field-independent basis, Debye-Ang**2):
  XXX=              3.1001  YYY=              1.7876  ZZZ=             -1.0458  XYY=              1.3473
  XXY=             -5.3916  XXZ=             -0.0361  XZZ=             -2.5657  YZZ=              0.1189
  YYZ=              1.3470  XYZ=              2.7222
 Hexadecapole moment (field-independent basis, Debye-Ang**3):
 XXXX=          -1566.6615 YYYY=           -662.3626 ZZZZ=           -422.5638 XXXY=              1.0190
 XXXZ=             11.8556 YYYX=              2.1052 YYYZ=             -2.0700 ZZZX=              2.5121
 ZZZY=              1.1498 XXYY=           -368.9032 XXZZ=           -325.7773 YYZZ=           -176.1610
 XXYZ=              6.5505 YYXZ=              0.4811 ZZXY=             -1.0452
 N-N= 5.399768517135D+02 E-N=-1.984798070642D+03  KE= 3.887516822573D+02
 No NMR shielding tensors so no spin-rotation constants.
 Leave Link  601 at Fri Sep 17 22:03:34 2021, MaxMem=   524288000 cpu:               0.3 elap:               0.7
 (Enter /opt/gaussian/g16_legacy/l9999.exe)
 1\1\GINC-TRUENO91\FOpt\RMP2-FC\6-31G(d,p)\C10H18\JRAMOS\17-Sep-2021\0\
 \#p opt mp2/6-31g(d,p)\\Conformer number 034. Energy MM = 27.665 kcal/
 mol\\0,1\C,2.1759567064,1.1679328061,-9.0195928181\H,1.8189665115,0.15
 43704652,-9.2230777383\H,1.9489269446,1.7662820496,-9.9056209996\C,3.6
 702800786,1.1487312889,-8.782390523\C,4.2401592512,-0.1581534572,-8.30
 60561491\H,5.3043066215,-0.1056205124,-8.0890841644\H,3.7228334735,-0.
 4836520636,-7.4032272468\H,4.0885594823,-0.9305148071,-9.0636068261\C,
 4.3811614192,2.2737032426,-8.9888437659\H,3.8341253764,3.1406350864,-9
 .3535167121\C,5.8470493686,2.4975727207,-8.7744487744\H,6.3610671791,1
 .6046665142,-8.4281145619\H,6.3280648644,2.8224983777,-9.6987874407\H,
 6.0124226445,3.285091782,-8.0365045493\C,2.4007199275,0.3297018714,-4.
 3177663625\H,1.7714209376,-0.5477891132,-4.4595727532\H,3.425966833,-0
 .0070907586,-4.1475511516\H,2.0793701391,0.8374589466,-3.4054651128\C,
 2.3321281226,1.2581773533,-5.499472416\C,3.1722254309,2.497905902,-5.3
 696648458\H,3.1364177091,3.1292790117,-6.2525431139\H,2.8549171152,3.0
 853622528,-4.5048448258\H,4.2160166726,2.2236074924,-5.201094587\C,1.5
 683368369,0.9546330853,-6.566727114\H,1.0251494059,0.0124697891,-6.537
 2236195\C,1.3948263896,1.7503124534,-7.8248548079\H,0.3316801778,1.779
 2285378,-8.0832512882\H,1.7092443807,2.784399683,-7.6810957321\\Versio
 n=EM64L-G16RevA.03\State=1-A\HF=-389.1534484\MP2=-390.5737736\RMSD=6.7
 11e-09\RMSF=1.702e-06\Dipole=0.0541409,0.0075483,0.0709485\PG=C01 [X(C
 10H18)]\\@


 I am not a vegetarian because I love animals;
 I am a vegetarian because I hate plants.
                               -- A. Whitney Brown
 Job cpu time:       0 days  1 hours 54 minutes  1.4 seconds.
 Elapsed time:       0 days  1 hours 54 minutes  4.1 seconds.
 File lengths (MBytes):  RWF=     32 Int=      0 D2E=      0 Chk=      7 Scr=      1
 Normal termination of Gaussian 16 at Fri Sep 17 22:03:35 2021.
