 Entering Gaussian System, Link 0=/opt/gaussian/g16_legacy/g16
 Input=02-IsoP_006_gaussian.com
 Output=02-IsoP_006_gaussian.log
 Initial command:
 /opt/gaussian/g16_legacy/l1.exe "/scratch-local/jramos/2661505/Gau-17323.inp" -scrdir="/scratch-local/jramos/2661505/"
 Entering Link 1 = /opt/gaussian/g16_legacy/l1.exe PID=     17325.
  
 Copyright (c) 1988,1990,1992,1993,1995,1998,2003,2009,2016,
            Gaussian, Inc.  All Rights Reserved.
  
 This is part of the Gaussian(R) 16 program.  It is based on
 the Gaussian(R) 09 system (copyright 2009, Gaussian, Inc.),
 the Gaussian(R) 03 system (copyright 2003, Gaussian, Inc.),
 the Gaussian(R) 98 system (copyright 1998, Gaussian, Inc.),
 the Gaussian(R) 94 system (copyright 1995, Gaussian, Inc.),
 the Gaussian 92(TM) system (copyright 1992, Gaussian, Inc.),
 the Gaussian 90(TM) system (copyright 1990, Gaussian, Inc.),
 the Gaussian 88(TM) system (copyright 1988, Gaussian, Inc.),
 the Gaussian 86(TM) system (copyright 1986, Carnegie Mellon
 University), and the Gaussian 82(TM) system (copyright 1983,
 Carnegie Mellon University). Gaussian is a federally registered
 trademark of Gaussian, Inc.
  
 This software contains proprietary and confidential information,
 including trade secrets, belonging to Gaussian, Inc.
  
 This software is provided under written license and may be
 used, copied, transmitted, or stored only in accord with that
 written license.
  
 The following legend is applicable only to US Government
 contracts under FAR:
  
                    RESTRICTED RIGHTS LEGEND
  
 Use, reproduction and disclosure by the US Government is
 subject to restrictions as set forth in subparagraphs (a)
 and (c) of the Commercial Computer Software - Restricted
 Rights clause in FAR 52.227-19.
  
 Gaussian, Inc.
 340 Quinnipiac St., Bldg. 40, Wallingford CT 06492
  
  
 ---------------------------------------------------------------
 Warning -- This program may not be used in any manner that
 competes with the business of Gaussian, Inc. or will provide
 assistance to any competitor of Gaussian, Inc.  The licensee
 of this program is prohibited from giving any competitor of
 Gaussian, Inc. access to this program.  By using this program,
 the user acknowledges that Gaussian, Inc. is engaged in the
 business of creating and licensing software in the field of
 computational chemistry and represents and warrants to the
 licensee that it is not a competitor of Gaussian, Inc. and that
 it will not use this program in any manner prohibited above.
 ---------------------------------------------------------------
  

 Cite this work as:
 Gaussian 16, Revision A.03,
 M. J. Frisch, G. W. Trucks, H. B. Schlegel, G. E. Scuseria, 
 M. A. Robb, J. R. Cheeseman, G. Scalmani, V. Barone, 
 G. A. Petersson, H. Nakatsuji, X. Li, M. Caricato, A. V. Marenich, 
 J. Bloino, B. G. Janesko, R. Gomperts, B. Mennucci, H. P. Hratchian, 
 J. V. Ortiz, A. F. Izmaylov, J. L. Sonnenberg, D. Williams-Young, 
 F. Ding, F. Lipparini, F. Egidi, J. Goings, B. Peng, A. Petrone, 
 T. Henderson, D. Ranasinghe, V. G. Zakrzewski, J. Gao, N. Rega, 
 G. Zheng, W. Liang, M. Hada, M. Ehara, K. Toyota, R. Fukuda, 
 J. Hasegawa, M. Ishida, T. Nakajima, Y. Honda, O. Kitao, H. Nakai, 
 T. Vreven, K. Throssell, J. A. Montgomery, Jr., J. E. Peralta, 
 F. Ogliaro, M. J. Bearpark, J. J. Heyd, E. N. Brothers, K. N. Kudin, 
 V. N. Staroverov, T. A. Keith, R. Kobayashi, J. Normand, 
 K. Raghavachari, A. P. Rendell, J. C. Burant, S. S. Iyengar, 
 J. Tomasi, M. Cossi, J. M. Millam, M. Klene, C. Adamo, R. Cammi, 
 J. W. Ochterski, R. L. Martin, K. Morokuma, O. Farkas, 
 J. B. Foresman, and D. J. Fox, Gaussian, Inc., Wallingford CT, 2016.
 
 ******************************************
 Gaussian 16:  EM64L-G16RevA.03 25-Dec-2016
                17-Sep-2021 
 ******************************************
 %chk=02-IsoP_006_gaussian.chk
 %nproc=1
 Will use up to    1 processors via shared memory.
 %mem=4000Mb
 ---------------------
 #p opt mp2/6-31g(d,p)
 ---------------------
 1/18=20,19=15,38=1/1,3;
 2/9=110,12=2,17=6,18=5,40=1/2;
 3/5=1,6=6,7=101,11=9,25=1,30=1,71=1/1,2,3;
 4//1;
 5/5=2,38=5/2;
 8/6=4,10=2/1;
 9/15=2,16=-3/6;
 10/5=1/2;
 6/7=2,8=2,9=2,10=2/1;
 7/12=2/1,2,3,16;
 1/18=20,19=15/3(2);
 2/9=110/2;
 99//99;
 2/9=110/2;
 3/5=1,6=6,7=101,11=9,25=1,30=1,71=1/1,2,3;
 4/5=5,16=3,69=1/1;
 5/5=2,38=5/2;
 8/6=4,10=2/1;
 9/15=2,16=-3/6;
 10/5=1/2;
 7/12=2/1,2,3,16;
 1/18=20,19=15/3(-8);
 2/9=110/2;
 6/7=2,8=2,9=2,10=2/1;
 99//99;
 Leave Link    1 at Fri Sep 17 20:09:25 2021, MaxMem=   524288000 cpu:               0.0 elap:               0.1
 (Enter /opt/gaussian/g16_legacy/l101.exe)
 -------------------------------------------------
 Conformer number 006. Energy MM = 26.902 kcal/mol
 -------------------------------------------------
 Symbolic Z-matrix:
 Charge =  0 Multiplicity = 1
 C                     2.1605    1.1856   -8.949 
 H                     1.8866    0.1513   -9.1951 
 H                     1.9763    1.7642   -9.8633 
 C                     3.6379    1.2407   -8.6035 
 C                     4.479     2.1298   -9.4782 
 H                     5.5052    1.763    -9.5769 
 H                     4.0778    2.1752   -10.4969 
 H                     4.5021    3.1468   -9.0752 
 C                     4.1284    0.5191   -7.5756 
 H                     3.444    -0.1127   -7.0099 
 C                     5.5347    0.4971   -7.0674 
 H                     6.2075    1.1609   -7.6142 
 H                     5.5461    0.8082   -6.018 
 H                     5.9336   -0.5197   -7.1268 
 C                    -2.2449    2.8577   -9.1528 
 H                    -2.7232    1.9091   -8.8862 
 H                    -2.7745    3.6562   -8.6233 
 H                    -2.375     3.0075   -10.229 
 C                    -0.7832    2.8774   -8.7956 
 C                    -0.0709    4.1689   -9.0946 
 H                     0.9967    4.0178   -9.2904 
 H                    -0.4843    4.6403   -9.9912 
 H                    -0.1775    4.8636   -8.2568 
 C                    -0.18      1.7977   -8.2651 
 H                    -0.76      0.8909   -8.102 
 C                     1.2593    1.7191   -7.8288 
 H                     1.6117    2.6986   -7.4849 
 H                     1.3097    1.0614   -6.9519 
 
 ITRead=  0  0  0  0  0  0  0  0  0  0  0  0  0  0  0  0  0  0  0  0
 ITRead=  0  0  0  0  0  0  0  0
 MicOpt= -1 -1 -1 -1 -1 -1 -1 -1 -1 -1 -1 -1 -1 -1 -1 -1 -1 -1 -1 -1
 MicOpt= -1 -1 -1 -1 -1 -1 -1 -1
 NAtoms=     28 NQM=       28 NQMF=       0 NMMI=      0 NMMIF=      0
                NMic=       0 NMicF=      0.
                    Isotopes and Nuclear Properties:
 (Nuclear quadrupole moments (NQMom) in fm**2, nuclear magnetic moments (NMagM)
  in nuclear magnetons)

  Atom         1           2           3           4           5           6           7           8           9          10
 IAtWgt=          12           1           1          12          12           1           1           1          12           1
 AtmWgt=  12.0000000   1.0078250   1.0078250  12.0000000  12.0000000   1.0078250   1.0078250   1.0078250  12.0000000   1.0078250
 NucSpn=           0           1           1           0           0           1           1           1           0           1
 AtZEff=  -0.0000000  -0.0000000  -0.0000000  -0.0000000  -0.0000000  -0.0000000  -0.0000000  -0.0000000  -0.0000000  -0.0000000
 NQMom=    0.0000000   0.0000000   0.0000000   0.0000000   0.0000000   0.0000000   0.0000000   0.0000000   0.0000000   0.0000000
 NMagM=    0.0000000   2.7928460   2.7928460   0.0000000   0.0000000   2.7928460   2.7928460   2.7928460   0.0000000   2.7928460
 AtZNuc=   6.0000000   1.0000000   1.0000000   6.0000000   6.0000000   1.0000000   1.0000000   1.0000000   6.0000000   1.0000000

  Atom        11          12          13          14          15          16          17          18          19          20
 IAtWgt=          12           1           1           1          12           1           1           1          12          12
 AtmWgt=  12.0000000   1.0078250   1.0078250   1.0078250  12.0000000   1.0078250   1.0078250   1.0078250  12.0000000  12.0000000
 NucSpn=           0           1           1           1           0           1           1           1           0           0
 AtZEff=  -0.0000000  -0.0000000  -0.0000000  -0.0000000  -0.0000000  -0.0000000  -0.0000000  -0.0000000  -0.0000000  -0.0000000
 NQMom=    0.0000000   0.0000000   0.0000000   0.0000000   0.0000000   0.0000000   0.0000000   0.0000000   0.0000000   0.0000000
 NMagM=    0.0000000   2.7928460   2.7928460   2.7928460   0.0000000   2.7928460   2.7928460   2.7928460   0.0000000   0.0000000
 AtZNuc=   6.0000000   1.0000000   1.0000000   1.0000000   6.0000000   1.0000000   1.0000000   1.0000000   6.0000000   6.0000000

  Atom        21          22          23          24          25          26          27          28
 IAtWgt=           1           1           1          12           1          12           1           1
 AtmWgt=   1.0078250   1.0078250   1.0078250  12.0000000   1.0078250  12.0000000   1.0078250   1.0078250
 NucSpn=           1           1           1           0           1           0           1           1
 AtZEff=  -0.0000000  -0.0000000  -0.0000000  -0.0000000  -0.0000000  -0.0000000  -0.0000000  -0.0000000
 NQMom=    0.0000000   0.0000000   0.0000000   0.0000000   0.0000000   0.0000000   0.0000000   0.0000000
 NMagM=    2.7928460   2.7928460   2.7928460   0.0000000   2.7928460   0.0000000   2.7928460   2.7928460
 AtZNuc=   1.0000000   1.0000000   1.0000000   6.0000000   1.0000000   6.0000000   1.0000000   1.0000000
 Leave Link  101 at Fri Sep 17 20:09:25 2021, MaxMem=   524288000 cpu:               0.1 elap:               0.2
 (Enter /opt/gaussian/g16_legacy/l103.exe)

 GradGradGradGradGradGradGradGradGradGradGradGradGradGradGradGradGradGrad
 Berny optimization.
 Initialization pass.
                           ----------------------------
                           !    Initial Parameters    !
                           ! (Angstroms and Degrees)  !
 --------------------------                            --------------------------
 ! Name  Definition              Value          Derivative Info.                !
 --------------------------------------------------------------------------------
 ! R1    R(1,2)                  1.0979         estimate D2E/DX2                !
 ! R2    R(1,3)                  1.0976         estimate D2E/DX2                !
 ! R3    R(1,4)                  1.5183         estimate D2E/DX2                !
 ! R4    R(1,26)                 1.5335         estimate D2E/DX2                !
 ! R5    R(4,5)                  1.5043         estimate D2E/DX2                !
 ! R6    R(4,9)                  1.3483         estimate D2E/DX2                !
 ! R7    R(5,6)                  1.0942         estimate D2E/DX2                !
 ! R8    R(5,7)                  1.0958         estimate D2E/DX2                !
 ! R9    R(5,8)                  1.0942         estimate D2E/DX2                !
 ! R10   R(9,10)                 1.0898         estimate D2E/DX2                !
 ! R11   R(9,11)                 1.4955         estimate D2E/DX2                !
 ! R12   R(11,12)                1.0919         estimate D2E/DX2                !
 ! R13   R(11,13)                1.0946         estimate D2E/DX2                !
 ! R14   R(11,14)                1.0939         estimate D2E/DX2                !
 ! R15   R(15,16)                1.0953         estimate D2E/DX2                !
 ! R16   R(15,17)                1.0947         estimate D2E/DX2                !
 ! R17   R(15,18)                1.0943         estimate D2E/DX2                !
 ! R18   R(15,19)                1.5048         estimate D2E/DX2                !
 ! R19   R(19,20)                1.5049         estimate D2E/DX2                !
 ! R20   R(19,24)                1.3457         estimate D2E/DX2                !
 ! R21   R(20,21)                1.0959         estimate D2E/DX2                !
 ! R22   R(20,22)                1.0941         estimate D2E/DX2                !
 ! R23   R(20,23)                1.0936         estimate D2E/DX2                !
 ! R24   R(24,25)                1.0887         estimate D2E/DX2                !
 ! R25   R(24,26)                1.506          estimate D2E/DX2                !
 ! R26   R(26,27)                1.0963         estimate D2E/DX2                !
 ! R27   R(26,28)                1.0973         estimate D2E/DX2                !
 ! A1    A(2,1,3)              105.5474         estimate D2E/DX2                !
 ! A2    A(2,1,4)              109.1452         estimate D2E/DX2                !
 ! A3    A(2,1,26)             110.1743         estimate D2E/DX2                !
 ! A4    A(3,1,4)              109.4961         estimate D2E/DX2                !
 ! A5    A(3,1,26)             109.0556         estimate D2E/DX2                !
 ! A6    A(4,1,26)             113.1414         estimate D2E/DX2                !
 ! A7    A(1,4,5)              115.6708         estimate D2E/DX2                !
 ! A8    A(1,4,9)              120.5353         estimate D2E/DX2                !
 ! A9    A(5,4,9)              123.793          estimate D2E/DX2                !
 ! A10   A(4,5,6)              112.2518         estimate D2E/DX2                !
 ! A11   A(4,5,7)              111.1199         estimate D2E/DX2                !
 ! A12   A(4,5,8)              110.3028         estimate D2E/DX2                !
 ! A13   A(6,5,7)              105.8663         estimate D2E/DX2                !
 ! A14   A(6,5,8)              108.9647         estimate D2E/DX2                !
 ! A15   A(7,5,8)              108.1569         estimate D2E/DX2                !
 ! A16   A(4,9,10)             118.5264         estimate D2E/DX2                !
 ! A17   A(4,9,11)             127.521          estimate D2E/DX2                !
 ! A18   A(10,9,11)            113.9315         estimate D2E/DX2                !
 ! A19   A(9,11,12)            113.5973         estimate D2E/DX2                !
 ! A20   A(9,11,13)            109.3541         estimate D2E/DX2                !
 ! A21   A(9,11,14)            109.7641         estimate D2E/DX2                !
 ! A22   A(12,11,13)           107.5114         estimate D2E/DX2                !
 ! A23   A(12,11,14)           108.2524         estimate D2E/DX2                !
 ! A24   A(13,11,14)           108.2071         estimate D2E/DX2                !
 ! A25   A(16,15,17)           107.6212         estimate D2E/DX2                !
 ! A26   A(16,15,18)           107.8187         estimate D2E/DX2                !
 ! A27   A(16,15,19)           112.1929         estimate D2E/DX2                !
 ! A28   A(17,15,18)           108.5604         estimate D2E/DX2                !
 ! A29   A(17,15,19)           110.2149         estimate D2E/DX2                !
 ! A30   A(18,15,19)           110.3111         estimate D2E/DX2                !
 ! A31   A(15,19,20)           115.0762         estimate D2E/DX2                !
 ! A32   A(15,19,24)           121.228          estimate D2E/DX2                !
 ! A33   A(20,19,24)           123.6901         estimate D2E/DX2                !
 ! A34   A(19,20,21)           112.227          estimate D2E/DX2                !
 ! A35   A(19,20,22)           110.7164         estimate D2E/DX2                !
 ! A36   A(19,20,23)           110.2932         estimate D2E/DX2                !
 ! A37   A(21,20,22)           106.3253         estimate D2E/DX2                !
 ! A38   A(21,20,23)           108.6289         estimate D2E/DX2                !
 ! A39   A(22,20,23)           108.4992         estimate D2E/DX2                !
 ! A40   A(19,24,25)           119.2432         estimate D2E/DX2                !
 ! A41   A(19,24,26)           125.7636         estimate D2E/DX2                !
 ! A42   A(25,24,26)           114.9777         estimate D2E/DX2                !
 ! A43   A(1,26,24)            111.6028         estimate D2E/DX2                !
 ! A44   A(1,26,27)            110.553          estimate D2E/DX2                !
 ! A45   A(1,26,28)            110.3802         estimate D2E/DX2                !
 ! A46   A(24,26,27)           110.576          estimate D2E/DX2                !
 ! A47   A(24,26,28)           107.86           estimate D2E/DX2                !
 ! A48   A(27,26,28)           105.6687         estimate D2E/DX2                !
 ! D1    D(2,1,4,5)            119.8558         estimate D2E/DX2                !
 ! D2    D(2,1,4,9)            -59.8097         estimate D2E/DX2                !
 ! D3    D(3,1,4,5)              4.775          estimate D2E/DX2                !
 ! D4    D(3,1,4,9)           -174.8906         estimate D2E/DX2                !
 ! D5    D(26,1,4,5)          -117.093          estimate D2E/DX2                !
 ! D6    D(26,1,4,9)            63.2415         estimate D2E/DX2                !
 ! D7    D(2,1,26,24)          -64.1025         estimate D2E/DX2                !
 ! D8    D(2,1,26,27)          172.3817         estimate D2E/DX2                !
 ! D9    D(2,1,26,28)           55.8313         estimate D2E/DX2                !
 ! D10   D(3,1,26,24)           51.3029         estimate D2E/DX2                !
 ! D11   D(3,1,26,27)          -72.2129         estimate D2E/DX2                !
 ! D12   D(3,1,26,28)          171.2367         estimate D2E/DX2                !
 ! D13   D(4,1,26,24)          173.4175         estimate D2E/DX2                !
 ! D14   D(4,1,26,27)           49.9017         estimate D2E/DX2                !
 ! D15   D(4,1,26,28)          -66.6487         estimate D2E/DX2                !
 ! D16   D(1,4,5,6)           -149.1086         estimate D2E/DX2                !
 ! D17   D(1,4,5,7)            -30.7686         estimate D2E/DX2                !
 ! D18   D(1,4,5,8)             89.1715         estimate D2E/DX2                !
 ! D19   D(9,4,5,6)             30.5448         estimate D2E/DX2                !
 ! D20   D(9,4,5,7)            148.8848         estimate D2E/DX2                !
 ! D21   D(9,4,5,8)            -91.1752         estimate D2E/DX2                !
 ! D22   D(1,4,9,10)             0.8358         estimate D2E/DX2                !
 ! D23   D(1,4,9,11)          -177.3803         estimate D2E/DX2                !
 ! D24   D(5,4,9,10)          -178.8015         estimate D2E/DX2                !
 ! D25   D(5,4,9,11)             2.9824         estimate D2E/DX2                !
 ! D26   D(4,9,11,12)            0.4863         estimate D2E/DX2                !
 ! D27   D(4,9,11,13)          120.5829         estimate D2E/DX2                !
 ! D28   D(4,9,11,14)         -120.8552         estimate D2E/DX2                !
 ! D29   D(10,9,11,12)        -177.799          estimate D2E/DX2                !
 ! D30   D(10,9,11,13)         -57.7024         estimate D2E/DX2                !
 ! D31   D(10,9,11,14)          60.8595         estimate D2E/DX2                !
 ! D32   D(16,15,19,20)       -178.1523         estimate D2E/DX2                !
 ! D33   D(16,15,19,24)          2.6825         estimate D2E/DX2                !
 ! D34   D(17,15,19,20)        -58.2436         estimate D2E/DX2                !
 ! D35   D(17,15,19,24)        122.5912         estimate D2E/DX2                !
 ! D36   D(18,15,19,20)         61.6227         estimate D2E/DX2                !
 ! D37   D(18,15,19,24)       -117.5425         estimate D2E/DX2                !
 ! D38   D(15,19,20,21)       -152.2094         estimate D2E/DX2                !
 ! D39   D(15,19,20,22)        -33.5768         estimate D2E/DX2                !
 ! D40   D(15,19,20,23)         86.5239         estimate D2E/DX2                !
 ! D41   D(24,19,20,21)         26.9326         estimate D2E/DX2                !
 ! D42   D(24,19,20,22)        145.5653         estimate D2E/DX2                !
 ! D43   D(24,19,20,23)        -94.3341         estimate D2E/DX2                !
 ! D44   D(15,19,24,25)          0.6509         estimate D2E/DX2                !
 ! D45   D(15,19,24,26)       -177.8443         estimate D2E/DX2                !
 ! D46   D(20,19,24,25)       -178.4403         estimate D2E/DX2                !
 ! D47   D(20,19,24,26)          3.0645         estimate D2E/DX2                !
 ! D48   D(19,24,26,1)         -92.9933         estimate D2E/DX2                !
 ! D49   D(19,24,26,27)         30.5095         estimate D2E/DX2                !
 ! D50   D(19,24,26,28)        145.5996         estimate D2E/DX2                !
 ! D51   D(25,24,26,1)          88.4552         estimate D2E/DX2                !
 ! D52   D(25,24,26,27)       -148.042          estimate D2E/DX2                !
 ! D53   D(25,24,26,28)        -32.9519         estimate D2E/DX2                !
 --------------------------------------------------------------------------------
 Trust Radius=3.00D-01 FncErr=1.00D-07 GrdErr=1.00D-07 EigMax=2.50D+02 EigMin=1.00D-04
 Number of steps in this run=    138 maximum allowed number of steps=    168.
 GradGradGradGradGradGradGradGradGradGradGradGradGradGradGradGradGradGrad

 Leave Link  103 at Fri Sep 17 20:09:25 2021, MaxMem=   524288000 cpu:               0.0 elap:               0.1
 (Enter /opt/gaussian/g16_legacy/l202.exe)
                          Input orientation:                          
 ---------------------------------------------------------------------
 Center     Atomic      Atomic             Coordinates (Angstroms)
 Number     Number       Type             X           Y           Z
 ---------------------------------------------------------------------
      1          6           0        2.160500    1.185600   -8.949000
      2          1           0        1.886600    0.151300   -9.195100
      3          1           0        1.976300    1.764200   -9.863300
      4          6           0        3.637900    1.240700   -8.603500
      5          6           0        4.479000    2.129800   -9.478200
      6          1           0        5.505200    1.763000   -9.576900
      7          1           0        4.077800    2.175200  -10.496900
      8          1           0        4.502100    3.146800   -9.075200
      9          6           0        4.128400    0.519100   -7.575600
     10          1           0        3.444000   -0.112700   -7.009900
     11          6           0        5.534700    0.497100   -7.067400
     12          1           0        6.207500    1.160900   -7.614200
     13          1           0        5.546100    0.808200   -6.018000
     14          1           0        5.933600   -0.519700   -7.126800
     15          6           0       -2.244900    2.857700   -9.152800
     16          1           0       -2.723200    1.909100   -8.886200
     17          1           0       -2.774500    3.656200   -8.623300
     18          1           0       -2.375000    3.007500  -10.229000
     19          6           0       -0.783200    2.877400   -8.795600
     20          6           0       -0.070900    4.168900   -9.094600
     21          1           0        0.996700    4.017800   -9.290400
     22          1           0       -0.484300    4.640300   -9.991200
     23          1           0       -0.177500    4.863600   -8.256800
     24          6           0       -0.180000    1.797700   -8.265100
     25          1           0       -0.760000    0.890900   -8.102000
     26          6           0        1.259300    1.719100   -7.828800
     27          1           0        1.611700    2.698600   -7.484900
     28          1           0        1.309700    1.061400   -6.951900
 ---------------------------------------------------------------------
                    Distance matrix (angstroms):
                    1          2          3          4          5
     1  C    0.000000
     2  H    1.097890   0.000000
     3  H    1.097566   1.748137   0.000000
     4  C    1.518261   2.145655   2.149898   0.000000
     5  C    2.558712   3.273400   2.558412   1.504343   0.000000
     6  H    3.451763   3.979650   3.540503   2.169588   1.094244
     7  H    2.655436   3.254568   2.233086   2.156795   1.095798
     8  H    3.057012   3.978472   2.985356   2.145358   1.094181
     9  C    2.490598   2.789933   3.378665   1.348286   2.517372
    10  H    2.663281   2.696347   3.717363   2.099726   3.491781
    11  C    3.924242   4.237372   4.699448   2.551547   3.097123
    12  H    4.261515   4.710490   4.829645   2.754619   2.720473
    13  H    4.493938   4.890544   5.333267   3.242390   3.854648
    14  H    4.523798   4.594161   5.325867   3.248059   3.829464
    15  C    4.716461   4.939199   4.418041   6.125664   6.771008
    16  H    4.937400   4.943231   4.802189   6.402364   7.229859
    17  H    5.528487   5.859789   5.261878   6.852292   7.461502
    18  H    5.052572   5.233361   4.540192   6.474473   6.950638
    19  C    3.398689   3.836542   3.161335   4.718243   5.358694
    20  C    3.728327   4.470237   3.250309   4.750866   5.000667
    21  H    3.080964   3.968731   2.523201   3.893591   3.965631
    22  H    4.473936   5.138683   3.787197   5.520464   5.585707
    23  H    4.412830   5.229406   4.101948   5.272844   5.536106
    24  C    2.514026   2.801137   2.684212   3.873128   4.825783
    25  H    3.055090   2.957426   3.369298   4.440201   5.556611
    26  C    1.533503   2.172160   2.157617   2.546913   3.640833
    27  H    2.175762   3.080437   2.581244   2.735366   3.538105
    28  H    2.174326   2.488582   3.068311   2.860148   4.191436
                    6          7          8          9         10
     6  H    0.000000
     7  H    1.747507   0.000000
     8  H    1.781240   1.773490   0.000000
     9  C    2.729115   3.358455   3.048485   0.000000
    10  H    3.788969   4.218454   4.001172   1.089767   0.000000
    11  C    2.810865   4.086569   3.481154   1.495470   2.178575
    12  H    2.169779   3.724834   2.997784   2.176248   3.102284
    13  H    3.684981   4.907661   3.988165   2.125928   2.500149
    14  H    3.375979   4.697239   4.391888   2.130557   2.525356
    15  C    7.838513   6.499919   6.753637   6.969617   6.766009
    16  H    8.258631   6.994195   7.332979   7.112960   6.755926
    17  H    8.546753   7.256566   7.308393   7.654352   7.448316
    18  H    8.004472   6.511768   6.974608   7.451636   7.345680
    19  C    6.433995   5.197771   5.299542   5.583350   5.477102
    20  C    6.092115   4.811756   4.685872   5.767367   5.918834
    21  H    5.049037   3.787347   3.618395   4.998898   5.315166
    22  H    6.657673   5.210106   5.285242   6.640513   6.849139
    23  H    6.606774   5.509367   5.051320   6.154631   6.279617
    24  C    5.834683   4.822064   4.939473   4.546706   4.284686
    25  H    6.495277   5.548809   5.807400   4.930698   4.457972
    26  C    4.591889   3.907778   3.756007   3.120232   2.966311
    27  H    4.517870   3.927816   3.329317   3.330499   3.389153
    28  H    4.998509   4.633568   4.364483   2.937373   2.436619
                   11         12         13         14         15
    11  C    0.000000
    12  H    1.091916   0.000000
    13  H    1.094602   1.763435   0.000000
    14  H    1.093861   1.771157   1.772826   0.000000
    15  C    8.393063   8.757253   8.644484   9.077410   0.000000
    16  H    8.572904   9.051806   8.821557   9.161591   1.095303
    17  H    9.024608   9.376627   9.172299   9.772853   1.094737
    18  H    8.880382   9.160045   9.236518   9.544507   1.094337
    19  C    6.969101   7.294653   7.215032   7.709772   1.504841
    20  C    7.001029   7.117440   7.232597   7.868242   2.539470
    21  H    6.158774   6.174460   6.458109   7.045783   3.445684
    22  H    7.870392   7.908005   8.175392   8.718935   2.642024
    23  H    7.287676   7.408856   7.363294   8.222066   3.016719
    24  C    5.981960   6.452080   6.230312   6.636428   2.485040
    25  H    6.391301   6.989771   6.642047   6.909782   2.679069
    26  C    4.511326   4.984207   4.741876   5.230116   3.915202
    27  H    4.517835   4.847950   4.604879   5.400418   4.204827
    28  H    4.264083   4.943378   4.345499   4.889879   4.550367
                   16         17         18         19         20
    16  H    0.000000
    17  H    1.767514   0.000000
    18  H    1.769417   1.777269   0.000000
    19  C    2.170118   2.145109   2.146017   0.000000
    20  C    3.490676   2.791852   2.818615   1.504907   0.000000
    21  H    4.295073   3.846781   3.642806   2.171033   1.095873
    22  H    3.700426   2.843346   2.509448   2.150957   1.094079
    23  H    3.950418   2.887308   3.487648   2.145267   1.093563
    24  C    2.620313   3.211504   3.184108   1.345746   2.514471
    25  H    2.346456   3.460758   3.407690   2.104234   3.493622
    26  C    4.124864   4.544791   4.541924   2.539324   3.061569
    27  H    4.623668   4.631598   4.849668   2.735955   2.753917
    28  H    4.552405   5.119302   5.301293   3.328260   4.019176
                   21         22         23         24         25
    21  H    0.000000
    22  H    1.752709   0.000000
    23  H    1.778328   1.775425   0.000000
    24  C    2.713799   3.339520   3.065912   0.000000
    25  H    3.778332   4.207504   4.018161   1.088709   0.000000
    26  C    2.736650   4.031070   3.483598   1.506028   2.199574
    27  H    2.319126   3.800652   2.912781   2.151865   3.045251
    28  H    3.782440   5.026361   4.286170   2.117980   2.373912
                   26         27         28
    26  C    0.000000
    27  H    1.096300   0.000000
    28  H    1.097298   1.748061   0.000000
 Stoichiometry    C10H18
 Framework group  C1[X(C10H18)]
 Deg. of freedom    78
 Full point group                 C1      NOp   1
 Largest Abelian subgroup         C1      NOp   1
 Largest concise Abelian subgroup C1      NOp   1
                         Standard orientation:                         
 ---------------------------------------------------------------------
 Center     Atomic      Atomic             Coordinates (Angstroms)
 Number     Number       Type             X           Y           Z
 ---------------------------------------------------------------------
      1          6           0        0.501775   -0.137508   -0.788074
      2          1           0        0.549153   -0.824047   -1.643517
      3          1           0       -0.004755    0.762120   -1.160565
      4          6           0        1.913222    0.217877   -0.356060
      5          6           0        2.264842    1.679288   -0.416787
      6          1           0        3.325403    1.841721   -0.631722
      7          1           0        1.715730    2.184498   -1.219290
      8          1           0        2.014488    2.169630    0.528792
      9          6           0        2.769933   -0.743593    0.043311
     10          1           0        2.430549   -1.779135    0.035306
     11          6           0        4.166300   -0.566744    0.548596
     12          1           0        4.487314    0.476091    0.590145
     13          1           0        4.239860   -0.974614    1.561702
     14          1           0        4.863580   -1.114595   -0.091867
     15          6           0       -4.182275   -0.386257   -0.295329
     16          1           0       -4.272526   -1.393943   -0.714987
     17          1           0       -4.855039   -0.324527    0.566080
     18          1           0       -4.522563    0.324460   -1.054710
     19          6           0       -2.771920   -0.068772    0.122578
     20          6           0       -2.582079    1.286236    0.749202
     21          1           0       -1.569448    1.675913    0.595358
     22          1           0       -3.263791    2.017282    0.304398
     23          1           0       -2.778254    1.237938    1.823941
     24          6           0       -1.770673   -0.945247   -0.078241
     25          1           0       -1.985698   -1.896718   -0.561724
     26          6           0       -0.336265   -0.753627    0.338743
     27          1           0       -0.277074   -0.137375    1.243510
     28          1           0        0.065917   -1.734622    0.621517
 ---------------------------------------------------------------------
 Rotational constants (GHZ):           3.1060630           0.4832990           0.4488206
 Leave Link  202 at Fri Sep 17 20:09:25 2021, MaxMem=   524288000 cpu:               0.0 elap:               0.1
 (Enter /opt/gaussian/g16_legacy/l301.exe)
 Standard basis: 6-31G(d,p) (6D, 7F)
 Ernie: Thresh=  0.10000D-02 Tol=  0.10000D-05 Strict=F.
 There are   240 symmetry adapted cartesian basis functions of A   symmetry.
 There are   240 symmetry adapted basis functions of A   symmetry.
   240 basis functions,   406 primitive gaussians,   240 cartesian basis functions
    39 alpha electrons       39 beta electrons
       nuclear repulsion energy       512.1858071438 Hartrees.
 IExCor=    0 DFT=F Ex=HF Corr=None ExCW=0 ScaHFX=  1.000000
 ScaDFX=  1.000000  1.000000  1.000000  1.000000 ScalE2=  1.000000  1.000000
 IRadAn=      5 IRanWt=     -1 IRanGd=            0 ICorTp=0 IEmpDi=  4
 NAtoms=   28 NActive=   28 NUniq=   28 SFac= 1.00D+00 NAtFMM=   60 NAOKFM=F Big=F
 Integral buffers will be    131072 words long.
 Raffenetti 1 integral format.
 Two-electron integral symmetry is turned on.
 Leave Link  301 at Fri Sep 17 20:09:26 2021, MaxMem=   524288000 cpu:               0.1 elap:               0.1
 (Enter /opt/gaussian/g16_legacy/l302.exe)
 NPDir=0 NMtPBC=     1 NCelOv=     1 NCel=       1 NClECP=     1 NCelD=      1
         NCelK=      1 NCelE2=     1 NClLst=     1 CellRange=     0.0.
 One-electron integrals computed using PRISM.
 One-electron integral symmetry used in STVInt
 NBasis=   240 RedAO= T EigKep=  2.33D-03  NBF=   240
 NBsUse=   240 1.00D-06 EigRej= -1.00D+00 NBFU=   240
 Leave Link  302 at Fri Sep 17 20:09:26 2021, MaxMem=   524288000 cpu:               0.2 elap:               0.3
 (Enter /opt/gaussian/g16_legacy/l303.exe)
 DipDrv:  MaxL=1.
 Leave Link  303 at Fri Sep 17 20:09:26 2021, MaxMem=   524288000 cpu:               0.0 elap:               0.2
 (Enter /opt/gaussian/g16_legacy/l401.exe)
 ExpMin= 1.61D-01 ExpMax= 3.05D+03 ExpMxC= 4.57D+02 IAcc=3 IRadAn=         5 AccDes= 0.00D+00
 Harris functional with IExCor=  205 and IRadAn=       5 diagonalized for initial guess.
 HarFok:  IExCor=  205 AccDes= 0.00D+00 IRadAn=         5 IDoV= 1 UseB2=F ITyADJ=14
 ICtDFT=  3500011 ScaDFX=  1.000000  1.000000  1.000000  1.000000
 FoFCou: FMM=F IPFlag=           0 FMFlag=      100000 FMFlg1=           0
         NFxFlg=           0 DoJE=T BraDBF=F KetDBF=T FulRan=T
         wScrn=  0.000000 ICntrl=       500 IOpCl=  0 I1Cent=   200000004 NGrid=           0
         NMat0=    1 NMatS0=      1 NMatT0=    0 NMatD0=    1 NMtDS0=    0 NMtDT0=    0
 Petite list used in FoFCou.
 Harris En= -390.107283164707    
 JPrj=0 DoOrth=F DoCkMO=F.
 Leave Link  401 at Fri Sep 17 20:09:33 2021, MaxMem=   524288000 cpu:               6.1 elap:               6.3
 (Enter /opt/gaussian/g16_legacy/l502.exe)
 Keep R1 ints in memory in canonical form, NReq=425198025.
 FoFCou: FMM=F IPFlag=           0 FMFlag=           0 FMFlg1=           0
         NFxFlg=           0 DoJE=F BraDBF=F KetDBF=F FulRan=T
         wScrn=  0.000000 ICntrl=       600 IOpCl=  0 I1Cent=           0 NGrid=           0
         NMat0=    1 NMatS0=  28920 NMatT0=    0 NMatD0=    1 NMtDS0=    0 NMtDT0=    0
 Symmetry not used in FoFCou.
 Two-electron integral symmetry not used.
 Closed shell SCF:
 Using DIIS extrapolation, IDIIS=  1040.
 NGot=   524288000 LenX=   105970886 LenY=   105912845
 Requested convergence on RMS density matrix=1.00D-08 within 128 cycles.
 Requested convergence on MAX density matrix=1.00D-06.
 Requested convergence on             energy=1.00D-06.
 No special actions if energy rises.

 Cycle   1  Pass 1  IDiag  1:
 E= -388.525037546384    
 DIIS: error= 4.83D-02 at cycle   1 NSaved=   1.
 NSaved= 1 IEnMin= 1 EnMin= -388.525037546384     IErMin= 1 ErrMin= 4.83D-02
 ErrMax= 4.83D-02  0.00D+00 EMaxC= 1.00D-01 BMatC= 8.09D-01 BMatP= 8.09D-01
 IDIUse=3 WtCom= 5.17D-01 WtEn= 4.83D-01
 Coeff-Com:  0.100D+01
 Coeff-En:   0.100D+01
 Coeff:      0.100D+01
 Gap=     0.501 Goal=   None    Shift=    0.000
 GapD=    0.501 DampG=2.000 DampE=0.500 DampFc=1.0000 IDamp=-1.
 RMSDP=4.01D-03 MaxDP=1.16D-01              OVMax= 1.40D-01

 Cycle   2  Pass 1  IDiag  1:
 E= -389.067782027725     Delta-E=       -0.542744481341 Rises=F Damp=F
 DIIS: error= 1.20D-02 at cycle   2 NSaved=   2.
 NSaved= 2 IEnMin= 2 EnMin= -389.067782027725     IErMin= 2 ErrMin= 1.20D-02
 ErrMax= 1.20D-02  0.00D+00 EMaxC= 1.00D-01 BMatC= 8.67D-02 BMatP= 8.09D-01
 IDIUse=3 WtCom= 8.80D-01 WtEn= 1.20D-01
 Coeff-Com:  0.183D+00 0.817D+00
 Coeff-En:   0.000D+00 0.100D+01
 Coeff:      0.161D+00 0.839D+00
 Gap=     0.549 Goal=   None    Shift=    0.000
 RMSDP=1.62D-03 MaxDP=3.02D-02 DE=-5.43D-01 OVMax= 4.43D-02

 Cycle   3  Pass 1  IDiag  1:
 E= -389.145524996965     Delta-E=       -0.077742969240 Rises=F Damp=F
 DIIS: error= 2.74D-03 at cycle   3 NSaved=   3.
 NSaved= 3 IEnMin= 3 EnMin= -389.145524996965     IErMin= 3 ErrMin= 2.74D-03
 ErrMax= 2.74D-03  0.00D+00 EMaxC= 1.00D-01 BMatC= 2.83D-03 BMatP= 8.67D-02
 IDIUse=3 WtCom= 9.73D-01 WtEn= 2.74D-02
 Coeff-Com: -0.245D-01 0.967D-01 0.928D+00
 Coeff-En:   0.000D+00 0.000D+00 0.100D+01
 Coeff:     -0.239D-01 0.940D-01 0.930D+00
 Gap=     0.493 Goal=   None    Shift=    0.000
 RMSDP=2.48D-04 MaxDP=6.23D-03 DE=-7.77D-02 OVMax= 9.94D-03

 Cycle   4  Pass 1  IDiag  1:
 E= -389.148836194576     Delta-E=       -0.003311197612 Rises=F Damp=F
 DIIS: error= 5.08D-04 at cycle   4 NSaved=   4.
 NSaved= 4 IEnMin= 4 EnMin= -389.148836194576     IErMin= 4 ErrMin= 5.08D-04
 ErrMax= 5.08D-04  0.00D+00 EMaxC= 1.00D-01 BMatC= 8.44D-05 BMatP= 2.83D-03
 IDIUse=3 WtCom= 9.95D-01 WtEn= 5.08D-03
 Coeff-Com: -0.363D-02-0.447D-02 0.749D-01 0.933D+00
 Coeff-En:   0.000D+00 0.000D+00 0.000D+00 0.100D+01
 Coeff:     -0.361D-02-0.445D-02 0.745D-01 0.934D+00
 Gap=     0.494 Goal=   None    Shift=    0.000
 RMSDP=7.45D-05 MaxDP=1.54D-03 DE=-3.31D-03 OVMax= 3.16D-03

 Cycle   5  Pass 1  IDiag  1:
 E= -389.148953375991     Delta-E=       -0.000117181414 Rises=F Damp=F
 DIIS: error= 1.39D-04 at cycle   5 NSaved=   5.
 NSaved= 5 IEnMin= 5 EnMin= -389.148953375991     IErMin= 5 ErrMin= 1.39D-04
 ErrMax= 1.39D-04  0.00D+00 EMaxC= 1.00D-01 BMatC= 1.67D-05 BMatP= 8.44D-05
 IDIUse=3 WtCom= 9.99D-01 WtEn= 1.39D-03
 Coeff-Com:  0.234D-02-0.143D-01-0.101D+00 0.207D+00 0.906D+00
 Coeff-En:   0.000D+00 0.000D+00 0.000D+00 0.000D+00 0.100D+01
 Coeff:      0.234D-02-0.143D-01-0.101D+00 0.207D+00 0.906D+00
 Gap=     0.494 Goal=   None    Shift=    0.000
 RMSDP=2.92D-05 MaxDP=6.57D-04 DE=-1.17D-04 OVMax= 8.58D-04

 Cycle   6  Pass 1  IDiag  1:
 E= -389.148974993925     Delta-E=       -0.000021617935 Rises=F Damp=F
 DIIS: error= 3.08D-05 at cycle   6 NSaved=   6.
 NSaved= 6 IEnMin= 6 EnMin= -389.148974993925     IErMin= 6 ErrMin= 3.08D-05
 ErrMax= 3.08D-05  0.00D+00 EMaxC= 1.00D-01 BMatC= 6.00D-07 BMatP= 1.67D-05
 IDIUse=1 WtCom= 1.00D+00 WtEn= 0.00D+00
 Coeff-Com:  0.724D-03-0.310D-02-0.263D-01-0.594D-02 0.170D+00 0.864D+00
 Coeff:      0.724D-03-0.310D-02-0.263D-01-0.594D-02 0.170D+00 0.864D+00
 Gap=     0.494 Goal=   None    Shift=    0.000
 RMSDP=5.69D-06 MaxDP=1.45D-04 DE=-2.16D-05 OVMax= 3.37D-04

 Cycle   7  Pass 1  IDiag  1:
 E= -389.148975967297     Delta-E=       -0.000000973371 Rises=F Damp=F
 DIIS: error= 1.06D-05 at cycle   7 NSaved=   7.
 NSaved= 7 IEnMin= 7 EnMin= -389.148975967297     IErMin= 7 ErrMin= 1.06D-05
 ErrMax= 1.06D-05  0.00D+00 EMaxC= 1.00D-01 BMatC= 5.31D-08 BMatP= 6.00D-07
 IDIUse=1 WtCom= 1.00D+00 WtEn= 0.00D+00
 Coeff-Com: -0.617D-04 0.472D-03 0.344D-02-0.967D-02-0.498D-01 0.102D+00
 Coeff-Com:  0.953D+00
 Coeff:     -0.617D-04 0.472D-03 0.344D-02-0.967D-02-0.498D-01 0.102D+00
 Coeff:      0.953D+00
 Gap=     0.494 Goal=   None    Shift=    0.000
 RMSDP=1.77D-06 MaxDP=3.98D-05 DE=-9.73D-07 OVMax= 8.75D-05

 Cycle   8  Pass 1  IDiag  1:
 E= -389.148976061206     Delta-E=       -0.000000093909 Rises=F Damp=F
 DIIS: error= 3.32D-06 at cycle   8 NSaved=   8.
 NSaved= 8 IEnMin= 8 EnMin= -389.148976061206     IErMin= 8 ErrMin= 3.32D-06
 ErrMax= 3.32D-06  0.00D+00 EMaxC= 1.00D-01 BMatC= 6.21D-09 BMatP= 5.31D-08
 IDIUse=1 WtCom= 1.00D+00 WtEn= 0.00D+00
 Coeff-Com: -0.674D-04 0.276D-03 0.247D-02 0.310D-02-0.217D-01-0.768D-01
 Coeff-Com: -0.824D-01 0.118D+01
 Coeff:     -0.674D-04 0.276D-03 0.247D-02 0.310D-02-0.217D-01-0.768D-01
 Coeff:     -0.824D-01 0.118D+01
 Gap=     0.494 Goal=   None    Shift=    0.000
 RMSDP=8.08D-07 MaxDP=2.31D-05 DE=-9.39D-08 OVMax= 6.48D-05

 Cycle   9  Pass 1  IDiag  1:
 E= -389.148976079492     Delta-E=       -0.000000018286 Rises=F Damp=F
 DIIS: error= 1.24D-06 at cycle   9 NSaved=   9.
 NSaved= 9 IEnMin= 9 EnMin= -389.148976079492     IErMin= 9 ErrMin= 1.24D-06
 ErrMax= 1.24D-06  0.00D+00 EMaxC= 1.00D-01 BMatC= 9.65D-10 BMatP= 6.21D-09
 IDIUse=1 WtCom= 1.00D+00 WtEn= 0.00D+00
 Coeff-Com:  0.154D-04-0.936D-04-0.735D-03 0.161D-02 0.552D-02 0.734D-02
 Coeff-Com: -0.109D+00-0.180D+00 0.128D+01
 Coeff:      0.154D-04-0.936D-04-0.735D-03 0.161D-02 0.552D-02 0.734D-02
 Coeff:     -0.109D+00-0.180D+00 0.128D+01
 Gap=     0.494 Goal=   None    Shift=    0.000
 RMSDP=3.73D-07 MaxDP=1.06D-05 DE=-1.83D-08 OVMax= 3.06D-05

 Cycle  10  Pass 1  IDiag  1:
 E= -389.148976082552     Delta-E=       -0.000000003060 Rises=F Damp=F
 DIIS: error= 3.24D-07 at cycle  10 NSaved=  10.
 NSaved=10 IEnMin=10 EnMin= -389.148976082552     IErMin=10 ErrMin= 3.24D-07
 ErrMax= 3.24D-07  0.00D+00 EMaxC= 1.00D-01 BMatC= 8.70D-11 BMatP= 9.65D-10
 IDIUse=1 WtCom= 1.00D+00 WtEn= 0.00D+00
 Coeff-Com:  0.712D-05-0.305D-04-0.267D-03-0.198D-03 0.149D-02 0.111D-01
 Coeff-Com:  0.113D-01-0.139D+00-0.267D-01 0.114D+01
 Coeff:      0.712D-05-0.305D-04-0.267D-03-0.198D-03 0.149D-02 0.111D-01
 Coeff:      0.113D-01-0.139D+00-0.267D-01 0.114D+01
 Gap=     0.494 Goal=   None    Shift=    0.000
 RMSDP=1.15D-07 MaxDP=3.09D-06 DE=-3.06D-09 OVMax= 9.27D-06

 Cycle  11  Pass 1  IDiag  1:
 E= -389.148976082826     Delta-E=       -0.000000000273 Rises=F Damp=F
 DIIS: error= 9.97D-08 at cycle  11 NSaved=  11.
 NSaved=11 IEnMin=11 EnMin= -389.148976082826     IErMin=11 ErrMin= 9.97D-08
 ErrMax= 9.97D-08  0.00D+00 EMaxC= 1.00D-01 BMatC= 5.86D-12 BMatP= 8.70D-11
 IDIUse=1 WtCom= 1.00D+00 WtEn= 0.00D+00
 Coeff-Com: -0.903D-06 0.634D-05 0.503D-04-0.120D-03-0.579D-03 0.357D-03
 Coeff-Com:  0.102D-01 0.821D-02-0.113D+00 0.641D-01 0.103D+01
 Coeff:     -0.903D-06 0.634D-05 0.503D-04-0.120D-03-0.579D-03 0.357D-03
 Coeff:      0.102D-01 0.821D-02-0.113D+00 0.641D-01 0.103D+01
 Gap=     0.494 Goal=   None    Shift=    0.000
 RMSDP=2.54D-08 MaxDP=7.58D-07 DE=-2.73D-10 OVMax= 2.00D-06

 Cycle  12  Pass 1  IDiag  1:
 E= -389.148976082831     Delta-E=       -0.000000000005 Rises=F Damp=F
 DIIS: error= 2.81D-08 at cycle  12 NSaved=  12.
 NSaved=12 IEnMin=12 EnMin= -389.148976082831     IErMin=12 ErrMin= 2.81D-08
 ErrMax= 2.81D-08  0.00D+00 EMaxC= 1.00D-01 BMatC= 4.64D-13 BMatP= 5.86D-12
 IDIUse=1 WtCom= 1.00D+00 WtEn= 0.00D+00
 Coeff-Com: -0.665D-06 0.317D-05 0.271D-04 0.143D-04-0.200D-03-0.915D-03
 Coeff-Com: -0.456D-03 0.129D-01-0.618D-02-0.101D+00 0.605D-01 0.104D+01
 Coeff:     -0.665D-06 0.317D-05 0.271D-04 0.143D-04-0.200D-03-0.915D-03
 Coeff:     -0.456D-03 0.129D-01-0.618D-02-0.101D+00 0.605D-01 0.104D+01
 Gap=     0.494 Goal=   None    Shift=    0.000
 RMSDP=7.83D-09 MaxDP=2.62D-07 DE=-5.23D-12 OVMax= 5.27D-07

 SCF Done:  E(RHF) =  -389.148976083     A.U. after   12 cycles
            NFock= 12  Conv=0.78D-08     -V/T= 2.0013
 KE= 3.886508383412D+02 PE=-1.929118998442D+03 EE= 6.391333768739D+02
 Leave Link  502 at Fri Sep 17 20:09:55 2021, MaxMem=   524288000 cpu:              21.7 elap:              21.9
 (Enter /opt/gaussian/g16_legacy/l801.exe)
 ExpMin= 1.61D-01 ExpMax= 3.05D+03 ExpMxC= 4.57D+02 IAcc=3 IRadAn=         5 AccDes= 0.00D+00
 HarFok:  IExCor=  205 AccDes= 0.00D+00 IRadAn=         5 IDoV=-2 UseB2=F ITyADJ=14
 ICtDFT= 12500011 ScaDFX=  1.000000  1.000000  1.000000  1.000000
 Largest valence mixing into a core orbital is  1.98D-04
 Largest core mixing into a valence orbital is  3.51D-05
 Range of M.O.s used for correlation:    11   240
 NBasis=   240 NAE=    39 NBE=    39 NFC=    10 NFV=     0
 NROrb=    230 NOA=    29 NOB=    29 NVA=   201 NVB=   201
 Leave Link  801 at Fri Sep 17 20:09:56 2021, MaxMem=   524288000 cpu:               1.0 elap:               1.2
 (Enter /opt/gaussian/g16_legacy/l906.exe)
 Frozen-core derivative calculation, NFC=  10 NFV=   0.
 FulOut=F Deriv=T AODrv=T NAtomX=    28
   MMem=          90  MDisk=          29 MDiskD=          29
  W3Min=     2246400 MinDsk=     2795480 NBas6D=         240
 NBas2D=       29244    NTT=       28920    LW2=     2040000
    MDV=   523631781 MDiskM=       30187 NBas2p=       23841
 Fully direct method using O(ONN) memory.
 IMap=   1   2   3   4   5   6   7   8   9  10  11  12  13  14  15  16  17  18  19  20
 IMap=  21  22  23  24  25  26  27  28  29  30  31  32  33  34  35  36  37  38  39
 JobTyp=1 Pass  1:  I=  11 to  39 NPSUse=  1 ParTrn=F ParDer=F DoDerP=T.
 Spin components of T(2) and E(2):
     alpha-alpha T2 =       0.5710082203D-01 E2=     -0.1637927770D+00
     alpha-beta  T2 =       0.3620911326D+00 E2=     -0.1089893340D+01
     beta-beta   T2 =       0.5710082203D-01 E2=     -0.1637927770D+00
 The integrals were generated   1 times.
 ANorm=    0.1215027891D+01
 E2 =    -0.1417478894D+01 EUMP2 =    -0.39056645497697D+03
 Leave Link  906 at Fri Sep 17 20:12:40 2021, MaxMem=   524288000 cpu:             163.9 elap:             164.0
 (Enter /opt/gaussian/g16_legacy/l1002.exe)
 Minotr:  Closed shell wavefunction.
          Computing MP2/KS-MP2 derivatives.
          Using Z-Vector for PSCF gradient.
          Skipping F1 and S1 gradient terms here.
          IDoAtm=1111111111111111111111111111
          Frozen-core window.
          Direct CPHF calculation.
          Differentiating once with respect to electric field.
                with respect to dipole field.
          Differentiating once with respect to nuclear coordinates.
          Requested convergence is 1.0D-10 RMS, and 1.0D-09 maximum.
          NewPWx=F KeepS1=T KeepF1=T KeepIn=T MapXYZ=F SortEE=F KeepMc=T.
 Keep R1 ints in memory in canonical form, NReq=425201067.
 FoFCou: FMM=F IPFlag=           0 FMFlag=           0 FMFlg1=           0
         NFxFlg=           0 DoJE=F BraDBF=F KetDBF=F FulRan=T
         wScrn=  0.000000 ICntrl=       600 IOpCl=  0 I1Cent=           0 NGrid=           0
         NMat0=    1 NMatS0=  28920 NMatT0=    0 NMatD0=    1 NMtDS0=    0 NMtDT0=    0
 Symmetry not used in FoFCou.
 Two-electron integral symmetry not used.
          MDV=     524288000 using IRadAn=       5.
          Solving linear equations separately, MaxMat=       0.
          There are     1 degrees of freedom in the 1st order CPHF.  IDoFFX=0 NUNeed=     1.
 LinEq1:  Iter=  0 NonCon=     1 RMS=2.54D-03 Max=3.59D-02 NDo=     1
 AX will form     1 AO Fock derivatives at one time.
 LinEq1:  Iter=  1 NonCon=     1 RMS=6.89D-04 Max=8.79D-03 NDo=     1
 LinEq1:  Iter=  2 NonCon=     1 RMS=1.67D-04 Max=4.79D-03 NDo=     1
 LinEq1:  Iter=  3 NonCon=     1 RMS=4.70D-05 Max=5.97D-04 NDo=     1
 LinEq1:  Iter=  4 NonCon=     1 RMS=2.19D-05 Max=9.77D-04 NDo=     1
 LinEq1:  Iter=  5 NonCon=     1 RMS=5.43D-06 Max=1.05D-04 NDo=     1
 LinEq1:  Iter=  6 NonCon=     1 RMS=1.56D-06 Max=2.17D-05 NDo=     1
 LinEq1:  Iter=  7 NonCon=     1 RMS=4.02D-07 Max=3.77D-06 NDo=     1
 LinEq1:  Iter=  8 NonCon=     1 RMS=1.00D-07 Max=1.78D-06 NDo=     1
 LinEq1:  Iter=  9 NonCon=     1 RMS=2.50D-08 Max=5.65D-07 NDo=     1
 LinEq1:  Iter= 10 NonCon=     1 RMS=8.95D-09 Max=2.12D-07 NDo=     1
 LinEq1:  Iter= 11 NonCon=     1 RMS=3.10D-09 Max=9.64D-08 NDo=     1
 LinEq1:  Iter= 12 NonCon=     1 RMS=9.37D-10 Max=1.49D-08 NDo=     1
 LinEq1:  Iter= 13 NonCon=     1 RMS=2.71D-10 Max=5.52D-09 NDo=     1
 LinEq1:  Iter= 14 NonCon=     0 RMS=6.68D-11 Max=9.68D-10 NDo=     1
 Linear equations converged to 1.000D-10 1.000D-09 after    14 iterations.
 End of Minotr F.D. properties file   721 does not exist.
 End of Minotr F.D. properties file   722 does not exist.
 End of Minotr F.D. properties file   788 does not exist.
 Leave Link 1002 at Fri Sep 17 20:12:58 2021, MaxMem=   524288000 cpu:              17.5 elap:              17.8
 (Enter /opt/gaussian/g16_legacy/l601.exe)
 Copying SCF densities to generalized density rwf, IOpCl= 0 IROHF=0.

 **********************************************************************

            Population analysis using the SCF density.

 **********************************************************************

 Orbital symmetries:
       Occupied  (A) (A) (A) (A) (A) (A) (A) (A) (A) (A) (A) (A)
                 (A) (A) (A) (A) (A) (A) (A) (A) (A) (A) (A) (A)
                 (A) (A) (A) (A) (A) (A) (A) (A) (A) (A) (A) (A)
                 (A) (A) (A)
       Virtual   (A) (A) (A) (A) (A) (A) (A) (A) (A) (A) (A) (A)
                 (A) (A) (A) (A) (A) (A) (A) (A) (A) (A) (A) (A)
                 (A) (A) (A) (A) (A) (A) (A) (A) (A) (A) (A) (A)
                 (A) (A) (A) (A) (A) (A) (A) (A) (A) (A) (A) (A)
                 (A) (A) (A) (A) (A) (A) (A) (A) (A) (A) (A) (A)
                 (A) (A) (A) (A) (A) (A) (A) (A) (A) (A) (A) (A)
                 (A) (A) (A) (A) (A) (A) (A) (A) (A) (A) (A) (A)
                 (A) (A) (A) (A) (A) (A) (A) (A) (A) (A) (A) (A)
                 (A) (A) (A) (A) (A) (A) (A) (A) (A) (A) (A) (A)
                 (A) (A) (A) (A) (A) (A) (A) (A) (A) (A) (A) (A)
                 (A) (A) (A) (A) (A) (A) (A) (A) (A) (A) (A) (A)
                 (A) (A) (A) (A) (A) (A) (A) (A) (A) (A) (A) (A)
                 (A) (A) (A) (A) (A) (A) (A) (A) (A) (A) (A) (A)
                 (A) (A) (A) (A) (A) (A) (A) (A) (A) (A) (A) (A)
                 (A) (A) (A) (A) (A) (A) (A) (A) (A) (A) (A) (A)
                 (A) (A) (A) (A) (A) (A) (A) (A) (A) (A) (A) (A)
                 (A) (A) (A) (A) (A) (A) (A) (A) (A)
 The electronic state is 1-A.
 Alpha  occ. eigenvalues --  -11.22795 -11.22446 -11.21773 -11.21714 -11.21641
 Alpha  occ. eigenvalues --  -11.21618 -11.21560 -11.21421 -11.21290 -11.21043
 Alpha  occ. eigenvalues --   -1.10502  -1.08248  -1.01791  -0.97522  -0.93580
 Alpha  occ. eigenvalues --   -0.92029  -0.86985  -0.82199  -0.69978  -0.69397
 Alpha  occ. eigenvalues --   -0.63740  -0.62595  -0.59814  -0.58903  -0.57951
 Alpha  occ. eigenvalues --   -0.56894  -0.55193  -0.54387  -0.53785  -0.52748
 Alpha  occ. eigenvalues --   -0.51434  -0.51322  -0.50240  -0.49640  -0.47450
 Alpha  occ. eigenvalues --   -0.46362  -0.43841  -0.32840  -0.31402
 Alpha virt. eigenvalues --    0.18041   0.19123   0.22788   0.24655   0.25760
 Alpha virt. eigenvalues --    0.27056   0.28122   0.28835   0.30432   0.30839
 Alpha virt. eigenvalues --    0.31286   0.32293   0.32795   0.33767   0.34054
 Alpha virt. eigenvalues --    0.34842   0.36615   0.36861   0.37773   0.39364
 Alpha virt. eigenvalues --    0.40553   0.42670   0.43569   0.45232   0.46250
 Alpha virt. eigenvalues --    0.52234   0.53288   0.58956   0.60472   0.69613
 Alpha virt. eigenvalues --    0.71108   0.72642   0.73944   0.76163   0.76740
 Alpha virt. eigenvalues --    0.78464   0.79304   0.79994   0.83064   0.83320
 Alpha virt. eigenvalues --    0.84617   0.86238   0.87218   0.90297   0.91160
 Alpha virt. eigenvalues --    0.93204   0.94587   0.95874   0.98370   0.99464
 Alpha virt. eigenvalues --    1.00461   1.01061   1.02648   1.04423   1.06708
 Alpha virt. eigenvalues --    1.07545   1.09447   1.10322   1.11874   1.12305
 Alpha virt. eigenvalues --    1.12720   1.13557   1.14643   1.14903   1.15424
 Alpha virt. eigenvalues --    1.16135   1.16416   1.17047   1.18046   1.19447
 Alpha virt. eigenvalues --    1.21216   1.21682   1.22992   1.24361   1.26225
 Alpha virt. eigenvalues --    1.28624   1.40326   1.41539   1.42668   1.44108
 Alpha virt. eigenvalues --    1.47487   1.53770   1.53972   1.57482   1.58971
 Alpha virt. eigenvalues --    1.61373   1.62954   1.67046   1.69304   1.71308
 Alpha virt. eigenvalues --    1.73500   1.81079   1.90940   1.93849   1.95141
 Alpha virt. eigenvalues --    1.98113   2.00242   2.04162   2.05787   2.07495
 Alpha virt. eigenvalues --    2.08762   2.10797   2.11252   2.12771   2.13982
 Alpha virt. eigenvalues --    2.15787   2.17587   2.20919   2.26049   2.28405
 Alpha virt. eigenvalues --    2.29428   2.29767   2.31736   2.35330   2.35733
 Alpha virt. eigenvalues --    2.36201   2.36684   2.39505   2.40308   2.40351
 Alpha virt. eigenvalues --    2.41183   2.41565   2.43849   2.44879   2.45504
 Alpha virt. eigenvalues --    2.47310   2.48182   2.49155   2.52229   2.54031
 Alpha virt. eigenvalues --    2.56460   2.57144   2.61855   2.62744   2.64498
 Alpha virt. eigenvalues --    2.66116   2.68348   2.70724   2.71413   2.73191
 Alpha virt. eigenvalues --    2.75852   2.76708   2.80470   2.81741   2.86383
 Alpha virt. eigenvalues --    2.87281   2.89599   2.90703   2.92008   2.95782
 Alpha virt. eigenvalues --    2.95913   2.99912   3.01617   3.03162   3.04299
 Alpha virt. eigenvalues --    3.05930   3.08025   3.10750   3.12090   3.13550
 Alpha virt. eigenvalues --    3.16387   3.17677   3.20874   3.21017   3.22097
 Alpha virt. eigenvalues --    3.22629   3.23923   3.25958   3.26737   3.37826
 Alpha virt. eigenvalues --    3.39026   3.44433   3.45984   3.55522   3.56291
 Alpha virt. eigenvalues --    3.59900   3.61351   3.65514   3.72665   3.78955
 Alpha virt. eigenvalues --    3.79545   3.79959   3.81332   3.81810   3.82337
 Alpha virt. eigenvalues --    3.82947   3.85617   3.86408   3.90164   3.91303
 Alpha virt. eigenvalues --    3.96018   4.59707   4.62641   4.74598   4.82488
 Alpha virt. eigenvalues --    4.89320   4.91772   4.92027   5.05048   5.10589
 Alpha virt. eigenvalues --    5.17215
          Condensed to atoms (all electrons):
               1          2          3          4          5          6
     1  C    4.999399   0.406026   0.417448   0.327044  -0.051090   0.003419
     2  H    0.406026   0.571508  -0.029669  -0.037075   0.002713  -0.000175
     3  H    0.417448  -0.029669   0.586669  -0.047188  -0.007047   0.000219
     4  C    0.327044  -0.037075  -0.047188   4.989585   0.344429  -0.040103
     5  C   -0.051090   0.002713  -0.007047   0.344429   4.906938   0.407277
     6  H    0.003419  -0.000175   0.000219  -0.040103   0.407277   0.570923
     7  H   -0.007326   0.000376   0.000141  -0.040435   0.405951  -0.030865
     8  H    0.002146  -0.000077   0.000505  -0.043593   0.398223  -0.026417
     9  C   -0.059140  -0.004596   0.003944   0.686441  -0.049975  -0.003406
    10  H   -0.004009   0.001113   0.000069  -0.041336   0.003337   0.000016
    11  C    0.002684  -0.000075  -0.000080  -0.046274  -0.007329  -0.002026
    12  H    0.000100   0.000002  -0.000000  -0.000751  -0.001644  -0.001070
    13  H   -0.000045  -0.000011   0.000002  -0.000274   0.000203  -0.000102
    14  H   -0.000135   0.000026   0.000002  -0.000794   0.000305   0.000264
    15  C   -0.000112   0.000003  -0.000065   0.000002  -0.000000   0.000000
    16  H   -0.000001   0.000001  -0.000002   0.000000  -0.000000  -0.000000
    17  H   -0.000005   0.000000   0.000002   0.000000  -0.000000   0.000000
    18  H    0.000024  -0.000001  -0.000004  -0.000000   0.000000  -0.000000
    19  C   -0.004557   0.000462   0.001759   0.000034  -0.000004  -0.000000
    20  C    0.000105   0.000012  -0.000515  -0.000012  -0.000016   0.000000
    21  H    0.000278  -0.000015  -0.000226  -0.000208   0.000183  -0.000002
    22  H    0.000052  -0.000001  -0.000033  -0.000003   0.000000  -0.000000
    23  H   -0.000098  -0.000000   0.000042   0.000009  -0.000001   0.000000
    24  C   -0.063434  -0.000438  -0.002313   0.007172  -0.000159   0.000002
    25  H    0.001182   0.000693   0.000186  -0.000124   0.000001  -0.000000
    26  C    0.335381  -0.038041  -0.042835  -0.050137   0.002854  -0.000091
    27  H   -0.043041   0.004131  -0.001459  -0.002021   0.000082  -0.000012
    28  H   -0.040287  -0.003763   0.004239  -0.002807  -0.000004   0.000001
               7          8          9         10         11         12
     1  C   -0.007326   0.002146  -0.059140  -0.004009   0.002684   0.000100
     2  H    0.000376  -0.000077  -0.004596   0.001113  -0.000075   0.000002
     3  H    0.000141   0.000505   0.003944   0.000069  -0.000080  -0.000000
     4  C   -0.040435  -0.043593   0.686441  -0.041336  -0.046274  -0.000751
     5  C    0.405951   0.398223  -0.049975   0.003337  -0.007329  -0.001644
     6  H   -0.030865  -0.026417  -0.003406   0.000016  -0.002026  -0.001070
     7  H    0.584330  -0.031444   0.002661  -0.000103   0.000149   0.000028
     8  H   -0.031444   0.578245  -0.003991  -0.000129   0.000689  -0.000255
     9  C    0.002661  -0.003991   4.956267   0.406590   0.342497  -0.041798
    10  H   -0.000103  -0.000129   0.406590   0.562497  -0.042410   0.003377
    11  C    0.000149   0.000689   0.342497  -0.042410   4.894433   0.408202
    12  H    0.000028  -0.000255  -0.041798   0.003377   0.408202   0.574244
    13  H   -0.000013   0.000171  -0.044967  -0.001712   0.403182  -0.029085
    14  H    0.000014  -0.000069  -0.043997  -0.001145   0.399659  -0.027852
    15  C    0.000000   0.000000  -0.000000  -0.000000   0.000000   0.000000
    16  H    0.000000  -0.000000  -0.000000  -0.000000  -0.000000   0.000000
    17  H   -0.000000   0.000000   0.000000   0.000000   0.000000  -0.000000
    18  H    0.000000  -0.000000   0.000000   0.000000  -0.000000  -0.000000
    19  C   -0.000004   0.000005  -0.000004  -0.000001   0.000000  -0.000000
    20  C   -0.000003  -0.000021  -0.000001   0.000000   0.000000  -0.000000
    21  H    0.000029   0.000134  -0.000003  -0.000000   0.000000  -0.000000
    22  H    0.000000  -0.000000   0.000000   0.000000  -0.000000   0.000000
    23  H   -0.000000   0.000000   0.000000   0.000000   0.000000   0.000000
    24  C    0.000001  -0.000029   0.000256  -0.000057   0.000001   0.000000
    25  H    0.000000  -0.000000   0.000002   0.000006  -0.000000   0.000000
    26  C    0.000234  -0.000026  -0.006034  -0.000466  -0.000016  -0.000007
    27  H    0.000036   0.000001   0.001145   0.000176  -0.000045   0.000002
    28  H   -0.000005   0.000005   0.000997   0.000126  -0.000006  -0.000000
              13         14         15         16         17         18
     1  C   -0.000045  -0.000135  -0.000112  -0.000001  -0.000005   0.000024
     2  H   -0.000011   0.000026   0.000003   0.000001   0.000000  -0.000001
     3  H    0.000002   0.000002  -0.000065  -0.000002   0.000002  -0.000004
     4  C   -0.000274  -0.000794   0.000002   0.000000   0.000000  -0.000000
     5  C    0.000203   0.000305  -0.000000  -0.000000  -0.000000   0.000000
     6  H   -0.000102   0.000264   0.000000  -0.000000   0.000000  -0.000000
     7  H   -0.000013   0.000014   0.000000   0.000000  -0.000000   0.000000
     8  H    0.000171  -0.000069   0.000000  -0.000000   0.000000  -0.000000
     9  C   -0.044967  -0.043997  -0.000000  -0.000000   0.000000   0.000000
    10  H   -0.001712  -0.001145  -0.000000  -0.000000   0.000000   0.000000
    11  C    0.403182   0.399659   0.000000  -0.000000   0.000000  -0.000000
    12  H   -0.029085  -0.027852   0.000000   0.000000  -0.000000  -0.000000
    13  H    0.587225  -0.033969  -0.000000  -0.000000  -0.000000   0.000000
    14  H   -0.033969   0.589244   0.000000   0.000000   0.000000  -0.000000
    15  C   -0.000000   0.000000   4.895651   0.405542   0.400871   0.396713
    16  H   -0.000000   0.000000   0.405542   0.569905  -0.028099  -0.027336
    17  H   -0.000000   0.000000   0.400871  -0.028099   0.593840  -0.034877
    18  H    0.000000  -0.000000   0.396713  -0.027336  -0.034877   0.594015
    19  C    0.000000  -0.000000   0.353289  -0.041296  -0.046933  -0.043494
    20  C   -0.000000   0.000000  -0.060389   0.003794  -0.000477  -0.002564
    21  H    0.000000  -0.000000   0.003469  -0.000116  -0.000028  -0.000026
    22  H    0.000000  -0.000000  -0.004888   0.000118  -0.000560   0.002338
    23  H   -0.000000   0.000000   0.000375  -0.000136   0.001465  -0.000163
    24  C   -0.000001   0.000000  -0.045011  -0.002342  -0.001098  -0.000528
    25  H    0.000000  -0.000000  -0.006231   0.002261   0.000100   0.000235
    26  C    0.000015  -0.000003   0.003091   0.000129  -0.000120  -0.000083
    27  H   -0.000007   0.000001   0.000072   0.000005   0.000011  -0.000007
    28  H    0.000004   0.000002  -0.000098  -0.000010   0.000008  -0.000001
              19         20         21         22         23         24
     1  C   -0.004557   0.000105   0.000278   0.000052  -0.000098  -0.063434
     2  H    0.000462   0.000012  -0.000015  -0.000001  -0.000000  -0.000438
     3  H    0.001759  -0.000515  -0.000226  -0.000033   0.000042  -0.002313
     4  C    0.000034  -0.000012  -0.000208  -0.000003   0.000009   0.007172
     5  C   -0.000004  -0.000016   0.000183   0.000000  -0.000001  -0.000159
     6  H   -0.000000   0.000000  -0.000002  -0.000000   0.000000   0.000002
     7  H   -0.000004  -0.000003   0.000029   0.000000  -0.000000   0.000001
     8  H    0.000005  -0.000021   0.000134  -0.000000   0.000000  -0.000029
     9  C   -0.000004  -0.000001  -0.000003   0.000000   0.000000   0.000256
    10  H   -0.000001   0.000000  -0.000000   0.000000   0.000000  -0.000057
    11  C    0.000000   0.000000   0.000000  -0.000000   0.000000   0.000001
    12  H   -0.000000  -0.000000  -0.000000   0.000000   0.000000   0.000000
    13  H    0.000000  -0.000000   0.000000   0.000000  -0.000000  -0.000001
    14  H   -0.000000   0.000000  -0.000000  -0.000000   0.000000   0.000000
    15  C    0.353289  -0.060389   0.003469  -0.004888   0.000375  -0.045011
    16  H   -0.041296   0.003794  -0.000116   0.000118  -0.000136  -0.002342
    17  H   -0.046933  -0.000477  -0.000028  -0.000560   0.001465  -0.001098
    18  H   -0.043494  -0.002564  -0.000026   0.002338  -0.000163  -0.000528
    19  C    4.931338   0.342119  -0.037826  -0.042632  -0.041413   0.693210
    20  C    0.342119   4.918410   0.406205   0.405576   0.397586  -0.050323
    21  H   -0.037826   0.406205   0.571812  -0.030386  -0.026738  -0.004291
    22  H   -0.042632   0.405576  -0.030386   0.581342  -0.030386   0.002394
    23  H   -0.041413   0.397586  -0.026738  -0.030386   0.573739  -0.002786
    24  C    0.693210  -0.050323  -0.004291   0.002394  -0.002786   4.986183
    25  H   -0.036299   0.003321   0.000044  -0.000103  -0.000127   0.403605
    26  C   -0.053549  -0.005982  -0.001953   0.000189   0.000206   0.332448
    27  H   -0.001533  -0.001366  -0.002224  -0.000015   0.000472  -0.045003
    28  H    0.002375   0.000092   0.000031  -0.000006   0.000038  -0.042441
              25         26         27         28
     1  C    0.001182   0.335381  -0.043041  -0.040287
     2  H    0.000693  -0.038041   0.004131  -0.003763
     3  H    0.000186  -0.042835  -0.001459   0.004239
     4  C   -0.000124  -0.050137  -0.002021  -0.002807
     5  C    0.000001   0.002854   0.000082  -0.000004
     6  H   -0.000000  -0.000091  -0.000012   0.000001
     7  H    0.000000   0.000234   0.000036  -0.000005
     8  H   -0.000000  -0.000026   0.000001   0.000005
     9  C    0.000002  -0.006034   0.001145   0.000997
    10  H    0.000006  -0.000466   0.000176   0.000126
    11  C   -0.000000  -0.000016  -0.000045  -0.000006
    12  H    0.000000  -0.000007   0.000002  -0.000000
    13  H    0.000000   0.000015  -0.000007   0.000004
    14  H   -0.000000  -0.000003   0.000001   0.000002
    15  C   -0.006231   0.003091   0.000072  -0.000098
    16  H    0.002261   0.000129   0.000005  -0.000010
    17  H    0.000100  -0.000120   0.000011   0.000008
    18  H    0.000235  -0.000083  -0.000007  -0.000001
    19  C   -0.036299  -0.053549  -0.001533   0.002375
    20  C    0.003321  -0.005982  -0.001366   0.000092
    21  H    0.000044  -0.001953  -0.002224   0.000031
    22  H   -0.000103   0.000189  -0.000015  -0.000006
    23  H   -0.000127   0.000206   0.000472   0.000038
    24  C    0.403605   0.332448  -0.045003  -0.042441
    25  H    0.554572  -0.039558   0.003187  -0.004525
    26  C   -0.039558   4.967565   0.417835   0.414129
    27  H    0.003187   0.417835   0.577368  -0.029738
    28  H   -0.004525   0.414129  -0.029738   0.584959
 Mulliken charges:
               1
     1  C   -0.222008
     2  H    0.126869
     3  H    0.116207
     4  C   -0.001579
     5  C   -0.355228
     6  H    0.122149
     7  H    0.116246
     8  H    0.125925
     9  C   -0.142887
    10  H    0.114061
    11  C   -0.353233
    12  H    0.116506
    13  H    0.119384
    14  H    0.118448
    15  C   -0.342285
    16  H    0.117583
    17  H    0.115901
    18  H    0.115761
    19  C    0.024953
    20  C   -0.355552
    21  H    0.121856
    22  H    0.117001
    23  H    0.127915
    24  C   -0.165018
    25  H    0.117572
    26  C   -0.235174
    27  H    0.121947
    28  H    0.116683
 Sum of Mulliken charges =  -0.00000
 Mulliken charges with hydrogens summed into heavy atoms:
               1
     1  C    0.021068
     4  C   -0.001579
     5  C    0.009091
     9  C   -0.028825
    11  C    0.001104
    15  C    0.006959
    19  C    0.024953
    20  C    0.011220
    24  C   -0.047446
    26  C    0.003456
 Electronic spatial extent (au):  <R**2>=           2631.1134
 Charge=             -0.0000 electrons
 Dipole moment (field-independent basis, Debye):
    X=             -0.1557    Y=              0.3748    Z=              0.0697  Tot=              0.4118
 Quadrupole moment (field-independent basis, Debye-Ang):
   XX=            -64.3514   YY=            -63.5601   ZZ=            -66.7168
   XY=             -0.6597   XZ=              0.4826   YZ=              0.4669
 Traceless Quadrupole moment (field-independent basis, Debye-Ang):
   XX=              0.5247   YY=              1.3160   ZZ=             -1.8407
   XY=             -0.6597   XZ=              0.4826   YZ=              0.4669
 Octapole moment (field-independent basis, Debye-Ang**2):
  XXX=             -2.6355  YYY=             -3.5618  ZZZ=              2.0919  XYY=              1.4018
  XXY=              3.7583  XXZ=              1.8260  XZZ=             -1.5435  YZZ=              1.4947
  YYZ=             -2.3399  XYZ=             -2.2692
 Hexadecapole moment (field-independent basis, Debye-Ang**3):
 XXXX=          -2999.7215 YYYY=           -453.7941 ZZZZ=           -207.5914 XXXY=             -5.2034
 XXXZ=             -1.3276 YYYX=             -1.0095 YYYZ=              1.6253 ZZZX=             -0.2817
 ZZZY=              0.3961 XXYY=           -568.4157 XXZZ=           -543.4802 YYZZ=           -109.8734
 XXYZ=              1.0342 YYXZ=              7.1086 ZZXY=             -2.2156
 N-N= 5.121858071438D+02 E-N=-1.929118998548D+03  KE= 3.886508383412D+02
 No NMR shielding tensors so no spin-rotation constants.
 Leave Link  601 at Fri Sep 17 20:12:58 2021, MaxMem=   524288000 cpu:               0.2 elap:               0.4
 (Enter /opt/gaussian/g16_legacy/l701.exe)
 ... and contract with generalized density number  2.
 Compute integral first derivatives.
 Leave Link  701 at Fri Sep 17 20:12:59 2021, MaxMem=   524288000 cpu:               0.2 elap:               0.3
 (Enter /opt/gaussian/g16_legacy/l702.exe)
 L702 exits ... SP integral derivatives will be done elsewhere.
 Leave Link  702 at Fri Sep 17 20:12:59 2021, MaxMem=   524288000 cpu:               0.0 elap:               0.0
 (Enter /opt/gaussian/g16_legacy/l703.exe)
 Integral derivatives from FoFJK, PRISM(SPDF).
 Compute integral first derivatives, UseDBF=F ICtDFT=           0.
 Calling FoFJK, ICntrl=  10002127 FMM=F ISym2X=0 I1Cent= 0 IOpClX= 0 NMat=1 NMatS=1 NMatT=0.
 FoFJK:  IHMeth= 1 ICntrl=10002127 DoSepK=F KAlg= 0 I1Cent=           0 FoldK=F
 IRaf=         0 NMat=       1 IRICut=       1 DoRegI=T DoRafI=F ISym2E= 0 IDoP0=0 IntGTp=1.
 FoFCou: FMM=F IPFlag=           0 FMFlag=      100000 FMFlg1=         800
         NFxFlg=           0 DoJE=F BraDBF=F KetDBF=F FulRan=T
         wScrn=  0.000000 ICntrl=  10002127 IOpCl=  0 I1Cent=           0 NGrid=           0
         NMat0=    1 NMatS0=      1 NMatT0=    0 NMatD0=    1 NMtDS0=    0 NMtDT0=    0
 Symmetry not used in FoFCou.
 Leave Link  703 at Fri Sep 17 20:13:19 2021, MaxMem=   524288000 cpu:              19.9 elap:              20.0
 (Enter /opt/gaussian/g16_legacy/l716.exe)
 Dipole        =-1.80487129D-02 1.20523052D-01 3.92410580D-02
 ***** Axes restored to original set *****
 -------------------------------------------------------------------
 Center     Atomic                   Forces (Hartrees/Bohr)
 Number     Number              X              Y              Z
 -------------------------------------------------------------------
      1        6           0.004360807   -0.002602182   -0.000850143
      2        1          -0.002110355    0.002681503    0.002110924
      3        1          -0.000045217   -0.000959246    0.004307979
      4        6          -0.001079599   -0.006354063   -0.002272525
      5        6           0.005882962   -0.000017735   -0.003005159
      6        1          -0.002310834    0.003466635    0.003269061
      7        1          -0.000606056    0.000614409    0.004918178
      8        1           0.001541322   -0.000100821   -0.003141604
      9        6          -0.003605872    0.003144210   -0.001828044
     10        1          -0.000676379    0.001631061   -0.002519557
     11        6           0.002281814    0.000415230    0.000013830
     12        1          -0.002948849   -0.001779698    0.000618030
     13        1           0.002054349   -0.002265725   -0.001615883
     14        1           0.001362915    0.002102673    0.002284028
     15        6          -0.001432824   -0.003593762    0.001321497
     16        1           0.003057627    0.002956063   -0.000409714
     17        1           0.000051933   -0.000287790   -0.003186775
     18        1          -0.001528354    0.001946095    0.002161086
     19        6          -0.002658231   -0.005826925   -0.004499761
     20        6           0.006253317   -0.000285155   -0.000954428
     21        1          -0.004087963    0.000715221    0.003716931
     22        1          -0.001135345   -0.000464528    0.003503478
     23        1           0.000616859    0.001670919   -0.002582537
     24        6           0.001294019    0.000363534    0.005789552
     25        1          -0.001666827    0.002597090   -0.001792516
     26        6          -0.006698854    0.001391018    0.001725227
     27        1           0.000838708   -0.002445824   -0.003525517
     28        1           0.002994927    0.001287794   -0.003555640
 -------------------------------------------------------------------
 Cartesian Forces:  Max     0.006698854 RMS     0.002774696
 Leave Link  716 at Fri Sep 17 20:13:19 2021, MaxMem=   524288000 cpu:               0.0 elap:               0.2
 (Enter /opt/gaussian/g16_legacy/l103.exe)

 GradGradGradGradGradGradGradGradGradGradGradGradGradGradGradGradGradGrad
 Berny optimization.
 FormGI is forming the generalized inverse of G from B-inverse, IUseBI=4.
 Internal  Forces:  Max     0.005965036 RMS     0.002071369
 Search for a local minimum.
 Step number   1 out of a maximum of  138
 All quantities printed in internal units (Hartrees-Bohrs-Radians)
 RMS Force = .20714D-02 SwitMx=.10000D-02 MixMth= 1
 Mixed Optimization -- RFO/linear search
 Second derivative matrix not updated -- first step.
 ITU=  0
     Eigenvalues ---    0.00323   0.00524   0.00686   0.00701   0.00702
     Eigenvalues ---    0.00708   0.00826   0.01210   0.01286   0.01574
     Eigenvalues ---    0.01643   0.02773   0.02806   0.03939   0.04123
     Eigenvalues ---    0.05332   0.05349   0.07040   0.07075   0.07096
     Eigenvalues ---    0.07120   0.07239   0.07267   0.07313   0.07520
     Eigenvalues ---    0.09326   0.09463   0.12779   0.12912   0.15996
     Eigenvalues ---    0.15997   0.16000   0.16000   0.16000   0.16000
     Eigenvalues ---    0.16000   0.16000   0.16000   0.16000   0.16000
     Eigenvalues ---    0.16000   0.16000   0.16000   0.21874   0.21907
     Eigenvalues ---    0.22001   0.22001   0.24997   0.24998   0.24999
     Eigenvalues ---    0.25000   0.29102   0.30535   0.31753   0.31868
     Eigenvalues ---    0.31875   0.31926   0.32857   0.33917   0.33953
     Eigenvalues ---    0.33983   0.34095   0.34143   0.34151   0.34207
     Eigenvalues ---    0.34271   0.34286   0.34316   0.34327   0.34334
     Eigenvalues ---    0.34345   0.34370   0.34404   0.34592   0.34840
     Eigenvalues ---    0.34962   0.55388   0.55936
 RFO step:  Lambda=-4.16476647D-03 EMin= 3.22765862D-03
 Linear search not attempted -- first point.
 Iteration  1 RMS(Cart)=  0.05794934 RMS(Int)=  0.00149672
 Iteration  2 RMS(Cart)=  0.00227967 RMS(Int)=  0.00018844
 Iteration  3 RMS(Cart)=  0.00000239 RMS(Int)=  0.00018843
 Iteration  4 RMS(Cart)=  0.00000000 RMS(Int)=  0.00018843
 ITry= 1 IFail=0 DXMaxC= 2.28D-01 DCOld= 1.00D+10 DXMaxT= 3.00D-01 DXLimC= 3.00D+00 Rises=F
 Variable       Old X    -DE/DX   Delta X   Delta X   Delta X     New X
                                 (Linear)    (Quad)   (Total)
    R1        2.07471  -0.00247   0.00000  -0.00720  -0.00720   2.06751
    R2        2.07410  -0.00409   0.00000  -0.01189  -0.01189   2.06221
    R3        2.86910   0.00113   0.00000   0.00365   0.00365   2.87275
    R4        2.89790   0.00075   0.00000   0.00253   0.00253   2.90043
    R5        2.84280   0.00368   0.00000   0.01136   0.01136   2.85416
    R6        2.54789  -0.00462   0.00000  -0.00828  -0.00828   2.53961
    R7        2.06782  -0.00362   0.00000  -0.01043  -0.01043   2.05739
    R8        2.07076  -0.00432   0.00000  -0.01251  -0.01251   2.05825
    R9        2.06770  -0.00122   0.00000  -0.00351  -0.00351   2.06420
   R10        2.05936  -0.00183   0.00000  -0.00519  -0.00519   2.05417
   R11        2.82603   0.00305   0.00000   0.00917   0.00917   2.83520
   R12        2.06342  -0.00321   0.00000  -0.00916  -0.00916   2.05426
   R13        2.06850  -0.00217   0.00000  -0.00626  -0.00626   2.06224
   R14        2.06710  -0.00158   0.00000  -0.00455  -0.00455   2.06255
   R15        2.06982  -0.00400   0.00000  -0.01154  -0.01154   2.05828
   R16        2.06875  -0.00178   0.00000  -0.00512  -0.00512   2.06363
   R17        2.06800  -0.00168   0.00000  -0.00483  -0.00483   2.06317
   R18        2.84374  -0.00013   0.00000  -0.00040  -0.00040   2.84333
   R19        2.84386   0.00145   0.00000   0.00450   0.00450   2.84836
   R20        2.54309  -0.00179   0.00000  -0.00318  -0.00318   2.53992
   R21        2.07090  -0.00475   0.00000  -0.01373  -0.01373   2.05717
   R22        2.06751  -0.00264   0.00000  -0.00760  -0.00760   2.05991
   R23        2.06653  -0.00098   0.00000  -0.00281  -0.00281   2.06373
   R24        2.05736  -0.00154   0.00000  -0.00436  -0.00436   2.05300
   R25        2.84598   0.00028   0.00000   0.00088   0.00088   2.84686
   R26        2.07171  -0.00302   0.00000  -0.00876  -0.00876   2.06295
   R27        2.07359  -0.00348   0.00000  -0.01010  -0.01010   2.06349
    A1        1.84215   0.00098   0.00000   0.00813   0.00782   1.84997
    A2        1.90494   0.00137   0.00000   0.01634   0.01636   1.92130
    A3        1.92290  -0.00252   0.00000  -0.02058  -0.02065   1.90225
    A4        1.91107   0.00031   0.00000   0.00629   0.00628   1.91735
    A5        1.90338  -0.00157   0.00000  -0.01539  -0.01545   1.88792
    A6        1.97469   0.00141   0.00000   0.00547   0.00552   1.98021
    A7        2.01884   0.00597   0.00000   0.02355   0.02302   2.04186
    A8        2.10374  -0.00354   0.00000  -0.01381  -0.01431   2.08943
    A9        2.16059  -0.00242   0.00000  -0.00943  -0.00993   2.15067
   A10        1.95916   0.00026   0.00000   0.00410   0.00411   1.96327
   A11        1.93941  -0.00241   0.00000  -0.01302  -0.01297   1.92644
   A12        1.92515   0.00413   0.00000   0.02099   0.02103   1.94617
   A13        1.84772   0.00257   0.00000   0.02352   0.02353   1.87125
   A14        1.90179  -0.00296   0.00000  -0.02096  -0.02097   1.88082
   A15        1.88769  -0.00182   0.00000  -0.01593  -0.01586   1.87184
   A16        2.06868  -0.00236   0.00000  -0.01453  -0.01457   2.05410
   A17        2.22566  -0.00036   0.00000  -0.00152  -0.00156   2.22410
   A18        1.98848   0.00273   0.00000   0.01648   0.01644   2.00492
   A19        1.98265  -0.00308   0.00000  -0.01861  -0.01852   1.96413
   A20        1.90859   0.00303   0.00000   0.01857   0.01851   1.92710
   A21        1.91575   0.00370   0.00000   0.02229   0.02224   1.93799
   A22        1.87643   0.00000   0.00000   0.00054   0.00062   1.87704
   A23        1.88936  -0.00049   0.00000  -0.00321  -0.00311   1.88625
   A24        1.88857  -0.00336   0.00000  -0.02081  -0.02100   1.86757
   A25        1.87834   0.00076   0.00000   0.00714   0.00717   1.88551
   A26        1.88179   0.00069   0.00000   0.00752   0.00754   1.88933
   A27        1.95814  -0.00237   0.00000  -0.01143  -0.01140   1.94673
   A28        1.89474  -0.00310   0.00000  -0.02484  -0.02483   1.86991
   A29        1.92361   0.00174   0.00000   0.00886   0.00888   1.93249
   A30        1.92529   0.00216   0.00000   0.01186   0.01188   1.93717
   A31        2.00846   0.00175   0.00000   0.00705   0.00678   2.01524
   A32        2.11583   0.00115   0.00000   0.00470   0.00444   2.12027
   A33        2.15880  -0.00289   0.00000  -0.01119  -0.01145   2.14735
   A34        1.95873  -0.00037   0.00000   0.00113   0.00112   1.95986
   A35        1.93237  -0.00147   0.00000  -0.00842  -0.00840   1.92397
   A36        1.92498   0.00347   0.00000   0.01722   0.01724   1.94222
   A37        1.85573   0.00234   0.00000   0.02170   0.02171   1.87743
   A38        1.89593  -0.00186   0.00000  -0.01220  -0.01221   1.88372
   A39        1.89367  -0.00227   0.00000  -0.02045  -0.02041   1.87326
   A40        2.08119  -0.00290   0.00000  -0.01788  -0.01828   2.06291
   A41        2.19499  -0.00082   0.00000  -0.00341  -0.00382   2.19117
   A42        2.00674   0.00374   0.00000   0.02244   0.02202   2.02876
   A43        1.94784   0.00368   0.00000   0.01687   0.01698   1.96482
   A44        1.92951  -0.00287   0.00000  -0.02526  -0.02544   1.90408
   A45        1.92650  -0.00335   0.00000  -0.02535  -0.02564   1.90086
   A46        1.92992  -0.00005   0.00000   0.00667   0.00678   1.93670
   A47        1.88251   0.00104   0.00000   0.02014   0.02027   1.90278
   A48        1.84427   0.00147   0.00000   0.00716   0.00656   1.85082
    D1        2.09188   0.00194   0.00000   0.07740   0.07755   2.16943
    D2       -1.04388   0.00102   0.00000   0.02019   0.02011  -1.02377
    D3        0.08334  -0.00016   0.00000   0.05520   0.05527   0.13861
    D4       -3.05242  -0.00108   0.00000  -0.00201  -0.00217  -3.05459
    D5       -2.04366   0.00067   0.00000   0.06668   0.06680  -1.97685
    D6        1.10377  -0.00025   0.00000   0.00947   0.00936   1.11314
    D7       -1.11880   0.00068   0.00000   0.04736   0.04731  -1.07149
    D8        3.00863   0.00021   0.00000   0.04502   0.04513   3.05376
    D9        0.97444   0.00217   0.00000   0.06680   0.06651   1.04094
   D10        0.89541  -0.00044   0.00000   0.03688   0.03698   0.93238
   D11       -1.26035  -0.00091   0.00000   0.03454   0.03480  -1.22555
   D12        2.98864   0.00104   0.00000   0.05633   0.05618   3.04482
   D13        3.02671  -0.00022   0.00000   0.03753   0.03757   3.06427
   D14        0.87095  -0.00070   0.00000   0.03519   0.03540   0.90634
   D15       -1.16324   0.00126   0.00000   0.05697   0.05677  -1.10647
[...]
                 (A) (A) (A) (A) (A) (A) (A) (A) (A) (A) (A) (A)
                 (A) (A) (A) (A) (A) (A) (A) (A) (A) (A) (A) (A)
                 (A) (A) (A) (A) (A) (A) (A) (A) (A) (A) (A) (A)
                 (A) (A) (A) (A) (A) (A) (A) (A) (A) (A) (A) (A)
                 (A) (A) (A) (A) (A) (A) (A) (A) (A) (A) (A) (A)
                 (A) (A) (A) (A) (A) (A) (A) (A) (A) (A) (A) (A)
                 (A) (A) (A) (A) (A) (A) (A) (A) (A) (A) (A) (A)
                 (A) (A) (A) (A) (A) (A) (A) (A) (A) (A) (A) (A)
                 (A) (A) (A) (A) (A) (A) (A) (A) (A) (A) (A) (A)
                 (A) (A) (A) (A) (A) (A) (A) (A) (A) (A) (A) (A)
                 (A) (A) (A) (A) (A) (A) (A) (A) (A) (A) (A) (A)
                 (A) (A) (A) (A) (A) (A) (A) (A) (A) (A) (A) (A)
                 (A) (A) (A) (A) (A) (A) (A) (A) (A)
 The electronic state is 1-A.
 Alpha  occ. eigenvalues --  -11.22942 -11.22511 -11.21700 -11.21672 -11.21623
 Alpha  occ. eigenvalues --  -11.21560 -11.21548 -11.21481 -11.21395 -11.21302
 Alpha  occ. eigenvalues --   -1.10736  -1.08460  -1.02105  -0.97425  -0.93781
 Alpha  occ. eigenvalues --   -0.92410  -0.87797  -0.81731  -0.70593  -0.69539
 Alpha  occ. eigenvalues --   -0.64148  -0.63201  -0.59864  -0.58878  -0.58399
 Alpha  occ. eigenvalues --   -0.56978  -0.55032  -0.54497  -0.53242  -0.52889
 Alpha  occ. eigenvalues --   -0.51758  -0.51257  -0.50602  -0.49958  -0.47402
 Alpha  occ. eigenvalues --   -0.46412  -0.44634  -0.33303  -0.31578
 Alpha virt. eigenvalues --    0.18275   0.19824   0.22639   0.24479   0.26353
 Alpha virt. eigenvalues --    0.26980   0.28132   0.29578   0.30259   0.30761
 Alpha virt. eigenvalues --    0.31179   0.32645   0.32693   0.33225   0.34302
 Alpha virt. eigenvalues --    0.34581   0.36344   0.37294   0.39466   0.40230
 Alpha virt. eigenvalues --    0.41253   0.41631   0.43431   0.45039   0.46637
 Alpha virt. eigenvalues --    0.51535   0.53909   0.61364   0.63272   0.69962
 Alpha virt. eigenvalues --    0.70399   0.71530   0.74734   0.75485   0.75902
 Alpha virt. eigenvalues --    0.76552   0.78912   0.80392   0.80897   0.83210
 Alpha virt. eigenvalues --    0.84047   0.86130   0.87566   0.89582   0.91234
 Alpha virt. eigenvalues --    0.93285   0.95747   0.97224   0.97973   0.98243
 Alpha virt. eigenvalues --    0.99466   1.01634   1.02732   1.04993   1.05905
 Alpha virt. eigenvalues --    1.08081   1.08412   1.09420   1.11455   1.12054
 Alpha virt. eigenvalues --    1.12713   1.13736   1.14420   1.15192   1.15538
 Alpha virt. eigenvalues --    1.16794   1.17234   1.17577   1.19005   1.20870
 Alpha virt. eigenvalues --    1.21682   1.22377   1.23488   1.25532   1.26416
 Alpha virt. eigenvalues --    1.30160   1.39975   1.41611   1.44063   1.46075
 Alpha virt. eigenvalues --    1.47728   1.54476   1.55561   1.57709   1.58586
 Alpha virt. eigenvalues --    1.61688   1.62691   1.67733   1.69161   1.73220
 Alpha virt. eigenvalues --    1.73861   1.81021   1.88678   1.92058   1.95545
 Alpha virt. eigenvalues --    1.99486   2.01384   2.03415   2.06000   2.07274
 Alpha virt. eigenvalues --    2.08179   2.09791   2.10262   2.12903   2.14752
 Alpha virt. eigenvalues --    2.15556   2.16170   2.20231   2.23288   2.27094
 Alpha virt. eigenvalues --    2.29523   2.30282   2.31619   2.35380   2.35718
 Alpha virt. eigenvalues --    2.35903   2.36886   2.38608   2.40275   2.41121
 Alpha virt. eigenvalues --    2.43218   2.43387   2.43964   2.45247   2.46006
 Alpha virt. eigenvalues --    2.47490   2.49676   2.50494   2.50945   2.55818
 Alpha virt. eigenvalues --    2.57206   2.59139   2.62386   2.64168   2.65545
 Alpha virt. eigenvalues --    2.65960   2.68916   2.69918   2.72169   2.74361
 Alpha virt. eigenvalues --    2.75372   2.78667   2.79433   2.82550   2.85247
 Alpha virt. eigenvalues --    2.86769   2.89141   2.90674   2.93364   2.95189
 Alpha virt. eigenvalues --    2.96787   3.01061   3.01749   3.02836   3.05837
 Alpha virt. eigenvalues --    3.06818   3.08229   3.11048   3.13072   3.15034
 Alpha virt. eigenvalues --    3.17641   3.18675   3.19598   3.21228   3.22103
 Alpha virt. eigenvalues --    3.23526   3.25547   3.27095   3.28317   3.39604
 Alpha virt. eigenvalues --    3.40343   3.43962   3.46568   3.56151   3.57287
 Alpha virt. eigenvalues --    3.61438   3.63311   3.66173   3.73754   3.78529
 Alpha virt. eigenvalues --    3.79898   3.80628   3.82070   3.83588   3.84046
 Alpha virt. eigenvalues --    3.84437   3.86377   3.88480   3.90960   3.91572
 Alpha virt. eigenvalues --    3.96737   4.58904   4.61969   4.74170   4.83824
 Alpha virt. eigenvalues --    4.89949   4.91398   4.92473   5.05982   5.10291
 Alpha virt. eigenvalues --    5.16506
          Condensed to atoms (all electrons):
               1          2          3          4          5          6
     1  C    4.974976   0.415408   0.403450   0.355975  -0.058984   0.003376
     2  H    0.415408   0.578808  -0.026798  -0.048061   0.003757  -0.000099
     3  H    0.403450  -0.026798   0.599711  -0.043353  -0.003342  -0.000063
     4  C    0.355975  -0.048061  -0.043353   4.938963   0.341819  -0.037403
     5  C   -0.058984   0.003757  -0.003342   0.341819   4.910286   0.407888
     6  H    0.003376  -0.000099  -0.000063  -0.037403   0.407888   0.566849
     7  H   -0.003548   0.000063   0.003114  -0.044717   0.401575  -0.027466
     8  H   -0.001327  -0.000113  -0.000069  -0.040644   0.401359  -0.027794
     9  C   -0.041256  -0.002477   0.000139   0.699916  -0.045175  -0.002937
    10  H   -0.007287   0.002362   0.000242  -0.040066   0.003549   0.000036
    11  C    0.003156   0.000190  -0.000112  -0.047758  -0.007879  -0.002285
    12  H    0.000098   0.000005   0.000001  -0.000141  -0.002069  -0.001238
    13  H   -0.000088  -0.000011  -0.000003  -0.000148   0.000210  -0.000070
    14  H   -0.000112  -0.000005   0.000015  -0.000978   0.000312   0.000111
    15  C   -0.000099  -0.000005  -0.000035   0.000001  -0.000000   0.000000
    16  H   -0.000003   0.000002  -0.000002   0.000000  -0.000000   0.000000
    17  H   -0.000005   0.000000   0.000002   0.000000  -0.000000   0.000000
    18  H    0.000023  -0.000002  -0.000008  -0.000000   0.000000  -0.000000
    19  C   -0.003687   0.000706   0.001317   0.000010   0.000012  -0.000000
    20  C    0.000495  -0.000013   0.000101  -0.000023  -0.000025   0.000000
    21  H   -0.000100  -0.000010   0.000164  -0.000028   0.000105  -0.000001
    22  H    0.000112  -0.000001  -0.000103  -0.000003   0.000000  -0.000000
    23  H   -0.000038   0.000000   0.000019   0.000001  -0.000000   0.000000
    24  C   -0.059406  -0.002416  -0.000857   0.005538  -0.000112   0.000001
    25  H   -0.000236   0.001223   0.000103  -0.000121  -0.000001   0.000000
    26  C    0.330771  -0.041627  -0.050609  -0.062311  -0.001247   0.000070
    27  H   -0.040273   0.004188  -0.002993  -0.002726  -0.000627   0.000051
    28  H   -0.048569  -0.001951   0.005192   0.001689   0.000084  -0.000024
               7          8          9         10         11         12
     1  C   -0.003548  -0.001327  -0.041256  -0.007287   0.003156   0.000098
     2  H    0.000063  -0.000113  -0.002477   0.002362   0.000190   0.000005
     3  H    0.003114  -0.000069   0.000139   0.000242  -0.000112   0.000001
     4  C   -0.044717  -0.040644   0.699916  -0.040066  -0.047758  -0.000141
     5  C    0.401575   0.401359  -0.045175   0.003549  -0.007879  -0.002069
     6  H   -0.027466  -0.027794  -0.002937   0.000036  -0.002285  -0.001238
     7  H    0.588707  -0.035120   0.001772  -0.000112   0.000171   0.000009
     8  H   -0.035120   0.581396  -0.002522  -0.000126   0.000482  -0.000122
     9  C    0.001772  -0.002522   4.935666   0.405810   0.340026  -0.043594
    10  H   -0.000112  -0.000126   0.405810   0.560484  -0.041928   0.003343
    11  C    0.000171   0.000482   0.340026  -0.041928   4.898083   0.408367
    12  H    0.000009  -0.000122  -0.043594   0.003343   0.408367   0.576349
    13  H   -0.000017   0.000090  -0.042041  -0.001465   0.402081  -0.028752
    14  H    0.000028  -0.000040  -0.042072  -0.000938   0.401069  -0.027840
    15  C    0.000000  -0.000000   0.000000  -0.000000   0.000000   0.000000
    16  H   -0.000000   0.000000   0.000000  -0.000000   0.000000   0.000000
    17  H   -0.000000   0.000000  -0.000000  -0.000000   0.000000  -0.000000
    18  H    0.000000  -0.000000   0.000000   0.000000  -0.000000  -0.000000
    19  C    0.000000   0.000006  -0.000003  -0.000000   0.000000  -0.000000
    20  C   -0.000017  -0.000004  -0.000000   0.000000  -0.000000  -0.000000
    21  H    0.000182   0.000018  -0.000000  -0.000000   0.000000  -0.000000
    22  H    0.000001  -0.000000   0.000000   0.000000  -0.000000  -0.000000
    23  H   -0.000000   0.000000  -0.000000  -0.000000   0.000000   0.000000
    24  C   -0.000056   0.000014  -0.000063  -0.000017   0.000001   0.000000
    25  H   -0.000000  -0.000001   0.000001   0.000001  -0.000000  -0.000000
    26  C   -0.001198   0.001289  -0.004331   0.000244  -0.000085  -0.000004
    27  H    0.000260  -0.001928   0.000274  -0.000007   0.000003  -0.000000
    28  H    0.000101   0.000076   0.001493   0.000113  -0.000046   0.000001
              13         14         15         16         17         18
     1  C   -0.000088  -0.000112  -0.000099  -0.000003  -0.000005   0.000023
     2  H   -0.000011  -0.000005  -0.000005   0.000002   0.000000  -0.000002
     3  H   -0.000003   0.000015  -0.000035  -0.000002   0.000002  -0.000008
     4  C   -0.000148  -0.000978   0.000001   0.000000   0.000000  -0.000000
     5  C    0.000210   0.000312  -0.000000  -0.000000  -0.000000   0.000000
     6  H   -0.000070   0.000111   0.000000   0.000000   0.000000  -0.000000
     7  H   -0.000017   0.000028   0.000000  -0.000000  -0.000000   0.000000
     8  H    0.000090  -0.000040  -0.000000   0.000000   0.000000  -0.000000
     9  C   -0.042041  -0.042072   0.000000   0.000000  -0.000000   0.000000
    10  H   -0.001465  -0.000938  -0.000000  -0.000000  -0.000000   0.000000
    11  C    0.402081   0.401069   0.000000   0.000000   0.000000  -0.000000
    12  H   -0.028752  -0.027840   0.000000   0.000000  -0.000000  -0.000000
    13  H    0.585556  -0.035755  -0.000000  -0.000000  -0.000000   0.000000
    14  H   -0.035755   0.585852   0.000000  -0.000000   0.000000  -0.000000
    15  C   -0.000000   0.000000   4.900339   0.406155   0.398837   0.398136
    16  H   -0.000000  -0.000000   0.406155   0.566017  -0.026579  -0.026662
    17  H   -0.000000   0.000000   0.398837  -0.026579   0.594284  -0.037889
    18  H    0.000000  -0.000000   0.398136  -0.026662  -0.037889   0.594735
    19  C    0.000000  -0.000000   0.353369  -0.041650  -0.044444  -0.043742
    20  C    0.000000  -0.000000  -0.065122   0.003792  -0.001169  -0.001989
    21  H   -0.000000   0.000000   0.003755  -0.000115  -0.000030  -0.000071
    22  H    0.000000  -0.000000  -0.002672  -0.000028  -0.000488   0.002771
    23  H   -0.000000   0.000000  -0.002168  -0.000056   0.002761  -0.000452
    24  C   -0.000000   0.000000  -0.044084  -0.002558  -0.001259  -0.000506
    25  H    0.000000   0.000000  -0.006996   0.002365   0.000191   0.000179
    26  C    0.000020  -0.000004   0.003162   0.000146  -0.000128  -0.000073
    27  H   -0.000000   0.000000   0.000054   0.000007   0.000006  -0.000004
    28  H   -0.000007   0.000001  -0.000089  -0.000009   0.000009  -0.000002
              19         20         21         22         23         24
     1  C   -0.003687   0.000495  -0.000100   0.000112  -0.000038  -0.059406
     2  H    0.000706  -0.000013  -0.000010  -0.000001   0.000000  -0.002416
     3  H    0.001317   0.000101   0.000164  -0.000103   0.000019  -0.000857
     4  C    0.000010  -0.000023  -0.000028  -0.000003   0.000001   0.005538
     5  C    0.000012  -0.000025   0.000105   0.000000  -0.000000  -0.000112
     6  H   -0.000000   0.000000  -0.000001  -0.000000   0.000000   0.000001
     7  H    0.000000  -0.000017   0.000182   0.000001  -0.000000  -0.000056
     8  H    0.000006  -0.000004   0.000018  -0.000000   0.000000   0.000014
     9  C   -0.000003  -0.000000  -0.000000   0.000000  -0.000000  -0.000063
    10  H   -0.000000   0.000000  -0.000000   0.000000  -0.000000  -0.000017
    11  C    0.000000  -0.000000   0.000000  -0.000000   0.000000   0.000001
    12  H   -0.000000  -0.000000  -0.000000  -0.000000   0.000000   0.000000
    13  H    0.000000   0.000000  -0.000000   0.000000  -0.000000  -0.000000
    14  H   -0.000000  -0.000000   0.000000  -0.000000   0.000000   0.000000
    15  C    0.353369  -0.065122   0.003755  -0.002672  -0.002168  -0.044084
    16  H   -0.041650   0.003792  -0.000115  -0.000028  -0.000056  -0.002558
    17  H   -0.044444  -0.001169  -0.000030  -0.000488   0.002761  -0.001259
    18  H   -0.043742  -0.001989  -0.000071   0.002771  -0.000452  -0.000506
    19  C    4.916403   0.350754  -0.037860  -0.043339  -0.043666   0.696953
    20  C    0.350754   4.904933   0.406948   0.401135   0.400033  -0.044254
    21  H   -0.037860   0.406948   0.570751  -0.028143  -0.026742  -0.002954
    22  H   -0.043339   0.401135  -0.028143   0.587006  -0.035830  -0.000051
    23  H   -0.043666   0.400033  -0.026742  -0.035830   0.585898  -0.000393
    24  C    0.696953  -0.044254  -0.002954  -0.000051  -0.000393   4.948753
    25  H   -0.038556   0.003538   0.000052  -0.000122  -0.000120   0.404418
    26  C   -0.050735  -0.007886  -0.002864   0.000349   0.000161   0.349856
    27  H    0.000104  -0.002486  -0.001926  -0.000062   0.000079  -0.043949
    28  H    0.001510   0.000163   0.000075  -0.000014   0.000024  -0.040473
              25         26         27         28
     1  C   -0.000236   0.330771  -0.040273  -0.048569
     2  H    0.001223  -0.041627   0.004188  -0.001951
     3  H    0.000103  -0.050609  -0.002993   0.005192
     4  C   -0.000121  -0.062311  -0.002726   0.001689
     5  C   -0.000001  -0.001247  -0.000627   0.000084
     6  H    0.000000   0.000070   0.000051  -0.000024
     7  H   -0.000000  -0.001198   0.000260   0.000101
     8  H   -0.000001   0.001289  -0.001928   0.000076
     9  C    0.000001  -0.004331   0.000274   0.001493
    10  H    0.000001   0.000244  -0.000007   0.000113
    11  C   -0.000000  -0.000085   0.000003  -0.000046
    12  H   -0.000000  -0.000004  -0.000000   0.000001
    13  H    0.000000   0.000020  -0.000000  -0.000007
    14  H    0.000000  -0.000004   0.000000   0.000001
    15  C   -0.006996   0.003162   0.000054  -0.000089
    16  H    0.002365   0.000146   0.000007  -0.000009
    17  H    0.000191  -0.000128   0.000006   0.000009
    18  H    0.000179  -0.000073  -0.000004  -0.000002
    19  C   -0.038556  -0.050735   0.000104   0.001510
    20  C    0.003538  -0.007886  -0.002486   0.000163
    21  H    0.000052  -0.002864  -0.001926   0.000075
    22  H   -0.000122   0.000349  -0.000062  -0.000014
    23  H   -0.000120   0.000161   0.000079   0.000024
    24  C    0.404418   0.349856  -0.043949  -0.040473
    25  H    0.557163  -0.040238   0.003320  -0.003461
    26  C   -0.040238   4.996668   0.414840   0.408557
    27  H    0.003320   0.414840   0.586459  -0.029531
    28  H   -0.003461   0.408557  -0.029531   0.583020
 Mulliken charges:
               1
     1  C   -0.222823
     2  H    0.116874
     3  H    0.114778
     4  C    0.024570
     5  C   -0.351496
     6  H    0.120996
     7  H    0.116268
     8  H    0.125080
     9  C   -0.158627
    10  H    0.115763
    11  C   -0.353536
    12  H    0.115584
    13  H    0.120399
    14  H    0.120355
    15  C   -0.342537
    16  H    0.119180
    17  H    0.115901
    18  H    0.115555
    19  C    0.026539
    20  C   -0.348904
    21  H    0.118797
    22  H    0.119482
    23  H    0.120488
    24  C   -0.162127
    25  H    0.117300
    26  C   -0.242793
    27  H    0.116867
    28  H    0.122068
 Sum of Mulliken charges =  -0.00000
 Mulliken charges with hydrogens summed into heavy atoms:
               1
     1  C    0.008829
     4  C    0.024570
     5  C    0.010847
     9  C   -0.042864
    11  C    0.002802
    15  C    0.008099
    19  C    0.026539
    20  C    0.009863
    24  C   -0.044827
    26  C   -0.003858
 Electronic spatial extent (au):  <R**2>=           2732.2515
 Charge=             -0.0000 electrons
 Dipole moment (field-independent basis, Debye):
    X=             -0.1803    Y=              0.3341    Z=             -0.0136  Tot=              0.3799
 Quadrupole moment (field-independent basis, Debye-Ang):
   XX=            -63.3705   YY=            -63.3490   ZZ=            -67.5450
   XY=             -0.5280   XZ=              1.2953   YZ=              0.0451
 Traceless Quadrupole moment (field-independent basis, Debye-Ang):
   XX=              1.3843   YY=              1.4058   ZZ=             -2.7902
   XY=             -0.5280   XZ=              1.2953   YZ=              0.0451
 Octapole moment (field-independent basis, Debye-Ang**2):
  XXX=             -1.8451  YYY=             -4.2597  ZZZ=             -0.6187  XYY=              1.3338
  XXY=              2.1886  XXZ=             -1.0273  XZZ=             -1.0344  YZZ=              1.6442
  YYZ=              0.5206  XYZ=              0.7974
 Hexadecapole moment (field-independent basis, Debye-Ang**3):
 XXXX=          -3156.8343 YYYY=           -445.8636 ZZZZ=           -164.9386 XXXY=            -13.1459
 XXXZ=              3.4868 YYYX=              3.8113 YYYZ=              0.1951 ZZZX=             10.6097
 ZZZY=             -1.0553 XXYY=           -598.5773 XXZZ=           -570.1090 YYZZ=           -101.8233
 XXYZ=              3.4641 YYXZ=             -2.1996 ZZXY=             -5.1757
 N-N= 5.102862058689D+02 E-N=-1.925303585740D+03  KE= 3.887443634960D+02
 No NMR shielding tensors so no spin-rotation constants.
 Leave Link  601 at Fri Sep 17 21:06:40 2021, MaxMem=   524288000 cpu:               0.2 elap:               0.2
 (Enter /opt/gaussian/g16_legacy/l9999.exe)
 1\1\GINC-TRUENO93\FOpt\RMP2-FC\6-31G(d,p)\C10H18\JRAMOS\17-Sep-2021\0\
 \#p opt mp2/6-31g(d,p)\\Conformer number 006. Energy MM = 26.902 kcal/
 mol\\0,1\C,2.1703104315,1.2240035098,-8.6832861991\H,1.7467923041,0.23
 34933346,-8.4988312022\H,1.9877667217,1.4542333055,-9.7385814307\C,3.6
 518085823,1.2045932596,-8.4095981679\C,4.3876546771,2.4723514648,-8.75
 50117303\H,5.4646124969,2.3320943115,-8.8035215043\H,4.0560598511,2.84
 36094188,-9.7266809259\H,4.1872187167,3.2599206851,-8.0261202084\C,4.2
 245810796,0.1144912018,-7.865150442\H,3.5779212757,-0.7357907979,-7.66
 59470707\C,5.6625344547,-0.0808462753,-7.4917181846\H,6.2697918014,0.7
 994694743,-7.6860464248\H,5.752749914,-0.3163060336,-6.4297636928\H,6.
 096410566,-0.9187659165,-8.0404358623\C,-2.287996483,2.7363569959,-9.0
 22998747\H,-2.6304796037,1.9049245544,-8.4088516112\H,-2.8472121344,3.
 628966986,-8.7334077584\H,-2.5471460892,2.5240535118,-10.0626923336\C,
 -0.8083710804,2.9605129641,-8.874083788\C,-0.260606309,4.0990676633,-9
 .6892706266\H,0.8163775591,4.2109878751,-9.5931418455\H,-0.4893105283,
 3.9483522363,-10.7464429976\H,-0.7297690823,5.0408703388,-9.3959437906
 \C,-0.0702600824,2.1823516553,-8.0603462815\H,-0.581890533,1.376151571
 9,-7.5405241778\C,1.410218973,2.2573858391,-7.8318049479\H,1.786662667
 9,3.258172615,-8.0442124901\H,1.6271698527,2.0609942505,-6.7781855583\
 \Version=EM64L-G16RevA.03\State=1-A\HF=-389.1568187\MP2=-390.5733484\R
 MSD=3.317e-09\RMSF=1.777e-06\Dipole=0.0189452,0.1035366,-0.0535351\PG=
 C01 [X(C10H18)]\\@


 SUCCESS-- IF YOU HAVE TRIED TO DO SOMETHING AND FAILED
           YOU ARE BETTER OFF THAN IF YOU HAD TRIED TO DO
           NOTHING AND SUCCEEDED.

                   -- FROM THE BACK OF A SUGAR PACKET
 Job cpu time:       0 days  0 hours 57 minutes 11.0 seconds.
 Elapsed time:       0 days  0 hours 57 minutes 12.7 seconds.
 File lengths (MBytes):  RWF=     32 Int=      0 D2E=      0 Chk=      7 Scr=      1
 Normal termination of Gaussian 16 at Fri Sep 17 21:06:40 2021.
