 Entering Gaussian System, Link 0=/opt/gaussian/g16_legacy/g16
 Input=02-IsoP_010_gaussian.com
 Output=02-IsoP_010_gaussian.log
 Initial command:
 /opt/gaussian/g16_legacy/l1.exe "/scratch-local/jramos/2661509/Gau-7075.inp" -scrdir="/scratch-local/jramos/2661509/"
 Entering Link 1 = /opt/gaussian/g16_legacy/l1.exe PID=      7086.
  
 Copyright (c) 1988,1990,1992,1993,1995,1998,2003,2009,2016,
            Gaussian, Inc.  All Rights Reserved.
  
 This is part of the Gaussian(R) 16 program.  It is based on
 the Gaussian(R) 09 system (copyright 2009, Gaussian, Inc.),
 the Gaussian(R) 03 system (copyright 2003, Gaussian, Inc.),
 the Gaussian(R) 98 system (copyright 1998, Gaussian, Inc.),
 the Gaussian(R) 94 system (copyright 1995, Gaussian, Inc.),
 the Gaussian 92(TM) system (copyright 1992, Gaussian, Inc.),
 the Gaussian 90(TM) system (copyright 1990, Gaussian, Inc.),
 the Gaussian 88(TM) system (copyright 1988, Gaussian, Inc.),
 the Gaussian 86(TM) system (copyright 1986, Carnegie Mellon
 University), and the Gaussian 82(TM) system (copyright 1983,
 Carnegie Mellon University). Gaussian is a federally registered
 trademark of Gaussian, Inc.
  
 This software contains proprietary and confidential information,
 including trade secrets, belonging to Gaussian, Inc.
  
 This software is provided under written license and may be
 used, copied, transmitted, or stored only in accord with that
 written license.
  
 The following legend is applicable only to US Government
 contracts under FAR:
  
                    RESTRICTED RIGHTS LEGEND
  
 Use, reproduction and disclosure by the US Government is
 subject to restrictions as set forth in subparagraphs (a)
 and (c) of the Commercial Computer Software - Restricted
 Rights clause in FAR 52.227-19.
  
 Gaussian, Inc.
 340 Quinnipiac St., Bldg. 40, Wallingford CT 06492
  
  
 ---------------------------------------------------------------
 Warning -- This program may not be used in any manner that
 competes with the business of Gaussian, Inc. or will provide
 assistance to any competitor of Gaussian, Inc.  The licensee
 of this program is prohibited from giving any competitor of
 Gaussian, Inc. access to this program.  By using this program,
 the user acknowledges that Gaussian, Inc. is engaged in the
 business of creating and licensing software in the field of
 computational chemistry and represents and warrants to the
 licensee that it is not a competitor of Gaussian, Inc. and that
 it will not use this program in any manner prohibited above.
 ---------------------------------------------------------------
  

 Cite this work as:
 Gaussian 16, Revision A.03,
 M. J. Frisch, G. W. Trucks, H. B. Schlegel, G. E. Scuseria, 
 M. A. Robb, J. R. Cheeseman, G. Scalmani, V. Barone, 
 G. A. Petersson, H. Nakatsuji, X. Li, M. Caricato, A. V. Marenich, 
 J. Bloino, B. G. Janesko, R. Gomperts, B. Mennucci, H. P. Hratchian, 
 J. V. Ortiz, A. F. Izmaylov, J. L. Sonnenberg, D. Williams-Young, 
 F. Ding, F. Lipparini, F. Egidi, J. Goings, B. Peng, A. Petrone, 
 T. Henderson, D. Ranasinghe, V. G. Zakrzewski, J. Gao, N. Rega, 
 G. Zheng, W. Liang, M. Hada, M. Ehara, K. Toyota, R. Fukuda, 
 J. Hasegawa, M. Ishida, T. Nakajima, Y. Honda, O. Kitao, H. Nakai, 
 T. Vreven, K. Throssell, J. A. Montgomery, Jr., J. E. Peralta, 
 F. Ogliaro, M. J. Bearpark, J. J. Heyd, E. N. Brothers, K. N. Kudin, 
 V. N. Staroverov, T. A. Keith, R. Kobayashi, J. Normand, 
 K. Raghavachari, A. P. Rendell, J. C. Burant, S. S. Iyengar, 
 J. Tomasi, M. Cossi, J. M. Millam, M. Klene, C. Adamo, R. Cammi, 
 J. W. Ochterski, R. L. Martin, K. Morokuma, O. Farkas, 
 J. B. Foresman, and D. J. Fox, Gaussian, Inc., Wallingford CT, 2016.
 
 ******************************************
 Gaussian 16:  EM64L-G16RevA.03 25-Dec-2016
                17-Sep-2021 
 ******************************************
 %chk=02-IsoP_010_gaussian.chk
 %nproc=1
 Will use up to    1 processors via shared memory.
 %mem=4000Mb
 ---------------------
 #p opt mp2/6-31g(d,p)
 ---------------------
 1/18=20,19=15,38=1/1,3;
 2/9=110,12=2,17=6,18=5,40=1/2;
 3/5=1,6=6,7=101,11=9,25=1,30=1,71=1/1,2,3;
 4//1;
 5/5=2,38=5/2;
 8/6=4,10=2/1;
 9/15=2,16=-3/6;
 10/5=1/2;
 6/7=2,8=2,9=2,10=2/1;
 7/12=2/1,2,3,16;
 1/18=20,19=15/3(2);
 2/9=110/2;
 99//99;
 2/9=110/2;
 3/5=1,6=6,7=101,11=9,25=1,30=1,71=1/1,2,3;
 4/5=5,16=3,69=1/1;
 5/5=2,38=5/2;
 8/6=4,10=2/1;
 9/15=2,16=-3/6;
 10/5=1/2;
 7/12=2/1,2,3,16;
 1/18=20,19=15/3(-8);
 2/9=110/2;
 6/7=2,8=2,9=2,10=2/1;
 99//99;
 Leave Link    1 at Fri Sep 17 20:09:26 2021, MaxMem=   524288000 cpu:               0.0 elap:               0.1
 (Enter /opt/gaussian/g16_legacy/l101.exe)
 -------------------------------------------------
 Conformer number 010. Energy MM = 25.468 kcal/mol
 -------------------------------------------------
 Symbolic Z-matrix:
 Charge =  0 Multiplicity = 1
 C                     2.1421    1.2315   -8.8873 
 H                     1.835     0.187    -9.0296 
 H                     1.9749    1.726    -9.8541 
 C                     3.6193    1.2548   -8.5316 
 C                     4.0405    0.3344   -7.4165 
 H                     4.8411    0.7672   -6.8098 
 H                     3.2146    0.1277   -6.7295 
 H                     4.3772   -0.6228   -7.8262 
 C                     4.4835    2.0297   -9.2182 
 H                     4.1001    2.6568   -10.022 
 C                     5.9658    2.1213   -9.027 
 H                     6.3458    1.4683   -8.2383 
 H                     6.4739    1.8459   -9.9567 
 H                     6.2436    3.1502   -8.7784 
 C                    -2.5481    0.9653   -7.906 
 H                    -2.7309    1.5775   -8.7959 
 H                    -2.8416   -0.0627   -8.1421 
 H                    -3.1983    1.3388   -7.1082 
 C                    -1.1072    1.0105   -7.4665 
 C                    -0.7941    0.1603   -6.2648 
 H                     0.0138    0.5731   -5.6556 
 H                    -1.6659    0.0836   -5.6065 
 H                    -0.5183   -0.8508   -6.5809 
 C                    -0.2049    1.7573   -8.1318 
 H                    -0.5398    2.3323   -8.9952 
 C                     1.2633    1.9068   -7.824 
 H                     1.4961    2.9778   -7.7824 
 H                     1.4962    1.5141   -6.832 
 
 ITRead=  0  0  0  0  0  0  0  0  0  0  0  0  0  0  0  0  0  0  0  0
 ITRead=  0  0  0  0  0  0  0  0
 MicOpt= -1 -1 -1 -1 -1 -1 -1 -1 -1 -1 -1 -1 -1 -1 -1 -1 -1 -1 -1 -1
 MicOpt= -1 -1 -1 -1 -1 -1 -1 -1
 NAtoms=     28 NQM=       28 NQMF=       0 NMMI=      0 NMMIF=      0
                NMic=       0 NMicF=      0.
                    Isotopes and Nuclear Properties:
 (Nuclear quadrupole moments (NQMom) in fm**2, nuclear magnetic moments (NMagM)
  in nuclear magnetons)

  Atom         1           2           3           4           5           6           7           8           9          10
 IAtWgt=          12           1           1          12          12           1           1           1          12           1
 AtmWgt=  12.0000000   1.0078250   1.0078250  12.0000000  12.0000000   1.0078250   1.0078250   1.0078250  12.0000000   1.0078250
 NucSpn=           0           1           1           0           0           1           1           1           0           1
 AtZEff=  -0.0000000  -0.0000000  -0.0000000  -0.0000000  -0.0000000  -0.0000000  -0.0000000  -0.0000000  -0.0000000  -0.0000000
 NQMom=    0.0000000   0.0000000   0.0000000   0.0000000   0.0000000   0.0000000   0.0000000   0.0000000   0.0000000   0.0000000
 NMagM=    0.0000000   2.7928460   2.7928460   0.0000000   0.0000000   2.7928460   2.7928460   2.7928460   0.0000000   2.7928460
 AtZNuc=   6.0000000   1.0000000   1.0000000   6.0000000   6.0000000   1.0000000   1.0000000   1.0000000   6.0000000   1.0000000

  Atom        11          12          13          14          15          16          17          18          19          20
 IAtWgt=          12           1           1           1          12           1           1           1          12          12
 AtmWgt=  12.0000000   1.0078250   1.0078250   1.0078250  12.0000000   1.0078250   1.0078250   1.0078250  12.0000000  12.0000000
 NucSpn=           0           1           1           1           0           1           1           1           0           0
 AtZEff=  -0.0000000  -0.0000000  -0.0000000  -0.0000000  -0.0000000  -0.0000000  -0.0000000  -0.0000000  -0.0000000  -0.0000000
 NQMom=    0.0000000   0.0000000   0.0000000   0.0000000   0.0000000   0.0000000   0.0000000   0.0000000   0.0000000   0.0000000
 NMagM=    0.0000000   2.7928460   2.7928460   2.7928460   0.0000000   2.7928460   2.7928460   2.7928460   0.0000000   0.0000000
 AtZNuc=   6.0000000   1.0000000   1.0000000   1.0000000   6.0000000   1.0000000   1.0000000   1.0000000   6.0000000   6.0000000

  Atom        21          22          23          24          25          26          27          28
 IAtWgt=           1           1           1          12           1          12           1           1
 AtmWgt=   1.0078250   1.0078250   1.0078250  12.0000000   1.0078250  12.0000000   1.0078250   1.0078250
 NucSpn=           1           1           1           0           1           0           1           1
 AtZEff=  -0.0000000  -0.0000000  -0.0000000  -0.0000000  -0.0000000  -0.0000000  -0.0000000  -0.0000000
 NQMom=    0.0000000   0.0000000   0.0000000   0.0000000   0.0000000   0.0000000   0.0000000   0.0000000
 NMagM=    2.7928460   2.7928460   2.7928460   0.0000000   2.7928460   0.0000000   2.7928460   2.7928460
 AtZNuc=   1.0000000   1.0000000   1.0000000   6.0000000   1.0000000   6.0000000   1.0000000   1.0000000
 Leave Link  101 at Fri Sep 17 20:09:26 2021, MaxMem=   524288000 cpu:               0.3 elap:               0.3
 (Enter /opt/gaussian/g16_legacy/l103.exe)

 GradGradGradGradGradGradGradGradGradGradGradGradGradGradGradGradGradGrad
 Berny optimization.
 Initialization pass.
                           ----------------------------
                           !    Initial Parameters    !
                           ! (Angstroms and Degrees)  !
 --------------------------                            --------------------------
 ! Name  Definition              Value          Derivative Info.                !
 --------------------------------------------------------------------------------
 ! R1    R(1,2)                  1.098          estimate D2E/DX2                !
 ! R2    R(1,3)                  1.0987         estimate D2E/DX2                !
 ! R3    R(1,4)                  1.5196         estimate D2E/DX2                !
 ! R4    R(1,26)                 1.5359         estimate D2E/DX2                !
 ! R5    R(4,5)                  1.506          estimate D2E/DX2                !
 ! R6    R(4,9)                  1.3486         estimate D2E/DX2                !
 ! R7    R(5,6)                  1.0938         estimate D2E/DX2                !
 ! R8    R(5,7)                  1.094          estimate D2E/DX2                !
 ! R9    R(5,8)                  1.0943         estimate D2E/DX2                !
 ! R10   R(9,10)                 1.0892         estimate D2E/DX2                !
 ! R11   R(9,11)                 1.4974         estimate D2E/DX2                !
 ! R12   R(11,12)                1.0922         estimate D2E/DX2                !
 ! R13   R(11,13)                1.0947         estimate D2E/DX2                !
 ! R14   R(11,14)                1.0944         estimate D2E/DX2                !
 ! R15   R(15,16)                1.0955         estimate D2E/DX2                !
 ! R16   R(15,17)                1.0948         estimate D2E/DX2                !
 ! R17   R(15,18)                1.0949         estimate D2E/DX2                !
 ! R18   R(15,19)                1.5071         estimate D2E/DX2                !
 ! R19   R(19,20)                1.505          estimate D2E/DX2                !
 ! R20   R(19,24)                1.347          estimate D2E/DX2                !
 ! R21   R(20,21)                1.0928         estimate D2E/DX2                !
 ! R22   R(20,22)                1.0951         estimate D2E/DX2                !
 ! R23   R(20,23)                1.0947         estimate D2E/DX2                !
 ! R24   R(24,25)                1.0901         estimate D2E/DX2                !
 ! R25   R(24,26)                1.5075         estimate D2E/DX2                !
 ! R26   R(26,27)                1.0968         estimate D2E/DX2                !
 ! R27   R(26,28)                1.092          estimate D2E/DX2                !
 ! A1    A(2,1,3)              105.7562         estimate D2E/DX2                !
 ! A2    A(2,1,4)              108.4705         estimate D2E/DX2                !
 ! A3    A(2,1,26)             110.3625         estimate D2E/DX2                !
 ! A4    A(3,1,4)              110.3039         estimate D2E/DX2                !
 ! A5    A(3,1,26)             108.9185         estimate D2E/DX2                !
 ! A6    A(4,1,26)             112.7942         estimate D2E/DX2                !
 ! A7    A(1,4,5)              115.838          estimate D2E/DX2                !
 ! A8    A(1,4,9)              120.8351         estimate D2E/DX2                !
 ! A9    A(5,4,9)              123.293          estimate D2E/DX2                !
 ! A10   A(4,5,6)              111.9375         estimate D2E/DX2                !
 ! A11   A(4,5,7)              111.6732         estimate D2E/DX2                !
 ! A12   A(4,5,8)              110.0862         estimate D2E/DX2                !
 ! A13   A(6,5,7)              106.2018         estimate D2E/DX2                !
 ! A14   A(6,5,8)              109.1826         estimate D2E/DX2                !
 ! A15   A(7,5,8)              107.5857         estimate D2E/DX2                !
 ! A16   A(4,9,10)             118.7489         estimate D2E/DX2                !
 ! A17   A(4,9,11)             127.1926         estimate D2E/DX2                !
 ! A18   A(10,9,11)            114.0459         estimate D2E/DX2                !
 ! A19   A(9,11,12)            113.5817         estimate D2E/DX2                !
 ! A20   A(9,11,13)            109.6114         estimate D2E/DX2                !
 ! A21   A(9,11,14)            109.7436         estimate D2E/DX2                !
 ! A22   A(12,11,13)           107.541          estimate D2E/DX2                !
 ! A23   A(12,11,14)           108.0449         estimate D2E/DX2                !
 ! A24   A(13,11,14)           108.1578         estimate D2E/DX2                !
 ! A25   A(16,15,17)           107.7465         estimate D2E/DX2                !
 ! A26   A(16,15,18)           107.5887         estimate D2E/DX2                !
 ! A27   A(16,15,19)           112.3126         estimate D2E/DX2                !
 ! A28   A(17,15,18)           108.5569         estimate D2E/DX2                !
 ! A29   A(17,15,19)           110.325          estimate D2E/DX2                !
 ! A30   A(18,15,19)           110.1845         estimate D2E/DX2                !
 ! A31   A(15,19,20)           114.5074         estimate D2E/DX2                !
 ! A32   A(15,19,24)           120.8647         estimate D2E/DX2                !
 ! A33   A(20,19,24)           124.6259         estimate D2E/DX2                !
 ! A34   A(19,20,21)           112.6768         estimate D2E/DX2                !
 ! A35   A(19,20,22)           110.7282         estimate D2E/DX2                !
 ! A36   A(19,20,23)           110.0988         estimate D2E/DX2                !
 ! A37   A(21,20,22)           106.2533         estimate D2E/DX2                !
 ! A38   A(21,20,23)           108.8817         estimate D2E/DX2                !
 ! A39   A(22,20,23)           108.0268         estimate D2E/DX2                !
 ! A40   A(19,24,25)           118.5451         estimate D2E/DX2                !
 ! A41   A(19,24,26)           127.3369         estimate D2E/DX2                !
 ! A42   A(25,24,26)           114.118          estimate D2E/DX2                !
 ! A43   A(1,26,24)            111.8571         estimate D2E/DX2                !
 ! A44   A(1,26,27)            109.5209         estimate D2E/DX2                !
 ! A45   A(1,26,28)            110.4109         estimate D2E/DX2                !
 ! A46   A(24,26,27)           108.1372         estimate D2E/DX2                !
 ! A47   A(24,26,28)           110.9478         estimate D2E/DX2                !
 ! A48   A(27,26,28)           105.7491         estimate D2E/DX2                !
 ! D1    D(2,1,4,5)            -50.3009         estimate D2E/DX2                !
 ! D2    D(2,1,4,9)            127.6498         estimate D2E/DX2                !
 ! D3    D(3,1,4,5)           -165.6952         estimate D2E/DX2                !
 ! D4    D(3,1,4,9)             12.2555         estimate D2E/DX2                !
 ! D5    D(26,1,4,5)            72.2674         estimate D2E/DX2                !
 ! D6    D(26,1,4,9)          -109.782          estimate D2E/DX2                !
 ! D7    D(2,1,26,24)          -53.075          estimate D2E/DX2                !
 ! D8    D(2,1,26,27)         -172.9475         estimate D2E/DX2                !
 ! D9    D(2,1,26,28)           71.0            estimate D2E/DX2                !
 ! D10   D(3,1,26,24)           62.608          estimate D2E/DX2                !
 ! D11   D(3,1,26,27)          -57.2644         estimate D2E/DX2                !
 ! D12   D(3,1,26,28)         -173.317          estimate D2E/DX2                !
 ! D13   D(4,1,26,24)         -174.5774         estimate D2E/DX2                !
 ! D14   D(4,1,26,27)           65.5501         estimate D2E/DX2                !
 ! D15   D(4,1,26,28)          -50.5025         estimate D2E/DX2                !
 ! D16   D(1,4,5,6)           -145.088          estimate D2E/DX2                !
 ! D17   D(1,4,5,7)            -26.1578         estimate D2E/DX2                !
 ! D18   D(1,4,5,8)             93.2809         estimate D2E/DX2                !
 ! D19   D(9,4,5,6)             37.0172         estimate D2E/DX2                !
 ! D20   D(9,4,5,7)            155.9474         estimate D2E/DX2                !
 ! D21   D(9,4,5,8)            -84.6139         estimate D2E/DX2                !
 ! D22   D(1,4,9,10)             1.2515         estimate D2E/DX2                !
 ! D23   D(1,4,9,11)          -177.3729         estimate D2E/DX2                !
 ! D24   D(5,4,9,10)           179.0448         estimate D2E/DX2                !
 ! D25   D(5,4,9,11)             0.4204         estimate D2E/DX2                !
 ! D26   D(4,9,11,12)            0.3271         estimate D2E/DX2                !
 ! D27   D(4,9,11,13)          120.6342         estimate D2E/DX2                !
 ! D28   D(4,9,11,14)         -120.7215         estimate D2E/DX2                !
 ! D29   D(10,9,11,12)        -178.3523         estimate D2E/DX2                !
 ! D30   D(10,9,11,13)         -58.0452         estimate D2E/DX2                !
 ! D31   D(10,9,11,14)          60.5991         estimate D2E/DX2                !
 ! D32   D(16,15,19,20)       -178.6649         estimate D2E/DX2                !
 ! D33   D(16,15,19,24)          0.8485         estimate D2E/DX2                !
 ! D34   D(17,15,19,20)        -58.4422         estimate D2E/DX2                !
 ! D35   D(17,15,19,24)        121.0711         estimate D2E/DX2                !
 ! D36   D(18,15,19,20)         61.4092         estimate D2E/DX2                !
 ! D37   D(18,15,19,24)       -119.0774         estimate D2E/DX2                !
 ! D38   D(15,19,20,21)       -149.15           estimate D2E/DX2                !
 ! D39   D(15,19,20,22)        -30.3045         estimate D2E/DX2                !
 ! D40   D(15,19,20,23)         89.0896         estimate D2E/DX2                !
 ! D41   D(24,19,20,21)         31.3577         estimate D2E/DX2                !
 ! D42   D(24,19,20,22)        150.2032         estimate D2E/DX2                !
 ! D43   D(24,19,20,23)        -90.4028         estimate D2E/DX2                !
 ! D44   D(15,19,24,25)          0.1842         estimate D2E/DX2                !
 ! D45   D(15,19,24,26)       -179.8688         estimate D2E/DX2                !
 ! D46   D(20,19,24,25)        179.6461         estimate D2E/DX2                !
 ! D47   D(20,19,24,26)         -0.407          estimate D2E/DX2                !
 ! D48   D(19,24,26,1)         110.2695         estimate D2E/DX2                !
 ! D49   D(19,24,26,27)       -129.0498         estimate D2E/DX2                !
 ! D50   D(19,24,26,28)        -13.5042         estimate D2E/DX2                !
 ! D51   D(25,24,26,1)         -69.7816         estimate D2E/DX2                !
 ! D52   D(25,24,26,27)         50.8991         estimate D2E/DX2                !
 ! D53   D(25,24,26,28)        166.4448         estimate D2E/DX2                !
 --------------------------------------------------------------------------------
 Trust Radius=3.00D-01 FncErr=1.00D-07 GrdErr=1.00D-07 EigMax=2.50D+02 EigMin=1.00D-04
 Number of steps in this run=    138 maximum allowed number of steps=    168.
 GradGradGradGradGradGradGradGradGradGradGradGradGradGradGradGradGradGrad

 Leave Link  103 at Fri Sep 17 20:09:26 2021, MaxMem=   524288000 cpu:               0.1 elap:               0.0
 (Enter /opt/gaussian/g16_legacy/l202.exe)
                          Input orientation:                          
 ---------------------------------------------------------------------
 Center     Atomic      Atomic             Coordinates (Angstroms)
 Number     Number       Type             X           Y           Z
 ---------------------------------------------------------------------
      1          6           0        2.142100    1.231500   -8.887300
      2          1           0        1.835000    0.187000   -9.029600
      3          1           0        1.974900    1.726000   -9.854100
      4          6           0        3.619300    1.254800   -8.531600
      5          6           0        4.040500    0.334400   -7.416500
      6          1           0        4.841100    0.767200   -6.809800
      7          1           0        3.214600    0.127700   -6.729500
      8          1           0        4.377200   -0.622800   -7.826200
      9          6           0        4.483500    2.029700   -9.218200
     10          1           0        4.100100    2.656800  -10.022000
     11          6           0        5.965800    2.121300   -9.027000
     12          1           0        6.345800    1.468300   -8.238300
     13          1           0        6.473900    1.845900   -9.956700
     14          1           0        6.243600    3.150200   -8.778400
     15          6           0       -2.548100    0.965300   -7.906000
     16          1           0       -2.730900    1.577500   -8.795900
     17          1           0       -2.841600   -0.062700   -8.142100
     18          1           0       -3.198300    1.338800   -7.108200
     19          6           0       -1.107200    1.010500   -7.466500
     20          6           0       -0.794100    0.160300   -6.264800
     21          1           0        0.013800    0.573100   -5.655600
     22          1           0       -1.665900    0.083600   -5.606500
     23          1           0       -0.518300   -0.850800   -6.580900
     24          6           0       -0.204900    1.757300   -8.131800
     25          1           0       -0.539800    2.332300   -8.995200
     26          6           0        1.263300    1.906800   -7.824000
     27          1           0        1.496100    2.977800   -7.782400
     28          1           0        1.496200    1.514100   -6.832000
 ---------------------------------------------------------------------
                    Distance matrix (angstroms):
                    1          2          3          4          5
     1  C    0.000000
     2  H    1.097971   0.000000
     3  H    1.098721   1.751540   0.000000
     4  C    1.519600   2.138207   2.162195   0.000000
     5  C    2.563584   2.736430   3.484989   1.505986   0.000000
     6  H    3.437467   3.781637   4.289774   2.166828   1.093783
     7  H    2.650421   2.682773   3.722169   2.163724   1.093986
     8  H    3.091930   2.926897   3.924320   2.144151   1.094282
     9  C    2.495751   3.231975   2.605701   1.348603   2.513248
    10  H    2.674470   3.495060   2.326167   2.101919   3.490806
    11  C    3.928351   4.561253   4.094831   2.549962   3.081153
    12  H    4.260090   4.755544   4.667117   2.750529   2.697312
    13  H    4.503953   5.013069   4.501767   3.244850   3.828666
    14  H    4.529412   5.317839   4.626800   3.246599   3.825853
    15  C    4.799145   4.591274   4.983100   6.205804   6.636814
    16  H    4.886123   4.778656   4.825598   6.363885   7.021389
    17  H    5.202648   4.766612   5.415631   6.605357   6.931629
    18  H    5.629972   5.509313   5.869573   6.965113   7.314649
    19  C    3.553233   3.431905   3.963826   4.851177   5.192150
    20  C    4.079981   3.815364   4.796025   5.080789   4.972935
    21  H    3.925180   3.853533   4.775196   4.662158   4.401370
    22  H    5.155792   4.897408   5.830524   6.153150   5.991828
    23  H    4.090621   3.551223   4.854872   5.035724   4.783888
    24  C    2.521042   2.726367   2.778277   3.877738   4.534283
    25  H    2.901033   3.200495   2.725624   4.321347   5.240520
    26  C    1.535880   2.176700   2.158789   2.544904   3.217350
    27  H    2.165106   3.075537   2.467427   2.835138   3.687196
    28  H    2.172857   2.589484   3.067107   2.731928   2.864750
                    6          7          8          9         10
     6  H    0.000000
     7  H    1.749546   0.000000
     8  H    1.783360   1.765684   0.000000
     9  C    2.742658   3.379547   2.997452   0.000000
    10  H    3.799723   4.245116   3.956526   1.089194   0.000000
    11  C    2.830991   4.101469   3.390524   1.497385   2.181197
    12  H    2.190040   3.725332   2.901364   2.177966   3.104398
    13  H    3.705754   4.897966   3.876811   2.130929   2.509332
    14  H    3.394272   4.744295   4.315746   2.132345   2.526772
    15  C    7.472695   5.940912   7.105506   7.231750   7.178941
    16  H    7.869966   6.459172   7.503781   7.240883   7.023587
    17  H    7.841405   6.221676   7.247384   7.693713   7.688752
    18  H    8.065217   6.537237   7.858219   7.996217   7.968312
    19  C    5.989384   4.472187   5.733733   5.946692   6.029665
    20  C    5.693929   4.035676   5.458348   6.330110   6.655994
    21  H    4.967160   3.405402   5.018061   5.898476   6.332859
    22  H    6.652540   5.008229   6.476506   7.392348   7.704853
    23  H    5.602989   3.861876   5.056548   6.345915   6.743445
    24  C    5.309435   4.039186   5.172418   4.820328   4.786960
    25  H    6.014948   4.908073   5.854577   5.037344   4.763223
    26  C    3.889466   2.858443   4.011889   3.511209   3.666216
    27  H    4.125740   3.490689   4.611613   3.447459   3.449589
    28  H    3.427347   2.210319   3.722222   3.857947   4.273425
                   11         12         13         14         15
    11  C    0.000000
    12  H    1.092180   0.000000
    13  H    1.094693   1.764055   0.000000
    14  H    1.094354   1.769446   1.772746   0.000000
    15  C    8.664841   8.914308   9.293939   9.101036   0.000000
    16  H    8.716749   9.094467   9.281586   9.111276   1.095503
    17  H    9.117192   9.314587   9.680603   9.657560   1.094838
    18  H    9.395469   9.611646  10.095670   9.758085   1.094873
    19  C    7.327780   7.506828   8.023220   7.767474   1.507115
    20  C    7.561185   7.522216   8.324374   8.049032   2.533393
    21  H    7.013527   6.896807   7.864628   7.429921   3.432412
    22  H    8.607839   8.545824   9.396078   9.056775   2.615984
    23  H    7.540579   7.432434   8.219433   8.158450   3.028894
    24  C    6.245912   6.557937   6.924195   6.628832   2.483714
    25  H    6.509099   6.980751   7.095989   6.835969   2.662389
    26  C    4.858675   5.118177   5.630495   5.221141   3.926820
    27  H    4.718139   5.099610   5.548628   4.853915   4.518959
    28  H    5.016377   5.049594   5.886539   5.385453   4.220310
                   16         17         18         19         20
    16  H    0.000000
    17  H    1.769171   0.000000
    18  H    1.767420   1.777748   0.000000
    19  C    2.173751   2.148566   2.146825   0.000000
    20  C    3.487996   2.786798   2.807199   1.504977   0.000000
    21  H    4.289951   3.839301   3.607482   2.174240   1.092809
    22  H    3.679434   2.798739   2.485735   2.151950   1.095115
    23  H    3.962129   2.907949   3.500685   2.143718   1.094673
    24  C    2.618021   3.203856   3.191135   1.347026   2.526510
    25  H    2.326019   3.429590   3.408142   2.099053   3.498190
    26  C    4.123913   4.564025   4.554214   2.559381   3.116771
    27  H    4.566788   5.309394   5.017794   3.278297   3.935280
    28  H    4.661469   4.797830   4.705884   2.726517   2.720288
                   21         22         23         24         25
    21  H    0.000000
    22  H    1.750261   0.000000
    23  H    1.779551   1.771876   0.000000
    24  C    2.753493   3.363470   3.050524   0.000000
    25  H    3.814995   4.219957   3.995176   1.090065   0.000000
    26  C    2.835836   4.101412   3.510520   1.507548   2.191787
    27  H    3.535969   4.807201   4.489943   2.122522   2.456103
    28  H    2.113506   3.680633   3.116731   2.154615   3.081263
                   26         27         28
    26  C    0.000000
    27  H    1.096799   0.000000
    28  H    1.092026   1.745187   0.000000
 Stoichiometry    C10H18
 Framework group  C1[X(C10H18)]
 Deg. of freedom    78
 Full point group                 C1      NOp   1
 Largest Abelian subgroup         C1      NOp   1
 Largest concise Abelian subgroup C1      NOp   1
                         Standard orientation:                         
 ---------------------------------------------------------------------
 Center     Atomic      Atomic             Coordinates (Angstroms)
 Number     Number       Type             X           Y           Z
 ---------------------------------------------------------------------
      1          6           0        0.604927   -0.526320    0.532883
      2          1           0        0.213765   -0.055906    1.444608
      3          1           0        0.692805   -1.596927    0.763677
      4          6           0        1.973720    0.063221    0.236182
      5          6           0        2.054043    1.567061    0.233243
      6          1           0        2.761716    1.937018   -0.514214
      7          1           0        1.089183    2.022723   -0.008051
      8          1           0        2.352839    1.929382    1.221624
      9          6           0        3.041494   -0.735536    0.034744
     10          1           0        2.901762   -1.815217    0.068039
     11          6           0        4.456048   -0.310692   -0.211637
     12          1           0        4.592495    0.772926   -0.215198
     13          1           0        5.104473   -0.722311    0.568407
     14          1           0        4.795639   -0.698293   -1.177065
     15          6           0       -4.185424   -0.694009    0.295802
     16          1           0       -4.114487   -1.783367    0.387414
     17          1           0       -4.542686   -0.301158    1.253247
     18          1           0       -4.934378   -0.474641   -0.472113
     19          6           0       -2.866174   -0.063388   -0.069292
     20          6           0       -2.900225    1.437328   -0.177217
     21          1           0       -2.188264    1.823221   -0.910994
     22          1           0       -3.888965    1.780405   -0.499660
     23          1           0       -2.685636    1.889454    0.796354
     24          6           0       -1.768842   -0.820047   -0.263735
     25          1           0       -1.855493   -1.901137   -0.154286
     26          6           0       -0.384627   -0.346739   -0.627919
     27          1           0       -0.042550   -0.926140   -1.494085
     28          1           0       -0.401846    0.694686   -0.956029
 ---------------------------------------------------------------------
 Rotational constants (GHZ):           3.5134848           0.4540348           0.4190316
 Leave Link  202 at Fri Sep 17 20:09:26 2021, MaxMem=   524288000 cpu:               0.0 elap:               0.0
 (Enter /opt/gaussian/g16_legacy/l301.exe)
 Standard basis: 6-31G(d,p) (6D, 7F)
 Ernie: Thresh=  0.10000D-02 Tol=  0.10000D-05 Strict=F.
 There are   240 symmetry adapted cartesian basis functions of A   symmetry.
 There are   240 symmetry adapted basis functions of A   symmetry.
   240 basis functions,   406 primitive gaussians,   240 cartesian basis functions
    39 alpha electrons       39 beta electrons
       nuclear repulsion energy       508.1743963453 Hartrees.
 IExCor=    0 DFT=F Ex=HF Corr=None ExCW=0 ScaHFX=  1.000000
 ScaDFX=  1.000000  1.000000  1.000000  1.000000 ScalE2=  1.000000  1.000000
 IRadAn=      5 IRanWt=     -1 IRanGd=            0 ICorTp=0 IEmpDi=  4
 NAtoms=   28 NActive=   28 NUniq=   28 SFac= 1.00D+00 NAtFMM=   60 NAOKFM=F Big=F
 Integral buffers will be    131072 words long.
 Raffenetti 1 integral format.
 Two-electron integral symmetry is turned on.
 Leave Link  301 at Fri Sep 17 20:09:26 2021, MaxMem=   524288000 cpu:               0.1 elap:               0.1
 (Enter /opt/gaussian/g16_legacy/l302.exe)
 NPDir=0 NMtPBC=     1 NCelOv=     1 NCel=       1 NClECP=     1 NCelD=      1
         NCelK=      1 NCelE2=     1 NClLst=     1 CellRange=     0.0.
 One-electron integrals computed using PRISM.
 One-electron integral symmetry used in STVInt
 NBasis=   240 RedAO= T EigKep=  2.24D-03  NBF=   240
 NBsUse=   240 1.00D-06 EigRej= -1.00D+00 NBFU=   240
 Leave Link  302 at Fri Sep 17 20:09:27 2021, MaxMem=   524288000 cpu:               0.3 elap:               0.3
 (Enter /opt/gaussian/g16_legacy/l303.exe)
 DipDrv:  MaxL=1.
 Leave Link  303 at Fri Sep 17 20:09:27 2021, MaxMem=   524288000 cpu:               0.1 elap:               0.3
 (Enter /opt/gaussian/g16_legacy/l401.exe)
 ExpMin= 1.61D-01 ExpMax= 3.05D+03 ExpMxC= 4.57D+02 IAcc=3 IRadAn=         5 AccDes= 0.00D+00
 Harris functional with IExCor=  205 and IRadAn=       5 diagonalized for initial guess.
 HarFok:  IExCor=  205 AccDes= 0.00D+00 IRadAn=         5 IDoV= 1 UseB2=F ITyADJ=14
 ICtDFT=  3500011 ScaDFX=  1.000000  1.000000  1.000000  1.000000
 FoFCou: FMM=F IPFlag=           0 FMFlag=      100000 FMFlg1=           0
         NFxFlg=           0 DoJE=T BraDBF=F KetDBF=T FulRan=T
         wScrn=  0.000000 ICntrl=       500 IOpCl=  0 I1Cent=   200000004 NGrid=           0
         NMat0=    1 NMatS0=      1 NMatT0=    0 NMatD0=    1 NMtDS0=    0 NMtDT0=    0
 Petite list used in FoFCou.
 Harris En= -390.108620746602    
 JPrj=0 DoOrth=F DoCkMO=F.
 Leave Link  401 at Fri Sep 17 20:09:38 2021, MaxMem=   524288000 cpu:              10.8 elap:              11.0
 (Enter /opt/gaussian/g16_legacy/l502.exe)
 Keep R1 ints in memory in canonical form, NReq=425198025.
 FoFCou: FMM=F IPFlag=           0 FMFlag=           0 FMFlg1=           0
         NFxFlg=           0 DoJE=F BraDBF=F KetDBF=F FulRan=T
         wScrn=  0.000000 ICntrl=       600 IOpCl=  0 I1Cent=           0 NGrid=           0
         NMat0=    1 NMatS0=  28920 NMatT0=    0 NMatD0=    1 NMtDS0=    0 NMtDT0=    0
 Symmetry not used in FoFCou.
 Two-electron integral symmetry not used.
 Closed shell SCF:
 Using DIIS extrapolation, IDIIS=  1040.
 NGot=   524288000 LenX=   105970886 LenY=   105912845
 Requested convergence on RMS density matrix=1.00D-08 within 128 cycles.
 Requested convergence on MAX density matrix=1.00D-06.
 Requested convergence on             energy=1.00D-06.
 No special actions if energy rises.

 Cycle   1  Pass 1  IDiag  1:
 E= -388.532064836123    
 DIIS: error= 5.27D-02 at cycle   1 NSaved=   1.
 NSaved= 1 IEnMin= 1 EnMin= -388.532064836123     IErMin= 1 ErrMin= 5.27D-02
 ErrMax= 5.27D-02  0.00D+00 EMaxC= 1.00D-01 BMatC= 8.06D-01 BMatP= 8.06D-01
 IDIUse=3 WtCom= 4.73D-01 WtEn= 5.27D-01
 Coeff-Com:  0.100D+01
 Coeff-En:   0.100D+01
 Coeff:      0.100D+01
 Gap=     0.511 Goal=   None    Shift=    0.000
 GapD=    0.511 DampG=2.000 DampE=0.500 DampFc=1.0000 IDamp=-1.
 RMSDP=3.98D-03 MaxDP=1.14D-01              OVMax= 1.34D-01

 Cycle   2  Pass 1  IDiag  1:
 E= -389.072820547429     Delta-E=       -0.540755711306 Rises=F Damp=F
 DIIS: error= 1.11D-02 at cycle   2 NSaved=   2.
 NSaved= 2 IEnMin= 2 EnMin= -389.072820547429     IErMin= 2 ErrMin= 1.11D-02
 ErrMax= 1.11D-02  0.00D+00 EMaxC= 1.00D-01 BMatC= 8.60D-02 BMatP= 8.06D-01
 IDIUse=3 WtCom= 8.89D-01 WtEn= 1.11D-01
 Coeff-Com:  0.182D+00 0.818D+00
 Coeff-En:   0.000D+00 0.100D+01
 Coeff:      0.162D+00 0.838D+00
 Gap=     0.559 Goal=   None    Shift=    0.000
 RMSDP=1.61D-03 MaxDP=3.01D-02 DE=-5.41D-01 OVMax= 4.46D-02

 Cycle   3  Pass 1  IDiag  1:
 E= -389.149901135204     Delta-E=       -0.077080587775 Rises=F Damp=F
 DIIS: error= 2.34D-03 at cycle   3 NSaved=   3.
 NSaved= 3 IEnMin= 3 EnMin= -389.149901135204     IErMin= 3 ErrMin= 2.34D-03
 ErrMax= 2.34D-03  0.00D+00 EMaxC= 1.00D-01 BMatC= 2.80D-03 BMatP= 8.60D-02
 IDIUse=3 WtCom= 9.77D-01 WtEn= 2.34D-02
 Coeff-Com: -0.243D-01 0.962D-01 0.928D+00
 Coeff-En:   0.000D+00 0.000D+00 0.100D+01
 Coeff:     -0.237D-01 0.940D-01 0.930D+00
 Gap=     0.502 Goal=   None    Shift=    0.000
 RMSDP=2.46D-04 MaxDP=6.19D-03 DE=-7.71D-02 OVMax= 9.71D-03

 Cycle   4  Pass 1  IDiag  1:
 E= -389.153157480603     Delta-E=       -0.003256345399 Rises=F Damp=F
 DIIS: error= 4.28D-04 at cycle   4 NSaved=   4.
 NSaved= 4 IEnMin= 4 EnMin= -389.153157480603     IErMin= 4 ErrMin= 4.28D-04
 ErrMax= 4.28D-04  0.00D+00 EMaxC= 1.00D-01 BMatC= 9.62D-05 BMatP= 2.80D-03
 IDIUse=3 WtCom= 9.96D-01 WtEn= 4.28D-03
 Coeff-Com: -0.443D-02-0.134D-02 0.104D+00 0.901D+00
 Coeff-En:   0.000D+00 0.000D+00 0.000D+00 0.100D+01
 Coeff:     -0.441D-02-0.134D-02 0.104D+00 0.902D+00
 Gap=     0.502 Goal=   None    Shift=    0.000
 RMSDP=7.34D-05 MaxDP=1.81D-03 DE=-3.26D-03 OVMax= 3.58D-03

 Cycle   5  Pass 1  IDiag  1:
 E= -389.153282102355     Delta-E=       -0.000124621752 Rises=F Damp=F
 DIIS: error= 1.74D-04 at cycle   5 NSaved=   5.
 NSaved= 5 IEnMin= 5 EnMin= -389.153282102355     IErMin= 5 ErrMin= 1.74D-04
 ErrMax= 1.74D-04  0.00D+00 EMaxC= 1.00D-01 BMatC= 1.90D-05 BMatP= 9.62D-05
 IDIUse=3 WtCom= 9.98D-01 WtEn= 1.74D-03
 Coeff-Com:  0.233D-02-0.145D-01-0.103D+00 0.208D+00 0.907D+00
 Coeff-En:   0.000D+00 0.000D+00 0.000D+00 0.000D+00 0.100D+01
 Coeff:      0.233D-02-0.144D-01-0.103D+00 0.207D+00 0.907D+00
 Gap=     0.503 Goal=   None    Shift=    0.000
 RMSDP=3.07D-05 MaxDP=7.30D-04 DE=-1.25D-04 OVMax= 9.19D-04

 Cycle   6  Pass 1  IDiag  1:
 E= -389.153306574109     Delta-E=       -0.000024471754 Rises=F Damp=F
 DIIS: error= 3.27D-05 at cycle   6 NSaved=   6.
 NSaved= 6 IEnMin= 6 EnMin= -389.153306574109     IErMin= 6 ErrMin= 3.27D-05
 ErrMax= 3.27D-05  0.00D+00 EMaxC= 1.00D-01 BMatC= 5.48D-07 BMatP= 1.90D-05
 IDIUse=1 WtCom= 1.00D+00 WtEn= 0.00D+00
 Coeff-Com:  0.693D-03-0.290D-02-0.252D-01-0.916D-02 0.142D+00 0.894D+00
 Coeff:      0.693D-03-0.290D-02-0.252D-01-0.916D-02 0.142D+00 0.894D+00
 Gap=     0.503 Goal=   None    Shift=    0.000
 RMSDP=5.90D-06 MaxDP=1.58D-04 DE=-2.45D-05 OVMax= 3.16D-04

 Cycle   7  Pass 1  IDiag  1:
 E= -389.153307505595     Delta-E=       -0.000000931487 Rises=F Damp=F
 DIIS: error= 1.03D-05 at cycle   7 NSaved=   7.
 NSaved= 7 IEnMin= 7 EnMin= -389.153307505595     IErMin= 7 ErrMin= 1.03D-05
 ErrMax= 1.03D-05  0.00D+00 EMaxC= 1.00D-01 BMatC= 4.48D-08 BMatP= 5.48D-07
 IDIUse=1 WtCom= 1.00D+00 WtEn= 0.00D+00
 Coeff-Com: -0.529D-04 0.421D-03 0.308D-02-0.801D-02-0.452D-01 0.859D-01
 Coeff-Com:  0.964D+00
 Coeff:     -0.529D-04 0.421D-03 0.308D-02-0.801D-02-0.452D-01 0.859D-01
 Coeff:      0.964D+00
 Gap=     0.503 Goal=   None    Shift=    0.000
 RMSDP=1.68D-06 MaxDP=4.79D-05 DE=-9.31D-07 OVMax= 8.96D-05

 Cycle   8  Pass 1  IDiag  1:
 E= -389.153307589365     Delta-E=       -0.000000083770 Rises=F Damp=F
 DIIS: error= 4.01D-06 at cycle   8 NSaved=   8.
 NSaved= 8 IEnMin= 8 EnMin= -389.153307589365     IErMin= 8 ErrMin= 4.01D-06
 ErrMax= 4.01D-06  0.00D+00 EMaxC= 1.00D-01 BMatC= 6.04D-09 BMatP= 4.48D-08
 IDIUse=1 WtCom= 1.00D+00 WtEn= 0.00D+00
 Coeff-Com: -0.679D-04 0.271D-03 0.248D-02 0.344D-02-0.193D-01-0.881D-01
 Coeff-Com: -0.627D-01 0.116D+01
 Coeff:     -0.679D-04 0.271D-03 0.248D-02 0.344D-02-0.193D-01-0.881D-01
 Coeff:     -0.627D-01 0.116D+01
 Gap=     0.503 Goal=   None    Shift=    0.000
 RMSDP=7.89D-07 MaxDP=2.72D-05 DE=-8.38D-08 OVMax= 5.87D-05

 Cycle   9  Pass 1  IDiag  1:
 E= -389.153307606447     Delta-E=       -0.000000017082 Rises=F Damp=F
 DIIS: error= 1.41D-06 at cycle   9 NSaved=   9.
 NSaved= 9 IEnMin= 9 EnMin= -389.153307606447     IErMin= 9 ErrMin= 1.41D-06
 ErrMax= 1.41D-06  0.00D+00 EMaxC= 1.00D-01 BMatC= 8.36D-10 BMatP= 6.04D-09
 IDIUse=1 WtCom= 1.00D+00 WtEn= 0.00D+00
 Coeff-Com:  0.148D-04-0.860D-04-0.697D-03 0.127D-02 0.481D-02 0.985D-02
 Coeff-Com: -0.946D-01-0.211D+00 0.129D+01
 Coeff:      0.148D-04-0.860D-04-0.697D-03 0.127D-02 0.481D-02 0.985D-02
 Coeff:     -0.946D-01-0.211D+00 0.129D+01
 Gap=     0.503 Goal=   None    Shift=    0.000
 RMSDP=3.46D-07 MaxDP=1.36D-05 DE=-1.71D-08 OVMax= 2.93D-05

 Cycle  10  Pass 1  IDiag  1:
 E= -389.153307609215     Delta-E=       -0.000000002769 Rises=F Damp=F
 DIIS: error= 3.73D-07 at cycle  10 NSaved=  10.
 NSaved=10 IEnMin=10 EnMin= -389.153307609215     IErMin=10 ErrMin= 3.73D-07
 ErrMax= 3.73D-07  0.00D+00 EMaxC= 1.00D-01 BMatC= 9.42D-11 BMatP= 8.36D-10
 IDIUse=1 WtCom= 1.00D+00 WtEn= 0.00D+00
 Coeff-Com:  0.878D-05-0.386D-04-0.341D-03-0.145D-03 0.189D-02 0.127D-01
 Coeff-Com:  0.236D-02-0.170D+00 0.986D-01 0.105D+01
 Coeff:      0.878D-05-0.386D-04-0.341D-03-0.145D-03 0.189D-02 0.127D-01
 Coeff:      0.236D-02-0.170D+00 0.986D-01 0.105D+01
 Gap=     0.503 Goal=   None    Shift=    0.000
 RMSDP=1.10D-07 MaxDP=3.16D-06 DE=-2.77D-09 OVMax= 8.57D-06

 Cycle  11  Pass 1  IDiag  1:
 E= -389.153307609460     Delta-E=       -0.000000000244 Rises=F Damp=F
 DIIS: error= 1.63D-07 at cycle  11 NSaved=  11.
 NSaved=11 IEnMin=11 EnMin= -389.153307609460     IErMin=11 ErrMin= 1.63D-07
 ErrMax= 1.63D-07  0.00D+00 EMaxC= 1.00D-01 BMatC= 7.75D-12 BMatP= 9.42D-11
 IDIUse=1 WtCom= 1.00D+00 WtEn= 0.00D+00
 Coeff-Com: -0.195D-06 0.315D-05 0.229D-04-0.123D-03-0.408D-03 0.128D-02
 Coeff-Com:  0.114D-01-0.337D-02-0.116D+00 0.164D+00 0.943D+00
 Coeff:     -0.195D-06 0.315D-05 0.229D-04-0.123D-03-0.408D-03 0.128D-02
 Coeff:      0.114D-01-0.337D-02-0.116D+00 0.164D+00 0.943D+00
 Gap=     0.503 Goal=   None    Shift=    0.000
 RMSDP=2.46D-08 MaxDP=1.10D-06 DE=-2.44D-10 OVMax= 2.10D-06

 Cycle  12  Pass 1  IDiag  1:
 E= -389.153307609475     Delta-E=       -0.000000000015 Rises=F Damp=F
 DIIS: error= 3.74D-08 at cycle  12 NSaved=  12.
 NSaved=12 IEnMin=12 EnMin= -389.153307609475     IErMin=12 ErrMin= 3.74D-08
 ErrMax= 3.74D-08  0.00D+00 EMaxC= 1.00D-01 BMatC= 8.77D-13 BMatP= 7.75D-12
 IDIUse=1 WtCom= 1.00D+00 WtEn= 0.00D+00
 Coeff-Com: -0.951D-06 0.470D-05 0.404D-04 0.155D-05-0.296D-03-0.117D-02
 Coeff-Com:  0.140D-02 0.172D-01-0.302D-01-0.983D-01 0.135D+00 0.977D+00
 Coeff:     -0.951D-06 0.470D-05 0.404D-04 0.155D-05-0.296D-03-0.117D-02
 Coeff:      0.140D-02 0.172D-01-0.302D-01-0.983D-01 0.135D+00 0.977D+00
 Gap=     0.503 Goal=   None    Shift=    0.000
 RMSDP=9.57D-09 MaxDP=2.89D-07 DE=-1.55D-11 OVMax= 6.43D-07

 SCF Done:  E(RHF) =  -389.153307609     A.U. after   12 cycles
            NFock= 12  Conv=0.96D-08     -V/T= 2.0014
 KE= 3.886098991007D+02 PE=-1.921015249449D+03 EE= 6.350776463938D+02
 Leave Link  502 at Fri Sep 17 20:10:16 2021, MaxMem=   524288000 cpu:              38.3 elap:              38.4
 (Enter /opt/gaussian/g16_legacy/l801.exe)
 ExpMin= 1.61D-01 ExpMax= 3.05D+03 ExpMxC= 4.57D+02 IAcc=3 IRadAn=         5 AccDes= 0.00D+00
 HarFok:  IExCor=  205 AccDes= 0.00D+00 IRadAn=         5 IDoV=-2 UseB2=F ITyADJ=14
 ICtDFT= 12500011 ScaDFX=  1.000000  1.000000  1.000000  1.000000
 Largest valence mixing into a core orbital is  1.97D-04
 Largest core mixing into a valence orbital is  3.51D-05
 Range of M.O.s used for correlation:    11   240
 NBasis=   240 NAE=    39 NBE=    39 NFC=    10 NFV=     0
 NROrb=    230 NOA=    29 NOB=    29 NVA=   201 NVB=   201
 Leave Link  801 at Fri Sep 17 20:10:18 2021, MaxMem=   524288000 cpu:               1.6 elap:               1.6
 (Enter /opt/gaussian/g16_legacy/l906.exe)
 Frozen-core derivative calculation, NFC=  10 NFV=   0.
 FulOut=F Deriv=T AODrv=T NAtomX=    28
   MMem=          91  MDisk=          29 MDiskD=          29
  W3Min=     2246400 MinDsk=     2795480 NBas6D=         240
 NBas2D=       29244    NTT=       28920    LW2=     2040000
    MDV=   523634477 MDiskM=       30187 NBas2p=       23500
 Fully direct method using O(ONN) memory.
 IMap=   1   2   3   4   5   6   7   8   9  10  11  12  13  14  15  16  17  18  19  20
 IMap=  21  22  23  24  25  26  27  28  29  30  31  32  33  34  35  36  37  38  39
 JobTyp=1 Pass  1:  I=  11 to  39 NPSUse=  1 ParTrn=F ParDer=F DoDerP=T.
 Spin components of T(2) and E(2):
     alpha-alpha T2 =       0.5710086365D-01 E2=     -0.1636883276D+00
     alpha-beta  T2 =       0.3619174460D+00 E2=     -0.1089339263D+01
     beta-beta   T2 =       0.5710086365D-01 E2=     -0.1636883276D+00
 The integrals were generated   1 times.
 ANorm=    0.1214956449D+01
 E2 =    -0.1416715918D+01 EUMP2 =    -0.39057002352783D+03
 Leave Link  906 at Fri Sep 17 20:14:59 2021, MaxMem=   524288000 cpu:             281.2 elap:             281.4
 (Enter /opt/gaussian/g16_legacy/l1002.exe)
 Minotr:  Closed shell wavefunction.
          Computing MP2/KS-MP2 derivatives.
          Using Z-Vector for PSCF gradient.
          Skipping F1 and S1 gradient terms here.
          IDoAtm=1111111111111111111111111111
          Frozen-core window.
          Direct CPHF calculation.
          Differentiating once with respect to electric field.
                with respect to dipole field.
          Differentiating once with respect to nuclear coordinates.
          Requested convergence is 1.0D-10 RMS, and 1.0D-09 maximum.
          NewPWx=F KeepS1=T KeepF1=T KeepIn=T MapXYZ=F SortEE=F KeepMc=T.
 Keep R1 ints in memory in canonical form, NReq=425201067.
 FoFCou: FMM=F IPFlag=           0 FMFlag=           0 FMFlg1=           0
         NFxFlg=           0 DoJE=F BraDBF=F KetDBF=F FulRan=T
         wScrn=  0.000000 ICntrl=       600 IOpCl=  0 I1Cent=           0 NGrid=           0
         NMat0=    1 NMatS0=  28920 NMatT0=    0 NMatD0=    1 NMtDS0=    0 NMtDT0=    0
 Symmetry not used in FoFCou.
 Two-electron integral symmetry not used.
          MDV=     524288000 using IRadAn=       5.
          Solving linear equations separately, MaxMat=       0.
          There are     1 degrees of freedom in the 1st order CPHF.  IDoFFX=0 NUNeed=     1.
 LinEq1:  Iter=  0 NonCon=     1 RMS=2.55D-03 Max=4.29D-02 NDo=     1
 AX will form     1 AO Fock derivatives at one time.
 LinEq1:  Iter=  1 NonCon=     1 RMS=6.91D-04 Max=9.52D-03 NDo=     1
 LinEq1:  Iter=  2 NonCon=     1 RMS=1.64D-04 Max=4.54D-03 NDo=     1
 LinEq1:  Iter=  3 NonCon=     1 RMS=4.61D-05 Max=5.93D-04 NDo=     1
 LinEq1:  Iter=  4 NonCon=     1 RMS=2.07D-05 Max=8.63D-04 NDo=     1
 LinEq1:  Iter=  5 NonCon=     1 RMS=4.93D-06 Max=9.64D-05 NDo=     1
 LinEq1:  Iter=  6 NonCon=     1 RMS=1.41D-06 Max=2.03D-05 NDo=     1
 LinEq1:  Iter=  7 NonCon=     1 RMS=3.75D-07 Max=3.73D-06 NDo=     1
 LinEq1:  Iter=  8 NonCon=     1 RMS=9.29D-08 Max=1.58D-06 NDo=     1
 LinEq1:  Iter=  9 NonCon=     1 RMS=2.46D-08 Max=6.04D-07 NDo=     1
 LinEq1:  Iter= 10 NonCon=     1 RMS=9.62D-09 Max=2.40D-07 NDo=     1
 LinEq1:  Iter= 11 NonCon=     1 RMS=3.07D-09 Max=8.37D-08 NDo=     1
 LinEq1:  Iter= 12 NonCon=     1 RMS=9.66D-10 Max=1.28D-08 NDo=     1
 LinEq1:  Iter= 13 NonCon=     1 RMS=2.64D-10 Max=3.97D-09 NDo=     1
 LinEq1:  Iter= 14 NonCon=     0 RMS=6.29D-11 Max=7.41D-10 NDo=     1
 Linear equations converged to 1.000D-10 1.000D-09 after    14 iterations.
 End of Minotr F.D. properties file   721 does not exist.
 End of Minotr F.D. properties file   722 does not exist.
 End of Minotr F.D. properties file   788 does not exist.
 Leave Link 1002 at Fri Sep 17 20:15:35 2021, MaxMem=   524288000 cpu:              35.5 elap:              35.5
 (Enter /opt/gaussian/g16_legacy/l601.exe)
 Copying SCF densities to generalized density rwf, IOpCl= 0 IROHF=0.

 **********************************************************************

            Population analysis using the SCF density.

 **********************************************************************

 Orbital symmetries:
       Occupied  (A) (A) (A) (A) (A) (A) (A) (A) (A) (A) (A) (A)
                 (A) (A) (A) (A) (A) (A) (A) (A) (A) (A) (A) (A)
                 (A) (A) (A) (A) (A) (A) (A) (A) (A) (A) (A) (A)
                 (A) (A) (A)
       Virtual   (A) (A) (A) (A) (A) (A) (A) (A) (A) (A) (A) (A)
                 (A) (A) (A) (A) (A) (A) (A) (A) (A) (A) (A) (A)
                 (A) (A) (A) (A) (A) (A) (A) (A) (A) (A) (A) (A)
                 (A) (A) (A) (A) (A) (A) (A) (A) (A) (A) (A) (A)
                 (A) (A) (A) (A) (A) (A) (A) (A) (A) (A) (A) (A)
                 (A) (A) (A) (A) (A) (A) (A) (A) (A) (A) (A) (A)
                 (A) (A) (A) (A) (A) (A) (A) (A) (A) (A) (A) (A)
                 (A) (A) (A) (A) (A) (A) (A) (A) (A) (A) (A) (A)
                 (A) (A) (A) (A) (A) (A) (A) (A) (A) (A) (A) (A)
                 (A) (A) (A) (A) (A) (A) (A) (A) (A) (A) (A) (A)
                 (A) (A) (A) (A) (A) (A) (A) (A) (A) (A) (A) (A)
                 (A) (A) (A) (A) (A) (A) (A) (A) (A) (A) (A) (A)
                 (A) (A) (A) (A) (A) (A) (A) (A) (A) (A) (A) (A)
                 (A) (A) (A) (A) (A) (A) (A) (A) (A) (A) (A) (A)
                 (A) (A) (A) (A) (A) (A) (A) (A) (A) (A) (A) (A)
                 (A) (A) (A) (A) (A) (A) (A) (A) (A) (A) (A) (A)
                 (A) (A) (A) (A) (A) (A) (A) (A) (A)
 The electronic state is 1-A.
 Alpha  occ. eigenvalues --  -11.22948 -11.22559 -11.21903 -11.21820 -11.21740
 Alpha  occ. eigenvalues --  -11.21628 -11.21607 -11.21482 -11.21411 -11.21287
 Alpha  occ. eigenvalues --   -1.10419  -1.08266  -1.02030  -0.97274  -0.93585
 Alpha  occ. eigenvalues --   -0.92168  -0.87455  -0.81616  -0.70644  -0.69357
 Alpha  occ. eigenvalues --   -0.63931  -0.62206  -0.59972  -0.58890  -0.58128
 Alpha  occ. eigenvalues --   -0.57078  -0.55196  -0.54283  -0.53846  -0.52564
 Alpha  occ. eigenvalues --   -0.51425  -0.50954  -0.50762  -0.49858  -0.46984
 Alpha  occ. eigenvalues --   -0.46335  -0.44278  -0.33023  -0.31592
 Alpha virt. eigenvalues --    0.18690   0.19368   0.22427   0.24705   0.25577
 Alpha virt. eigenvalues --    0.27142   0.28561   0.28784   0.30317   0.30990
 Alpha virt. eigenvalues --    0.31784   0.32199   0.32813   0.33578   0.34347
 Alpha virt. eigenvalues --    0.34596   0.35402   0.37172   0.37861   0.40505
 Alpha virt. eigenvalues --    0.40935   0.41783   0.43592   0.44646   0.45101
 Alpha virt. eigenvalues --    0.51495   0.54049   0.61066   0.63297   0.69466
 Alpha virt. eigenvalues --    0.71034   0.72236   0.73678   0.75746   0.76212
 Alpha virt. eigenvalues --    0.77322   0.79024   0.80160   0.81777   0.83480
 Alpha virt. eigenvalues --    0.85509   0.86960   0.88622   0.90401   0.91304
 Alpha virt. eigenvalues --    0.92732   0.93908   0.96019   0.97979   0.99569
 Alpha virt. eigenvalues --    1.00025   1.01522   1.02495   1.03172   1.05532
 Alpha virt. eigenvalues --    1.06857   1.07692   1.08690   1.11996   1.12244
 Alpha virt. eigenvalues --    1.13131   1.13817   1.14548   1.15037   1.15273
 Alpha virt. eigenvalues --    1.15704   1.16288   1.16537   1.17817   1.20045
 Alpha virt. eigenvalues --    1.20607   1.22255   1.23398   1.25362   1.27420
 Alpha virt. eigenvalues --    1.29547   1.38876   1.40032   1.42757   1.46017
 Alpha virt. eigenvalues --    1.49083   1.52823   1.55082   1.57373   1.59163
 Alpha virt. eigenvalues --    1.61323   1.64314   1.67293   1.69104   1.70519
 Alpha virt. eigenvalues --    1.72795   1.81841   1.90917   1.91759   1.95898
 Alpha virt. eigenvalues --    1.97998   2.00182   2.01290   2.03477   2.08053
 Alpha virt. eigenvalues --    2.09015   2.10041   2.11015   2.13196   2.14720
 Alpha virt. eigenvalues --    2.16678   2.17135   2.19835   2.25261   2.27678
 Alpha virt. eigenvalues --    2.29121   2.30286   2.31950   2.35289   2.35565
 Alpha virt. eigenvalues --    2.36216   2.36748   2.38971   2.40014   2.40406
 Alpha virt. eigenvalues --    2.40723   2.42635   2.43603   2.43880   2.44903
 Alpha virt. eigenvalues --    2.47862   2.49328   2.50459   2.51536   2.52587
 Alpha virt. eigenvalues --    2.57044   2.57819   2.61053   2.63222   2.64366
 Alpha virt. eigenvalues --    2.65904   2.68379   2.70614   2.71834   2.73418
 Alpha virt. eigenvalues --    2.74845   2.77628   2.78779   2.84045   2.85517
 Alpha virt. eigenvalues --    2.87706   2.88243   2.89138   2.92242   2.93834
 Alpha virt. eigenvalues --    2.96686   2.99848   3.01054   3.02620   3.04157
 Alpha virt. eigenvalues --    3.07191   3.08603   3.10995   3.11738   3.13674
 Alpha virt. eigenvalues --    3.17560   3.19672   3.19844   3.20797   3.21205
 Alpha virt. eigenvalues --    3.22945   3.24508   3.25331   3.25900   3.37327
 Alpha virt. eigenvalues --    3.38820   3.43294   3.45762   3.55469   3.56414
 Alpha virt. eigenvalues --    3.60313   3.62335   3.65256   3.73026   3.76861
 Alpha virt. eigenvalues --    3.79842   3.80050   3.81083   3.81777   3.82685
 Alpha virt. eigenvalues --    3.83179   3.85491   3.86538   3.91626   3.92119
 Alpha virt. eigenvalues --    3.95169   4.58916   4.62447   4.74302   4.82514
 Alpha virt. eigenvalues --    4.88845   4.91194   4.92009   5.05424   5.10219
 Alpha virt. eigenvalues --    5.17068
          Condensed to atoms (all electrons):
               1          2          3          4          5          6
     1  C    4.970191   0.410011   0.411429   0.355398  -0.051955   0.003242
     2  H    0.410011   0.593602  -0.029197  -0.049491  -0.000789   0.000034
     3  H    0.411429  -0.029197   0.582068  -0.043534   0.003491  -0.000109
     4  C    0.355398  -0.049491  -0.043534   4.956656   0.335570  -0.038250
     5  C   -0.051955  -0.000789   0.003491   0.335570   4.916886   0.405877
     6  H    0.003242   0.000034  -0.000109  -0.038250   0.405877   0.569340
     7  H   -0.004252  -0.000699   0.000125  -0.041759   0.406612  -0.030743
     8  H    0.000213   0.001198  -0.000123  -0.039968   0.398687  -0.026194
     9  C   -0.042917  -0.000276  -0.002054   0.694228  -0.052180  -0.003915
    10  H   -0.006035   0.000099   0.002352  -0.036749   0.003315   0.000003
    11  C    0.003049  -0.000097   0.000132  -0.051064  -0.006950  -0.001859
    12  H    0.000114  -0.000003   0.000005  -0.000667  -0.001656  -0.001184
    13  H   -0.000112   0.000015  -0.000004  -0.000331   0.000199  -0.000096
    14  H   -0.000092  -0.000003  -0.000009  -0.000337   0.000292   0.000275
    15  C   -0.000089  -0.000047   0.000001   0.000002  -0.000000   0.000000
    16  H   -0.000004  -0.000002   0.000001   0.000000   0.000000  -0.000000
    17  H    0.000019  -0.000005  -0.000001  -0.000000   0.000000  -0.000000
    18  H   -0.000004   0.000001   0.000000   0.000000  -0.000000   0.000000
    19  C   -0.002431   0.000552   0.000437  -0.000039   0.000005  -0.000000
    20  C    0.000544   0.000111  -0.000013  -0.000010  -0.000019   0.000000
    21  H   -0.000141   0.000005  -0.000000   0.000017  -0.000022   0.000001
    22  H   -0.000017   0.000004   0.000000   0.000000   0.000000  -0.000000
    23  H    0.000280  -0.000048  -0.000002  -0.000014  -0.000001  -0.000000
    24  C   -0.060317   0.000366  -0.001616   0.005190   0.000032   0.000002
    25  H   -0.000975   0.000380   0.001269  -0.000070  -0.000004  -0.000000
    26  C    0.326280  -0.047396  -0.041051  -0.055105  -0.004693  -0.000005
    27  H   -0.044507   0.004633  -0.003322  -0.000346   0.000462  -0.000016
    28  H   -0.042325  -0.000968   0.004094  -0.002113  -0.001280  -0.000121
               7          8          9         10         11         12
     1  C   -0.004252   0.000213  -0.042917  -0.006035   0.003049   0.000114
     2  H   -0.000699   0.001198  -0.000276   0.000099  -0.000097  -0.000003
     3  H    0.000125  -0.000123  -0.002054   0.002352   0.000132   0.000005
     4  C   -0.041759  -0.039968   0.694228  -0.036749  -0.051064  -0.000667
     5  C    0.406612   0.398687  -0.052180   0.003315  -0.006950  -0.001656
     6  H   -0.030743  -0.026194  -0.003915   0.000003  -0.001859  -0.001184
     7  H    0.586418  -0.031020   0.003062  -0.000102   0.000136   0.000030
     8  H   -0.031020   0.572031  -0.004499  -0.000118   0.000714  -0.000265
     9  C    0.003062  -0.004499   4.946169   0.404628   0.340286  -0.041609
    10  H   -0.000102  -0.000118   0.404628   0.558645  -0.043178   0.003316
    11  C    0.000136   0.000714   0.340286  -0.043178   4.903906   0.407981
    12  H    0.000030  -0.000265  -0.041609   0.003316   0.407981   0.573999
    13  H   -0.000012   0.000205  -0.043672  -0.001492   0.402563  -0.028953
    14  H    0.000010  -0.000076  -0.043662  -0.001200   0.399805  -0.028121
    15  C   -0.000000   0.000000  -0.000000  -0.000000   0.000000  -0.000000
    16  H   -0.000000   0.000000  -0.000000   0.000000   0.000000   0.000000
    17  H    0.000000  -0.000000   0.000000   0.000000  -0.000000   0.000000
    18  H   -0.000000   0.000000  -0.000000  -0.000000   0.000000  -0.000000
    19  C   -0.000007   0.000000  -0.000001  -0.000000   0.000000  -0.000000
    20  C    0.000119  -0.000000  -0.000000   0.000000  -0.000000  -0.000000
    21  H    0.000159  -0.000000  -0.000000  -0.000000   0.000000  -0.000000
    22  H   -0.000002   0.000000   0.000000  -0.000000   0.000000   0.000000
    23  H    0.000058  -0.000000   0.000000   0.000000  -0.000000  -0.000000
    24  C   -0.000090  -0.000000  -0.000031  -0.000013   0.000001   0.000000
    25  H   -0.000002   0.000000   0.000003   0.000001  -0.000000   0.000000
    26  C   -0.000357   0.000073  -0.002218   0.000279  -0.000095  -0.000001
    27  H   -0.000035   0.000005   0.000991   0.000060  -0.000026  -0.000000
    28  H   -0.000957   0.000068   0.000452   0.000012  -0.000001   0.000001
              13         14         15         16         17         18
     1  C   -0.000112  -0.000092  -0.000089  -0.000004   0.000019  -0.000004
     2  H    0.000015  -0.000003  -0.000047  -0.000002  -0.000005   0.000001
     3  H   -0.000004  -0.000009   0.000001   0.000001  -0.000001   0.000000
     4  C   -0.000331  -0.000337   0.000002   0.000000  -0.000000   0.000000
     5  C    0.000199   0.000292  -0.000000   0.000000   0.000000  -0.000000
     6  H   -0.000096   0.000275   0.000000  -0.000000  -0.000000   0.000000
     7  H   -0.000012   0.000010  -0.000000  -0.000000   0.000000  -0.000000
     8  H    0.000205  -0.000076   0.000000   0.000000  -0.000000   0.000000
     9  C   -0.043672  -0.043662  -0.000000  -0.000000   0.000000  -0.000000
    10  H   -0.001492  -0.001200  -0.000000   0.000000   0.000000  -0.000000
    11  C    0.402563   0.399805   0.000000   0.000000  -0.000000   0.000000
    12  H   -0.028953  -0.028121  -0.000000   0.000000   0.000000  -0.000000
    13  H    0.584772  -0.033413   0.000000  -0.000000  -0.000000  -0.000000
    14  H   -0.033413   0.587526  -0.000000  -0.000000   0.000000  -0.000000
    15  C    0.000000  -0.000000   4.897849   0.405396   0.400326   0.397141
    16  H   -0.000000  -0.000000   0.405396   0.570502  -0.027820  -0.027668
    17  H   -0.000000   0.000000   0.400326  -0.027820   0.594292  -0.034766
    18  H   -0.000000  -0.000000   0.397141  -0.027668  -0.034766   0.592410
    19  C   -0.000000   0.000000   0.352641  -0.041510  -0.047266  -0.042486
    20  C    0.000000  -0.000000  -0.060565   0.003843  -0.000029  -0.003172
    21  H   -0.000000  -0.000000   0.003439  -0.000120  -0.000011  -0.000041
    22  H    0.000000  -0.000000  -0.005291   0.000147  -0.000790   0.002515
    23  H    0.000000   0.000000   0.000668  -0.000137   0.001333  -0.000132
    24  C    0.000000  -0.000000  -0.045065  -0.002196  -0.001126  -0.000624
    25  H    0.000000   0.000000  -0.006569   0.002293   0.000130   0.000235
    26  C   -0.000004   0.000017   0.003235   0.000127  -0.000076  -0.000134
    27  H    0.000001  -0.000005  -0.000115  -0.000008  -0.000003   0.000014
    28  H    0.000000  -0.000000   0.000099   0.000006  -0.000006   0.000006
              19         20         21         22         23         24
     1  C   -0.002431   0.000544  -0.000141  -0.000017   0.000280  -0.060317
     2  H    0.000552   0.000111   0.000005   0.000004  -0.000048   0.000366
     3  H    0.000437  -0.000013  -0.000000   0.000000  -0.000002  -0.001616
     4  C   -0.000039  -0.000010   0.000017   0.000000  -0.000014   0.005190
     5  C    0.000005  -0.000019  -0.000022   0.000000  -0.000001   0.000032
     6  H   -0.000000   0.000000   0.000001  -0.000000  -0.000000   0.000002
     7  H   -0.000007   0.000119   0.000159  -0.000002   0.000058  -0.000090
     8  H    0.000000  -0.000000  -0.000000   0.000000  -0.000000  -0.000000
     9  C   -0.000001  -0.000000  -0.000000   0.000000   0.000000  -0.000031
    10  H   -0.000000   0.000000  -0.000000  -0.000000   0.000000  -0.000013
    11  C    0.000000  -0.000000   0.000000   0.000000  -0.000000   0.000001
    12  H   -0.000000  -0.000000  -0.000000   0.000000  -0.000000   0.000000
    13  H   -0.000000   0.000000  -0.000000   0.000000   0.000000   0.000000
    14  H    0.000000  -0.000000  -0.000000  -0.000000   0.000000  -0.000000
    15  C    0.352641  -0.060565   0.003439  -0.005291   0.000668  -0.045065
    16  H   -0.041510   0.003843  -0.000120   0.000147  -0.000137  -0.002196
    17  H   -0.047266  -0.000029  -0.000011  -0.000790   0.001333  -0.001126
    18  H   -0.042486  -0.003172  -0.000041   0.002515  -0.000132  -0.000624
    19  C    4.929884   0.339259  -0.037698  -0.043431  -0.040838   0.698060
    20  C    0.339259   4.920458   0.404275   0.406210   0.398067  -0.047283
    21  H   -0.037698   0.404275   0.569135  -0.030060  -0.025910  -0.002515
    22  H   -0.043431   0.406210  -0.030060   0.582829  -0.031394   0.002649
    23  H   -0.040838   0.398067  -0.025910  -0.031394   0.573902  -0.004284
    24  C    0.698060  -0.047283  -0.002515   0.002649  -0.004284   4.953535
    25  H   -0.035354   0.003332   0.000015  -0.000101  -0.000125   0.401685
    26  C   -0.046902  -0.008608  -0.002101   0.000079   0.000807   0.345108
    27  H   -0.000076   0.000280   0.000120   0.000010  -0.000038  -0.042351
    28  H    0.000732  -0.002359  -0.000697   0.000057  -0.000409  -0.046319
              25         26         27         28
     1  C   -0.000975   0.326280  -0.044507  -0.042325
     2  H    0.000380  -0.047396   0.004633  -0.000968
     3  H    0.001269  -0.041051  -0.003322   0.004094
     4  C   -0.000070  -0.055105  -0.000346  -0.002113
     5  C   -0.000004  -0.004693   0.000462  -0.001280
     6  H   -0.000000  -0.000005  -0.000016  -0.000121
     7  H   -0.000002  -0.000357  -0.000035  -0.000957
     8  H    0.000000   0.000073   0.000005   0.000068
     9  C    0.000003  -0.002218   0.000991   0.000452
    10  H    0.000001   0.000279   0.000060   0.000012
    11  C   -0.000000  -0.000095  -0.000026  -0.000001
    12  H    0.000000  -0.000001  -0.000000   0.000001
    13  H    0.000000  -0.000004   0.000001   0.000000
    14  H    0.000000   0.000017  -0.000005  -0.000000
    15  C   -0.006569   0.003235  -0.000115   0.000099
    16  H    0.002293   0.000127  -0.000008   0.000006
    17  H    0.000130  -0.000076  -0.000003  -0.000006
    18  H    0.000235  -0.000134   0.000014   0.000006
    19  C   -0.035354  -0.046902  -0.000076   0.000732
    20  C    0.003332  -0.008608   0.000280  -0.002359
    21  H    0.000015  -0.002101   0.000120  -0.000697
    22  H   -0.000101   0.000079   0.000010   0.000057
    23  H   -0.000125   0.000807  -0.000038  -0.000409
    24  C    0.401685   0.345108  -0.042351  -0.046319
    25  H    0.557694  -0.042127  -0.002363   0.003429
    26  C   -0.042127   4.989233   0.407473   0.414786
    27  H   -0.002363   0.407473   0.585487  -0.028771
    28  H    0.003429   0.414786  -0.028771   0.588892
 Mulliken charges:
               1
     1  C   -0.224595
     2  H    0.118010
     3  H    0.115631
     4  C    0.012787
     5  C   -0.351878
     6  H    0.123718
     7  H    0.113309
     8  H    0.129070
     9  C   -0.152783
    10  H    0.116177
    11  C   -0.355302
    12  H    0.117014
    13  H    0.120336
    14  H    0.118992
    15  C   -0.343056
    16  H    0.117149
    17  H    0.115798
    18  H    0.116705
    19  C    0.016471
    20  C   -0.354440
    21  H    0.122148
    22  H    0.116584
    23  H    0.128217
    24  C   -0.152798
    25  H    0.117222
    26  C   -0.236625
    27  H    0.122446
    28  H    0.113694
 Sum of Mulliken charges =  -0.00000
 Mulliken charges with hydrogens summed into heavy atoms:
               1
     1  C    0.009046
     4  C    0.012787
     5  C    0.014218
     9  C   -0.036606
    11  C    0.001039
    15  C    0.006596
    19  C    0.016471
    20  C    0.012510
    24  C   -0.035576
    26  C   -0.000485
 Electronic spatial extent (au):  <R**2>=           2762.7365
 Charge=             -0.0000 electrons
 Dipole moment (field-independent basis, Debye):
    X=             -0.1682    Y=              0.4052    Z=              0.0741  Tot=              0.4450
 Quadrupole moment (field-independent basis, Debye-Ang):
   XX=            -63.8455   YY=            -63.3635   ZZ=            -67.2386
   XY=             -0.6270   XZ=             -0.7554   YZ=             -0.0311
 Traceless Quadrupole moment (field-independent basis, Debye-Ang):
   XX=              0.9703   YY=              1.4524   ZZ=             -2.4227
   XY=             -0.6270   XZ=             -0.7554   YZ=             -0.0311
 Octapole moment (field-independent basis, Debye-Ang**2):
  XXX=             -3.5158  YYY=             -4.6313  ZZZ=              0.9932  XYY=              1.3661
  XXY=              2.9453  XXZ=             -0.3689  XZZ=              0.1242  YZZ=              2.7257
  YYZ=             -0.1372  XYZ=              0.8734
 Hexadecapole moment (field-independent basis, Debye-Ang**3):
 XXXX=          -3223.9991 YYYY=           -445.3673 ZZZZ=           -161.0989 XXXY=            -15.9930
 XXXZ=              0.7383 YYYX=              3.3411 YYYZ=             -2.0082 ZZZX=             -5.9293
 ZZZY=              3.4518 XXYY=           -606.5013 XXZZ=           -575.7703 YYZZ=           -101.2086
 XXYZ=             -2.8695 YYXZ=             -0.8137 ZZXY=             -2.8142
 N-N= 5.081743963453D+02 E-N=-1.921015248842D+03  KE= 3.886098991007D+02
 No NMR shielding tensors so no spin-rotation constants.
 Leave Link  601 at Fri Sep 17 20:15:35 2021, MaxMem=   524288000 cpu:               0.3 elap:               0.3
 (Enter /opt/gaussian/g16_legacy/l701.exe)
 ... and contract with generalized density number  2.
 Compute integral first derivatives.
 Leave Link  701 at Fri Sep 17 20:15:36 2021, MaxMem=   524288000 cpu:               0.3 elap:               0.3
 (Enter /opt/gaussian/g16_legacy/l702.exe)
 L702 exits ... SP integral derivatives will be done elsewhere.
 Leave Link  702 at Fri Sep 17 20:15:36 2021, MaxMem=   524288000 cpu:               0.0 elap:               0.1
 (Enter /opt/gaussian/g16_legacy/l703.exe)
 Integral derivatives from FoFJK, PRISM(SPDF).
 Compute integral first derivatives, UseDBF=F ICtDFT=           0.
 Calling FoFJK, ICntrl=  10002127 FMM=F ISym2X=0 I1Cent= 0 IOpClX= 0 NMat=1 NMatS=1 NMatT=0.
 FoFJK:  IHMeth= 1 ICntrl=10002127 DoSepK=F KAlg= 0 I1Cent=           0 FoldK=F
 IRaf=         0 NMat=       1 IRICut=       1 DoRegI=T DoRafI=F ISym2E= 0 IDoP0=0 IntGTp=1.
 FoFCou: FMM=F IPFlag=           0 FMFlag=      100000 FMFlg1=         800
         NFxFlg=           0 DoJE=F BraDBF=F KetDBF=F FulRan=T
         wScrn=  0.000000 ICntrl=  10002127 IOpCl=  0 I1Cent=           0 NGrid=           0
         NMat0=    1 NMatS0=      1 NMatT0=    0 NMatD0=    1 NMtDS0=    0 NMtDT0=    0
 Symmetry not used in FoFCou.
 Leave Link  703 at Fri Sep 17 20:16:09 2021, MaxMem=   524288000 cpu:              33.0 elap:              33.1
 (Enter /opt/gaussian/g16_legacy/l716.exe)
 Dipole        =-1.74645806D-02 1.40512383D-01 2.60766438D-02
 ***** Axes restored to original set *****
 -------------------------------------------------------------------
 Center     Atomic                   Forces (Hartrees/Bohr)
 Number     Number              X              Y              Z
 -------------------------------------------------------------------
      1        6           0.007670832    0.000891217   -0.003204117
      2        1          -0.001877571    0.002100771    0.003212880
      3        1           0.001831975   -0.000799816    0.003427389
      4        6          -0.005231130    0.005039131   -0.005530462
      5        6           0.001126710   -0.000080019    0.004366123
      6        1          -0.000602587   -0.003260115   -0.003271685
      7        1           0.001027465    0.000175955   -0.003682879
      8        1           0.000599781    0.000942595    0.002879867
      9        6          -0.002568134   -0.002255461    0.000651815
     10        1          -0.001970368   -0.002256593    0.001674889
     11        6           0.001589930    0.000382065    0.001793044
     12        1          -0.002535225    0.001583889   -0.002064612
     13        1           0.000426266    0.002169019    0.002350600
     14        1           0.002172287   -0.002164313   -0.001609324
     15        6           0.000401255    0.001846241   -0.004175819
     16        1           0.002366027   -0.002177903    0.003031965
     17        1          -0.001594720    0.001881377    0.002170297
     18        1           0.000143420   -0.003117587   -0.001372771
     19        6          -0.003004633    0.004885739   -0.002534877
     20        6           0.001609559    0.000561666    0.003999184
     21        1           0.000011444   -0.002550043   -0.003481845
     22        1           0.001544543   -0.000830464   -0.003513696
     23        1          -0.000446060    0.001034184    0.003056483
     24        6           0.004079324    0.001853245    0.001872535
     25        1          -0.001412610   -0.002478424    0.001339150
     26        6          -0.007401618    0.000547049    0.002320064
     27        1           0.002667694   -0.002364857   -0.002125368
     28        1          -0.000623856   -0.001558551   -0.001578832
 -------------------------------------------------------------------
 Cartesian Forces:  Max     0.007670832 RMS     0.002675310
 Leave Link  716 at Fri Sep 17 20:16:09 2021, MaxMem=   524288000 cpu:               0.1 elap:               0.1
 (Enter /opt/gaussian/g16_legacy/l103.exe)

 GradGradGradGradGradGradGradGradGradGradGradGradGradGradGradGradGradGrad
 Berny optimization.
 FormGI is forming the generalized inverse of G from B-inverse, IUseBI=4.
 Internal  Forces:  Max     0.006366090 RMS     0.001893923
 Search for a local minimum.
 Step number   1 out of a maximum of  138
 All quantities printed in internal units (Hartrees-Bohrs-Radians)
 RMS Force = .18939D-02 SwitMx=.10000D-02 MixMth= 1
 Mixed Optimization -- RFO/linear search
 Second derivative matrix not updated -- first step.
 ITU=  0
     Eigenvalues ---    0.00291   0.00507   0.00666   0.00672   0.00687
     Eigenvalues ---    0.00700   0.00801   0.01194   0.01277   0.01555
     Eigenvalues ---    0.01627   0.02769   0.02789   0.03962   0.04078
     Eigenvalues ---    0.05322   0.05374   0.07022   0.07031   0.07074
     Eigenvalues ---    0.07089   0.07212   0.07293   0.07296   0.07481
     Eigenvalues ---    0.09314   0.09393   0.12799   0.12866   0.15998
     Eigenvalues ---    0.16000   0.16000   0.16000   0.16000   0.16000
     Eigenvalues ---    0.16000   0.16000   0.16000   0.16000   0.16000
     Eigenvalues ---    0.16000   0.16000   0.16000   0.21887   0.21906
     Eigenvalues ---    0.22000   0.22001   0.24981   0.24990   0.24999
     Eigenvalues ---    0.24999   0.28887   0.30405   0.31598   0.31642
     Eigenvalues ---    0.31757   0.31861   0.32653   0.33824   0.33908
     Eigenvalues ---    0.34039   0.34184   0.34228   0.34256   0.34260
     Eigenvalues ---    0.34276   0.34278   0.34314   0.34322   0.34356
     Eigenvalues ---    0.34379   0.34490   0.34562   0.34580   0.34805
     Eigenvalues ---    0.34906   0.55320   0.55659
 RFO step:  Lambda=-2.85162435D-03 EMin= 2.91328022D-03
 Linear search not attempted -- first point.
 Iteration  1 RMS(Cart)=  0.04861494 RMS(Int)=  0.00063327
 Iteration  2 RMS(Cart)=  0.00118730 RMS(Int)=  0.00008253
 Iteration  3 RMS(Cart)=  0.00000037 RMS(Int)=  0.00008253
 ITry= 1 IFail=0 DXMaxC= 1.55D-01 DCOld= 1.00D+10 DXMaxT= 3.00D-01 DXLimC= 3.00D+00 Rises=F
 Variable       Old X    -DE/DX   Delta X   Delta X   Delta X     New X
                                 (Linear)    (Quad)   (Total)
    R1        2.07486  -0.00189   0.00000  -0.00553  -0.00553   2.06934
    R2        2.07628  -0.00365   0.00000  -0.01071  -0.01071   2.06557
    R3        2.87163  -0.00637   0.00000  -0.02074  -0.02074   2.85089
    R4        2.90239  -0.00082   0.00000  -0.00282  -0.00282   2.89957
    R5        2.84590   0.00218   0.00000   0.00679   0.00679   2.85269
    R6        2.54849  -0.00473   0.00000  -0.00851  -0.00851   2.53998
    R7        2.06695  -0.00355   0.00000  -0.01023  -0.01023   2.05672
    R8        2.06733  -0.00312   0.00000  -0.00901  -0.00901   2.05832
    R9        2.06789  -0.00172   0.00000  -0.00496  -0.00496   2.06293
   R10        2.05828  -0.00184   0.00000  -0.00523  -0.00523   2.05305
   R11        2.82965   0.00182   0.00000   0.00552   0.00552   2.83516
   R12        2.06392  -0.00332   0.00000  -0.00953  -0.00953   2.05439
   R13        2.06867  -0.00234   0.00000  -0.00678  -0.00678   2.06189
   R14        2.06803  -0.00185   0.00000  -0.00534  -0.00534   2.06268
   R15        2.07020  -0.00407   0.00000  -0.01182  -0.01182   2.05838
   R16        2.06894  -0.00181   0.00000  -0.00523  -0.00523   2.06371
   R17        2.06901  -0.00215   0.00000  -0.00622  -0.00622   2.06279
   R18        2.84803  -0.00111   0.00000  -0.00348  -0.00348   2.84456
   R19        2.84399   0.00162   0.00000   0.00505   0.00505   2.84904
   R20        2.54551  -0.00293   0.00000  -0.00524  -0.00524   2.54027
   R21        2.06511  -0.00290   0.00000  -0.00833  -0.00833   2.05678
   R22        2.06947  -0.00328   0.00000  -0.00951  -0.00951   2.05995
   R23        2.06863  -0.00195   0.00000  -0.00564  -0.00564   2.06299
   R24        2.05993  -0.00193   0.00000  -0.00551  -0.00551   2.05441
   R25        2.84885  -0.00377   0.00000  -0.01183  -0.01183   2.83703
   R26        2.07265  -0.00182   0.00000  -0.00531  -0.00531   2.06734
   R27        2.06363  -0.00101   0.00000  -0.00289  -0.00289   2.06074
    A1        1.84579   0.00144   0.00000   0.01562   0.01562   1.86141
    A2        1.89317   0.00176   0.00000   0.01885   0.01892   1.91209
    A3        1.92619  -0.00357   0.00000  -0.02575  -0.02577   1.90042
    A4        1.92517  -0.00202   0.00000  -0.01456  -0.01454   1.91062
    A5        1.90099   0.00018   0.00000  -0.00097  -0.00098   1.90001
    A6        1.96863   0.00212   0.00000   0.00711   0.00713   1.97576
    A7        2.02176   0.00115   0.00000   0.00461   0.00461   2.02636
    A8        2.10897  -0.00169   0.00000  -0.00661  -0.00661   2.10236
    A9        2.15187   0.00053   0.00000   0.00218   0.00217   2.15404
   A10        1.95368   0.00108   0.00000   0.00808   0.00809   1.96177
   A11        1.94906  -0.00252   0.00000  -0.01343  -0.01339   1.93567
   A12        1.92137   0.00307   0.00000   0.01543   0.01545   1.93681
   A13        1.85357   0.00188   0.00000   0.01797   0.01800   1.87157
   A14        1.90560  -0.00290   0.00000  -0.02144  -0.02145   1.88414
   A15        1.87772  -0.00082   0.00000  -0.00776  -0.00771   1.87001
   A16        2.07256  -0.00298   0.00000  -0.01816  -0.01820   2.05436
   A17        2.21993   0.00002   0.00000   0.00017   0.00013   2.22006
   A18        1.99048   0.00296   0.00000   0.01832   0.01828   2.00875
   A19        1.98238  -0.00304   0.00000  -0.01832  -0.01824   1.96413
   A20        1.91308   0.00223   0.00000   0.01306   0.01302   1.92610
   A21        1.91539   0.00370   0.00000   0.02303   0.02301   1.93840
   A22        1.87694   0.00025   0.00000   0.00103   0.00108   1.87802
   A23        1.88574  -0.00026   0.00000  -0.00040  -0.00031   1.88543
   A24        1.88771  -0.00306   0.00000  -0.01953  -0.01966   1.86805
   A25        1.88053   0.00063   0.00000   0.00626   0.00629   1.88682
   A26        1.87778   0.00115   0.00000   0.01086   0.01089   1.88866
   A27        1.96022  -0.00250   0.00000  -0.01213  -0.01210   1.94813
   A28        1.89468  -0.00296   0.00000  -0.02454  -0.02453   1.87014
   A29        1.92553   0.00205   0.00000   0.01064   0.01067   1.93620
   A30        1.92308   0.00152   0.00000   0.00813   0.00815   1.93123
   A31        1.99853   0.00241   0.00000   0.00947   0.00926   2.00779
   A32        2.10949   0.00032   0.00000   0.00118   0.00097   2.11046
   A33        2.17513  -0.00274   0.00000  -0.01094  -0.01114   2.16399
   A34        1.96658  -0.00047   0.00000  -0.00103  -0.00102   1.96556
   A35        1.93257  -0.00147   0.00000  -0.00699  -0.00696   1.92561
   A36        1.92159   0.00330   0.00000   0.01637   0.01640   1.93799
   A37        1.85447   0.00230   0.00000   0.02139   0.02139   1.87586
   A38        1.90034  -0.00220   0.00000  -0.01704  -0.01702   1.88332
   A39        1.88542  -0.00162   0.00000  -0.01362  -0.01358   1.87184
   A40        2.06900  -0.00186   0.00000  -0.01234  -0.01257   2.05643
   A41        2.22245  -0.00110   0.00000  -0.00491  -0.00515   2.21730
   A42        1.99174   0.00296   0.00000   0.01729   0.01705   2.00878
   A43        1.95228   0.00081   0.00000   0.00125   0.00128   1.95355
   A44        1.91150  -0.00315   0.00000  -0.02576  -0.02577   1.88573
   A45        1.92703  -0.00043   0.00000  -0.00808  -0.00812   1.91891
   A46        1.88735   0.00217   0.00000   0.02231   0.02230   1.90965
   A47        1.93640  -0.00064   0.00000  -0.00351  -0.00355   1.93285
   A48        1.84567   0.00126   0.00000   0.01467   0.01448   1.86015
    D1       -0.87792   0.00148   0.00000   0.05494   0.05491  -0.82300
    D2        2.22791   0.00158   0.00000   0.06043   0.06039   2.28830
    D3       -2.89193  -0.00014   0.00000   0.03347   0.03348  -2.85844
    D4        0.21390  -0.00005   0.00000   0.03896   0.03897   0.25286
    D5        1.26130  -0.00039   0.00000   0.04033   0.04036   1.30167
    D6       -1.91606  -0.00030   0.00000   0.04583   0.04584  -1.87021
    D7       -0.92633   0.00076   0.00000  -0.03367  -0.03371  -0.96004
    D8       -3.01850  -0.00038   0.00000  -0.04525  -0.04525  -3.06375
    D9        1.23918   0.00020   0.00000  -0.04326  -0.04332   1.19587
   D10        1.09272   0.00060   0.00000  -0.02980  -0.02980   1.06291
   D11       -0.99945  -0.00053   0.00000  -0.04139  -0.04134  -1.04079
   D12       -3.02495   0.00004   0.00000  -0.03939  -0.03941  -3.06436
   D13       -3.04695  -0.00041   0.00000  -0.04431  -0.04429  -3.09125
   D14        1.14407  -0.00155   0.00000  -0.05589  -0.05583   1.08824
   D15       -0.88143  -0.00097   0.00000  -0.05390  -0.05390  -0.93533
   D16       -2.53226  -0.00089   0.00000  -0.02563  -0.02560  -2.55787
[...]
                 (A) (A) (A) (A) (A) (A) (A) (A) (A) (A) (A) (A)
                 (A) (A) (A) (A) (A) (A) (A) (A) (A) (A) (A) (A)
                 (A) (A) (A) (A) (A) (A) (A) (A) (A) (A) (A) (A)
                 (A) (A) (A) (A) (A) (A) (A) (A) (A) (A) (A) (A)
                 (A) (A) (A) (A) (A) (A) (A) (A) (A) (A) (A) (A)
                 (A) (A) (A) (A) (A) (A) (A) (A) (A) (A) (A) (A)
                 (A) (A) (A) (A) (A) (A) (A) (A) (A) (A) (A) (A)
                 (A) (A) (A) (A) (A) (A) (A) (A) (A) (A) (A) (A)
                 (A) (A) (A) (A) (A) (A) (A) (A) (A) (A) (A) (A)
                 (A) (A) (A) (A) (A) (A) (A) (A) (A) (A) (A) (A)
                 (A) (A) (A) (A) (A) (A) (A) (A) (A) (A) (A) (A)
                 (A) (A) (A) (A) (A) (A) (A) (A) (A) (A) (A) (A)
                 (A) (A) (A) (A) (A) (A) (A) (A) (A) (A) (A) (A)
                 (A) (A) (A) (A) (A) (A) (A) (A) (A)
 The electronic state is 1-A.
 Alpha  occ. eigenvalues --  -11.22942 -11.22511 -11.21700 -11.21672 -11.21623
 Alpha  occ. eigenvalues --  -11.21559 -11.21548 -11.21481 -11.21395 -11.21302
 Alpha  occ. eigenvalues --   -1.10735  -1.08460  -1.02106  -0.97425  -0.93781
 Alpha  occ. eigenvalues --   -0.92410  -0.87797  -0.81730  -0.70595  -0.69538
 Alpha  occ. eigenvalues --   -0.64148  -0.63200  -0.59865  -0.58878  -0.58400
 Alpha  occ. eigenvalues --   -0.56977  -0.55032  -0.54497  -0.53242  -0.52889
 Alpha  occ. eigenvalues --   -0.51757  -0.51256  -0.50604  -0.49958  -0.47402
 Alpha  occ. eigenvalues --   -0.46411  -0.44634  -0.33303  -0.31579
 Alpha virt. eigenvalues --    0.18277   0.19824   0.22640   0.24479   0.26352
 Alpha virt. eigenvalues --    0.26979   0.28134   0.29580   0.30259   0.30762
 Alpha virt. eigenvalues --    0.31180   0.32646   0.32689   0.33226   0.34300
 Alpha virt. eigenvalues --    0.34578   0.36343   0.37295   0.39462   0.40230
 Alpha virt. eigenvalues --    0.41255   0.41631   0.43430   0.45037   0.46639
 Alpha virt. eigenvalues --    0.51535   0.53909   0.61373   0.63265   0.69963
 Alpha virt. eigenvalues --    0.70400   0.71527   0.74739   0.75483   0.75903
 Alpha virt. eigenvalues --    0.76553   0.78914   0.80392   0.80900   0.83215
 Alpha virt. eigenvalues --    0.84041   0.86130   0.87562   0.89580   0.91234
 Alpha virt. eigenvalues --    0.93289   0.95749   0.97225   0.97973   0.98240
 Alpha virt. eigenvalues --    0.99467   1.01633   1.02733   1.04988   1.05905
 Alpha virt. eigenvalues --    1.08077   1.08412   1.09419   1.11454   1.12054
 Alpha virt. eigenvalues --    1.12714   1.13739   1.14422   1.15191   1.15536
 Alpha virt. eigenvalues --    1.16794   1.17232   1.17578   1.19004   1.20869
 Alpha virt. eigenvalues --    1.21680   1.22376   1.23488   1.25523   1.26418
 Alpha virt. eigenvalues --    1.30165   1.39974   1.41610   1.44054   1.46077
 Alpha virt. eigenvalues --    1.47725   1.54488   1.55567   1.57704   1.58589
 Alpha virt. eigenvalues --    1.61699   1.62695   1.67732   1.69153   1.73215
 Alpha virt. eigenvalues --    1.73869   1.81023   1.88670   1.92058   1.95536
 Alpha virt. eigenvalues --    1.99490   2.01379   2.03415   2.06003   2.07270
 Alpha virt. eigenvalues --    2.08180   2.09791   2.10262   2.12901   2.14757
 Alpha virt. eigenvalues --    2.15554   2.16168   2.20233   2.23286   2.27083
 Alpha virt. eigenvalues --    2.29523   2.30282   2.31621   2.35381   2.35718
 Alpha virt. eigenvalues --    2.35904   2.36888   2.38606   2.40275   2.41122
 Alpha virt. eigenvalues --    2.43219   2.43386   2.43966   2.45251   2.46005
 Alpha virt. eigenvalues --    2.47486   2.49676   2.50497   2.50943   2.55818
 Alpha virt. eigenvalues --    2.57209   2.59140   2.62380   2.64173   2.65550
 Alpha virt. eigenvalues --    2.65956   2.68918   2.69921   2.72165   2.74356
 Alpha virt. eigenvalues --    2.75375   2.78667   2.79436   2.82552   2.85249
 Alpha virt. eigenvalues --    2.86769   2.89137   2.90667   2.93364   2.95192
 Alpha virt. eigenvalues --    2.96789   3.01062   3.01750   3.02839   3.05838
 Alpha virt. eigenvalues --    3.06820   3.08229   3.11047   3.13066   3.15037
 Alpha virt. eigenvalues --    3.17643   3.18675   3.19600   3.21229   3.22103
 Alpha virt. eigenvalues --    3.23524   3.25547   3.27096   3.28319   3.39603
 Alpha virt. eigenvalues --    3.40343   3.43963   3.46564   3.56151   3.57286
 Alpha virt. eigenvalues --    3.61438   3.63309   3.66171   3.73759   3.78526
 Alpha virt. eigenvalues --    3.79893   3.80626   3.82070   3.83587   3.84048
 Alpha virt. eigenvalues --    3.84435   3.86378   3.88483   3.90963   3.91573
 Alpha virt. eigenvalues --    3.96734   4.58902   4.61965   4.74169   4.83819
 Alpha virt. eigenvalues --    4.89948   4.91398   4.92472   5.05976   5.10292
 Alpha virt. eigenvalues --    5.16504
          Condensed to atoms (all electrons):
               1          2          3          4          5          6
     1  C    4.975004   0.403426   0.415408   0.355999  -0.058979   0.003376
     2  H    0.403426   0.599712  -0.026797  -0.043348  -0.003340  -0.000063
     3  H    0.415408  -0.026797   0.578822  -0.048064   0.003758  -0.000099
     4  C    0.355999  -0.043348  -0.048064   4.938933   0.341809  -0.037398
     5  C   -0.058979  -0.003340   0.003758   0.341809   4.910311   0.407890
     6  H    0.003376  -0.000063  -0.000099  -0.037398   0.407890   0.566839
     7  H   -0.001327  -0.000069  -0.000113  -0.040639   0.401356  -0.027794
     8  H   -0.003547   0.003113   0.000063  -0.044717   0.401580  -0.027468
     9  C   -0.041254   0.000138  -0.002476   0.699910  -0.045184  -0.002938
    10  H   -0.007287   0.000242   0.002362  -0.040063   0.003549   0.000036
    11  C    0.003156  -0.000112   0.000190  -0.047763  -0.007876  -0.002284
    12  H    0.000098   0.000001   0.000005  -0.000142  -0.002068  -0.001239
    13  H   -0.000112   0.000015  -0.000005  -0.000986   0.000313   0.000112
    14  H   -0.000088  -0.000003  -0.000011  -0.000139   0.000210  -0.000070
    15  C   -0.000099  -0.000035  -0.000005   0.000001  -0.000000   0.000000
    16  H   -0.000003  -0.000002   0.000002   0.000000  -0.000000   0.000000
    17  H    0.000023  -0.000008  -0.000002  -0.000000   0.000000  -0.000000
    18  H   -0.000005   0.000002   0.000000   0.000000  -0.000000   0.000000
    19  C   -0.003677   0.001314   0.000705   0.000010   0.000012  -0.000000
    20  C    0.000496   0.000102  -0.000013  -0.000023  -0.000025   0.000000
    21  H   -0.000098   0.000163  -0.000010  -0.000028   0.000104  -0.000001
    22  H   -0.000038   0.000019   0.000000   0.000001  -0.000000   0.000000
    23  H    0.000111  -0.000102  -0.000001  -0.000003   0.000000  -0.000000
    24  C   -0.059415  -0.000851  -0.002417   0.005535  -0.000112   0.000001
    25  H   -0.000246   0.000103   0.001226  -0.000121  -0.000001   0.000000
    26  C    0.330770  -0.050608  -0.041631  -0.062308  -0.001251   0.000070
    27  H   -0.048591   0.005193  -0.001949   0.001691   0.000083  -0.000024
    28  H   -0.040262  -0.002993   0.004187  -0.002730  -0.000627   0.000051
               7          8          9         10         11         12
     1  C   -0.001327  -0.003547  -0.041254  -0.007287   0.003156   0.000098
     2  H   -0.000069   0.003113   0.000138   0.000242  -0.000112   0.000001
     3  H   -0.000113   0.000063  -0.002476   0.002362   0.000190   0.000005
     4  C   -0.040639  -0.044717   0.699910  -0.040063  -0.047763  -0.000142
     5  C    0.401356   0.401580  -0.045184   0.003549  -0.007876  -0.002068
     6  H   -0.027794  -0.027468  -0.002938   0.000036  -0.002284  -0.001239
     7  H    0.581387  -0.035117  -0.002524  -0.000126   0.000482  -0.000121
     8  H   -0.035117   0.588702   0.001774  -0.000112   0.000170   0.000009
     9  C   -0.002524   0.001774   4.935684   0.405809   0.340021  -0.043590
    10  H   -0.000126  -0.000112   0.405809   0.560483  -0.041929   0.003343
    11  C    0.000482   0.000170   0.340021  -0.041929   4.898091   0.408369
    12  H   -0.000121   0.000009  -0.043590   0.003343   0.408369   0.576341
    13  H   -0.000040   0.000028  -0.042072  -0.000931   0.401063  -0.027841
    14  H    0.000090  -0.000017  -0.042037  -0.001472   0.402087  -0.028753
    15  C   -0.000000   0.000000   0.000000  -0.000000   0.000000   0.000000
    16  H    0.000000  -0.000000   0.000000  -0.000000   0.000000   0.000000
    17  H   -0.000000   0.000000   0.000000   0.000000  -0.000000  -0.000000
    18  H    0.000000  -0.000000  -0.000000  -0.000000   0.000000  -0.000000
    19  C    0.000006   0.000000  -0.000003  -0.000000   0.000000  -0.000000
    20  C   -0.000004  -0.000017  -0.000000   0.000000  -0.000000  -0.000000
    21  H    0.000018   0.000181  -0.000000  -0.000000   0.000000  -0.000000
    22  H    0.000000  -0.000000  -0.000000  -0.000000   0.000000   0.000000
    23  H   -0.000000   0.000001   0.000000   0.000000  -0.000000  -0.000000
    24  C    0.000014  -0.000056  -0.000063  -0.000017   0.000001   0.000000
    25  H   -0.000001  -0.000000   0.000001   0.000001  -0.000000  -0.000000
    26  C    0.001289  -0.001200  -0.004330   0.000244  -0.000085  -0.000004
    27  H    0.000076   0.000101   0.001492   0.000113  -0.000046   0.000001
    28  H   -0.001929   0.000260   0.000274  -0.000007   0.000003  -0.000000
              13         14         15         16         17         18
     1  C   -0.000112  -0.000088  -0.000099  -0.000003   0.000023  -0.000005
     2  H    0.000015  -0.000003  -0.000035  -0.000002  -0.000008   0.000002
     3  H   -0.000005  -0.000011  -0.000005   0.000002  -0.000002   0.000000
     4  C   -0.000986  -0.000139   0.000001   0.000000  -0.000000   0.000000
     5  C    0.000313   0.000210  -0.000000  -0.000000   0.000000  -0.000000
     6  H    0.000112  -0.000070   0.000000   0.000000  -0.000000   0.000000
     7  H   -0.000040   0.000090  -0.000000   0.000000  -0.000000   0.000000
     8  H    0.000028  -0.000017   0.000000  -0.000000   0.000000  -0.000000
     9  C   -0.042072  -0.042037   0.000000   0.000000   0.000000  -0.000000
    10  H   -0.000931  -0.001472  -0.000000  -0.000000   0.000000  -0.000000
    11  C    0.401063   0.402087   0.000000   0.000000  -0.000000   0.000000
    12  H   -0.027841  -0.028753   0.000000   0.000000  -0.000000  -0.000000
    13  H    0.585848  -0.035753   0.000000  -0.000000  -0.000000   0.000000
    14  H   -0.035753   0.585555  -0.000000  -0.000000   0.000000  -0.000000
    15  C    0.000000  -0.000000   4.900356   0.406155   0.398130   0.398842
    16  H   -0.000000  -0.000000   0.406155   0.566018  -0.026659  -0.026583
    17  H   -0.000000   0.000000   0.398130  -0.026659   0.594724  -0.037889
    18  H    0.000000  -0.000000   0.398842  -0.026583  -0.037889   0.594295
    19  C   -0.000000   0.000000   0.353363  -0.041651  -0.043735  -0.044449
    20  C   -0.000000   0.000000  -0.065126   0.003792  -0.001986  -0.001172
    21  H    0.000000  -0.000000   0.003755  -0.000115  -0.000071  -0.000029
    22  H    0.000000  -0.000000  -0.002170  -0.000056  -0.000451   0.002762
    23  H   -0.000000   0.000000  -0.002670  -0.000028   0.002770  -0.000489
    24  C    0.000000  -0.000000  -0.044086  -0.002558  -0.000514  -0.001251
    25  H    0.000000   0.000000  -0.006998   0.002365   0.000179   0.000191
    26  C   -0.000004   0.000020   0.003163   0.000146  -0.000073  -0.000128
    27  H    0.000001  -0.000007  -0.000089  -0.000009  -0.000002   0.000009
    28  H    0.000000  -0.000000   0.000055   0.000007  -0.000004   0.000006
              19         20         21         22         23         24
     1  C   -0.003677   0.000496  -0.000098  -0.000038   0.000111  -0.059415
     2  H    0.001314   0.000102   0.000163   0.000019  -0.000102  -0.000851
     3  H    0.000705  -0.000013  -0.000010   0.000000  -0.000001  -0.002417
     4  C    0.000010  -0.000023  -0.000028   0.000001  -0.000003   0.005535
     5  C    0.000012  -0.000025   0.000104  -0.000000   0.000000  -0.000112
     6  H   -0.000000   0.000000  -0.000001   0.000000  -0.000000   0.000001
     7  H    0.000006  -0.000004   0.000018   0.000000  -0.000000   0.000014
     8  H    0.000000  -0.000017   0.000181  -0.000000   0.000001  -0.000056
     9  C   -0.000003  -0.000000  -0.000000  -0.000000   0.000000  -0.000063
    10  H   -0.000000   0.000000  -0.000000  -0.000000   0.000000  -0.000017
    11  C    0.000000  -0.000000   0.000000   0.000000  -0.000000   0.000001
    12  H   -0.000000  -0.000000  -0.000000   0.000000  -0.000000   0.000000
    13  H   -0.000000  -0.000000   0.000000   0.000000  -0.000000   0.000000
    14  H    0.000000   0.000000  -0.000000  -0.000000   0.000000  -0.000000
    15  C    0.353363  -0.065126   0.003755  -0.002170  -0.002670  -0.044086
    16  H   -0.041651   0.003792  -0.000115  -0.000056  -0.000028  -0.002558
    17  H   -0.043735  -0.001986  -0.000071  -0.000451   0.002770  -0.000514
    18  H   -0.044449  -0.001172  -0.000029   0.002762  -0.000489  -0.001251
    19  C    4.916385   0.350750  -0.037860  -0.043662  -0.043348   0.696983
    20  C    0.350750   4.904921   0.406944   0.400029   0.401142  -0.044238
    21  H   -0.037860   0.406944   0.570752  -0.026742  -0.028143  -0.002951
    22  H   -0.043662   0.400029  -0.026742   0.585894  -0.035832  -0.000393
    23  H   -0.043348   0.401142  -0.028143  -0.035832   0.587017  -0.000051
    24  C    0.696983  -0.044238  -0.002951  -0.000393  -0.000051   4.948666
    25  H   -0.038550   0.003538   0.000052  -0.000119  -0.000122   0.404404
    26  C   -0.050705  -0.007892  -0.002865   0.000161   0.000349   0.349887
    27  H    0.001500   0.000164   0.000074   0.000024  -0.000014  -0.040486
    28  H    0.000112  -0.002486  -0.001924   0.000079  -0.000062  -0.043956
              25         26         27         28
     1  C   -0.000246   0.330770  -0.048591  -0.040262
     2  H    0.000103  -0.050608   0.005193  -0.002993
     3  H    0.001226  -0.041631  -0.001949   0.004187
     4  C   -0.000121  -0.062308   0.001691  -0.002730
     5  C   -0.000001  -0.001251   0.000083  -0.000627
     6  H    0.000000   0.000070  -0.000024   0.000051
     7  H   -0.000001   0.001289   0.000076  -0.001929
     8  H   -0.000000  -0.001200   0.000101   0.000260
     9  C    0.000001  -0.004330   0.001492   0.000274
    10  H    0.000001   0.000244   0.000113  -0.000007
    11  C   -0.000000  -0.000085  -0.000046   0.000003
    12  H   -0.000000  -0.000004   0.000001  -0.000000
    13  H    0.000000  -0.000004   0.000001   0.000000
    14  H    0.000000   0.000020  -0.000007  -0.000000
    15  C   -0.006998   0.003163  -0.000089   0.000055
    16  H    0.002365   0.000146  -0.000009   0.000007
    17  H    0.000179  -0.000073  -0.000002  -0.000004
    18  H    0.000191  -0.000128   0.000009   0.000006
    19  C   -0.038550  -0.050705   0.001500   0.000112
    20  C    0.003538  -0.007892   0.000164  -0.002486
    21  H    0.000052  -0.002865   0.000074  -0.001924
    22  H   -0.000119   0.000161   0.000024   0.000079
    23  H   -0.000122   0.000349  -0.000014  -0.000062
    24  C    0.404404   0.349887  -0.040486  -0.043956
    25  H    0.557184  -0.040248  -0.003453   0.003321
    26  C   -0.040248   4.996619   0.408557   0.414837
    27  H   -0.003453   0.408557   0.583049  -0.029531
    28  H    0.003321   0.414837  -0.029531   0.586465
 Mulliken charges:
               1
     1  C   -0.222841
     2  H    0.114788
     3  H    0.116863
     4  C    0.024583
     5  C   -0.351511
     6  H    0.121003
     7  H    0.125086
     8  H    0.116268
     9  C   -0.158632
    10  H    0.115762
    11  C   -0.353541
    12  H    0.115590
    13  H    0.120364
    14  H    0.120389
    15  C   -0.342541
    16  H    0.119179
    17  H    0.115567
    18  H    0.115888
    19  C    0.026502
    20  C   -0.348895
    21  H    0.118794
    22  H    0.120495
    23  H    0.119475
    24  C   -0.162077
    25  H    0.117294
    26  C   -0.242782
    27  H    0.122072
    28  H    0.116856
 Sum of Mulliken charges =  -0.00000
 Mulliken charges with hydrogens summed into heavy atoms:
               1
     1  C    0.008809
     4  C    0.024583
     5  C    0.010846
     9  C   -0.042870
    11  C    0.002803
    15  C    0.008094
    19  C    0.026502
    20  C    0.009870
    24  C   -0.044783
    26  C   -0.003854
 Electronic spatial extent (au):  <R**2>=           2732.6734
 Charge=              0.0000 electrons
 Dipole moment (field-independent basis, Debye):
    X=             -0.1804    Y=              0.3343    Z=              0.0136  Tot=              0.3801
 Quadrupole moment (field-independent basis, Debye-Ang):
   XX=            -63.3695   YY=            -63.3487   ZZ=            -67.5455
   XY=             -0.5277   XZ=             -1.2946   YZ=             -0.0445
 Traceless Quadrupole moment (field-independent basis, Debye-Ang):
   XX=              1.3850   YY=              1.4058   ZZ=             -2.7909
   XY=             -0.5277   XZ=             -1.2946   YZ=             -0.0445
 Octapole moment (field-independent basis, Debye-Ang**2):
  XXX=             -1.8508  YYY=             -4.2589  ZZZ=              0.6189  XYY=              1.3368
  XXY=              2.1901  XXZ=              1.0234  XZZ=             -1.0360  YZZ=              1.6468
  YYZ=             -0.5213  XYZ=             -0.7923
 Hexadecapole moment (field-independent basis, Debye-Ang**3):
 XXXX=          -3157.4331 YYYY=           -445.8904 ZZZZ=           -164.8552 XXXY=            -13.1514
 XXXZ=             -3.4849 YYYX=              3.8046 YYYZ=             -0.1956 ZZZX=            -10.6020
 ZZZY=              1.0568 XXYY=           -598.6982 XXZZ=           -570.1977 YYZZ=           -101.8212
 XXYZ=             -3.4544 YYXZ=              2.1889 ZZXY=             -5.1691
 N-N= 5.102710378622D+02 E-N=-1.925273178754D+03  KE= 3.887443352420D+02
 No NMR shielding tensors so no spin-rotation constants.
 Leave Link  601 at Fri Sep 17 22:30:38 2021, MaxMem=   524288000 cpu:               0.3 elap:               0.6
 (Enter /opt/gaussian/g16_legacy/l9999.exe)
 1\1\GINC-TRUENO90\FOpt\RMP2-FC\6-31G(d,p)\C10H18\JRAMOS\17-Sep-2021\0\
 \#p opt mp2/6-31g(d,p)\\Conformer number 010. Energy MM = 25.468 kcal/
 mol\\0,1\C,2.1465993987,1.1579633004,-8.7172838582\H,1.8355446552,0.10
 82423141,-8.7533795637\H,1.9172194067,1.5886085967,-9.6952586494\C,3.6
 276183746,1.2470974138,-8.4551122918\C,4.1017033188,0.5664480305,-7.19
 8142722\H,5.1782534212,0.4158327402,-7.1834134999\H,3.833938302,1.1409
 589156,-6.3093444922\H,3.6272076576,-0.4120631455,-7.1016927276\C,4.42
 45581602,1.9257796729,-9.3019236315\H,3.9535307473,2.3694185241,-10.17
 49353973\C,5.9018170875,2.1525184543,-9.1940962796\H,6.3292902642,1.71
 32706077,-8.2964296233\H,6.4234721655,1.7339881898,-10.0567466749\H,6.
 1239316164,3.2210159856,-9.1767809072\C,-2.5178821168,1.068375282,-7.9
 975774682\H,-2.6569748726,1.8741205467,-8.7167294815\H,-2.8270215585,0
 .1321262961,-8.4677602305\H,-3.1946131729,1.2389876895,-7.1571853541\C
 ,-1.0915640978,0.987215483,-7.5277372645\C,-0.8217770743,-0.1001680957
 ,-6.5248933583\H,0.2241761918,-0.1611863118,-6.2352153505\H,-1.4179747
 562,0.0540666237,-5.6227264755\H,-1.1137370272,-1.0696198149,-6.934227
 7678\C,-0.161873756,1.8436533901,-7.9911087677\H,-0.4795365166,2.57297
 5493,-8.7321412649\C,1.297956346,1.869827296,-7.6478471027\H,1.6369370
 06,2.9068649614,-7.5742567315\H,1.4769008292,1.4155815608,-6.673153063
 7\\Version=EM64L-G16RevA.03\State=1-A\HF=-389.1568212\MP2=-390.5733484
 \RMSD=6.923e-09\RMSF=1.274e-06\Dipole=-0.003889,-0.0751742,0.0910708\P
 G=C01 [X(C10H18)]\\@


 NO MATTER HOW THIN YOU SLICE IT, IT'S STILL BALONEY

                                   -- ALFRED E. SMITH
 Job cpu time:       0 days  2 hours 20 minutes 55.5 seconds.
 Elapsed time:       0 days  2 hours 21 minutes  7.2 seconds.
 File lengths (MBytes):  RWF=     32 Int=      0 D2E=      0 Chk=      7 Scr=      1
 Normal termination of Gaussian 16 at Fri Sep 17 22:30:38 2021.
