 Entering Gaussian System, Link 0=/opt/gaussian/g16_legacy/g16
 Input=02-IsoP_002_gaussian.com
 Output=02-IsoP_002_gaussian.log
 Initial command:
 /opt/gaussian/g16_legacy/l1.exe "/scratch-local/jramos/2661501/Gau-21617.inp" -scrdir="/scratch-local/jramos/2661501/"
 Entering Link 1 = /opt/gaussian/g16_legacy/l1.exe PID=     21620.
  
 Copyright (c) 1988,1990,1992,1993,1995,1998,2003,2009,2016,
            Gaussian, Inc.  All Rights Reserved.
  
 This is part of the Gaussian(R) 16 program.  It is based on
 the Gaussian(R) 09 system (copyright 2009, Gaussian, Inc.),
 the Gaussian(R) 03 system (copyright 2003, Gaussian, Inc.),
 the Gaussian(R) 98 system (copyright 1998, Gaussian, Inc.),
 the Gaussian(R) 94 system (copyright 1995, Gaussian, Inc.),
 the Gaussian 92(TM) system (copyright 1992, Gaussian, Inc.),
 the Gaussian 90(TM) system (copyright 1990, Gaussian, Inc.),
 the Gaussian 88(TM) system (copyright 1988, Gaussian, Inc.),
 the Gaussian 86(TM) system (copyright 1986, Carnegie Mellon
 University), and the Gaussian 82(TM) system (copyright 1983,
 Carnegie Mellon University). Gaussian is a federally registered
 trademark of Gaussian, Inc.
  
 This software contains proprietary and confidential information,
 including trade secrets, belonging to Gaussian, Inc.
  
 This software is provided under written license and may be
 used, copied, transmitted, or stored only in accord with that
 written license.
  
 The following legend is applicable only to US Government
 contracts under FAR:
  
                    RESTRICTED RIGHTS LEGEND
  
 Use, reproduction and disclosure by the US Government is
 subject to restrictions as set forth in subparagraphs (a)
 and (c) of the Commercial Computer Software - Restricted
 Rights clause in FAR 52.227-19.
  
 Gaussian, Inc.
 340 Quinnipiac St., Bldg. 40, Wallingford CT 06492
  
  
 ---------------------------------------------------------------
 Warning -- This program may not be used in any manner that
 competes with the business of Gaussian, Inc. or will provide
 assistance to any competitor of Gaussian, Inc.  The licensee
 of this program is prohibited from giving any competitor of
 Gaussian, Inc. access to this program.  By using this program,
 the user acknowledges that Gaussian, Inc. is engaged in the
 business of creating and licensing software in the field of
 computational chemistry and represents and warrants to the
 licensee that it is not a competitor of Gaussian, Inc. and that
 it will not use this program in any manner prohibited above.
 ---------------------------------------------------------------
  

 Cite this work as:
 Gaussian 16, Revision A.03,
 M. J. Frisch, G. W. Trucks, H. B. Schlegel, G. E. Scuseria, 
 M. A. Robb, J. R. Cheeseman, G. Scalmani, V. Barone, 
 G. A. Petersson, H. Nakatsuji, X. Li, M. Caricato, A. V. Marenich, 
 J. Bloino, B. G. Janesko, R. Gomperts, B. Mennucci, H. P. Hratchian, 
 J. V. Ortiz, A. F. Izmaylov, J. L. Sonnenberg, D. Williams-Young, 
 F. Ding, F. Lipparini, F. Egidi, J. Goings, B. Peng, A. Petrone, 
 T. Henderson, D. Ranasinghe, V. G. Zakrzewski, J. Gao, N. Rega, 
 G. Zheng, W. Liang, M. Hada, M. Ehara, K. Toyota, R. Fukuda, 
 J. Hasegawa, M. Ishida, T. Nakajima, Y. Honda, O. Kitao, H. Nakai, 
 T. Vreven, K. Throssell, J. A. Montgomery, Jr., J. E. Peralta, 
 F. Ogliaro, M. J. Bearpark, J. J. Heyd, E. N. Brothers, K. N. Kudin, 
 V. N. Staroverov, T. A. Keith, R. Kobayashi, J. Normand, 
 K. Raghavachari, A. P. Rendell, J. C. Burant, S. S. Iyengar, 
 J. Tomasi, M. Cossi, J. M. Millam, M. Klene, C. Adamo, R. Cammi, 
 J. W. Ochterski, R. L. Martin, K. Morokuma, O. Farkas, 
 J. B. Foresman, and D. J. Fox, Gaussian, Inc., Wallingford CT, 2016.
 
 ******************************************
 Gaussian 16:  EM64L-G16RevA.03 25-Dec-2016
                17-Sep-2021 
 ******************************************
 %chk=02-IsoP_002_gaussian.chk
 %nproc=1
 Will use up to    1 processors via shared memory.
 %mem=4000Mb
 ---------------------
 #p opt mp2/6-31g(d,p)
 ---------------------
 1/18=20,19=15,38=1/1,3;
 2/9=110,12=2,17=6,18=5,40=1/2;
 3/5=1,6=6,7=101,11=9,25=1,30=1,71=1/1,2,3;
 4//1;
 5/5=2,38=5/2;
 8/6=4,10=2/1;
 9/15=2,16=-3/6;
 10/5=1/2;
 6/7=2,8=2,9=2,10=2/1;
 7/12=2/1,2,3,16;
 1/18=20,19=15/3(2);
 2/9=110/2;
 99//99;
 2/9=110/2;
 3/5=1,6=6,7=101,11=9,25=1,30=1,71=1/1,2,3;
 4/5=5,16=3,69=1/1;
 5/5=2,38=5/2;
 8/6=4,10=2/1;
 9/15=2,16=-3/6;
 10/5=1/2;
 7/12=2/1,2,3,16;
 1/18=20,19=15/3(-8);
 2/9=110/2;
 6/7=2,8=2,9=2,10=2/1;
 99//99;
 Leave Link    1 at Fri Sep 17 20:09:25 2021, MaxMem=   524288000 cpu:               0.0 elap:               0.1
 (Enter /opt/gaussian/g16_legacy/l101.exe)
 -------------------------------------------------
 Conformer number 002. Energy MM = 25.192 kcal/mol
 -------------------------------------------------
 Symbolic Z-matrix:
 Charge =  0 Multiplicity = 1
 C                     2.1786    1.1978   -8.9628 
 H                     1.8897    0.1857   -9.2733 
 H                     2.0434    1.8274   -9.8525 
 C                     3.6354    1.2104   -8.5503 
 C                     4.13     -0.0383   -7.871 
 H                     4.9185    0.1703   -7.1424 
 H                     3.3206   -0.529    -7.32 
 H                     4.5107   -0.7442   -8.6153 
 C                     4.4039    2.2873   -8.8034 
 H                     3.946     3.1466   -9.2945 
 C                     5.8571    2.4652   -8.4962 
 H                     6.3251    1.5715   -8.0786 
 H                     6.3956    2.7213   -9.4141 
 H                     5.9864    3.2861   -7.7849 
 C                    -2.2369    2.8508   -9.1418 
 H                    -2.7164    1.9026   -8.877 
 H                    -2.7627    3.65     -8.6093 
 H                    -2.3701    3.0024   -10.218 
 C                    -0.774     2.8674   -8.7917 
 C                    -0.0651    4.1616   -9.084 
 H                     1.0072    4.023    -9.2497 
 H                    -0.4628    4.6214   -9.9947 
 H                    -0.202     4.8639   -8.2555 
 C                    -0.1697    1.7812   -8.2714 
 H                    -0.7536    0.8756   -8.1115 
 C                     1.2679    1.692    -7.8341 
 H                     1.6111    2.6648   -7.46 
 H                     1.3246    1.011    -6.9755 
 
 ITRead=  0  0  0  0  0  0  0  0  0  0  0  0  0  0  0  0  0  0  0  0
 ITRead=  0  0  0  0  0  0  0  0
 MicOpt= -1 -1 -1 -1 -1 -1 -1 -1 -1 -1 -1 -1 -1 -1 -1 -1 -1 -1 -1 -1
 MicOpt= -1 -1 -1 -1 -1 -1 -1 -1
 NAtoms=     28 NQM=       28 NQMF=       0 NMMI=      0 NMMIF=      0
                NMic=       0 NMicF=      0.
                    Isotopes and Nuclear Properties:
 (Nuclear quadrupole moments (NQMom) in fm**2, nuclear magnetic moments (NMagM)
  in nuclear magnetons)

  Atom         1           2           3           4           5           6           7           8           9          10
 IAtWgt=          12           1           1          12          12           1           1           1          12           1
 AtmWgt=  12.0000000   1.0078250   1.0078250  12.0000000  12.0000000   1.0078250   1.0078250   1.0078250  12.0000000   1.0078250
 NucSpn=           0           1           1           0           0           1           1           1           0           1
 AtZEff=  -0.0000000  -0.0000000  -0.0000000  -0.0000000  -0.0000000  -0.0000000  -0.0000000  -0.0000000  -0.0000000  -0.0000000
 NQMom=    0.0000000   0.0000000   0.0000000   0.0000000   0.0000000   0.0000000   0.0000000   0.0000000   0.0000000   0.0000000
 NMagM=    0.0000000   2.7928460   2.7928460   0.0000000   0.0000000   2.7928460   2.7928460   2.7928460   0.0000000   2.7928460
 AtZNuc=   6.0000000   1.0000000   1.0000000   6.0000000   6.0000000   1.0000000   1.0000000   1.0000000   6.0000000   1.0000000

  Atom        11          12          13          14          15          16          17          18          19          20
 IAtWgt=          12           1           1           1          12           1           1           1          12          12
 AtmWgt=  12.0000000   1.0078250   1.0078250   1.0078250  12.0000000   1.0078250   1.0078250   1.0078250  12.0000000  12.0000000
 NucSpn=           0           1           1           1           0           1           1           1           0           0
 AtZEff=  -0.0000000  -0.0000000  -0.0000000  -0.0000000  -0.0000000  -0.0000000  -0.0000000  -0.0000000  -0.0000000  -0.0000000
 NQMom=    0.0000000   0.0000000   0.0000000   0.0000000   0.0000000   0.0000000   0.0000000   0.0000000   0.0000000   0.0000000
 NMagM=    0.0000000   2.7928460   2.7928460   2.7928460   0.0000000   2.7928460   2.7928460   2.7928460   0.0000000   0.0000000
 AtZNuc=   6.0000000   1.0000000   1.0000000   1.0000000   6.0000000   1.0000000   1.0000000   1.0000000   6.0000000   6.0000000

  Atom        21          22          23          24          25          26          27          28
 IAtWgt=           1           1           1          12           1          12           1           1
 AtmWgt=   1.0078250   1.0078250   1.0078250  12.0000000   1.0078250  12.0000000   1.0078250   1.0078250
 NucSpn=           1           1           1           0           1           0           1           1
 AtZEff=  -0.0000000  -0.0000000  -0.0000000  -0.0000000  -0.0000000  -0.0000000  -0.0000000  -0.0000000
 NQMom=    0.0000000   0.0000000   0.0000000   0.0000000   0.0000000   0.0000000   0.0000000   0.0000000
 NMagM=    2.7928460   2.7928460   2.7928460   0.0000000   2.7928460   0.0000000   2.7928460   2.7928460
 AtZNuc=   1.0000000   1.0000000   1.0000000   6.0000000   1.0000000   6.0000000   1.0000000   1.0000000
 Leave Link  101 at Fri Sep 17 20:09:25 2021, MaxMem=   524288000 cpu:               0.1 elap:               0.1
 (Enter /opt/gaussian/g16_legacy/l103.exe)

 GradGradGradGradGradGradGradGradGradGradGradGradGradGradGradGradGradGrad
 Berny optimization.
 Initialization pass.
                           ----------------------------
                           !    Initial Parameters    !
                           ! (Angstroms and Degrees)  !
 --------------------------                            --------------------------
 ! Name  Definition              Value          Derivative Info.                !
 --------------------------------------------------------------------------------
 ! R1    R(1,2)                  1.0974         estimate D2E/DX2                !
 ! R2    R(1,3)                  1.0983         estimate D2E/DX2                !
 ! R3    R(1,4)                  1.5141         estimate D2E/DX2                !
 ! R4    R(1,26)                 1.5322         estimate D2E/DX2                !
 ! R5    R(4,5)                  1.5051         estimate D2E/DX2                !
 ! R6    R(4,9)                  1.347          estimate D2E/DX2                !
 ! R7    R(5,6)                  1.0937         estimate D2E/DX2                !
 ! R8    R(5,7)                  1.0952         estimate D2E/DX2                !
 ! R9    R(5,8)                  1.0942         estimate D2E/DX2                !
 ! R10   R(9,10)                 1.0905         estimate D2E/DX2                !
 ! R11   R(9,11)                 1.4959         estimate D2E/DX2                !
 ! R12   R(11,12)                1.0918         estimate D2E/DX2                !
 ! R13   R(11,13)                1.0946         estimate D2E/DX2                !
 ! R14   R(11,14)                1.0939         estimate D2E/DX2                !
 ! R15   R(15,16)                1.095          estimate D2E/DX2                !
 ! R16   R(15,17)                1.0949         estimate D2E/DX2                !
 ! R17   R(15,18)                1.095          estimate D2E/DX2                !
 ! R18   R(15,19)                1.5043         estimate D2E/DX2                !
 ! R19   R(19,20)                1.5043         estimate D2E/DX2                !
 ! R20   R(19,24)                1.3475         estimate D2E/DX2                !
 ! R21   R(20,21)                1.0938         estimate D2E/DX2                !
 ! R22   R(20,22)                1.095          estimate D2E/DX2                !
 ! R23   R(20,23)                1.0947         estimate D2E/DX2                !
 ! R24   R(24,25)                1.0893         estimate D2E/DX2                !
 ! R25   R(24,26)                1.5053         estimate D2E/DX2                !
 ! R26   R(26,27)                1.0973         estimate D2E/DX2                !
 ! R27   R(26,28)                1.0973         estimate D2E/DX2                !
 ! A1    A(2,1,3)              105.4913         estimate D2E/DX2                !
 ! A2    A(2,1,4)              109.7586         estimate D2E/DX2                !
 ! A3    A(2,1,26)             110.4532         estimate D2E/DX2                !
 ! A4    A(3,1,4)              109.5337         estimate D2E/DX2                !
 ! A5    A(3,1,26)             109.7967         estimate D2E/DX2                !
 ! A6    A(4,1,26)             111.6232         estimate D2E/DX2                !
 ! A7    A(1,4,5)              115.609          estimate D2E/DX2                !
 ! A8    A(1,4,9)              120.2912         estimate D2E/DX2                !
 ! A9    A(5,4,9)              124.0982         estimate D2E/DX2                !
 ! A10   A(4,5,6)              112.2939         estimate D2E/DX2                !
 ! A11   A(4,5,7)              110.8497         estimate D2E/DX2                !
 ! A12   A(4,5,8)              110.0332         estimate D2E/DX2                !
 ! A13   A(6,5,7)              106.446          estimate D2E/DX2                !
 ! A14   A(6,5,8)              108.9885         estimate D2E/DX2                !
 ! A15   A(7,5,8)              108.0779         estimate D2E/DX2                !
 ! A16   A(4,9,10)             118.3613         estimate D2E/DX2                !
 ! A17   A(4,9,11)             127.6421         estimate D2E/DX2                !
 ! A18   A(10,9,11)            113.9956         estimate D2E/DX2                !
 ! A19   A(9,11,12)            113.4278         estimate D2E/DX2                !
 ! A20   A(9,11,13)            109.4832         estimate D2E/DX2                !
 ! A21   A(9,11,14)            109.7314         estimate D2E/DX2                !
 ! A22   A(12,11,13)           107.5401         estimate D2E/DX2                !
 ! A23   A(12,11,14)           108.3545         estimate D2E/DX2                !
 ! A24   A(13,11,14)           108.1534         estimate D2E/DX2                !
 ! A25   A(16,15,17)           107.708          estimate D2E/DX2                !
 ! A26   A(16,15,18)           107.7156         estimate D2E/DX2                !
 ! A27   A(16,15,19)           112.2784         estimate D2E/DX2                !
 ! A28   A(17,15,18)           108.5748         estimate D2E/DX2                !
 ! A29   A(17,15,19)           110.2291         estimate D2E/DX2                !
 ! A30   A(18,15,19)           110.2135         estimate D2E/DX2                !
 ! A31   A(15,19,20)           114.9957         estimate D2E/DX2                !
 ! A32   A(15,19,24)           121.1373         estimate D2E/DX2                !
 ! A33   A(20,19,24)           123.8622         estimate D2E/DX2                !
 ! A34   A(19,20,21)           112.4818         estimate D2E/DX2                !
 ! A35   A(19,20,22)           110.5926         estimate D2E/DX2                !
 ! A36   A(19,20,23)           110.2397         estimate D2E/DX2                !
 ! A37   A(21,20,22)           106.4554         estimate D2E/DX2                !
 ! A38   A(21,20,23)           108.574          estimate D2E/DX2                !
 ! A39   A(22,20,23)           108.3393         estimate D2E/DX2                !
 ! A40   A(19,24,25)           119.1064         estimate D2E/DX2                !
 ! A41   A(19,24,26)           126.0322         estimate D2E/DX2                !
 ! A42   A(25,24,26)           114.8354         estimate D2E/DX2                !
 ! A43   A(1,26,24)            111.886          estimate D2E/DX2                !
 ! A44   A(1,26,27)            110.5604         estimate D2E/DX2                !
 ! A45   A(1,26,28)            110.2129         estimate D2E/DX2                !
 ! A46   A(24,26,27)           110.1947         estimate D2E/DX2                !
 ! A47   A(24,26,28)           108.2658         estimate D2E/DX2                !
 ! A48   A(27,26,28)           105.5013         estimate D2E/DX2                !
 ! D1    D(2,1,4,5)            -34.7772         estimate D2E/DX2                !
 ! D2    D(2,1,4,9)            144.7811         estimate D2E/DX2                !
 ! D3    D(3,1,4,5)           -150.1542         estimate D2E/DX2                !
 ! D4    D(3,1,4,9)             29.4042         estimate D2E/DX2                !
 ! D5    D(26,1,4,5)            88.0289         estimate D2E/DX2                !
 ! D6    D(26,1,4,9)           -92.4127         estimate D2E/DX2                !
 ! D7    D(2,1,26,24)          -61.9208         estimate D2E/DX2                !
 ! D8    D(2,1,26,27)          174.8485         estimate D2E/DX2                !
 ! D9    D(2,1,26,28)           58.5993         estimate D2E/DX2                !
 ! D10   D(3,1,26,24)           54.0056         estimate D2E/DX2                !
 ! D11   D(3,1,26,27)          -69.2251         estimate D2E/DX2                !
 ! D12   D(3,1,26,28)          174.5257         estimate D2E/DX2                !
 ! D13   D(4,1,26,24)          175.6705         estimate D2E/DX2                !
 ! D14   D(4,1,26,27)           52.4398         estimate D2E/DX2                !
 ! D15   D(4,1,26,28)          -63.8094         estimate D2E/DX2                !
 ! D16   D(1,4,5,6)           -148.6819         estimate D2E/DX2                !
 ! D17   D(1,4,5,7)            -29.7626         estimate D2E/DX2                !
 ! D18   D(1,4,5,8)             89.7299         estimate D2E/DX2                !
 ! D19   D(9,4,5,6)             31.7787         estimate D2E/DX2                !
 ! D20   D(9,4,5,7)            150.698          estimate D2E/DX2                !
 ! D21   D(9,4,5,8)            -89.8096         estimate D2E/DX2                !
 ! D22   D(1,4,9,10)             0.9634         estimate D2E/DX2                !
 ! D23   D(1,4,9,11)          -178.6481         estimate D2E/DX2                !
 ! D24   D(5,4,9,10)          -179.5175         estimate D2E/DX2                !
 ! D25   D(5,4,9,11)             0.871          estimate D2E/DX2                !
 ! D26   D(4,9,11,12)            4.2752         estimate D2E/DX2                !
 ! D27   D(4,9,11,13)          124.3878         estimate D2E/DX2                !
 ! D28   D(4,9,11,14)         -117.0577         estimate D2E/DX2                !
 ! D29   D(10,9,11,12)        -175.3505         estimate D2E/DX2                !
 ! D30   D(10,9,11,13)         -55.2379         estimate D2E/DX2                !
 ! D31   D(10,9,11,14)          63.3166         estimate D2E/DX2                !
 ! D32   D(16,15,19,20)       -177.8759         estimate D2E/DX2                !
 ! D33   D(16,15,19,24)          2.8951         estimate D2E/DX2                !
 ! D34   D(17,15,19,20)        -57.791          estimate D2E/DX2                !
 ! D35   D(17,15,19,24)        122.9801         estimate D2E/DX2                !
 ! D36   D(18,15,19,20)         62.0402         estimate D2E/DX2                !
 ! D37   D(18,15,19,24)       -117.1888         estimate D2E/DX2                !
 ! D38   D(15,19,20,21)       -154.3755         estimate D2E/DX2                !
 ! D39   D(15,19,20,22)        -35.4949         estimate D2E/DX2                !
 ! D40   D(15,19,20,23)         84.292          estimate D2E/DX2                !
 ! D41   D(24,19,20,21)         24.8298         estimate D2E/DX2                !
 ! D42   D(24,19,20,22)        143.7103         estimate D2E/DX2                !
 ! D43   D(24,19,20,23)        -96.5028         estimate D2E/DX2                !
 ! D44   D(15,19,24,25)          0.518          estimate D2E/DX2                !
 ! D45   D(15,19,24,26)       -177.527          estimate D2E/DX2                !
 ! D46   D(20,19,24,25)       -178.6405         estimate D2E/DX2                !
 ! D47   D(20,19,24,26)          3.3145         estimate D2E/DX2                !
 ! D48   D(19,24,26,1)         -91.7445         estimate D2E/DX2                !
 ! D49   D(19,24,26,27)         31.6927         estimate D2E/DX2                !
 ! D50   D(19,24,26,28)        146.6081         estimate D2E/DX2                !
 ! D51   D(25,24,26,1)          90.1377         estimate D2E/DX2                !
 ! D52   D(25,24,26,27)       -146.4251         estimate D2E/DX2                !
 ! D53   D(25,24,26,28)        -31.5097         estimate D2E/DX2                !
 --------------------------------------------------------------------------------
 Trust Radius=3.00D-01 FncErr=1.00D-07 GrdErr=1.00D-07 EigMax=2.50D+02 EigMin=1.00D-04
 Number of steps in this run=    138 maximum allowed number of steps=    168.
 GradGradGradGradGradGradGradGradGradGradGradGradGradGradGradGradGradGrad

 Leave Link  103 at Fri Sep 17 20:09:25 2021, MaxMem=   524288000 cpu:               0.0 elap:               0.1
 (Enter /opt/gaussian/g16_legacy/l202.exe)
                          Input orientation:                          
 ---------------------------------------------------------------------
 Center     Atomic      Atomic             Coordinates (Angstroms)
 Number     Number       Type             X           Y           Z
 ---------------------------------------------------------------------
      1          6           0        2.178600    1.197800   -8.962800
      2          1           0        1.889700    0.185700   -9.273300
      3          1           0        2.043400    1.827400   -9.852500
      4          6           0        3.635400    1.210400   -8.550300
      5          6           0        4.130000   -0.038300   -7.871000
      6          1           0        4.918500    0.170300   -7.142400
      7          1           0        3.320600   -0.529000   -7.320000
      8          1           0        4.510700   -0.744200   -8.615300
      9          6           0        4.403900    2.287300   -8.803400
     10          1           0        3.946000    3.146600   -9.294500
     11          6           0        5.857100    2.465200   -8.496200
     12          1           0        6.325100    1.571500   -8.078600
     13          1           0        6.395600    2.721300   -9.414100
     14          1           0        5.986400    3.286100   -7.784900
     15          6           0       -2.236900    2.850800   -9.141800
     16          1           0       -2.716400    1.902600   -8.877000
     17          1           0       -2.762700    3.650000   -8.609300
     18          1           0       -2.370100    3.002400  -10.218000
     19          6           0       -0.774000    2.867400   -8.791700
     20          6           0       -0.065100    4.161600   -9.084000
     21          1           0        1.007200    4.023000   -9.249700
     22          1           0       -0.462800    4.621400   -9.994700
     23          1           0       -0.202000    4.863900   -8.255500
     24          6           0       -0.169700    1.781200   -8.271400
     25          1           0       -0.753600    0.875600   -8.111500
     26          6           0        1.267900    1.692000   -7.834100
     27          1           0        1.611100    2.664800   -7.460000
     28          1           0        1.324600    1.011000   -6.975500
 ---------------------------------------------------------------------
                    Distance matrix (angstroms):
                    1          2          3          4          5
     1  C    0.000000
     2  H    1.097370   0.000000
     3  H    1.098290   1.747648   0.000000
     4  C    1.514127   2.149467   2.147295   0.000000
     5  C    2.554982   2.652464   3.429443   1.505101   0.000000
     6  H    3.446254   3.703323   4.284486   2.170331   1.093665
     7  H    2.642876   2.524609   3.687468   2.153660   1.095224
     8  H    3.054638   2.857852   3.772447   2.142624   1.094171
     9  C    2.482817   3.310397   2.623753   1.346984   2.520477
    10  H    2.651707   3.604962   2.381499   2.097421   3.493393
    11  C    3.918594   4.641149   4.097639   2.552137   3.105038
    12  H    4.256163   4.797971   4.641677   2.754520   2.730022
    13  H    4.506419   5.172255   4.464627   3.263077   3.889665
    14  H    4.499754   5.348903   4.685085   3.228245   3.808578
    15  C    4.718166   4.914151   4.457960   6.125740   7.106282
    16  H    4.946224   4.931628   4.859316   6.397752   7.186955
    17  H    5.527630   5.838416   5.288290   6.847687   7.852258
    18  H    5.052008   5.193472   4.581833   6.485254   7.550203
    19  C    3.396275   3.810348   3.185065   4.716644   5.774080
    20  C    3.719273   4.434508   3.238032   4.763205   6.058828
    21  H    3.071847   3.937542   2.501547   3.912456   5.305361
    22  H    4.445543   5.072485   3.756021   5.524170   6.878715
    23  H    4.428072   5.224623   4.100312   5.306657   6.553291
    24  C    2.516526   2.791156   2.720262   3.857769   4.685971
    25  H    3.070231   2.968632   3.429317   4.423568   4.974194
    26  C    1.532179   2.174137   2.166488   2.519908   3.344685
    27  H    2.175443   3.084090   2.571416   2.720629   3.717597
    28  H    2.171076   2.506061   3.075762   2.803489   3.126215
                    6          7          8          9         10
     6  H    0.000000
     7  H    1.753239   0.000000
     8  H    1.781024   1.772132   0.000000
     9  C    2.739603   3.362374   3.039207   0.000000
    10  H    3.799428   4.218982   3.989802   1.090527   0.000000
    11  C    2.824944   4.096646   3.482417   1.495931   2.180342
    12  H    2.195075   3.743607   2.990411   2.174561   3.101527
    13  H    3.721565   4.940175   4.024999   2.127952   2.489121
    14  H    3.355805   4.677351   4.371564   2.130552   2.541965
    15  C    7.898255   6.754836   7.663637   6.673250   6.191855
    16  H    8.018815   6.691958   7.700975   7.131065   6.790391
    17  H    8.559261   7.492188   8.497728   7.297587   6.762364
    18  H    8.402606   7.297483   7.996941   6.956978   6.384886
    19  C    6.511459   5.519709   6.403345   5.210307   4.754909
    20  C    6.673571   6.047842   6.724916   4.854245   4.142880
    21  H    5.880670   5.458596   5.950056   3.840496   3.067023
    22  H    7.543626   6.927825   7.445006   5.527385   4.701365
    23  H    7.034799   6.509012   7.334152   5.305976   4.608096
    24  C    5.455219   4.292363   5.329358   4.632168   4.455338
    25  H    5.797355   4.381607   5.530861   5.391793   5.351931
    26  C    4.015084   3.067689   4.130508   3.335929   3.379475
    27  H    4.154792   3.625238   4.622086   3.122012   3.008202
    28  H    3.694692   2.544464   3.990101   3.801611   4.100035
                   11         12         13         14         15
    11  C    0.000000
    12  H    1.091839   0.000000
    13  H    1.094582   1.763681   0.000000
    14  H    1.093866   1.772239   1.772212   0.000000
    15  C    8.128857   8.722090   8.637764   8.345857   0.000000
    16  H    8.600374   9.082719   9.164458   8.879498   1.095045
    17  H    8.701580   9.337554   9.240381   8.795386   1.094871
    18  H    8.422589   9.068132   8.806973   8.708131   1.094957
    19  C    6.649855   7.251558   7.198048   6.847771   1.504301
    20  C    6.188355   6.968077   6.627524   6.250985   2.537371
    21  H    5.149372   5.971716   5.545837   5.242241   3.451069
    22  H    6.843671   7.684329   7.140387   6.946828   2.647620
    23  H    6.521073   7.312607   7.032881   6.403687   2.996484
    24  C    6.069655   6.501044   6.729986   6.356019   2.484946
    25  H    6.810006   7.112900   7.497629   7.165527   2.676399
    26  C    4.700742   5.064541   5.463439   4.980745   3.916187
    27  H    4.375165   4.878500   5.168476   4.431120   4.203588
    28  H    4.997077   5.151310   5.881066   5.250104   4.556534
                   16         17         18         19         20
    16  H    0.000000
    17  H    1.768393   0.000000
    18  H    1.768549   1.778043   0.000000
    19  C    2.170491   2.144915   2.144782   0.000000
    20  C    3.489315   2.786417   2.818284   1.504305   0.000000
    21  H    4.301186   3.842055   3.658604   2.172061   1.093844
    22  H    3.704030   2.855257   2.511736   2.149551   1.094968
    23  H    3.934179   2.855856   3.466590   2.144926   1.094705
    24  C    2.620529   3.214069   3.181563   1.347487   2.517452
    25  H    2.343780   3.461442   3.402013   2.104841   3.495366
    26  C    4.123911   4.547575   4.542595   2.543210   3.072143
    27  H    4.616936   4.628351   4.854945   2.739192   2.772622
    28  H    4.554156   5.132216   5.303799   3.339001   4.037737
                   21         22         23         24         25
    21  H    0.000000
    22  H    1.753285   0.000000
    23  H    1.776995   1.775286   0.000000
    24  C    2.714375   3.335027   3.082910   0.000000
    25  H    3.781804   4.202621   4.028838   1.089320   0.000000
    26  C    2.739607   4.030496   3.521240   1.505285   2.197708
    27  H    2.326463   3.814977   2.959086   2.147177   3.036033
    28  H    3.787463   5.034417   4.337482   2.122616   2.372287
                   26         27         28
    26  C    0.000000
    27  H    1.097304   0.000000
    28  H    1.097347   1.746962   0.000000
 Stoichiometry    C10H18
 Framework group  C1[X(C10H18)]
 Deg. of freedom    78
 Full point group                 C1      NOp   1
 Largest Abelian subgroup         C1      NOp   1
 Largest concise Abelian subgroup C1      NOp   1
                         Standard orientation:                         
 ---------------------------------------------------------------------
 Center     Atomic      Atomic             Coordinates (Angstroms)
 Number     Number       Type             X           Y           Z
 ---------------------------------------------------------------------
      1          6           0        0.504845   -0.619363   -0.612777
      2          1           0        0.441913   -1.552026   -1.187579
      3          1           0        0.146482    0.167415   -1.290123
      4          6           0        1.945861   -0.346047   -0.236810
      5          6           0        2.782357   -1.561444    0.060540
      6          1           0        3.557256   -1.359655    0.805468
      7          1           0        2.164912   -2.369789    0.466564
      8          1           0        3.256073   -1.923987   -0.856719
      9          6           0        2.408555    0.918220   -0.193128
     10          1           0        1.717236    1.730941   -0.418539
     11          6           0        3.797345    1.372249    0.127700
     12          1           0        4.500379    0.549567    0.272791
     13          1           0        4.177682    1.990596   -0.691507
     14          1           0        3.786304    1.980314    1.036919
     15          6           0       -4.176984   -0.158492   -0.253383
     16          1           0       -4.390144   -1.232589   -0.254766
     17          1           0       -4.831602    0.309982    0.488743
     18          1           0       -4.434628    0.233598   -1.242734
     19          6           0       -2.736390    0.136621    0.063663
     20          6           0       -2.386882    1.598207    0.131058
     21          1           0       -1.330996    1.786133   -0.084076
     22          1           0       -2.960083    2.165796   -0.609374
     23          1           0       -2.616766    1.997165    1.124217
     24          6           0       -1.846509   -0.857605    0.251675
     25          1           0       -2.179857   -1.890876    0.163079
     26          6           0       -0.397477   -0.690428    0.623482
     27          1           0       -0.267140    0.202663    1.247563
     28          1           0       -0.105345   -1.536760    1.257951
 ---------------------------------------------------------------------
 Rotational constants (GHZ):           2.7481447           0.5110196           0.4505093
 Leave Link  202 at Fri Sep 17 20:09:25 2021, MaxMem=   524288000 cpu:               0.0 elap:               0.2
 (Enter /opt/gaussian/g16_legacy/l301.exe)
 Standard basis: 6-31G(d,p) (6D, 7F)
 Ernie: Thresh=  0.10000D-02 Tol=  0.10000D-05 Strict=F.
 There are   240 symmetry adapted cartesian basis functions of A   symmetry.
 There are   240 symmetry adapted basis functions of A   symmetry.
   240 basis functions,   406 primitive gaussians,   240 cartesian basis functions
    39 alpha electrons       39 beta electrons
       nuclear repulsion energy       512.9282787771 Hartrees.
 IExCor=    0 DFT=F Ex=HF Corr=None ExCW=0 ScaHFX=  1.000000
 ScaDFX=  1.000000  1.000000  1.000000  1.000000 ScalE2=  1.000000  1.000000
 IRadAn=      5 IRanWt=     -1 IRanGd=            0 ICorTp=0 IEmpDi=  4
 NAtoms=   28 NActive=   28 NUniq=   28 SFac= 1.00D+00 NAtFMM=   60 NAOKFM=F Big=F
 Integral buffers will be    131072 words long.
 Raffenetti 1 integral format.
 Two-electron integral symmetry is turned on.
 Leave Link  301 at Fri Sep 17 20:09:26 2021, MaxMem=   524288000 cpu:               0.0 elap:               0.1
 (Enter /opt/gaussian/g16_legacy/l302.exe)
 NPDir=0 NMtPBC=     1 NCelOv=     1 NCel=       1 NClECP=     1 NCelD=      1
         NCelK=      1 NCelE2=     1 NClLst=     1 CellRange=     0.0.
 One-electron integrals computed using PRISM.
 One-electron integral symmetry used in STVInt
 NBasis=   240 RedAO= T EigKep=  2.27D-03  NBF=   240
 NBsUse=   240 1.00D-06 EigRej= -1.00D+00 NBFU=   240
 Leave Link  302 at Fri Sep 17 20:09:26 2021, MaxMem=   524288000 cpu:               0.2 elap:               0.4
 (Enter /opt/gaussian/g16_legacy/l303.exe)
 DipDrv:  MaxL=1.
 Leave Link  303 at Fri Sep 17 20:09:26 2021, MaxMem=   524288000 cpu:               0.0 elap:               0.2
 (Enter /opt/gaussian/g16_legacy/l401.exe)
 ExpMin= 1.61D-01 ExpMax= 3.05D+03 ExpMxC= 4.57D+02 IAcc=3 IRadAn=         5 AccDes= 0.00D+00
 Harris functional with IExCor=  205 and IRadAn=       5 diagonalized for initial guess.
 HarFok:  IExCor=  205 AccDes= 0.00D+00 IRadAn=         5 IDoV= 1 UseB2=F ITyADJ=14
 ICtDFT=  3500011 ScaDFX=  1.000000  1.000000  1.000000  1.000000
 FoFCou: FMM=F IPFlag=           0 FMFlag=      100000 FMFlg1=           0
         NFxFlg=           0 DoJE=T BraDBF=F KetDBF=T FulRan=T
         wScrn=  0.000000 ICntrl=       500 IOpCl=  0 I1Cent=   200000004 NGrid=           0
         NMat0=    1 NMatS0=      1 NMatT0=    0 NMatD0=    1 NMtDS0=    0 NMtDT0=    0
 Petite list used in FoFCou.
 Harris En= -390.109474984537    
 JPrj=0 DoOrth=F DoCkMO=F.
 Leave Link  401 at Fri Sep 17 20:09:33 2021, MaxMem=   524288000 cpu:               6.2 elap:               6.4
 (Enter /opt/gaussian/g16_legacy/l502.exe)
 Keep R1 ints in memory in canonical form, NReq=425198025.
 FoFCou: FMM=F IPFlag=           0 FMFlag=           0 FMFlg1=           0
         NFxFlg=           0 DoJE=F BraDBF=F KetDBF=F FulRan=T
         wScrn=  0.000000 ICntrl=       600 IOpCl=  0 I1Cent=           0 NGrid=           0
         NMat0=    1 NMatS0=  28920 NMatT0=    0 NMatD0=    1 NMtDS0=    0 NMtDT0=    0
 Symmetry not used in FoFCou.
 Two-electron integral symmetry not used.
 Closed shell SCF:
 Using DIIS extrapolation, IDIIS=  1040.
 NGot=   524288000 LenX=   105970886 LenY=   105912845
 Requested convergence on RMS density matrix=1.00D-08 within 128 cycles.
 Requested convergence on MAX density matrix=1.00D-06.
 Requested convergence on             energy=1.00D-06.
 No special actions if energy rises.

 Cycle   1  Pass 1  IDiag  1:
 E= -388.528131245777    
 DIIS: error= 5.47D-02 at cycle   1 NSaved=   1.
 NSaved= 1 IEnMin= 1 EnMin= -388.528131245777     IErMin= 1 ErrMin= 5.47D-02
 ErrMax= 5.47D-02  0.00D+00 EMaxC= 1.00D-01 BMatC= 8.09D-01 BMatP= 8.09D-01
 IDIUse=3 WtCom= 4.53D-01 WtEn= 5.47D-01
 Coeff-Com:  0.100D+01
 Coeff-En:   0.100D+01
 Coeff:      0.100D+01
 Gap=     0.501 Goal=   None    Shift=    0.000
 GapD=    0.501 DampG=2.000 DampE=0.500 DampFc=1.0000 IDamp=-1.
 RMSDP=4.00D-03 MaxDP=1.14D-01              OVMax= 1.35D-01

 Cycle   2  Pass 1  IDiag  1:
 E= -389.070584543533     Delta-E=       -0.542453297756 Rises=F Damp=F
 DIIS: error= 1.12D-02 at cycle   2 NSaved=   2.
 NSaved= 2 IEnMin= 2 EnMin= -389.070584543533     IErMin= 2 ErrMin= 1.12D-02
 ErrMax= 1.12D-02  0.00D+00 EMaxC= 1.00D-01 BMatC= 8.70D-02 BMatP= 8.09D-01
 IDIUse=3 WtCom= 8.88D-01 WtEn= 1.12D-01
 Coeff-Com:  0.183D+00 0.817D+00
 Coeff-En:   0.000D+00 0.100D+01
 Coeff:      0.163D+00 0.837D+00
 Gap=     0.548 Goal=   None    Shift=    0.000
 RMSDP=1.63D-03 MaxDP=3.00D-02 DE=-5.42D-01 OVMax= 4.52D-02

 Cycle   3  Pass 1  IDiag  1:
 E= -389.148791903746     Delta-E=       -0.078207360213 Rises=F Damp=F
 DIIS: error= 2.56D-03 at cycle   3 NSaved=   3.
 NSaved= 3 IEnMin= 3 EnMin= -389.148791903746     IErMin= 3 ErrMin= 2.56D-03
 ErrMax= 2.56D-03  0.00D+00 EMaxC= 1.00D-01 BMatC= 2.80D-03 BMatP= 8.70D-02
 IDIUse=3 WtCom= 9.74D-01 WtEn= 2.56D-02
 Coeff-Com: -0.246D-01 0.953D-01 0.929D+00
 Coeff-En:   0.000D+00 0.000D+00 0.100D+01
 Coeff:     -0.240D-01 0.929D-01 0.931D+00
 Gap=     0.493 Goal=   None    Shift=    0.000
 RMSDP=2.44D-04 MaxDP=6.75D-03 DE=-7.82D-02 OVMax= 9.92D-03

 Cycle   4  Pass 1  IDiag  1:
 E= -389.152073983738     Delta-E=       -0.003282079992 Rises=F Damp=F
 DIIS: error= 3.61D-04 at cycle   4 NSaved=   4.
 NSaved= 4 IEnMin= 4 EnMin= -389.152073983738     IErMin= 4 ErrMin= 3.61D-04
 ErrMax= 3.61D-04  0.00D+00 EMaxC= 1.00D-01 BMatC= 8.46D-05 BMatP= 2.80D-03
 IDIUse=3 WtCom= 9.96D-01 WtEn= 3.61D-03
 Coeff-Com: -0.360D-02-0.446D-02 0.736D-01 0.934D+00
 Coeff-En:   0.000D+00 0.000D+00 0.000D+00 0.100D+01
 Coeff:     -0.358D-02-0.444D-02 0.734D-01 0.935D+00
 Gap=     0.494 Goal=   None    Shift=    0.000
 RMSDP=7.30D-05 MaxDP=1.63D-03 DE=-3.28D-03 OVMax= 3.20D-03

 Cycle   5  Pass 1  IDiag  1:
 E= -389.152191086054     Delta-E=       -0.000117102316 Rises=F Damp=F
 DIIS: error= 1.64D-04 at cycle   5 NSaved=   5.
 NSaved= 5 IEnMin= 5 EnMin= -389.152191086054     IErMin= 5 ErrMin= 1.64D-04
 ErrMax= 1.64D-04  0.00D+00 EMaxC= 1.00D-01 BMatC= 1.68D-05 BMatP= 8.46D-05
 IDIUse=3 WtCom= 9.98D-01 WtEn= 1.64D-03
 Coeff-Com:  0.239D-02-0.143D-01-0.103D+00 0.211D+00 0.904D+00
 Coeff-En:   0.000D+00 0.000D+00 0.000D+00 0.000D+00 0.100D+01
 Coeff:      0.238D-02-0.143D-01-0.103D+00 0.210D+00 0.904D+00
 Gap=     0.494 Goal=   None    Shift=    0.000
 RMSDP=2.91D-05 MaxDP=6.74D-04 DE=-1.17D-04 OVMax= 9.35D-04

 Cycle   6  Pass 1  IDiag  1:
 E= -389.152212914115     Delta-E=       -0.000021828061 Rises=F Damp=F
 DIIS: error= 2.99D-05 at cycle   6 NSaved=   6.
 NSaved= 6 IEnMin= 6 EnMin= -389.152212914115     IErMin= 6 ErrMin= 2.99D-05
 ErrMax= 2.99D-05  0.00D+00 EMaxC= 1.00D-01 BMatC= 5.31D-07 BMatP= 1.68D-05
 IDIUse=1 WtCom= 1.00D+00 WtEn= 0.00D+00
 Coeff-Com:  0.669D-03-0.280D-02-0.242D-01-0.756D-02 0.151D+00 0.883D+00
 Coeff:      0.669D-03-0.280D-02-0.242D-01-0.756D-02 0.151D+00 0.883D+00
 Gap=     0.495 Goal=   None    Shift=    0.000
 RMSDP=5.55D-06 MaxDP=1.48D-04 DE=-2.18D-05 OVMax= 3.17D-04

 Cycle   7  Pass 1  IDiag  1:
 E= -389.152213792830     Delta-E=       -0.000000878715 Rises=F Damp=F
 DIIS: error= 8.22D-06 at cycle   7 NSaved=   7.
 NSaved= 7 IEnMin= 7 EnMin= -389.152213792830     IErMin= 7 ErrMin= 8.22D-06
 ErrMax= 8.22D-06  0.00D+00 EMaxC= 1.00D-01 BMatC= 4.92D-08 BMatP= 5.31D-07
 IDIUse=1 WtCom= 1.00D+00 WtEn= 0.00D+00
 Coeff-Com: -0.466D-04 0.406D-03 0.287D-02-0.102D-01-0.441D-01 0.123D+00
 Coeff-Com:  0.928D+00
 Coeff:     -0.466D-04 0.406D-03 0.287D-02-0.102D-01-0.441D-01 0.123D+00
 Coeff:      0.928D+00
 Gap=     0.495 Goal=   None    Shift=    0.000
 RMSDP=1.67D-06 MaxDP=4.50D-05 DE=-8.79D-07 OVMax= 8.83D-05

 Cycle   8  Pass 1  IDiag  1:
 E= -389.152213879530     Delta-E=       -0.000000086700 Rises=F Damp=F
 DIIS: error= 3.93D-06 at cycle   8 NSaved=   8.
 NSaved= 8 IEnMin= 8 EnMin= -389.152213879530     IErMin= 8 ErrMin= 3.93D-06
 ErrMax= 3.93D-06  0.00D+00 EMaxC= 1.00D-01 BMatC= 5.78D-09 BMatP= 4.92D-08
 IDIUse=1 WtCom= 1.00D+00 WtEn= 0.00D+00
 Coeff-Com: -0.627D-04 0.245D-03 0.226D-02 0.362D-02-0.187D-01-0.907D-01
 Coeff-Com: -0.949D-01 0.120D+01
 Coeff:     -0.627D-04 0.245D-03 0.226D-02 0.362D-02-0.187D-01-0.907D-01
 Coeff:     -0.949D-01 0.120D+01
 Gap=     0.495 Goal=   None    Shift=    0.000
 RMSDP=8.15D-07 MaxDP=2.93D-05 DE=-8.67D-08 OVMax= 6.09D-05

 Cycle   9  Pass 1  IDiag  1:
 E= -389.152213897052     Delta-E=       -0.000000017522 Rises=F Damp=F
 DIIS: error= 1.56D-06 at cycle   9 NSaved=   9.
 NSaved= 9 IEnMin= 9 EnMin= -389.152213897052     IErMin= 9 ErrMin= 1.56D-06
 ErrMax= 1.56D-06  0.00D+00 EMaxC= 1.00D-01 BMatC= 8.08D-10 BMatP= 5.78D-09
 IDIUse=1 WtCom= 1.00D+00 WtEn= 0.00D+00
 Coeff-Com:  0.118D-04-0.737D-04-0.581D-03 0.142D-02 0.403D-02 0.557D-02
 Coeff-Com: -0.846D-01-0.174D+00 0.125D+01
 Coeff:      0.118D-04-0.737D-04-0.581D-03 0.142D-02 0.403D-02 0.557D-02
 Coeff:     -0.846D-01-0.174D+00 0.125D+01
 Gap=     0.495 Goal=   None    Shift=    0.000
 RMSDP=3.25D-07 MaxDP=1.41D-05 DE=-1.75D-08 OVMax= 2.89D-05

 Cycle  10  Pass 1  IDiag  1:
 E= -389.152213899739     Delta-E=       -0.000000002688 Rises=F Damp=F
 DIIS: error= 5.28D-07 at cycle  10 NSaved=  10.
 NSaved=10 IEnMin=10 EnMin= -389.152213899739     IErMin=10 ErrMin= 5.28D-07
 ErrMax= 5.28D-07  0.00D+00 EMaxC= 1.00D-01 BMatC= 1.22D-10 BMatP= 8.08D-10
 IDIUse=1 WtCom= 1.00D+00 WtEn= 0.00D+00
 Coeff-Com:  0.104D-04-0.461D-04-0.405D-03-0.145D-03 0.248D-02 0.156D-01
 Coeff-Com:  0.193D-02-0.212D+00 0.171D+00 0.102D+01
 Coeff:      0.104D-04-0.461D-04-0.405D-03-0.145D-03 0.248D-02 0.156D-01
 Coeff:      0.193D-02-0.212D+00 0.171D+00 0.102D+01
 Gap=     0.495 Goal=   None    Shift=    0.000
 RMSDP=1.24D-07 MaxDP=3.49D-06 DE=-2.69D-09 OVMax= 9.96D-06

 Cycle  11  Pass 1  IDiag  1:
 E= -389.152213900051     Delta-E=       -0.000000000312 Rises=F Damp=F
 DIIS: error= 1.64D-07 at cycle  11 NSaved=  11.
 NSaved=11 IEnMin=11 EnMin= -389.152213900051     IErMin=11 ErrMin= 1.64D-07
 ErrMax= 1.64D-07  0.00D+00 EMaxC= 1.00D-01 BMatC= 9.12D-12 BMatP= 1.22D-10
 IDIUse=1 WtCom= 1.00D+00 WtEn= 0.00D+00
 Coeff-Com: -0.215D-08 0.236D-05 0.160D-04-0.131D-03-0.376D-03 0.180D-02
 Coeff-Com:  0.102D-01-0.435D-02-0.111D+00 0.131D+00 0.973D+00
 Coeff:     -0.215D-08 0.236D-05 0.160D-04-0.131D-03-0.376D-03 0.180D-02
 Coeff:      0.102D-01-0.435D-02-0.111D+00 0.131D+00 0.973D+00
 Gap=     0.495 Goal=   None    Shift=    0.000
 RMSDP=2.78D-08 MaxDP=1.27D-06 DE=-3.12D-10 OVMax= 2.52D-06

 Cycle  12  Pass 1  IDiag  1:
 E= -389.152213900091     Delta-E=       -0.000000000040 Rises=F Damp=F
 DIIS: error= 5.07D-08 at cycle  12 NSaved=  12.
 NSaved=12 IEnMin=12 EnMin= -389.152213900091     IErMin=12 ErrMin= 5.07D-08
 ErrMax= 5.07D-08  0.00D+00 EMaxC= 1.00D-01 BMatC= 1.15D-12 BMatP= 9.12D-12
 IDIUse=1 WtCom= 1.00D+00 WtEn= 0.00D+00
 Coeff-Com: -0.110D-05 0.546D-05 0.470D-04-0.202D-05-0.368D-03-0.136D-02
 Coeff-Com:  0.136D-02 0.217D-01-0.410D-01-0.974D-01 0.148D+00 0.969D+00
 Coeff:     -0.110D-05 0.546D-05 0.470D-04-0.202D-05-0.368D-03-0.136D-02
 Coeff:      0.136D-02 0.217D-01-0.410D-01-0.974D-01 0.148D+00 0.969D+00
 Gap=     0.495 Goal=   None    Shift=    0.000
 RMSDP=1.12D-08 MaxDP=3.27D-07 DE=-3.99D-11 OVMax= 8.09D-07

 Cycle  13  Pass 1  IDiag  1:
 E= -389.152213900095     Delta-E=       -0.000000000004 Rises=F Damp=F
 DIIS: error= 1.09D-08 at cycle  13 NSaved=  13.
 NSaved=13 IEnMin=13 EnMin= -389.152213900095     IErMin=13 ErrMin= 1.09D-08
 ErrMax= 1.09D-08  0.00D+00 EMaxC= 1.00D-01 BMatC= 6.36D-14 BMatP= 1.15D-12
 IDIUse=1 WtCom= 1.00D+00 WtEn= 0.00D+00
 Coeff-Com: -0.872D-07 0.270D-06 0.255D-05 0.133D-04-0.848D-05-0.245D-03
 Coeff-Com: -0.815D-03 0.251D-02 0.610D-02-0.177D-01-0.724D-01 0.103D+00
 Coeff-Com:  0.979D+00
 Coeff:     -0.872D-07 0.270D-06 0.255D-05 0.133D-04-0.848D-05-0.245D-03
 Coeff:     -0.815D-03 0.251D-02 0.610D-02-0.177D-01-0.724D-01 0.103D+00
 Coeff:      0.979D+00
 Gap=     0.495 Goal=   None    Shift=    0.000
 RMSDP=2.23D-09 MaxDP=7.39D-08 DE=-3.64D-12 OVMax= 1.15D-07

 SCF Done:  E(RHF) =  -389.152213900     A.U. after   13 cycles
            NFock= 13  Conv=0.22D-08     -V/T= 2.0013
 KE= 3.886486463805D+02 PE=-1.930584971876D+03 EE= 6.398558328186D+02
 Leave Link  502 at Fri Sep 17 20:09:51 2021, MaxMem=   524288000 cpu:              18.0 elap:              18.2
 (Enter /opt/gaussian/g16_legacy/l801.exe)
 ExpMin= 1.61D-01 ExpMax= 3.05D+03 ExpMxC= 4.57D+02 IAcc=3 IRadAn=         5 AccDes= 0.00D+00
 HarFok:  IExCor=  205 AccDes= 0.00D+00 IRadAn=         5 IDoV=-2 UseB2=F ITyADJ=14
 ICtDFT= 12500011 ScaDFX=  1.000000  1.000000  1.000000  1.000000
 Largest valence mixing into a core orbital is  1.99D-04
 Largest core mixing into a valence orbital is  3.51D-05
 Range of M.O.s used for correlation:    11   240
 NBasis=   240 NAE=    39 NBE=    39 NFC=    10 NFV=     0
 NROrb=    230 NOA=    29 NOB=    29 NVA=   201 NVB=   201
 Leave Link  801 at Fri Sep 17 20:09:52 2021, MaxMem=   524288000 cpu:               0.9 elap:               0.9
 (Enter /opt/gaussian/g16_legacy/l906.exe)
 Frozen-core derivative calculation, NFC=  10 NFV=   0.
 FulOut=F Deriv=T AODrv=T NAtomX=    28
   MMem=          90  MDisk=          29 MDiskD=          29
  W3Min=     2246400 MinDsk=     2795480 NBas6D=         240
 NBas2D=       29244    NTT=       28920    LW2=     2040000
    MDV=   523630563 MDiskM=       30186 NBas2p=       23944
 Fully direct method using O(ONN) memory.
 IMap=   1   2   3   4   5   6   7   8   9  10  11  12  13  14  15  16  17  18  19  20
 IMap=  21  22  23  24  25  26  27  28  29  30  31  32  33  34  35  36  37  38  39
 JobTyp=1 Pass  1:  I=  11 to  39 NPSUse=  1 ParTrn=F ParDer=F DoDerP=T.
 Spin components of T(2) and E(2):
     alpha-alpha T2 =       0.5713159811D-01 E2=     -0.1638309313D+00
     alpha-beta  T2 =       0.3619877195D+00 E2=     -0.1089714374D+01
     beta-beta   T2 =       0.5713159811D-01 E2=     -0.1638309313D+00
 The integrals were generated   1 times.
 ANorm=    0.1215010665D+01
 E2 =    -0.1417376236D+01 EUMP2 =    -0.39056959013641D+03
 Leave Link  906 at Fri Sep 17 20:12:08 2021, MaxMem=   524288000 cpu:             136.3 elap:             136.4
 (Enter /opt/gaussian/g16_legacy/l1002.exe)
 Minotr:  Closed shell wavefunction.
          Computing MP2/KS-MP2 derivatives.
          Using Z-Vector for PSCF gradient.
          Skipping F1 and S1 gradient terms here.
          IDoAtm=1111111111111111111111111111
          Frozen-core window.
          Direct CPHF calculation.
          Differentiating once with respect to electric field.
                with respect to dipole field.
          Differentiating once with respect to nuclear coordinates.
          Requested convergence is 1.0D-10 RMS, and 1.0D-09 maximum.
          NewPWx=F KeepS1=T KeepF1=T KeepIn=T MapXYZ=F SortEE=F KeepMc=T.
 Keep R1 ints in memory in canonical form, NReq=425201067.
 FoFCou: FMM=F IPFlag=           0 FMFlag=           0 FMFlg1=           0
         NFxFlg=           0 DoJE=F BraDBF=F KetDBF=F FulRan=T
         wScrn=  0.000000 ICntrl=       600 IOpCl=  0 I1Cent=           0 NGrid=           0
         NMat0=    1 NMatS0=  28920 NMatT0=    0 NMatD0=    1 NMtDS0=    0 NMtDT0=    0
 Symmetry not used in FoFCou.
 Two-electron integral symmetry not used.
          MDV=     524288000 using IRadAn=       5.
          Solving linear equations separately, MaxMat=       0.
          There are     1 degrees of freedom in the 1st order CPHF.  IDoFFX=0 NUNeed=     1.
 LinEq1:  Iter=  0 NonCon=     1 RMS=2.55D-03 Max=3.97D-02 NDo=     1
 AX will form     1 AO Fock derivatives at one time.
 LinEq1:  Iter=  1 NonCon=     1 RMS=6.91D-04 Max=1.00D-02 NDo=     1
 LinEq1:  Iter=  2 NonCon=     1 RMS=1.66D-04 Max=4.63D-03 NDo=     1
 LinEq1:  Iter=  3 NonCon=     1 RMS=4.44D-05 Max=6.57D-04 NDo=     1
 LinEq1:  Iter=  4 NonCon=     1 RMS=2.13D-05 Max=9.16D-04 NDo=     1
 LinEq1:  Iter=  5 NonCon=     1 RMS=5.24D-06 Max=9.34D-05 NDo=     1
 LinEq1:  Iter=  6 NonCon=     1 RMS=1.49D-06 Max=2.27D-05 NDo=     1
 LinEq1:  Iter=  7 NonCon=     1 RMS=4.02D-07 Max=4.61D-06 NDo=     1
 LinEq1:  Iter=  8 NonCon=     1 RMS=9.79D-08 Max=2.04D-06 NDo=     1
 LinEq1:  Iter=  9 NonCon=     1 RMS=2.33D-08 Max=6.42D-07 NDo=     1
 LinEq1:  Iter= 10 NonCon=     1 RMS=7.74D-09 Max=2.08D-07 NDo=     1
 LinEq1:  Iter= 11 NonCon=     1 RMS=2.32D-09 Max=3.61D-08 NDo=     1
 LinEq1:  Iter= 12 NonCon=     1 RMS=9.49D-10 Max=3.46D-08 NDo=     1
 LinEq1:  Iter= 13 NonCon=     1 RMS=2.83D-10 Max=2.89D-09 NDo=     1
 LinEq1:  Iter= 14 NonCon=     1 RMS=7.72D-11 Max=1.53D-09 NDo=     1
 LinEq1:  Iter= 15 NonCon=     0 RMS=2.07D-11 Max=2.32D-10 NDo=     1
 Linear equations converged to 1.000D-10 1.000D-09 after    15 iterations.
 End of Minotr F.D. properties file   721 does not exist.
 End of Minotr F.D. properties file   722 does not exist.
 End of Minotr F.D. properties file   788 does not exist.
 Leave Link 1002 at Fri Sep 17 20:12:29 2021, MaxMem=   524288000 cpu:              21.1 elap:              21.1
 (Enter /opt/gaussian/g16_legacy/l601.exe)
 Copying SCF densities to generalized density rwf, IOpCl= 0 IROHF=0.

 **********************************************************************

            Population analysis using the SCF density.

 **********************************************************************

 Orbital symmetries:
       Occupied  (A) (A) (A) (A) (A) (A) (A) (A) (A) (A) (A) (A)
                 (A) (A) (A) (A) (A) (A) (A) (A) (A) (A) (A) (A)
                 (A) (A) (A) (A) (A) (A) (A) (A) (A) (A) (A) (A)
                 (A) (A) (A)
       Virtual   (A) (A) (A) (A) (A) (A) (A) (A) (A) (A) (A) (A)
                 (A) (A) (A) (A) (A) (A) (A) (A) (A) (A) (A) (A)
                 (A) (A) (A) (A) (A) (A) (A) (A) (A) (A) (A) (A)
                 (A) (A) (A) (A) (A) (A) (A) (A) (A) (A) (A) (A)
                 (A) (A) (A) (A) (A) (A) (A) (A) (A) (A) (A) (A)
                 (A) (A) (A) (A) (A) (A) (A) (A) (A) (A) (A) (A)
                 (A) (A) (A) (A) (A) (A) (A) (A) (A) (A) (A) (A)
                 (A) (A) (A) (A) (A) (A) (A) (A) (A) (A) (A) (A)
                 (A) (A) (A) (A) (A) (A) (A) (A) (A) (A) (A) (A)
                 (A) (A) (A) (A) (A) (A) (A) (A) (A) (A) (A) (A)
                 (A) (A) (A) (A) (A) (A) (A) (A) (A) (A) (A) (A)
                 (A) (A) (A) (A) (A) (A) (A) (A) (A) (A) (A) (A)
                 (A) (A) (A) (A) (A) (A) (A) (A) (A) (A) (A) (A)
                 (A) (A) (A) (A) (A) (A) (A) (A) (A) (A) (A) (A)
                 (A) (A) (A) (A) (A) (A) (A) (A) (A) (A) (A) (A)
                 (A) (A) (A) (A) (A) (A) (A) (A) (A) (A) (A) (A)
                 (A) (A) (A) (A) (A) (A) (A) (A) (A)
 The electronic state is 1-A.
 Alpha  occ. eigenvalues --  -11.22840 -11.22427 -11.21754 -11.21746 -11.21690
 Alpha  occ. eigenvalues --  -11.21642 -11.21564 -11.21455 -11.21365 -11.21112
 Alpha  occ. eigenvalues --   -1.10581  -1.08276  -1.01917  -0.97397  -0.93567
 Alpha  occ. eigenvalues --   -0.92145  -0.87275  -0.81797  -0.70062  -0.69577
 Alpha  occ. eigenvalues --   -0.64072  -0.62582  -0.59305  -0.58717  -0.58414
 Alpha  occ. eigenvalues --   -0.57083  -0.55184  -0.54047  -0.53716  -0.52571
 Alpha  occ. eigenvalues --   -0.51745  -0.51250  -0.50821  -0.49209  -0.47782
 Alpha  occ. eigenvalues --   -0.46099  -0.44038  -0.33085  -0.31324
 Alpha virt. eigenvalues --    0.18135   0.19504   0.22177   0.24406   0.25541
 Alpha virt. eigenvalues --    0.26746   0.28517   0.28915   0.30492   0.31282
 Alpha virt. eigenvalues --    0.31636   0.32643   0.33163   0.33431   0.34358
 Alpha virt. eigenvalues --    0.34776   0.35290   0.36273   0.37819   0.40581
 Alpha virt. eigenvalues --    0.41402   0.41939   0.43278   0.44472   0.45689
 Alpha virt. eigenvalues --    0.51258   0.54193   0.59826   0.60840   0.69746
 Alpha virt. eigenvalues --    0.70746   0.72590   0.73785   0.76367   0.77211
 Alpha virt. eigenvalues --    0.78295   0.78633   0.79970   0.82427   0.83660
 Alpha virt. eigenvalues --    0.84956   0.86167   0.88755   0.90181   0.90838
 Alpha virt. eigenvalues --    0.92612   0.94360   0.96636   0.98510   1.00155
 Alpha virt. eigenvalues --    1.00690   1.01450   1.02143   1.03801   1.05506
 Alpha virt. eigenvalues --    1.07667   1.08193   1.09788   1.10365   1.11701
 Alpha virt. eigenvalues --    1.13206   1.13825   1.14271   1.14319   1.15293
 Alpha virt. eigenvalues --    1.15381   1.16469   1.17308   1.18053   1.20578
 Alpha virt. eigenvalues --    1.21449   1.21756   1.22573   1.25315   1.27217
 Alpha virt. eigenvalues --    1.30459   1.39267   1.41855   1.43915   1.46266
 Alpha virt. eigenvalues --    1.51680   1.52804   1.56254   1.56647   1.57878
 Alpha virt. eigenvalues --    1.60829   1.62422   1.67201   1.69151   1.70674
 Alpha virt. eigenvalues --    1.72919   1.82740   1.91892   1.92522   1.96062
 Alpha virt. eigenvalues --    1.99667   2.00552   2.01279   2.04726   2.07923
 Alpha virt. eigenvalues --    2.09633   2.10015   2.11409   2.13204   2.15895
 Alpha virt. eigenvalues --    2.16839   2.17627   2.20062   2.26671   2.28467
 Alpha virt. eigenvalues --    2.29063   2.30223   2.31587   2.35310   2.35679
 Alpha virt. eigenvalues --    2.36100   2.36730   2.39131   2.40156   2.40387
 Alpha virt. eigenvalues --    2.41328   2.42482   2.43584   2.44454   2.45624
 Alpha virt. eigenvalues --    2.46784   2.48390   2.49588   2.51645   2.53972
 Alpha virt. eigenvalues --    2.56686   2.57913   2.61840   2.62739   2.63688
 Alpha virt. eigenvalues --    2.66290   2.67719   2.70048   2.71359   2.74107
 Alpha virt. eigenvalues --    2.76019   2.76788   2.78396   2.83266   2.86674
 Alpha virt. eigenvalues --    2.87813   2.89189   2.90310   2.91800   2.94581
 Alpha virt. eigenvalues --    2.96805   2.99925   3.00509   3.02323   3.04276
 Alpha virt. eigenvalues --    3.05369   3.08802   3.10780   3.11530   3.14556
 Alpha virt. eigenvalues --    3.17055   3.18137   3.19399   3.21357   3.21878
 Alpha virt. eigenvalues --    3.23775   3.24092   3.25441   3.26767   3.37832
 Alpha virt. eigenvalues --    3.39017   3.44284   3.45938   3.55633   3.56351
 Alpha virt. eigenvalues --    3.60281   3.61682   3.66540   3.71827   3.78881
 Alpha virt. eigenvalues --    3.79015   3.80711   3.81604   3.81920   3.82306
 Alpha virt. eigenvalues --    3.82967   3.85405   3.86511   3.90254   3.91596
 Alpha virt. eigenvalues --    3.95234   4.59728   4.63750   4.74832   4.83639
 Alpha virt. eigenvalues --    4.89291   4.91777   4.92356   5.06431   5.10915
 Alpha virt. eigenvalues --    5.16845
          Condensed to atoms (all electrons):
               1          2          3          4          5          6
     1  C    4.984350   0.412989   0.415597   0.340326  -0.050427   0.003519
     2  H    0.412989   0.589817  -0.030130  -0.046203  -0.002967   0.000116
     3  H    0.415597  -0.030130   0.573081  -0.044598   0.003419  -0.000110
     4  C    0.340326  -0.046203  -0.044598   4.977331   0.336684  -0.039000
     5  C   -0.050427  -0.002967   0.003419   0.336684   4.911354   0.406085
     6  H    0.003519   0.000116  -0.000110  -0.039000   0.406085   0.571571
     7  H   -0.004247  -0.000829   0.000191  -0.043519   0.406943  -0.030767
     8  H   -0.000419   0.001152  -0.000156  -0.040026   0.397901  -0.026481
     9  C   -0.049368   0.002130  -0.002810   0.693097  -0.050901  -0.003578
    10  H   -0.005283   0.000088   0.001452  -0.039659   0.003371   0.000010
    11  C    0.002888  -0.000091   0.000101  -0.049297  -0.006768  -0.001707
    12  H    0.000110  -0.000001   0.000003  -0.000727  -0.001525  -0.001118
    13  H   -0.000101   0.000007   0.000004  -0.000184   0.000171  -0.000079
    14  H   -0.000095  -0.000001  -0.000010  -0.000579   0.000335   0.000252
    15  C   -0.000112   0.000002  -0.000055   0.000002  -0.000000   0.000000
    16  H   -0.000002   0.000001  -0.000001   0.000000   0.000000   0.000000
    17  H   -0.000005   0.000000   0.000002   0.000000  -0.000000   0.000000
    18  H    0.000023  -0.000002  -0.000001  -0.000000   0.000000  -0.000000
    19  C   -0.004251   0.000667   0.001453   0.000076  -0.000002   0.000000
    20  C   -0.000095  -0.000009  -0.000682  -0.000042  -0.000001   0.000000
    21  H    0.000148   0.000008   0.000078  -0.000112   0.000002  -0.000000
    22  H    0.000050  -0.000001  -0.000022  -0.000002   0.000000  -0.000000
    23  H   -0.000078   0.000000   0.000037   0.000007  -0.000000   0.000000
    24  C   -0.059709  -0.000564  -0.002555   0.006377  -0.000118   0.000004
    25  H    0.001390   0.000504   0.000155  -0.000147   0.000008  -0.000000
    26  C    0.325330  -0.042565  -0.039889  -0.058614  -0.000950  -0.000123
    27  H   -0.041345   0.004190  -0.001715  -0.000960   0.000364  -0.000011
    28  H   -0.042531  -0.002927   0.004130  -0.001205  -0.000030  -0.000094
               7          8          9         10         11         12
     1  C   -0.004247  -0.000419  -0.049368  -0.005283   0.002888   0.000110
     2  H   -0.000829   0.001152   0.002130   0.000088  -0.000091  -0.000001
     3  H    0.000191  -0.000156  -0.002810   0.001452   0.000101   0.000003
     4  C   -0.043519  -0.040026   0.693097  -0.039659  -0.049297  -0.000727
     5  C    0.406943   0.397901  -0.050901   0.003371  -0.006768  -0.001525
     6  H   -0.030767  -0.026481  -0.003578   0.000010  -0.001707  -0.001118
     7  H    0.584497  -0.030712   0.002579  -0.000103   0.000120   0.000011
     8  H   -0.030712   0.572982  -0.003483  -0.000125   0.000654  -0.000128
     9  C    0.002579  -0.003483   4.949165   0.405109   0.341436  -0.041974
    10  H   -0.000103  -0.000125   0.405109   0.563653  -0.042863   0.003362
    11  C    0.000120   0.000654   0.341436  -0.042863   4.898202   0.408295
    12  H    0.000011  -0.000128  -0.041974   0.003362   0.408295   0.573295
    13  H   -0.000011   0.000138  -0.043739  -0.002076   0.403411  -0.028963
    14  H    0.000016  -0.000071  -0.044600  -0.000719   0.399472  -0.027770
    15  C   -0.000000  -0.000000  -0.000000   0.000000   0.000000  -0.000000
    16  H   -0.000000  -0.000000  -0.000000  -0.000000  -0.000000   0.000000
    17  H    0.000000   0.000000   0.000000  -0.000000   0.000000  -0.000000
    18  H    0.000000  -0.000000   0.000000   0.000000  -0.000000  -0.000000
    19  C   -0.000001   0.000000   0.000009  -0.000012  -0.000000   0.000000
    20  C    0.000000  -0.000000  -0.000077  -0.000038   0.000001  -0.000000
    21  H   -0.000000   0.000000   0.000216   0.000609  -0.000003   0.000000
    22  H    0.000000  -0.000000  -0.000000   0.000001  -0.000000   0.000000
    23  H   -0.000000   0.000000   0.000003  -0.000004   0.000000   0.000000
    24  C   -0.000100   0.000002   0.000112  -0.000045   0.000002   0.000000
    25  H    0.000014  -0.000000  -0.000002   0.000000  -0.000000  -0.000000
    26  C    0.000448   0.000037  -0.006801   0.000390  -0.000091  -0.000004
    27  H   -0.000055   0.000005   0.001928   0.000233  -0.000078  -0.000001
    28  H    0.000525   0.000032   0.000574  -0.000004   0.000001   0.000001
              13         14         15         16         17         18
     1  C   -0.000101  -0.000095  -0.000112  -0.000002  -0.000005   0.000023
     2  H    0.000007  -0.000001   0.000002   0.000001   0.000000  -0.000002
     3  H    0.000004  -0.000010  -0.000055  -0.000001   0.000002  -0.000001
     4  C   -0.000184  -0.000579   0.000002   0.000000   0.000000  -0.000000
     5  C    0.000171   0.000335  -0.000000   0.000000  -0.000000   0.000000
     6  H   -0.000079   0.000252   0.000000   0.000000   0.000000  -0.000000
     7  H   -0.000011   0.000016  -0.000000  -0.000000   0.000000   0.000000
     8  H    0.000138  -0.000071  -0.000000  -0.000000   0.000000  -0.000000
     9  C   -0.043739  -0.044600  -0.000000  -0.000000   0.000000   0.000000
    10  H   -0.002076  -0.000719   0.000000  -0.000000  -0.000000   0.000000
    11  C    0.403411   0.399472   0.000000  -0.000000   0.000000  -0.000000
    12  H   -0.028963  -0.027770  -0.000000   0.000000  -0.000000  -0.000000
    13  H    0.585726  -0.033772   0.000000   0.000000   0.000000  -0.000000
    14  H   -0.033772   0.588542  -0.000000  -0.000000  -0.000000   0.000000
    15  C    0.000000  -0.000000   4.896763   0.405517   0.400904   0.396451
    16  H    0.000000  -0.000000   0.405517   0.569532  -0.027977  -0.027412
    17  H    0.000000  -0.000000   0.400904  -0.027977   0.593639  -0.034824
    18  H   -0.000000   0.000000   0.396451  -0.027412  -0.034824   0.594155
    19  C    0.000000  -0.000000   0.353569  -0.041056  -0.047021  -0.043587
    20  C   -0.000000   0.000000  -0.061098   0.003783  -0.000540  -0.002540
    21  H    0.000000  -0.000001   0.003492  -0.000114  -0.000024  -0.000040
    22  H   -0.000000   0.000000  -0.004827   0.000110  -0.000588   0.002439
    23  H    0.000000  -0.000000   0.000173  -0.000134   0.001596  -0.000177
    24  C    0.000000  -0.000000  -0.045260  -0.002378  -0.001036  -0.000570
    25  H   -0.000000   0.000000  -0.006387   0.002239   0.000104   0.000245
    26  C   -0.000006   0.000031   0.003124   0.000133  -0.000121  -0.000085
    27  H    0.000003  -0.000006   0.000069   0.000005   0.000012  -0.000008
    28  H    0.000000  -0.000001  -0.000095  -0.000010   0.000007  -0.000001
              19         20         21         22         23         24
     1  C   -0.004251  -0.000095   0.000148   0.000050  -0.000078  -0.059709
     2  H    0.000667  -0.000009   0.000008  -0.000001   0.000000  -0.000564
     3  H    0.001453  -0.000682   0.000078  -0.000022   0.000037  -0.002555
     4  C    0.000076  -0.000042  -0.000112  -0.000002   0.000007   0.006377
     5  C   -0.000002  -0.000001   0.000002   0.000000  -0.000000  -0.000118
     6  H    0.000000   0.000000  -0.000000  -0.000000   0.000000   0.000004
     7  H   -0.000001   0.000000  -0.000000   0.000000  -0.000000  -0.000100
     8  H    0.000000  -0.000000   0.000000  -0.000000   0.000000   0.000002
     9  C    0.000009  -0.000077   0.000216  -0.000000   0.000003   0.000112
    10  H   -0.000012  -0.000038   0.000609   0.000001  -0.000004  -0.000045
    11  C   -0.000000   0.000001  -0.000003  -0.000000   0.000000   0.000002
    12  H    0.000000  -0.000000   0.000000   0.000000   0.000000   0.000000
    13  H    0.000000  -0.000000   0.000000  -0.000000   0.000000   0.000000
    14  H   -0.000000   0.000000  -0.000001   0.000000  -0.000000  -0.000000
    15  C    0.353569  -0.061098   0.003492  -0.004827   0.000173  -0.045260
    16  H   -0.041056   0.003783  -0.000114   0.000110  -0.000134  -0.002378
    17  H   -0.047021  -0.000540  -0.000024  -0.000588   0.001596  -0.001036
    18  H   -0.043587  -0.002540  -0.000040   0.002439  -0.000177  -0.000570
    19  C    4.927986   0.342719  -0.037317  -0.042884  -0.041681   0.696438
    20  C    0.342719   4.918843   0.406180   0.405189   0.397142  -0.049984
    21  H   -0.037317   0.406180   0.568344  -0.030171  -0.026482  -0.003913
    22  H   -0.042884   0.405189  -0.030171   0.582271  -0.030866   0.002250
    23  H   -0.041681   0.397142  -0.026482  -0.030866   0.575473  -0.002615
    24  C    0.696438  -0.049984  -0.003913   0.002250  -0.002615   4.971641
    25  H   -0.036574   0.003357   0.000042  -0.000103  -0.000129   0.403287
    26  C   -0.054562  -0.004944  -0.002376   0.000189   0.000163   0.336957
    27  H   -0.001606  -0.001417  -0.001988  -0.000029   0.000514  -0.044636
    28  H    0.002359   0.000071   0.000046  -0.000005   0.000033  -0.040114
              25         26         27         28
     1  C    0.001390   0.325330  -0.041345  -0.042531
     2  H    0.000504  -0.042565   0.004190  -0.002927
     3  H    0.000155  -0.039889  -0.001715   0.004130
     4  C   -0.000147  -0.058614  -0.000960  -0.001205
     5  C    0.000008  -0.000950   0.000364  -0.000030
     6  H   -0.000000  -0.000123  -0.000011  -0.000094
     7  H    0.000014   0.000448  -0.000055   0.000525
     8  H   -0.000000   0.000037   0.000005   0.000032
     9  C   -0.000002  -0.006801   0.001928   0.000574
    10  H    0.000000   0.000390   0.000233  -0.000004
    11  C   -0.000000  -0.000091  -0.000078   0.000001
    12  H   -0.000000  -0.000004  -0.000001   0.000001
    13  H   -0.000000  -0.000006   0.000003   0.000000
    14  H    0.000000   0.000031  -0.000006  -0.000001
    15  C   -0.006387   0.003124   0.000069  -0.000095
    16  H    0.002239   0.000133   0.000005  -0.000010
    17  H    0.000104  -0.000121   0.000012   0.000007
    18  H    0.000245  -0.000085  -0.000008  -0.000001
    19  C   -0.036574  -0.054562  -0.001606   0.002359
    20  C    0.003357  -0.004944  -0.001417   0.000071
    21  H    0.000042  -0.002376  -0.001988   0.000046
    22  H   -0.000103   0.000189  -0.000029  -0.000005
    23  H   -0.000129   0.000163   0.000514   0.000033
    24  C    0.403287   0.336957  -0.044636  -0.040114
    25  H    0.557074  -0.040195   0.003143  -0.004592
    26  C   -0.040195   4.995097   0.415936   0.410692
    27  H    0.003143   0.415936   0.569798  -0.029441
    28  H   -0.004592   0.410692  -0.029441   0.587517
 Mulliken charges:
               1
     1  C   -0.228654
     2  H    0.114616
     3  H    0.123032
     4  C    0.010975
     5  C   -0.352948
     6  H    0.121512
     7  H    0.115000
     8  H    0.128697
     9  C   -0.149026
    10  H    0.112654
    11  C   -0.353685
    12  H    0.117135
    13  H    0.119470
    14  H    0.118977
    15  C   -0.342232
    16  H    0.117765
    17  H    0.115871
    18  H    0.115935
    19  C    0.025277
    20  C   -0.355818
    21  H    0.123376
    22  H    0.117001
    23  H    0.127025
    24  C   -0.163474
    25  H    0.116566
    26  C   -0.237203
    27  H    0.127095
    28  H    0.115061
 Sum of Mulliken charges =  -0.00000
 Mulliken charges with hydrogens summed into heavy atoms:
               1
     1  C    0.008994
     4  C    0.010975
     5  C    0.012261
     9  C   -0.036372
    11  C    0.001897
    15  C    0.007337
    19  C    0.025277
    20  C    0.011585
    24  C   -0.046908
    26  C    0.004954
 Electronic spatial extent (au):  <R**2>=           2591.8264
 Charge=             -0.0000 electrons
 Dipole moment (field-independent basis, Debye):
    X=             -0.0425    Y=              0.0343    Z=              0.0182  Tot=              0.0575
 Quadrupole moment (field-independent basis, Debye-Ang):
   XX=            -64.0747   YY=            -63.0189   ZZ=            -67.2028
   XY=             -1.2739   XZ=              0.8056   YZ=             -0.0602
 Traceless Quadrupole moment (field-independent basis, Debye-Ang):
   XX=              0.6908   YY=              1.7466   ZZ=             -2.4373
   XY=             -1.2739   XZ=              0.8056   YZ=             -0.0602
 Octapole moment (field-independent basis, Debye-Ang**2):
  XXX=             -0.2694  YYY=             -2.0935  ZZZ=              0.2428  XYY=             -0.6662
  XXY=              1.4368  XXZ=              0.2404  XZZ=              0.0662  YZZ=              1.4816
  YYZ=             -0.4091  XYZ=             -0.2454
 Hexadecapole moment (field-independent basis, Debye-Ang**3):
 XXXX=          -2882.1889 YYYY=           -564.1198 ZZZZ=           -163.2050 XXXY=            -14.5069
 XXXZ=              6.7757 YYYX=             10.2383 YYYZ=             -1.8937 ZZZX=              3.9011
 ZZZY=              2.3708 XXYY=           -568.9675 XXZZ=           -513.7661 YYZZ=           -117.7120
 XXYZ=              0.9483 YYXZ=             -1.8697 ZZXY=             -6.9264
 N-N= 5.129282787771D+02 E-N=-1.930584971491D+03  KE= 3.886486463805D+02
 No NMR shielding tensors so no spin-rotation constants.
 Leave Link  601 at Fri Sep 17 20:12:30 2021, MaxMem=   524288000 cpu:               0.2 elap:               0.2
 (Enter /opt/gaussian/g16_legacy/l701.exe)
 ... and contract with generalized density number  2.
 Compute integral first derivatives.
 Leave Link  701 at Fri Sep 17 20:12:30 2021, MaxMem=   524288000 cpu:               0.1 elap:               0.2
 (Enter /opt/gaussian/g16_legacy/l702.exe)
 L702 exits ... SP integral derivatives will be done elsewhere.
 Leave Link  702 at Fri Sep 17 20:12:30 2021, MaxMem=   524288000 cpu:               0.0 elap:               0.0
 (Enter /opt/gaussian/g16_legacy/l703.exe)
 Integral derivatives from FoFJK, PRISM(SPDF).
 Compute integral first derivatives, UseDBF=F ICtDFT=           0.
 Calling FoFJK, ICntrl=  10002127 FMM=F ISym2X=0 I1Cent= 0 IOpClX= 0 NMat=1 NMatS=1 NMatT=0.
 FoFJK:  IHMeth= 1 ICntrl=10002127 DoSepK=F KAlg= 0 I1Cent=           0 FoldK=F
 IRaf=         0 NMat=       1 IRICut=       1 DoRegI=T DoRafI=F ISym2E= 0 IDoP0=0 IntGTp=1.
 FoFCou: FMM=F IPFlag=           0 FMFlag=      100000 FMFlg1=         800
         NFxFlg=           0 DoJE=F BraDBF=F KetDBF=F FulRan=T
         wScrn=  0.000000 ICntrl=  10002127 IOpCl=  0 I1Cent=           0 NGrid=           0
         NMat0=    1 NMatS0=      1 NMatT0=    0 NMatD0=    1 NMtDS0=    0 NMtDT0=    0
 Symmetry not used in FoFCou.
 Leave Link  703 at Fri Sep 17 20:12:48 2021, MaxMem=   524288000 cpu:              18.1 elap:              18.1
 (Enter /opt/gaussian/g16_legacy/l716.exe)
 Dipole        = 1.91117953D-02 3.15069739D-02 1.04265499D-02
 ***** Axes restored to original set *****
 -------------------------------------------------------------------
 Center     Atomic                   Forces (Hartrees/Bohr)
 Number     Number              X              Y              Z
 -------------------------------------------------------------------
      1        6           0.008100305    0.003043608   -0.004538721
      2        1          -0.000756814    0.001863562    0.002648105
      3        1          -0.000667675    0.000038025    0.004747993
      4        6          -0.001992103    0.001007308   -0.002907397
      5        6           0.001776420   -0.000107647    0.004948041
      6        1          -0.000579280   -0.001555441   -0.004078790
      7        1           0.001581028    0.001206466   -0.003302082
      8        1          -0.000296625   -0.000821163    0.003031482
      9        6          -0.002436452   -0.001190000   -0.001043687
     10        1          -0.001188242   -0.003388312   -0.000229727
     11        6           0.001566720   -0.000366949    0.001443473
     12        1          -0.002468461    0.002067935   -0.000759568
     13        1           0.000193837    0.000764078    0.003217675
     14        1           0.002906056   -0.000781815   -0.001789060
     15        6          -0.001581980   -0.003432192    0.000379430
     16        1           0.003052434    0.002855684   -0.000193942
     17        1           0.000085831   -0.000432996   -0.003203356
     18        1          -0.001592586    0.002043177    0.002525637
     19        6          -0.001013797   -0.007262521   -0.003380434
     20        6           0.004799616    0.000826012   -0.000332916
     21        1          -0.003031062    0.000225529    0.003334337
     22        1          -0.000851108   -0.000666317    0.003755069
     23        1           0.000648049    0.001133572   -0.002996092
     24        6          -0.000869363   -0.000271365    0.005939201
     25        1          -0.001703405    0.002966961   -0.002119541
     26        6          -0.006895626    0.002586027    0.002416452
     27        1           0.001507733   -0.003121213   -0.004651083
     28        1           0.001706549    0.000769987   -0.002860499
 -------------------------------------------------------------------
 Cartesian Forces:  Max     0.008100305 RMS     0.002724634
 Leave Link  716 at Fri Sep 17 20:12:48 2021, MaxMem=   524288000 cpu:               0.0 elap:               0.0
 (Enter /opt/gaussian/g16_legacy/l103.exe)

 GradGradGradGradGradGradGradGradGradGradGradGradGradGradGradGradGradGrad
 Berny optimization.
 FormGI is forming the generalized inverse of G from B-inverse, IUseBI=4.
 Internal  Forces:  Max     0.004873022 RMS     0.002008057
 Search for a local minimum.
 Step number   1 out of a maximum of  138
 All quantities printed in internal units (Hartrees-Bohrs-Radians)
 RMS Force = .20081D-02 SwitMx=.10000D-02 MixMth= 1
 Mixed Optimization -- RFO/linear search
 Second derivative matrix not updated -- first step.
 ITU=  0
     Eigenvalues ---    0.00340   0.00579   0.00696   0.00698   0.00709
     Eigenvalues ---    0.00709   0.00820   0.01232   0.01286   0.01571
     Eigenvalues ---    0.01644   0.02783   0.02790   0.04104   0.04104
     Eigenvalues ---    0.05354   0.05360   0.07053   0.07070   0.07078
     Eigenvalues ---    0.07117   0.07290   0.07291   0.07324   0.07511
     Eigenvalues ---    0.09268   0.09373   0.12767   0.12814   0.15995
     Eigenvalues ---    0.16000   0.16000   0.16000   0.16000   0.16000
     Eigenvalues ---    0.16000   0.16000   0.16000   0.16000   0.16000
     Eigenvalues ---    0.16000   0.16000   0.16000   0.21870   0.21875
     Eigenvalues ---    0.22000   0.22001   0.24997   0.24999   0.24999
     Eigenvalues ---    0.25000   0.29223   0.30939   0.31829   0.31848
     Eigenvalues ---    0.31930   0.31930   0.32808   0.33872   0.33975
     Eigenvalues ---    0.33977   0.33982   0.34216   0.34236   0.34245
     Eigenvalues ---    0.34246   0.34256   0.34275   0.34288   0.34335
     Eigenvalues ---    0.34370   0.34372   0.34392   0.34601   0.34752
     Eigenvalues ---    0.34891   0.55560   0.55668
 RFO step:  Lambda=-4.31318116D-03 EMin= 3.40283931D-03
 Linear search not attempted -- first point.
 Iteration  1 RMS(Cart)=  0.10812685 RMS(Int)=  0.00344384
 Iteration  2 RMS(Cart)=  0.00490373 RMS(Int)=  0.00016243
 Iteration  3 RMS(Cart)=  0.00000986 RMS(Int)=  0.00016229
 Iteration  4 RMS(Cart)=  0.00000000 RMS(Int)=  0.00016229
 ITry= 1 IFail=0 DXMaxC= 4.44D-01 DCOld= 1.00D+10 DXMaxT= 3.00D-01 DXLimC= 3.00D+00 Rises=F
 Variable       Old X    -DE/DX   Delta X   Delta X   Delta X     New X
                                 (Linear)    (Quad)   (Total)
    R1        2.07373  -0.00227   0.00000  -0.00659  -0.00659   2.06713
    R2        2.07547  -0.00374   0.00000  -0.01091  -0.01091   2.06456
    R3        2.86129  -0.00133   0.00000  -0.00423  -0.00423   2.85705
    R4        2.89540   0.00181   0.00000   0.00612   0.00612   2.90152
    R5        2.84423   0.00215   0.00000   0.00665   0.00665   2.85088
    R6        2.54543  -0.00329   0.00000  -0.00586  -0.00586   2.53957
    R7        2.06673  -0.00343   0.00000  -0.00985  -0.00985   2.05687
    R8        2.06967  -0.00337   0.00000  -0.00973  -0.00973   2.05995
    R9        2.06768  -0.00164   0.00000  -0.00470  -0.00470   2.06298
   R10        2.06080  -0.00207   0.00000  -0.00588  -0.00588   2.05492
   R11        2.82690   0.00277   0.00000   0.00833   0.00833   2.83523
   R12        2.06328  -0.00304   0.00000  -0.00868  -0.00868   2.05460
   R13        2.06846  -0.00242   0.00000  -0.00698  -0.00698   2.06148
   R14        2.06711  -0.00141   0.00000  -0.00404  -0.00404   2.06307
   R15        2.06933  -0.00386   0.00000  -0.01112  -0.01112   2.05821
   R16        2.06901  -0.00192   0.00000  -0.00552  -0.00552   2.06348
   R17        2.06917  -0.00201   0.00000  -0.00578  -0.00578   2.06339
   R18        2.84272   0.00014   0.00000   0.00043   0.00043   2.84315
   R19        2.84272   0.00131   0.00000   0.00406   0.00406   2.84678
   R20        2.54638  -0.00398   0.00000  -0.00712  -0.00712   2.53926
   R21        2.06706  -0.00351   0.00000  -0.01007  -0.01007   2.05699
   R22        2.06919  -0.00309   0.00000  -0.00892  -0.00892   2.06027
   R23        2.06869  -0.00162   0.00000  -0.00467  -0.00467   2.06402
   R24        2.05852  -0.00186   0.00000  -0.00528  -0.00528   2.05324
   R25        2.84458   0.00077   0.00000   0.00238   0.00238   2.84696
   R26        2.07360  -0.00388   0.00000  -0.01128  -0.01128   2.06233
   R27        2.07368  -0.00263   0.00000  -0.00764  -0.00764   2.06605
    A1        1.84117   0.00195   0.00000   0.01600   0.01579   1.85696
    A2        1.91565  -0.00070   0.00000  -0.00522  -0.00516   1.91049
    A3        1.92777  -0.00332   0.00000  -0.03097  -0.03101   1.89676
    A4        1.91172   0.00010   0.00000   0.01484   0.01484   1.92657
    A5        1.91631  -0.00225   0.00000  -0.01088  -0.01111   1.90520
    A6        1.94819   0.00408   0.00000   0.01634   0.01633   1.96453
    A7        2.01776   0.00181   0.00000   0.00714   0.00707   2.02483
    A8        2.09948  -0.00081   0.00000  -0.00312  -0.00320   2.09628
    A9        2.16592  -0.00100   0.00000  -0.00386  -0.00394   2.16199
   A10        1.95990   0.00075   0.00000   0.00679   0.00678   1.96667
   A11        1.93469  -0.00171   0.00000  -0.00953  -0.00950   1.92519
   A12        1.92044   0.00331   0.00000   0.01706   0.01706   1.93751
   A13        1.85783   0.00157   0.00000   0.01531   0.01532   1.87315
   A14        1.90221  -0.00248   0.00000  -0.01658  -0.01661   1.88559
   A15        1.88631  -0.00164   0.00000  -0.01436  -0.01431   1.87200
   A16        2.06579  -0.00227   0.00000  -0.01461  -0.01461   2.05118
   A17        2.22777  -0.00100   0.00000  -0.00443  -0.00444   2.22334
   A18        1.98960   0.00326   0.00000   0.01907   0.01906   2.00866
   A19        1.97969  -0.00284   0.00000  -0.01737  -0.01729   1.96240
   A20        1.91084   0.00235   0.00000   0.01432   0.01425   1.92510
   A21        1.91517   0.00419   0.00000   0.02552   0.02548   1.94065
   A22        1.87693   0.00016   0.00000   0.00086   0.00092   1.87785
   A23        1.89114  -0.00085   0.00000  -0.00523  -0.00513   1.88601
   A24        1.88763  -0.00319   0.00000  -0.01929  -0.01947   1.86816
   A25        1.87986   0.00073   0.00000   0.00606   0.00609   1.88594
   A26        1.87999   0.00079   0.00000   0.00887   0.00890   1.88889
   A27        1.95963  -0.00255   0.00000  -0.01251  -0.01248   1.94715
   A28        1.89499  -0.00318   0.00000  -0.02526  -0.02525   1.86974
   A29        1.92386   0.00169   0.00000   0.00818   0.00820   1.93206
   A30        1.92359   0.00239   0.00000   0.01375   0.01377   1.93736
   A31        2.00705   0.00198   0.00000   0.00793   0.00771   2.01476
   A32        2.11424   0.00147   0.00000   0.00592   0.00569   2.11994
   A33        2.16180  -0.00344   0.00000  -0.01338  -0.01360   2.14821
   A34        1.96318  -0.00085   0.00000  -0.00224  -0.00223   1.96095
   A35        1.93020  -0.00123   0.00000  -0.00680  -0.00677   1.92343
   A36        1.92405   0.00335   0.00000   0.01682   0.01684   1.94089
   A37        1.85800   0.00233   0.00000   0.02089   0.02089   1.87889
   A38        1.89497  -0.00158   0.00000  -0.01068  -0.01067   1.88430
   A39        1.89088  -0.00216   0.00000  -0.01893  -0.01889   1.87199
   A40        2.07880  -0.00246   0.00000  -0.01628  -0.01681   2.06199
   A41        2.19968  -0.00237   0.00000  -0.01022  -0.01077   2.18891
   A42        2.00426   0.00487   0.00000   0.02822   0.02766   2.03192
   A43        1.95278   0.00357   0.00000   0.01516   0.01528   1.96806
   A44        1.92964  -0.00392   0.00000  -0.03192  -0.03207   1.89757
   A45        1.92358  -0.00239   0.00000  -0.01915  -0.01933   1.90425
   A46        1.92326   0.00096   0.00000   0.01473   0.01484   1.93810
   A47        1.88959  -0.00007   0.00000   0.00914   0.00920   1.89880
   A48        1.84135   0.00178   0.00000   0.01253   0.01198   1.85333
    D1       -0.60698   0.00039   0.00000  -0.06593  -0.06594  -0.67292
    D2        2.52691   0.00075   0.00000  -0.04394  -0.04391   2.48300
    D3       -2.62068  -0.00162   0.00000  -0.09063  -0.09057  -2.71126
    D4        0.51320  -0.00126   0.00000  -0.06863  -0.06854   0.44466
[...]
                 (A) (A) (A) (A) (A) (A) (A) (A) (A) (A) (A) (A)
                 (A) (A) (A) (A) (A) (A) (A) (A) (A) (A) (A) (A)
                 (A) (A) (A) (A) (A) (A) (A) (A) (A) (A) (A) (A)
                 (A) (A) (A) (A) (A) (A) (A) (A) (A) (A) (A) (A)
                 (A) (A) (A) (A) (A) (A) (A) (A) (A) (A) (A) (A)
                 (A) (A) (A) (A) (A) (A) (A) (A) (A) (A) (A) (A)
                 (A) (A) (A) (A) (A) (A) (A) (A) (A) (A) (A) (A)
                 (A) (A) (A) (A) (A) (A) (A) (A) (A) (A) (A) (A)
                 (A) (A) (A) (A) (A) (A) (A) (A) (A) (A) (A) (A)
                 (A) (A) (A) (A) (A) (A) (A) (A) (A) (A) (A) (A)
                 (A) (A) (A) (A) (A) (A) (A) (A) (A) (A) (A) (A)
                 (A) (A) (A) (A) (A) (A) (A) (A) (A) (A) (A) (A)
                 (A) (A) (A) (A) (A) (A) (A) (A) (A) (A) (A) (A)
                 (A) (A) (A) (A) (A) (A) (A) (A) (A) (A) (A) (A)
                 (A) (A) (A) (A) (A) (A) (A) (A) (A)
 The electronic state is 1-A.
 Alpha  occ. eigenvalues --  -11.22919 -11.22524 -11.21711 -11.21627 -11.21570
 Alpha  occ. eigenvalues --  -11.21559 -11.21513 -11.21454 -11.21402 -11.21298
 Alpha  occ. eigenvalues --   -1.10712  -1.08439  -1.02117  -0.97412  -0.93716
 Alpha  occ. eigenvalues --   -0.92410  -0.87778  -0.81711  -0.70462  -0.69695
 Alpha  occ. eigenvalues --   -0.64282  -0.63080  -0.59594  -0.58686  -0.58537
 Alpha  occ. eigenvalues --   -0.56930  -0.55096  -0.54874  -0.53177  -0.52751
 Alpha  occ. eigenvalues --   -0.51784  -0.51130  -0.50640  -0.49304  -0.47959
 Alpha  occ. eigenvalues --   -0.46342  -0.44583  -0.33431  -0.31446
 Alpha virt. eigenvalues --    0.18431   0.19807   0.22981   0.24449   0.26534
 Alpha virt. eigenvalues --    0.26923   0.27862   0.28939   0.30368   0.30756
 Alpha virt. eigenvalues --    0.31384   0.32419   0.33231   0.33546   0.34254
 Alpha virt. eigenvalues --    0.35156   0.36556   0.37269   0.39457   0.40456
 Alpha virt. eigenvalues --    0.40964   0.41222   0.43374   0.45138   0.46015
 Alpha virt. eigenvalues --    0.51706   0.53974   0.61431   0.63266   0.69550
 Alpha virt. eigenvalues --    0.70314   0.72643   0.74361   0.75418   0.76001
 Alpha virt. eigenvalues --    0.76707   0.79260   0.79788   0.81055   0.83230
 Alpha virt. eigenvalues --    0.83661   0.86106   0.86962   0.89761   0.91485
 Alpha virt. eigenvalues --    0.92977   0.95844   0.97297   0.98165   0.99161
 Alpha virt. eigenvalues --    1.00337   1.01333   1.02594   1.03556   1.06172
 Alpha virt. eigenvalues --    1.07933   1.08694   1.09874   1.12096   1.12361
 Alpha virt. eigenvalues --    1.12801   1.13720   1.15071   1.15404   1.15907
 Alpha virt. eigenvalues --    1.16703   1.17168   1.18347   1.19118   1.21283
 Alpha virt. eigenvalues --    1.21574   1.22268   1.23289   1.25413   1.26017
 Alpha virt. eigenvalues --    1.27732   1.40328   1.41437   1.45089   1.45475
 Alpha virt. eigenvalues --    1.48275   1.50127   1.55115   1.57547   1.58264
 Alpha virt. eigenvalues --    1.62788   1.65297   1.66676   1.70802   1.71739
 Alpha virt. eigenvalues --    1.74457   1.78821   1.90791   1.91748   1.96721
 Alpha virt. eigenvalues --    1.99420   2.00990   2.02391   2.06226   2.07922
 Alpha virt. eigenvalues --    2.08301   2.09418   2.10014   2.12600   2.14715
 Alpha virt. eigenvalues --    2.15053   2.16242   2.20419   2.23166   2.26756
 Alpha virt. eigenvalues --    2.29408   2.30322   2.31918   2.35425   2.35743
 Alpha virt. eigenvalues --    2.35906   2.36759   2.38593   2.40305   2.41095
 Alpha virt. eigenvalues --    2.42820   2.43840   2.44278   2.44976   2.45977
 Alpha virt. eigenvalues --    2.48193   2.49766   2.50423   2.51453   2.55696
 Alpha virt. eigenvalues --    2.56874   2.59084   2.62404   2.63237   2.65643
 Alpha virt. eigenvalues --    2.66759   2.68855   2.69736   2.70734   2.74851
 Alpha virt. eigenvalues --    2.76045   2.77543   2.80889   2.83053   2.84041
 Alpha virt. eigenvalues --    2.85495   2.89107   2.90665   2.93106   2.96180
 Alpha virt. eigenvalues --    2.97208   3.01027   3.01644   3.03342   3.05317
 Alpha virt. eigenvalues --    3.06668   3.08275   3.11710   3.13097   3.14956
 Alpha virt. eigenvalues --    3.17809   3.19100   3.19617   3.20910   3.22176
 Alpha virt. eigenvalues --    3.23969   3.24520   3.27512   3.28242   3.39542
 Alpha virt. eigenvalues --    3.40256   3.44788   3.45711   3.56212   3.57270
 Alpha virt. eigenvalues --    3.61586   3.63338   3.65749   3.74108   3.78510
 Alpha virt. eigenvalues --    3.79732   3.80791   3.82170   3.83477   3.84026
 Alpha virt. eigenvalues --    3.84543   3.86462   3.88026   3.90708   3.92029
 Alpha virt. eigenvalues --    3.96721   4.58865   4.62027   4.74189   4.83740
 Alpha virt. eigenvalues --    4.89800   4.91251   4.92628   5.05536   5.10473
 Alpha virt. eigenvalues --    5.16507
          Condensed to atoms (all electrons):
               1          2          3          4          5          6
     1  C    4.978122   0.405157   0.412949   0.356513  -0.058473   0.003390
     2  H    0.405157   0.603727  -0.026782  -0.044487  -0.003426  -0.000072
     3  H    0.412949  -0.026782   0.574331  -0.046929   0.003627  -0.000095
     4  C    0.356513  -0.044487  -0.046929   4.939453   0.341392  -0.037462
     5  C   -0.058473  -0.003426   0.003627   0.341392   4.908268   0.407670
     6  H    0.003390  -0.000072  -0.000095  -0.037462   0.407670   0.568017
     7  H   -0.001140  -0.000091  -0.000108  -0.040633   0.401485  -0.027791
     8  H   -0.004025   0.003260   0.000059  -0.044068   0.401451  -0.027663
     9  C   -0.042007   0.000388  -0.002368   0.700379  -0.045087  -0.003038
    10  H   -0.007114   0.000238   0.002237  -0.040166   0.003560   0.000035
    11  C    0.003168  -0.000115   0.000203  -0.047927  -0.007867  -0.002314
    12  H    0.000099   0.000001   0.000005  -0.000134  -0.002090  -0.001260
    13  H   -0.000113   0.000015  -0.000005  -0.001017   0.000312   0.000110
    14  H   -0.000088  -0.000003  -0.000012  -0.000079   0.000214  -0.000067
    15  C   -0.000092   0.000000  -0.000046   0.000002  -0.000000  -0.000000
    16  H   -0.000004   0.000002  -0.000002   0.000000  -0.000000  -0.000000
    17  H   -0.000005   0.000000   0.000002   0.000000  -0.000000   0.000000
    18  H    0.000023  -0.000002  -0.000007  -0.000000   0.000000  -0.000000
    19  C   -0.004103   0.000666   0.001435   0.000043  -0.000001   0.000000
    20  C    0.000566  -0.000024   0.000164  -0.000030   0.000000   0.000000
    21  H   -0.000009  -0.000010   0.000105   0.000001   0.000000   0.000000
    22  H    0.000105  -0.000001  -0.000088  -0.000004   0.000000  -0.000000
    23  H   -0.000038   0.000000   0.000013   0.000001  -0.000000   0.000000
    24  C   -0.060565  -0.001460  -0.001010   0.005611  -0.000200   0.000002
    25  H   -0.000314   0.001116   0.000177  -0.000136   0.000007  -0.000000
    26  C    0.331275  -0.051744  -0.040792  -0.062489  -0.000720   0.000072
    27  H   -0.043822   0.004995  -0.002513   0.001114   0.000075  -0.000024
    28  H   -0.045640  -0.002335   0.004448  -0.002384  -0.000608   0.000039
               7          8          9         10         11         12
     1  C   -0.001140  -0.004025  -0.042007  -0.007114   0.003168   0.000099
     2  H   -0.000091   0.003260   0.000388   0.000238  -0.000115   0.000001
     3  H   -0.000108   0.000059  -0.002368   0.002237   0.000203   0.000005
     4  C   -0.040633  -0.044068   0.700379  -0.040166  -0.047927  -0.000134
     5  C    0.401485   0.401451  -0.045087   0.003560  -0.007867  -0.002090
     6  H   -0.027791  -0.027663  -0.003038   0.000035  -0.002314  -0.001260
     7  H    0.580993  -0.035090  -0.002517  -0.000126   0.000479  -0.000120
     8  H   -0.035090   0.588043   0.001816  -0.000112   0.000170   0.000010
     9  C   -0.002517   0.001816   4.936356   0.405692   0.340192  -0.043570
    10  H   -0.000126  -0.000112   0.405692   0.560708  -0.041925   0.003340
    11  C    0.000479   0.000170   0.340192  -0.041925   4.897827   0.408420
    12  H   -0.000120   0.000010  -0.043570   0.003340   0.408420   0.576158
    13  H   -0.000040   0.000028  -0.042074  -0.000919   0.401105  -0.027819
    14  H    0.000089  -0.000017  -0.042135  -0.001476   0.402070  -0.028782
    15  C    0.000000  -0.000000   0.000000  -0.000000   0.000000   0.000000
    16  H    0.000000  -0.000000  -0.000000  -0.000000   0.000000   0.000000
    17  H    0.000000   0.000000  -0.000000  -0.000000   0.000000  -0.000000
    18  H   -0.000000  -0.000000   0.000000   0.000000  -0.000000  -0.000000
    19  C   -0.000001   0.000001   0.000000  -0.000004  -0.000000  -0.000000
    20  C    0.000000  -0.000000  -0.000004   0.000000   0.000000  -0.000000
    21  H   -0.000001  -0.000000   0.000008   0.000018   0.000000   0.000000
    22  H    0.000000  -0.000000  -0.000000   0.000001  -0.000000  -0.000000
    23  H    0.000000   0.000000   0.000000  -0.000000   0.000000   0.000000
    24  C   -0.000012  -0.000037  -0.000014  -0.000020   0.000001   0.000000
    25  H    0.000006  -0.000003  -0.000001   0.000000  -0.000000  -0.000000
    26  C    0.001062  -0.001038  -0.004805   0.000241  -0.000080  -0.000004
    27  H    0.000046   0.000095   0.001715   0.000087  -0.000046   0.000001
    28  H   -0.001760   0.000466   0.000333  -0.000011   0.000003  -0.000000
              13         14         15         16         17         18
     1  C   -0.000113  -0.000088  -0.000092  -0.000004  -0.000005   0.000023
     2  H    0.000015  -0.000003   0.000000   0.000002   0.000000  -0.000002
     3  H   -0.000005  -0.000012  -0.000046  -0.000002   0.000002  -0.000007
     4  C   -0.001017  -0.000079   0.000002   0.000000   0.000000  -0.000000
     5  C    0.000312   0.000214  -0.000000  -0.000000  -0.000000   0.000000
     6  H    0.000110  -0.000067  -0.000000  -0.000000   0.000000  -0.000000
     7  H   -0.000040   0.000089   0.000000   0.000000   0.000000  -0.000000
     8  H    0.000028  -0.000017  -0.000000  -0.000000   0.000000  -0.000000
     9  C   -0.042074  -0.042135   0.000000  -0.000000  -0.000000   0.000000
    10  H   -0.000919  -0.001476  -0.000000  -0.000000  -0.000000   0.000000
    11  C    0.401105   0.402070   0.000000   0.000000   0.000000  -0.000000
    12  H   -0.027819  -0.028782   0.000000   0.000000  -0.000000  -0.000000
    13  H    0.585759  -0.035777   0.000000  -0.000000   0.000000  -0.000000
    14  H   -0.035777   0.586047  -0.000000  -0.000000  -0.000000   0.000000
    15  C    0.000000  -0.000000   4.901218   0.406136   0.398631   0.398179
    16  H   -0.000000  -0.000000   0.406136   0.566563  -0.026609  -0.026692
    17  H    0.000000  -0.000000   0.398631  -0.026609   0.594360  -0.037892
    18  H   -0.000000   0.000000   0.398179  -0.026692  -0.037892   0.594882
    19  C    0.000000  -0.000000   0.353594  -0.041718  -0.044230  -0.043879
    20  C   -0.000000   0.000000  -0.065286   0.003787  -0.001198  -0.001964
    21  H   -0.000000  -0.000000   0.003740  -0.000114  -0.000032  -0.000067
    22  H   -0.000000   0.000000  -0.002662  -0.000029  -0.000493   0.002804
    23  H    0.000000  -0.000000  -0.002230  -0.000053   0.002778  -0.000463
    24  C    0.000000  -0.000000  -0.044609  -0.002561  -0.001281  -0.000479
    25  H   -0.000000   0.000000  -0.007129   0.002350   0.000189   0.000195
    26  C   -0.000004   0.000021   0.003217   0.000153  -0.000129  -0.000076
    27  H    0.000001  -0.000007   0.000073   0.000007   0.000005  -0.000004
    28  H    0.000000  -0.000000  -0.000098  -0.000010   0.000011  -0.000002
              19         20         21         22         23         24
     1  C   -0.004103   0.000566  -0.000009   0.000105  -0.000038  -0.060565
     2  H    0.000666  -0.000024  -0.000010  -0.000001   0.000000  -0.001460
     3  H    0.001435   0.000164   0.000105  -0.000088   0.000013  -0.001010
     4  C    0.000043  -0.000030   0.000001  -0.000004   0.000001   0.005611
     5  C   -0.000001   0.000000   0.000000   0.000000  -0.000000  -0.000200
     6  H    0.000000   0.000000   0.000000  -0.000000   0.000000   0.000002
     7  H   -0.000001   0.000000  -0.000001   0.000000   0.000000  -0.000012
     8  H    0.000001  -0.000000  -0.000000  -0.000000   0.000000  -0.000037
     9  C    0.000000  -0.000004   0.000008  -0.000000   0.000000  -0.000014
    10  H   -0.000004   0.000000   0.000018   0.000001  -0.000000  -0.000020
    11  C   -0.000000   0.000000   0.000000  -0.000000   0.000000   0.000001
    12  H   -0.000000  -0.000000   0.000000  -0.000000   0.000000   0.000000
    13  H    0.000000  -0.000000  -0.000000  -0.000000   0.000000   0.000000
    14  H   -0.000000   0.000000  -0.000000   0.000000  -0.000000  -0.000000
    15  C    0.353594  -0.065286   0.003740  -0.002662  -0.002230  -0.044609
    16  H   -0.041718   0.003787  -0.000114  -0.000029  -0.000053  -0.002561
    17  H   -0.044230  -0.001198  -0.000032  -0.000493   0.002778  -0.001281
    18  H   -0.043879  -0.001964  -0.000067   0.002804  -0.000463  -0.000479
    19  C    4.911980   0.350278  -0.037743  -0.043572  -0.043800   0.701055
    20  C    0.350278   4.905338   0.407412   0.400850   0.400146  -0.043268
    21  H   -0.037743   0.407412   0.565827  -0.027852  -0.026563  -0.002856
    22  H   -0.043572   0.400850  -0.027852   0.588065  -0.036017  -0.000107
    23  H   -0.043800   0.400146  -0.026563  -0.036017   0.586461  -0.000444
    24  C    0.701055  -0.043268  -0.002856  -0.000107  -0.000444   4.947518
    25  H   -0.038246   0.003553   0.000052  -0.000121  -0.000122   0.402911
    26  C   -0.049102  -0.008322  -0.002639   0.000371   0.000164   0.347397
    27  H    0.000866  -0.002774  -0.001367  -0.000063   0.000056  -0.043935
    28  H    0.001115   0.000195   0.000058  -0.000015   0.000027  -0.041951
              25         26         27         28
     1  C   -0.000314   0.331275  -0.043822  -0.045640
     2  H    0.001116  -0.051744   0.004995  -0.002335
     3  H    0.000177  -0.040792  -0.002513   0.004448
     4  C   -0.000136  -0.062489   0.001114  -0.002384
     5  C    0.000007  -0.000720   0.000075  -0.000608
     6  H   -0.000000   0.000072  -0.000024   0.000039
     7  H    0.000006   0.001062   0.000046  -0.001760
     8  H   -0.000003  -0.001038   0.000095   0.000466
     9  C   -0.000001  -0.004805   0.001715   0.000333
    10  H    0.000000   0.000241   0.000087  -0.000011
    11  C   -0.000000  -0.000080  -0.000046   0.000003
    12  H   -0.000000  -0.000004   0.000001  -0.000000
    13  H   -0.000000  -0.000004   0.000001   0.000000
    14  H    0.000000   0.000021  -0.000007  -0.000000
    15  C   -0.007129   0.003217   0.000073  -0.000098
    16  H    0.002350   0.000153   0.000007  -0.000010
    17  H    0.000189  -0.000129   0.000005   0.000011
    18  H    0.000195  -0.000076  -0.000004  -0.000002
    19  C   -0.038246  -0.049102   0.000866   0.001115
    20  C    0.003553  -0.008322  -0.002774   0.000195
    21  H    0.000052  -0.002639  -0.001367   0.000058
    22  H   -0.000121   0.000371  -0.000063  -0.000015
    23  H   -0.000122   0.000164   0.000056   0.000027
    24  C    0.402911   0.347397  -0.043935  -0.041951
    25  H    0.559719  -0.040141   0.003226  -0.003173
    26  C   -0.040141   4.998748   0.410703   0.411891
    27  H    0.003226   0.410703   0.579045  -0.029249
    28  H   -0.003173   0.411891  -0.029249   0.591380
 Mulliken charges:
               1
     1  C   -0.223816
     2  H    0.110985
     3  H    0.121002
     4  C    0.023438
     5  C   -0.349588
     6  H    0.120449
     7  H    0.125269
     8  H    0.116653
     9  C   -0.159256
    10  H    0.115715
    11  C   -0.353363
    12  H    0.115744
    13  H    0.120436
    14  H    0.120005
    15  C   -0.342638
    16  H    0.118794
    17  H    0.115892
    18  H    0.115445
    19  C    0.025368
    20  C   -0.349419
    21  H    0.122032
    22  H    0.118830
    23  H    0.120083
    24  C   -0.159686
    25  H    0.115886
    26  C   -0.243228
    27  H    0.121698
    28  H    0.117271
 Sum of Mulliken charges =  -0.00000
 Mulliken charges with hydrogens summed into heavy atoms:
               1
     1  C    0.008171
     4  C    0.023438
     5  C    0.012784
     9  C   -0.043542
    11  C    0.002822
    15  C    0.007493
    19  C    0.025368
    20  C    0.011526
    24  C   -0.043800
    26  C   -0.004259
 Electronic spatial extent (au):  <R**2>=           2683.4866
 Charge=             -0.0000 electrons
 Dipole moment (field-independent basis, Debye):
    X=             -0.0904    Y=              0.0784    Z=              0.1311  Tot=              0.1775
 Quadrupole moment (field-independent basis, Debye-Ang):
   XX=            -63.7658   YY=            -63.3654   ZZ=            -67.0583
   XY=             -1.0227   XZ=              1.2570   YZ=              0.0090
 Traceless Quadrupole moment (field-independent basis, Debye-Ang):
   XX=              0.9641   YY=              1.3644   ZZ=             -2.3285
   XY=             -1.0227   XZ=              1.2570   YZ=              0.0090
 Octapole moment (field-independent basis, Debye-Ang**2):
  XXX=             -1.1051  YYY=             -1.1139  ZZZ=              1.6632  XYY=              0.4044
  XXY=              4.0447  XXZ=              1.6991  XZZ=             -0.8966  YZZ=              1.3811
  YYZ=             -2.4872  XYZ=             -3.0381
 Hexadecapole moment (field-independent basis, Debye-Ang**3):
 XXXX=          -3007.2051 YYYY=           -509.1337 ZZZZ=           -197.4499 XXXY=            -12.2032
 XXXZ=              5.1192 YYYX=              7.9342 YYYZ=              1.9890 ZZZX=              2.8963
 ZZZY=             -1.1076 XXYY=           -586.1025 XXZZ=           -546.5816 YYZZ=           -114.4347
 XXYZ=             -0.5569 YYXZ=              3.8682 ZZXY=             -2.9519
 N-N= 5.101616677832D+02 E-N=-1.925067993761D+03  KE= 3.887438582775D+02
 No NMR shielding tensors so no spin-rotation constants.
 Leave Link  601 at Fri Sep 17 21:30:56 2021, MaxMem=   524288000 cpu:               0.2 elap:               0.4
 (Enter /opt/gaussian/g16_legacy/l9999.exe)
 1\1\GINC-TRUENO95\FOpt\RMP2-FC\6-31G(d,p)\C10H18\JRAMOS\17-Sep-2021\0\
 \#p opt mp2/6-31g(d,p)\\Conformer number 002. Energy MM = 25.192 kcal/
 mol\\0,1\C,2.2803045029,1.3272387302,-9.0634690875\H,1.9804989193,0.36
 08830754,-9.484162087\H,2.1911588237,2.0626463578,-9.8664171947\C,3.70
 86711208,1.2554262808,-8.5884321263\C,4.006521847,0.1675946394,-7.5906
 493489\H,5.0717129988,-0.0202624748,-7.481574828\H,3.6091716508,0.4123
 198305,-6.6038706313\H,3.5339965183,-0.7655108669,-7.9030711938\C,4.61
 15898459,2.1493910643,-9.0342093064\H,4.2647099838,2.8829328263,-9.757
 0699403\C,6.0571877613,2.2649407415,-8.6570756162\H,6.3573400329,1.529
 7055558,-7.9149049022\H,6.6983441106,2.1433438912,-9.5320601369\H,6.26
 65629823,3.2539071512,-8.2454187715\C,-2.241437811,2.7183947222,-9.300
 9116061\H,-2.5507903548,1.6764321677,-9.3671173137\H,-2.9469486256,3.2
 444824581,-8.6537467214\H,-2.3288188845,3.1656548776,-10.2936511891\C,
 -0.8373611363,2.846337703,-8.7770867656\C,-0.3402553588,4.2601135513,-
 8.6561613708\H,0.6879436505,4.321428276,-8.30957179\H,-0.3998065346,4.
 7631194192,-9.6236903964\H,-0.967993135,4.8282874063,-7.966085848\C,-0
 .1214440223,1.7537035776,-8.4511330949\H,-0.5921668336,0.785516841,-8.
 6041804779\C,1.2898769616,1.7055304937,-7.9470581906\H,1.5961661315,2.
 6614857713,-7.5202567799\H,1.3537648544,0.9707559326,-7.1404632845\\Ve
 rsion=EM64L-G16RevA.03\State=1-A\HF=-389.1569454\MP2=-390.5732618\RMSD
 =4.708e-09\RMSF=3.289e-06\Dipole=0.0080088,0.053704,0.0372869\PG=C01 [
 X(C10H18)]\\@


 You never know when you're making a memory.
                        -- Rickie Lee Jones
 Job cpu time:       0 days  1 hours 21 minutes  6.3 seconds.
 Elapsed time:       0 days  1 hours 21 minutes 21.8 seconds.
 File lengths (MBytes):  RWF=     37 Int=      0 D2E=      0 Chk=      7 Scr=      1
 Normal termination of Gaussian 16 at Fri Sep 17 21:30:57 2021.
