 Entering Gaussian System, Link 0=/opt/gaussian/g16_legacy/g16
 Input=02-IsoP_024_gaussian.com
 Output=02-IsoP_024_gaussian.log
 Initial command:
 /opt/gaussian/g16_legacy/l1.exe "/scratch-local/jramos/2661516/Gau-7165.inp" -scrdir="/scratch-local/jramos/2661516/"
 Entering Link 1 = /opt/gaussian/g16_legacy/l1.exe PID=      7170.
  
 Copyright (c) 1988,1990,1992,1993,1995,1998,2003,2009,2016,
            Gaussian, Inc.  All Rights Reserved.
  
 This is part of the Gaussian(R) 16 program.  It is based on
 the Gaussian(R) 09 system (copyright 2009, Gaussian, Inc.),
 the Gaussian(R) 03 system (copyright 2003, Gaussian, Inc.),
 the Gaussian(R) 98 system (copyright 1998, Gaussian, Inc.),
 the Gaussian(R) 94 system (copyright 1995, Gaussian, Inc.),
 the Gaussian 92(TM) system (copyright 1992, Gaussian, Inc.),
 the Gaussian 90(TM) system (copyright 1990, Gaussian, Inc.),
 the Gaussian 88(TM) system (copyright 1988, Gaussian, Inc.),
 the Gaussian 86(TM) system (copyright 1986, Carnegie Mellon
 University), and the Gaussian 82(TM) system (copyright 1983,
 Carnegie Mellon University). Gaussian is a federally registered
 trademark of Gaussian, Inc.
  
 This software contains proprietary and confidential information,
 including trade secrets, belonging to Gaussian, Inc.
  
 This software is provided under written license and may be
 used, copied, transmitted, or stored only in accord with that
 written license.
  
 The following legend is applicable only to US Government
 contracts under FAR:
  
                    RESTRICTED RIGHTS LEGEND
  
 Use, reproduction and disclosure by the US Government is
 subject to restrictions as set forth in subparagraphs (a)
 and (c) of the Commercial Computer Software - Restricted
 Rights clause in FAR 52.227-19.
  
 Gaussian, Inc.
 340 Quinnipiac St., Bldg. 40, Wallingford CT 06492
  
  
 ---------------------------------------------------------------
 Warning -- This program may not be used in any manner that
 competes with the business of Gaussian, Inc. or will provide
 assistance to any competitor of Gaussian, Inc.  The licensee
 of this program is prohibited from giving any competitor of
 Gaussian, Inc. access to this program.  By using this program,
 the user acknowledges that Gaussian, Inc. is engaged in the
 business of creating and licensing software in the field of
 computational chemistry and represents and warrants to the
 licensee that it is not a competitor of Gaussian, Inc. and that
 it will not use this program in any manner prohibited above.
 ---------------------------------------------------------------
  

 Cite this work as:
 Gaussian 16, Revision A.03,
 M. J. Frisch, G. W. Trucks, H. B. Schlegel, G. E. Scuseria, 
 M. A. Robb, J. R. Cheeseman, G. Scalmani, V. Barone, 
 G. A. Petersson, H. Nakatsuji, X. Li, M. Caricato, A. V. Marenich, 
 J. Bloino, B. G. Janesko, R. Gomperts, B. Mennucci, H. P. Hratchian, 
 J. V. Ortiz, A. F. Izmaylov, J. L. Sonnenberg, D. Williams-Young, 
 F. Ding, F. Lipparini, F. Egidi, J. Goings, B. Peng, A. Petrone, 
 T. Henderson, D. Ranasinghe, V. G. Zakrzewski, J. Gao, N. Rega, 
 G. Zheng, W. Liang, M. Hada, M. Ehara, K. Toyota, R. Fukuda, 
 J. Hasegawa, M. Ishida, T. Nakajima, Y. Honda, O. Kitao, H. Nakai, 
 T. Vreven, K. Throssell, J. A. Montgomery, Jr., J. E. Peralta, 
 F. Ogliaro, M. J. Bearpark, J. J. Heyd, E. N. Brothers, K. N. Kudin, 
 V. N. Staroverov, T. A. Keith, R. Kobayashi, J. Normand, 
 K. Raghavachari, A. P. Rendell, J. C. Burant, S. S. Iyengar, 
 J. Tomasi, M. Cossi, J. M. Millam, M. Klene, C. Adamo, R. Cammi, 
 J. W. Ochterski, R. L. Martin, K. Morokuma, O. Farkas, 
 J. B. Foresman, and D. J. Fox, Gaussian, Inc., Wallingford CT, 2016.
 
 ******************************************
 Gaussian 16:  EM64L-G16RevA.03 25-Dec-2016
                17-Sep-2021 
 ******************************************
 %chk=02-IsoP_024_gaussian.chk
 %nproc=1
 Will use up to    1 processors via shared memory.
 %mem=4000Mb
 ---------------------
 #p opt mp2/6-31g(d,p)
 ---------------------
 1/18=20,19=15,38=1/1,3;
 2/9=110,12=2,17=6,18=5,40=1/2;
 3/5=1,6=6,7=101,11=9,25=1,30=1,71=1/1,2,3;
 4//1;
 5/5=2,38=5/2;
 8/6=4,10=2/1;
 9/15=2,16=-3/6;
 10/5=1/2;
 6/7=2,8=2,9=2,10=2/1;
 7/12=2/1,2,3,16;
 1/18=20,19=15/3(2);
 2/9=110/2;
 99//99;
 2/9=110/2;
 3/5=1,6=6,7=101,11=9,25=1,30=1,71=1/1,2,3;
 4/5=5,16=3,69=1/1;
 5/5=2,38=5/2;
 8/6=4,10=2/1;
 9/15=2,16=-3/6;
 10/5=1/2;
 7/12=2/1,2,3,16;
 1/18=20,19=15/3(-8);
 2/9=110/2;
 6/7=2,8=2,9=2,10=2/1;
 99//99;
 Leave Link    1 at Fri Sep 17 20:09:26 2021, MaxMem=   524288000 cpu:               0.0 elap:               0.2
 (Enter /opt/gaussian/g16_legacy/l101.exe)
 -------------------------------------------------
 Conformer number 024. Energy MM = 27.980 kcal/mol
 -------------------------------------------------
 Symbolic Z-matrix:
 Charge =  0 Multiplicity = 1
 C                     2.1994    1.2474   -8.9602 
 H                     1.886     0.239    -9.2596 
 H                     2.072     1.8843   -9.8466 
 C                     3.6812    1.1975   -8.6023 
 C                     4.6035    1.4266   -9.7695 
 H                     5.561     0.9112   -9.6483 
 H                     4.1616    1.044    -10.6958 
 H                     4.7873    2.4978   -9.8956 
 C                     4.1186    1.0096   -7.3402 
 H                     3.3955    0.8341   -6.5461 
 C                     5.5269    1.0677   -6.8418 
 H                     6.2585    1.2879   -7.6211 
 H                     5.6049    1.8557   -6.0848 
 H                     5.795     0.1174   -6.3726 
 C                     1.087     5.4832   -6.6316 
 H                     2.1414    5.6659   -6.8666 
 H                     0.4901    6.2037   -7.2012 
 H                     0.9481    5.679    -5.5633 
 C                     0.6624    4.0773   -6.9655 
 C                    -0.7691    3.7409   -6.6765 
 H                    -0.892     2.6878   -6.4045 
 H                    -1.1456    4.3281   -5.8311 
 H                    -1.3919    3.9555   -7.5508 
 C                     1.5451    3.1943   -7.4693 
 H                     2.5742    3.5205   -7.6102 
 C                     1.2372    1.774    -7.8787 
 H                     1.2644    1.1256   -6.9965 
 H                     0.2202    1.7144   -8.286 
 
 ITRead=  0  0  0  0  0  0  0  0  0  0  0  0  0  0  0  0  0  0  0  0
 ITRead=  0  0  0  0  0  0  0  0
 MicOpt= -1 -1 -1 -1 -1 -1 -1 -1 -1 -1 -1 -1 -1 -1 -1 -1 -1 -1 -1 -1
 MicOpt= -1 -1 -1 -1 -1 -1 -1 -1
 NAtoms=     28 NQM=       28 NQMF=       0 NMMI=      0 NMMIF=      0
                NMic=       0 NMicF=      0.
                    Isotopes and Nuclear Properties:
 (Nuclear quadrupole moments (NQMom) in fm**2, nuclear magnetic moments (NMagM)
  in nuclear magnetons)

  Atom         1           2           3           4           5           6           7           8           9          10
 IAtWgt=          12           1           1          12          12           1           1           1          12           1
 AtmWgt=  12.0000000   1.0078250   1.0078250  12.0000000  12.0000000   1.0078250   1.0078250   1.0078250  12.0000000   1.0078250
 NucSpn=           0           1           1           0           0           1           1           1           0           1
 AtZEff=  -0.0000000  -0.0000000  -0.0000000  -0.0000000  -0.0000000  -0.0000000  -0.0000000  -0.0000000  -0.0000000  -0.0000000
 NQMom=    0.0000000   0.0000000   0.0000000   0.0000000   0.0000000   0.0000000   0.0000000   0.0000000   0.0000000   0.0000000
 NMagM=    0.0000000   2.7928460   2.7928460   0.0000000   0.0000000   2.7928460   2.7928460   2.7928460   0.0000000   2.7928460
 AtZNuc=   6.0000000   1.0000000   1.0000000   6.0000000   6.0000000   1.0000000   1.0000000   1.0000000   6.0000000   1.0000000

  Atom        11          12          13          14          15          16          17          18          19          20
 IAtWgt=          12           1           1           1          12           1           1           1          12          12
 AtmWgt=  12.0000000   1.0078250   1.0078250   1.0078250  12.0000000   1.0078250   1.0078250   1.0078250  12.0000000  12.0000000
 NucSpn=           0           1           1           1           0           1           1           1           0           0
 AtZEff=  -0.0000000  -0.0000000  -0.0000000  -0.0000000  -0.0000000  -0.0000000  -0.0000000  -0.0000000  -0.0000000  -0.0000000
 NQMom=    0.0000000   0.0000000   0.0000000   0.0000000   0.0000000   0.0000000   0.0000000   0.0000000   0.0000000   0.0000000
 NMagM=    0.0000000   2.7928460   2.7928460   2.7928460   0.0000000   2.7928460   2.7928460   2.7928460   0.0000000   0.0000000
 AtZNuc=   6.0000000   1.0000000   1.0000000   1.0000000   6.0000000   1.0000000   1.0000000   1.0000000   6.0000000   6.0000000

  Atom        21          22          23          24          25          26          27          28
 IAtWgt=           1           1           1          12           1          12           1           1
 AtmWgt=   1.0078250   1.0078250   1.0078250  12.0000000   1.0078250  12.0000000   1.0078250   1.0078250
 NucSpn=           1           1           1           0           1           0           1           1
 AtZEff=  -0.0000000  -0.0000000  -0.0000000  -0.0000000  -0.0000000  -0.0000000  -0.0000000  -0.0000000
 NQMom=    0.0000000   0.0000000   0.0000000   0.0000000   0.0000000   0.0000000   0.0000000   0.0000000
 NMagM=    2.7928460   2.7928460   2.7928460   0.0000000   2.7928460   0.0000000   2.7928460   2.7928460
 AtZNuc=   1.0000000   1.0000000   1.0000000   6.0000000   1.0000000   6.0000000   1.0000000   1.0000000
 Leave Link  101 at Fri Sep 17 20:09:26 2021, MaxMem=   524288000 cpu:               0.3 elap:               0.2
 (Enter /opt/gaussian/g16_legacy/l103.exe)

 GradGradGradGradGradGradGradGradGradGradGradGradGradGradGradGradGradGrad
 Berny optimization.
 Initialization pass.
                           ----------------------------
                           !    Initial Parameters    !
                           ! (Angstroms and Degrees)  !
 --------------------------                            --------------------------
 ! Name  Definition              Value          Derivative Info.                !
 --------------------------------------------------------------------------------
 ! R1    R(1,2)                  1.0976         estimate D2E/DX2                !
 ! R2    R(1,3)                  1.0989         estimate D2E/DX2                !
 ! R3    R(1,4)                  1.5252         estimate D2E/DX2                !
 ! R4    R(1,26)                 1.5404         estimate D2E/DX2                !
 ! R5    R(4,5)                  1.5052         estimate D2E/DX2                !
 ! R6    R(4,9)                  1.3489         estimate D2E/DX2                !
 ! R7    R(5,6)                  1.0941         estimate D2E/DX2                !
 ! R8    R(5,7)                  1.0953         estimate D2E/DX2                !
 ! R9    R(5,8)                  1.0941         estimate D2E/DX2                !
 ! R10   R(9,10)                 1.0882         estimate D2E/DX2                !
 ! R11   R(9,11)                 1.495          estimate D2E/DX2                !
 ! R12   R(11,12)                1.0913         estimate D2E/DX2                !
 ! R13   R(11,13)                1.0955         estimate D2E/DX2                !
 ! R14   R(11,14)                1.0932         estimate D2E/DX2                !
 ! R15   R(15,16)                1.0956         estimate D2E/DX2                !
 ! R16   R(15,17)                1.0954         estimate D2E/DX2                !
 ! R17   R(15,18)                1.0949         estimate D2E/DX2                !
 ! R18   R(15,19)                1.5061         estimate D2E/DX2                !
 ! R19   R(19,20)                1.4986         estimate D2E/DX2                !
 ! R20   R(19,24)                1.3464         estimate D2E/DX2                !
 ! R21   R(20,21)                1.0946         estimate D2E/DX2                !
 ! R22   R(20,22)                1.096          estimate D2E/DX2                !
 ! R23   R(20,23)                1.0947         estimate D2E/DX2                !
 ! R24   R(24,25)                1.0887         estimate D2E/DX2                !
 ! R25   R(24,26)                1.5099         estimate D2E/DX2                !
 ! R26   R(26,27)                1.0952         estimate D2E/DX2                !
 ! R27   R(26,28)                1.0971         estimate D2E/DX2                !
 ! A1    A(2,1,3)              106.2212         estimate D2E/DX2                !
 ! A2    A(2,1,4)              108.1407         estimate D2E/DX2                !
 ! A3    A(2,1,26)             109.1012         estimate D2E/DX2                !
 ! A4    A(3,1,4)              108.7157         estimate D2E/DX2                !
 ! A5    A(3,1,26)             107.204          estimate D2E/DX2                !
 ! A6    A(4,1,26)             116.9556         estimate D2E/DX2                !
 ! A7    A(1,4,5)              114.1024         estimate D2E/DX2                !
 ! A8    A(1,4,9)              122.6254         estimate D2E/DX2                !
 ! A9    A(5,4,9)              123.2352         estimate D2E/DX2                !
 ! A10   A(4,5,6)              112.2495         estimate D2E/DX2                !
 ! A11   A(4,5,7)              110.8197         estimate D2E/DX2                !
 ! A12   A(4,5,8)              109.9577         estimate D2E/DX2                !
 ! A13   A(6,5,7)              106.3917         estimate D2E/DX2                !
 ! A14   A(6,5,8)              109.083          estimate D2E/DX2                !
 ! A15   A(7,5,8)              108.1973         estimate D2E/DX2                !
 ! A16   A(4,9,10)             119.3246         estimate D2E/DX2                !
 ! A17   A(4,9,11)             127.7317         estimate D2E/DX2                !
 ! A18   A(10,9,11)            112.8876         estimate D2E/DX2                !
 ! A19   A(9,11,12)            113.6575         estimate D2E/DX2                !
 ! A20   A(9,11,13)            108.9894         estimate D2E/DX2                !
 ! A21   A(9,11,14)            109.8962         estimate D2E/DX2                !
 ! A22   A(12,11,13)           107.4919         estimate D2E/DX2                !
 ! A23   A(12,11,14)           108.51           estimate D2E/DX2                !
 ! A24   A(13,11,14)           108.1342         estimate D2E/DX2                !
 ! A25   A(16,15,17)           107.6503         estimate D2E/DX2                !
 ! A26   A(16,15,18)           107.55           estimate D2E/DX2                !
 ! A27   A(16,15,19)           112.2981         estimate D2E/DX2                !
 ! A28   A(17,15,18)           108.6993         estimate D2E/DX2                !
 ! A29   A(17,15,19)           110.1875         estimate D2E/DX2                !
 ! A30   A(18,15,19)           110.3325         estimate D2E/DX2                !
 ! A31   A(15,19,20)           115.8539         estimate D2E/DX2                !
 ! A32   A(15,19,24)           120.6864         estimate D2E/DX2                !
 ! A33   A(20,19,24)           123.4493         estimate D2E/DX2                !
 ! A34   A(19,20,21)           111.7858         estimate D2E/DX2                !
 ! A35   A(19,20,22)           110.8924         estimate D2E/DX2                !
 ! A36   A(19,20,23)           110.2076         estimate D2E/DX2                !
 ! A37   A(21,20,22)           106.5713         estimate D2E/DX2                !
 ! A38   A(21,20,23)           108.8564         estimate D2E/DX2                !
 ! A39   A(22,20,23)           108.3961         estimate D2E/DX2                !
 ! A40   A(19,24,25)           118.1412         estimate D2E/DX2                !
 ! A41   A(19,24,26)           125.7825         estimate D2E/DX2                !
 ! A42   A(25,24,26)           116.0729         estimate D2E/DX2                !
 ! A43   A(1,26,24)            112.6176         estimate D2E/DX2                !
 ! A44   A(1,26,27)            110.3433         estimate D2E/DX2                !
 ! A45   A(1,26,28)            107.4458         estimate D2E/DX2                !
 ! A46   A(24,26,27)           109.4779         estimate D2E/DX2                !
 ! A47   A(24,26,28)           109.9251         estimate D2E/DX2                !
 ! A48   A(27,26,28)           106.8519         estimate D2E/DX2                !
 ! D1    D(2,1,4,5)             88.4229         estimate D2E/DX2                !
 ! D2    D(2,1,4,9)            -93.7231         estimate D2E/DX2                !
 ! D3    D(3,1,4,5)            -26.4981         estimate D2E/DX2                !
 ! D4    D(3,1,4,9)            151.3559         estimate D2E/DX2                !
 ! D5    D(26,1,4,5)          -148.0077         estimate D2E/DX2                !
 ! D6    D(26,1,4,9)            29.8463         estimate D2E/DX2                !
 ! D7    D(2,1,26,24)         -176.4334         estimate D2E/DX2                !
 ! D8    D(2,1,26,27)           60.9016         estimate D2E/DX2                !
 ! D9    D(2,1,26,28)          -55.2411         estimate D2E/DX2                !
 ! D10   D(3,1,26,24)          -61.8073         estimate D2E/DX2                !
 ! D11   D(3,1,26,27)          175.5278         estimate D2E/DX2                !
 ! D12   D(3,1,26,28)           59.385          estimate D2E/DX2                !
 ! D13   D(4,1,26,24)           60.4895         estimate D2E/DX2                !
 ! D14   D(4,1,26,27)          -62.1754         estimate D2E/DX2                !
 ! D15   D(4,1,26,28)         -178.3182         estimate D2E/DX2                !
 ! D16   D(1,4,5,6)           -150.7296         estimate D2E/DX2                !
 ! D17   D(1,4,5,7)            -31.9287         estimate D2E/DX2                !
 ! D18   D(1,4,5,8)             87.6448         estimate D2E/DX2                !
 ! D19   D(9,4,5,6)             31.4312         estimate D2E/DX2                !
 ! D20   D(9,4,5,7)            150.2322         estimate D2E/DX2                !
 ! D21   D(9,4,5,8)            -90.1944         estimate D2E/DX2                !
 ! D22   D(1,4,9,10)             3.2738         estimate D2E/DX2                !
 ! D23   D(1,4,9,11)          -173.7952         estimate D2E/DX2                !
 ! D24   D(5,4,9,10)          -179.0683         estimate D2E/DX2                !
 ! D25   D(5,4,9,11)             3.8627         estimate D2E/DX2                !
 ! D26   D(4,9,11,12)           -0.1725         estimate D2E/DX2                !
 ! D27   D(4,9,11,13)          119.6814         estimate D2E/DX2                !
 ! D28   D(4,9,11,14)         -121.9856         estimate D2E/DX2                !
 ! D29   D(10,9,11,12)        -177.3988         estimate D2E/DX2                !
 ! D30   D(10,9,11,13)         -57.5449         estimate D2E/DX2                !
 ! D31   D(10,9,11,14)          60.7881         estimate D2E/DX2                !
 ! D32   D(16,15,19,20)       -179.9364         estimate D2E/DX2                !
 ! D33   D(16,15,19,24)          1.1902         estimate D2E/DX2                !
 ! D34   D(17,15,19,20)        -59.9401         estimate D2E/DX2                !
 ! D35   D(17,15,19,24)        121.1865         estimate D2E/DX2                !
 ! D36   D(18,15,19,20)         60.0949         estimate D2E/DX2                !
 ! D37   D(18,15,19,24)       -118.7785         estimate D2E/DX2                !
 ! D38   D(15,19,20,21)       -148.5417         estimate D2E/DX2                !
 ! D39   D(15,19,20,22)        -29.7698         estimate D2E/DX2                !
 ! D40   D(15,19,20,23)         90.2599         estimate D2E/DX2                !
 ! D41   D(24,19,20,21)         30.297          estimate D2E/DX2                !
 ! D42   D(24,19,20,22)        149.069          estimate D2E/DX2                !
 ! D43   D(24,19,20,23)        -90.9013         estimate D2E/DX2                !
 ! D44   D(15,19,24,25)          1.0914         estimate D2E/DX2                !
 ! D45   D(15,19,24,26)       -178.2178         estimate D2E/DX2                !
 ! D46   D(20,19,24,25)       -177.6934         estimate D2E/DX2                !
 ! D47   D(20,19,24,26)          2.9973         estimate D2E/DX2                !
 ! D48   D(19,24,26,1)         153.7459         estimate D2E/DX2                !
 ! D49   D(19,24,26,27)        -83.1048         estimate D2E/DX2                !
 ! D50   D(19,24,26,28)         33.9784         estimate D2E/DX2                !
 ! D51   D(25,24,26,1)         -25.576          estimate D2E/DX2                !
 ! D52   D(25,24,26,27)         97.5733         estimate D2E/DX2                !
 ! D53   D(25,24,26,28)       -145.3435         estimate D2E/DX2                !
 --------------------------------------------------------------------------------
 Trust Radius=3.00D-01 FncErr=1.00D-07 GrdErr=1.00D-07 EigMax=2.50D+02 EigMin=1.00D-04
 Number of steps in this run=    138 maximum allowed number of steps=    168.
 GradGradGradGradGradGradGradGradGradGradGradGradGradGradGradGradGradGrad

 Leave Link  103 at Fri Sep 17 20:09:26 2021, MaxMem=   524288000 cpu:               0.0 elap:               0.0
 (Enter /opt/gaussian/g16_legacy/l202.exe)
                          Input orientation:                          
 ---------------------------------------------------------------------
 Center     Atomic      Atomic             Coordinates (Angstroms)
 Number     Number       Type             X           Y           Z
 ---------------------------------------------------------------------
      1          6           0        2.199400    1.247400   -8.960200
      2          1           0        1.886000    0.239000   -9.259600
      3          1           0        2.072000    1.884300   -9.846600
      4          6           0        3.681200    1.197500   -8.602300
      5          6           0        4.603500    1.426600   -9.769500
      6          1           0        5.561000    0.911200   -9.648300
      7          1           0        4.161600    1.044000  -10.695800
      8          1           0        4.787300    2.497800   -9.895600
      9          6           0        4.118600    1.009600   -7.340200
     10          1           0        3.395500    0.834100   -6.546100
     11          6           0        5.526900    1.067700   -6.841800
     12          1           0        6.258500    1.287900   -7.621100
     13          1           0        5.604900    1.855700   -6.084800
     14          1           0        5.795000    0.117400   -6.372600
     15          6           0        1.087000    5.483200   -6.631600
     16          1           0        2.141400    5.665900   -6.866600
     17          1           0        0.490100    6.203700   -7.201200
     18          1           0        0.948100    5.679000   -5.563300
     19          6           0        0.662400    4.077300   -6.965500
     20          6           0       -0.769100    3.740900   -6.676500
     21          1           0       -0.892000    2.687800   -6.404500
     22          1           0       -1.145600    4.328100   -5.831100
     23          1           0       -1.391900    3.955500   -7.550800
     24          6           0        1.545100    3.194300   -7.469300
     25          1           0        2.574200    3.520500   -7.610200
     26          6           0        1.237200    1.774000   -7.878700
     27          1           0        1.264400    1.125600   -6.996500
     28          1           0        0.220200    1.714400   -8.286000
 ---------------------------------------------------------------------
                    Distance matrix (angstroms):
                    1          2          3          4          5
     1  C    0.000000
     2  H    1.097602   0.000000
     3  H    1.098898   1.756752   0.000000
     4  C    1.525226   2.138576   2.146975   0.000000
     5  C    2.542986   3.009186   2.573699   1.505151   0.000000
     6  H    3.447734   3.756137   3.627584   2.170192   1.094136
     7  H    2.627529   2.808745   2.407005   2.153390   1.095304
     8  H    3.022532   3.731516   2.784176   2.141696   1.094145
     9  C    2.522752   3.043423   3.351971   1.348896   2.512074
    10  H    2.725684   3.161616   3.707812   2.107520   3.492940
    11  C    3.948692   4.448444   4.651021   2.553981   3.090777
    12  H    4.274473   4.785774   4.778632   2.759239   2.715490
    13  H    4.498376   5.150077   5.160750   3.235994   3.842388
    14  H    4.571752   4.861053   5.389930   3.256736   3.830484
    15  C    4.960022   5.920002   4.925295   5.383378   6.218375
    16  H    4.889751   5.936575   4.815155   5.034902   5.697405
    17  H    5.529982   6.462445   5.306389   6.099856   6.807122
    18  H    5.722216   6.643485   5.831771   6.065410   7.009777
    19  C    3.788077   4.636015   3.885480   4.481687   5.515514
    20  C    4.499424   5.097574   4.644173   5.475651   6.617210
    21  H    4.261820   4.676056   4.612912   5.288240   6.566153
    22  H    5.520055   6.137259   5.696433   6.385781   7.548632
    23  H    4.713560   5.241851   4.643185   5.869290   6.874794
    24  C    2.537974   3.472058   2.765010   3.135893   4.215388
    25  H    2.670198   3.736627   2.816175   2.757905   3.628368
    26  C    1.540383   2.164267   2.140488   2.613252   3.876569
    27  H    2.178343   2.508798   3.057926   2.902531   4.350830
    28  H    2.142398   2.428908   2.427654   3.513652   4.636477
                    6          7          8          9         10
     6  H    0.000000
     7  H    1.753058   0.000000
     8  H    1.782433   1.773515   0.000000
     9  C    2.723514   3.356052   3.031826   0.000000
    10  H    3.784043   4.225042   3.990508   1.088241   0.000000
    11  C    2.811067   4.088756   3.452230   1.495021   2.164457
    12  H    2.176683   3.729646   2.966755   2.176127   3.091655
    13  H    3.686806   4.899316   3.950058   2.121557   2.477481
    14  H    3.378622   4.713453   4.369587   2.131335   2.510251
    15  C    7.072506   6.758505   5.767021   5.450304   5.191398
    16  H    6.483725   6.332925   5.119813   5.080821   5.002177
    17  H    7.727411   7.232886   6.281673   6.337508   6.140286
    18  H    7.790891   7.625770   6.605173   5.917156   5.516223
    19  C    6.420116   5.946465   5.300482   4.636432   4.261934
    20  C    7.543803   6.909403   6.540756   5.638272   5.080392
    21  H    7.437725   6.830535   6.669207   5.366377   4.673212
    22  H    8.439473   7.913090   7.420880   6.403251   5.774154
    23  H    7.874648   7.014928   6.767975   6.252063   5.802737
    24  C    5.107645   4.677624   4.109003   3.378237   3.137965
    25  H    4.459066   4.263076   3.341673   2.960184   3.003929
    26  C    4.750911   4.125660   4.146683   3.029316   2.705087
    27  H    5.053591   4.699494   4.764298   2.877159   2.197594
    28  H    5.570021   4.668105   4.905398   4.072935   3.726219
                   11         12         13         14         15
    11  C    0.000000
    12  H    1.091346   0.000000
    13  H    1.095480   1.763465   0.000000
    14  H    1.093205   1.773035   1.772189   0.000000
    15  C    6.265264   6.732315   5.819722   7.143119   0.000000
    16  H    5.710137   6.056952   5.208135   6.661733   1.095611
    17  H    7.202570   7.590510   6.805338   8.116131   1.095378
    18  H    6.622995   7.191429   6.047758   7.421509   1.094941
    19  C    5.721569   6.287042   5.489940   6.509679   1.506097
    20  C    6.841998   7.503109   6.673227   7.503967   2.546121
    21  H    6.634624   7.387116   6.557767   7.164073   3.432532
    22  H    7.494930   8.201684   7.193495   8.136040   2.638098
    23  H    7.530728   8.102447   7.450740   8.232296   3.053480
    24  C    4.557512   5.086604   4.493403   5.360197   2.480052
    25  H    3.914729   4.307980   3.779358   4.846266   2.649833
    26  C    4.469401   5.051347   4.722452   5.078012   3.916118
    27  H    4.265699   5.035623   4.494906   4.683167   4.376448
    28  H    5.537599   6.089750   5.818955   6.106546   4.206214
                   16         17         18         19         20
    16  H    0.000000
    17  H    1.768609   0.000000
    18  H    1.767124   1.779829   0.000000
    19  C    2.172757   2.146350   2.147844   0.000000
    20  C    3.494678   2.815365   2.818550   1.498625   0.000000
    21  H    4.275995   3.860892   3.611213   2.159072   1.094581
    22  H    3.696801   2.840874   2.506038   2.149099   1.096019
    23  H    3.984697   2.952719   3.520825   2.139523   1.094684
    24  C    2.612973   3.200217   3.187943   1.346352   2.506556
    25  H    2.311493   3.422034   3.390151   2.092999   3.478222
    26  C    4.121748   4.543061   4.549031   2.543525   3.056014
    27  H    4.626049   5.140870   4.784094   3.012623   3.328260
    28  H    4.617365   4.626386   4.864256   2.742728   2.770543
                   21         22         23         24         25
    21  H    0.000000
    22  H    1.756042   0.000000
    23  H    1.780721   1.776756   0.000000
    24  C    2.707360   3.347995   3.035134   0.000000
    25  H    3.763196   4.201705   3.990326   1.088718   0.000000
    26  C    2.746232   4.048929   3.432001   1.509855   2.215835
    27  H    2.727819   4.173998   3.920652   2.140526   2.797812
    28  H    2.392601   3.837105   2.856906   2.147665   3.043028
                   26         27         28
    26  C    0.000000
    27  H    1.095189   0.000000
    28  H    1.097148   1.760639   0.000000
 Stoichiometry    C10H18
 Framework group  C1[X(C10H18)]
 Deg. of freedom    78
 Full point group                 C1      NOp   1
 Largest Abelian subgroup         C1      NOp   1
 Largest concise Abelian subgroup C1      NOp   1
                         Standard orientation:                         
 ---------------------------------------------------------------------
 Center     Atomic      Atomic             Coordinates (Angstroms)
 Number     Number       Type             X           Y           Z
 ---------------------------------------------------------------------
      1          6           0       -0.851554   -1.524927    0.014684
      2          1           0       -1.256057   -2.384678   -0.534804
      3          1           0       -0.622876   -1.887347    1.026580
      4          6           0       -1.944406   -0.465230    0.109715
      5          6           0       -2.840516   -0.612343    1.310058
      6          1           0       -3.849132   -0.231662    1.123221
      7          1           0       -2.953949   -1.666670    1.584318
      8          1           0       -2.410354   -0.081371    2.164565
      9          6           0       -2.062850    0.539377   -0.782617
     10          1           0       -1.389574    0.575654   -1.636814
     11          6           0       -3.000361    1.702792   -0.731388
     12          1           0       -3.651092    1.702579    0.144731
     13          1           0       -2.417129    2.629817   -0.708129
     14          1           0       -3.625562    1.716549   -1.628065
     15          6           0        3.025758    1.420451    0.959678
     16          1           0        2.243748    1.950649    1.514398
     17          1           0        3.751530    1.042657    1.687951
     18          1           0        3.524424    2.150050    0.313216
     19          6           0        2.473989    0.284748    0.138667
     20          6           0        3.477778   -0.497321   -0.652948
     21          1           0        3.048401   -0.887287   -1.581210
     22          1           0        4.325594    0.134335   -0.941872
     23          1           0        3.857598   -1.335103   -0.059491
     24          6           0        1.152268    0.029059    0.120198
     25          1           0        0.495909    0.676280    0.699511
     26          6           0        0.481402   -1.097608   -0.628282
     27          1           0        0.323425   -0.800543   -1.670508
     28          1           0        1.136047   -1.977904   -0.644196
 ---------------------------------------------------------------------
 Rotational constants (GHZ):           2.0841150           0.5717678           0.5273036
 Leave Link  202 at Fri Sep 17 20:09:26 2021, MaxMem=   524288000 cpu:               0.0 elap:               0.0
 (Enter /opt/gaussian/g16_legacy/l301.exe)
 Standard basis: 6-31G(d,p) (6D, 7F)
 Ernie: Thresh=  0.10000D-02 Tol=  0.10000D-05 Strict=F.
 There are   240 symmetry adapted cartesian basis functions of A   symmetry.
 There are   240 symmetry adapted basis functions of A   symmetry.
   240 basis functions,   406 primitive gaussians,   240 cartesian basis functions
    39 alpha electrons       39 beta electrons
       nuclear repulsion energy       517.7300488333 Hartrees.
 IExCor=    0 DFT=F Ex=HF Corr=None ExCW=0 ScaHFX=  1.000000
 ScaDFX=  1.000000  1.000000  1.000000  1.000000 ScalE2=  1.000000  1.000000
 IRadAn=      5 IRanWt=     -1 IRanGd=            0 ICorTp=0 IEmpDi=  4
 NAtoms=   28 NActive=   28 NUniq=   28 SFac= 1.00D+00 NAtFMM=   60 NAOKFM=F Big=F
 Integral buffers will be    131072 words long.
 Raffenetti 1 integral format.
 Two-electron integral symmetry is turned on.
 Leave Link  301 at Fri Sep 17 20:09:26 2021, MaxMem=   524288000 cpu:               0.1 elap:               0.1
 (Enter /opt/gaussian/g16_legacy/l302.exe)
 NPDir=0 NMtPBC=     1 NCelOv=     1 NCel=       1 NClECP=     1 NCelD=      1
         NCelK=      1 NCelE2=     1 NClLst=     1 CellRange=     0.0.
 One-electron integrals computed using PRISM.
 One-electron integral symmetry used in STVInt
 NBasis=   240 RedAO= T EigKep=  2.10D-03  NBF=   240
 NBsUse=   240 1.00D-06 EigRej= -1.00D+00 NBFU=   240
 Leave Link  302 at Fri Sep 17 20:09:27 2021, MaxMem=   524288000 cpu:               0.3 elap:               0.3
 (Enter /opt/gaussian/g16_legacy/l303.exe)
 DipDrv:  MaxL=1.
 Leave Link  303 at Fri Sep 17 20:09:27 2021, MaxMem=   524288000 cpu:               0.1 elap:               0.1
 (Enter /opt/gaussian/g16_legacy/l401.exe)
 ExpMin= 1.61D-01 ExpMax= 3.05D+03 ExpMxC= 4.57D+02 IAcc=3 IRadAn=         5 AccDes= 0.00D+00
 Harris functional with IExCor=  205 and IRadAn=       5 diagonalized for initial guess.
 HarFok:  IExCor=  205 AccDes= 0.00D+00 IRadAn=         5 IDoV= 1 UseB2=F ITyADJ=14
 ICtDFT=  3500011 ScaDFX=  1.000000  1.000000  1.000000  1.000000
 FoFCou: FMM=F IPFlag=           0 FMFlag=      100000 FMFlg1=           0
         NFxFlg=           0 DoJE=T BraDBF=F KetDBF=T FulRan=T
         wScrn=  0.000000 ICntrl=       500 IOpCl=  0 I1Cent=   200000004 NGrid=           0
         NMat0=    1 NMatS0=      1 NMatT0=    0 NMatD0=    1 NMtDS0=    0 NMtDT0=    0
 Petite list used in FoFCou.
 Harris En= -390.106621104216    
 JPrj=0 DoOrth=F DoCkMO=F.
 Leave Link  401 at Fri Sep 17 20:09:38 2021, MaxMem=   524288000 cpu:              11.0 elap:              11.3
 (Enter /opt/gaussian/g16_legacy/l502.exe)
 Keep R1 ints in memory in canonical form, NReq=425198025.
 FoFCou: FMM=F IPFlag=           0 FMFlag=           0 FMFlg1=           0
         NFxFlg=           0 DoJE=F BraDBF=F KetDBF=F FulRan=T
         wScrn=  0.000000 ICntrl=       600 IOpCl=  0 I1Cent=           0 NGrid=           0
         NMat0=    1 NMatS0=  28920 NMatT0=    0 NMatD0=    1 NMtDS0=    0 NMtDT0=    0
 Symmetry not used in FoFCou.
 Two-electron integral symmetry not used.
 Closed shell SCF:
 Using DIIS extrapolation, IDIIS=  1040.
 NGot=   524288000 LenX=   105970886 LenY=   105912845
 Requested convergence on RMS density matrix=1.00D-08 within 128 cycles.
 Requested convergence on MAX density matrix=1.00D-06.
 Requested convergence on             energy=1.00D-06.
 No special actions if energy rises.

 Cycle   1  Pass 1  IDiag  1:
 E= -388.525230009426    
 DIIS: error= 5.13D-02 at cycle   1 NSaved=   1.
 NSaved= 1 IEnMin= 1 EnMin= -388.525230009426     IErMin= 1 ErrMin= 5.13D-02
 ErrMax= 5.13D-02  0.00D+00 EMaxC= 1.00D-01 BMatC= 8.08D-01 BMatP= 8.08D-01
 IDIUse=3 WtCom= 4.87D-01 WtEn= 5.13D-01
 Coeff-Com:  0.100D+01
 Coeff-En:   0.100D+01
 Coeff:      0.100D+01
 Gap=     0.510 Goal=   None    Shift=    0.000
 GapD=    0.510 DampG=2.000 DampE=0.500 DampFc=1.0000 IDamp=-1.
 RMSDP=4.05D-03 MaxDP=1.16D-01              OVMax= 1.39D-01

 Cycle   2  Pass 1  IDiag  1:
 E= -389.066489553832     Delta-E=       -0.541259544406 Rises=F Damp=F
 DIIS: error= 1.48D-02 at cycle   2 NSaved=   2.
 NSaved= 2 IEnMin= 2 EnMin= -389.066489553832     IErMin= 2 ErrMin= 1.48D-02
 ErrMax= 1.48D-02  0.00D+00 EMaxC= 1.00D-01 BMatC= 8.75D-02 BMatP= 8.08D-01
 IDIUse=3 WtCom= 8.52D-01 WtEn= 1.48D-01
 Coeff-Com:  0.184D+00 0.816D+00
 Coeff-En:   0.000D+00 0.100D+01
 Coeff:      0.157D+00 0.843D+00
 Gap=     0.560 Goal=   None    Shift=    0.000
 RMSDP=1.69D-03 MaxDP=3.12D-02 DE=-5.41D-01 OVMax= 4.47D-02

 Cycle   3  Pass 1  IDiag  1:
 E= -389.145157482412     Delta-E=       -0.078667928581 Rises=F Damp=F
 DIIS: error= 3.63D-03 at cycle   3 NSaved=   3.
 NSaved= 3 IEnMin= 3 EnMin= -389.145157482412     IErMin= 3 ErrMin= 3.63D-03
 ErrMax= 3.63D-03  0.00D+00 EMaxC= 1.00D-01 BMatC= 2.97D-03 BMatP= 8.75D-02
 IDIUse=3 WtCom= 9.64D-01 WtEn= 3.63D-02
 Coeff-Com: -0.251D-01 0.101D+00 0.924D+00
 Coeff-En:   0.000D+00 0.000D+00 0.100D+01
 Coeff:     -0.242D-01 0.977D-01 0.926D+00
 Gap=     0.499 Goal=   None    Shift=    0.000
 RMSDP=2.55D-04 MaxDP=6.25D-03 DE=-7.87D-02 OVMax= 1.09D-02

 Cycle   4  Pass 1  IDiag  1:
 E= -389.148687076910     Delta-E=       -0.003529594498 Rises=F Damp=F
 DIIS: error= 5.04D-04 at cycle   4 NSaved=   4.
 NSaved= 4 IEnMin= 4 EnMin= -389.148687076910     IErMin= 4 ErrMin= 5.04D-04
 ErrMax= 5.04D-04  0.00D+00 EMaxC= 1.00D-01 BMatC= 5.75D-05 BMatP= 2.97D-03
 IDIUse=3 WtCom= 9.95D-01 WtEn= 5.04D-03
 Coeff-Com: -0.713D-03-0.162D-01-0.296D-01 0.105D+01
 Coeff-En:   0.000D+00 0.000D+00 0.000D+00 0.100D+01
 Coeff:     -0.709D-03-0.162D-01-0.294D-01 0.105D+01
 Gap=     0.499 Goal=   None    Shift=    0.000
 RMSDP=7.98D-05 MaxDP=1.84D-03 DE=-3.53D-03 OVMax= 2.15D-03

 Cycle   5  Pass 1  IDiag  1:
 E= -389.148787365877     Delta-E=       -0.000100288967 Rises=F Damp=F
 DIIS: error= 1.08D-04 at cycle   5 NSaved=   5.
 NSaved= 5 IEnMin= 5 EnMin= -389.148787365877     IErMin= 5 ErrMin= 1.08D-04
 ErrMax= 1.08D-04  0.00D+00 EMaxC= 1.00D-01 BMatC= 6.89D-06 BMatP= 5.75D-05
 IDIUse=3 WtCom= 9.99D-01 WtEn= 1.08D-03
 Coeff-Com:  0.215D-02-0.120D-01-0.853D-01 0.131D+00 0.965D+00
 Coeff-En:   0.000D+00 0.000D+00 0.000D+00 0.000D+00 0.100D+01
 Coeff:      0.215D-02-0.120D-01-0.852D-01 0.130D+00 0.965D+00
 Gap=     0.499 Goal=   None    Shift=    0.000
 RMSDP=2.18D-05 MaxDP=4.24D-04 DE=-1.00D-04 OVMax= 7.70D-04

 Cycle   6  Pass 1  IDiag  1:
 E= -389.148798181377     Delta-E=       -0.000010815500 Rises=F Damp=F
 DIIS: error= 2.43D-05 at cycle   6 NSaved=   6.
 NSaved= 6 IEnMin= 6 EnMin= -389.148798181377     IErMin= 6 ErrMin= 2.43D-05
 ErrMax= 2.43D-05  0.00D+00 EMaxC= 1.00D-01 BMatC= 2.68D-07 BMatP= 6.89D-06
 IDIUse=1 WtCom= 1.00D+00 WtEn= 0.00D+00
 Coeff-Com:  0.381D-03-0.148D-02-0.126D-01-0.218D-01 0.144D+00 0.892D+00
 Coeff:      0.381D-03-0.148D-02-0.126D-01-0.218D-01 0.144D+00 0.892D+00
 Gap=     0.499 Goal=   None    Shift=    0.000
 RMSDP=4.37D-06 MaxDP=1.13D-04 DE=-1.08D-05 OVMax= 2.08D-04

 Cycle   7  Pass 1  IDiag  1:
 E= -389.148798619077     Delta-E=       -0.000000437701 Rises=F Damp=F
 DIIS: error= 1.10D-05 at cycle   7 NSaved=   7.
 NSaved= 7 IEnMin= 7 EnMin= -389.148798619077     IErMin= 7 ErrMin= 1.10D-05
 ErrMax= 1.10D-05  0.00D+00 EMaxC= 1.00D-01 BMatC= 3.47D-08 BMatP= 2.68D-07
 IDIUse=1 WtCom= 1.00D+00 WtEn= 0.00D+00
 Coeff-Com: -0.715D-04 0.506D-03 0.356D-02-0.120D-01-0.441D-01 0.164D+00
 Coeff-Com:  0.888D+00
 Coeff:     -0.715D-04 0.506D-03 0.356D-02-0.120D-01-0.441D-01 0.164D+00
 Coeff:      0.888D+00
 Gap=     0.499 Goal=   None    Shift=    0.000
 RMSDP=1.39D-06 MaxDP=3.32D-05 DE=-4.38D-07 OVMax= 8.99D-05

 Cycle   8  Pass 1  IDiag  1:
 E= -389.148798679490     Delta-E=       -0.000000060413 Rises=F Damp=F
 DIIS: error= 3.68D-06 at cycle   8 NSaved=   8.
 NSaved= 8 IEnMin= 8 EnMin= -389.148798679490     IErMin= 8 ErrMin= 3.68D-06
 ErrMax= 3.68D-06  0.00D+00 EMaxC= 1.00D-01 BMatC= 4.98D-09 BMatP= 3.47D-08
 IDIUse=1 WtCom= 1.00D+00 WtEn= 0.00D+00
 Coeff-Com: -0.615D-04 0.262D-03 0.222D-02 0.252D-02-0.281D-01-0.107D+00
 Coeff-Com:  0.762D-01 0.105D+01
 Coeff:     -0.615D-04 0.262D-03 0.222D-02 0.252D-02-0.281D-01-0.107D+00
 Coeff:      0.762D-01 0.105D+01
 Gap=     0.499 Goal=   None    Shift=    0.000
 RMSDP=7.10D-07 MaxDP=2.11D-05 DE=-6.04D-08 OVMax= 5.54D-05

 Cycle   9  Pass 1  IDiag  1:
 E= -389.148798693270     Delta-E=       -0.000000013780 Rises=F Damp=F
 DIIS: error= 1.20D-06 at cycle   9 NSaved=   9.
 NSaved= 9 IEnMin= 9 EnMin= -389.148798693270     IErMin= 9 ErrMin= 1.20D-06
 ErrMax= 1.20D-06  0.00D+00 EMaxC= 1.00D-01 BMatC= 6.25D-10 BMatP= 4.98D-09
 IDIUse=1 WtCom= 1.00D+00 WtEn= 0.00D+00
 Coeff-Com:  0.122D-04-0.829D-04-0.600D-03 0.180D-02 0.650D-02-0.125D-01
 Coeff-Com: -0.126D+00-0.756D-01 0.121D+01
 Coeff:      0.122D-04-0.829D-04-0.600D-03 0.180D-02 0.650D-02-0.125D-01
 Coeff:     -0.126D+00-0.756D-01 0.121D+01
 Gap=     0.499 Goal=   None    Shift=    0.000
 RMSDP=3.14D-07 MaxDP=7.95D-06 DE=-1.38D-08 OVMax= 2.86D-05

 Cycle  10  Pass 1  IDiag  1:
 E= -389.148798695604     Delta-E=       -0.000000002334 Rises=F Damp=F
 DIIS: error= 3.11D-07 at cycle  10 NSaved=  10.
 NSaved=10 IEnMin=10 EnMin= -389.148798695604     IErMin=10 ErrMin= 3.11D-07
 ErrMax= 3.11D-07  0.00D+00 EMaxC= 1.00D-01 BMatC= 6.21D-11 BMatP= 6.25D-10
 IDIUse=1 WtCom= 1.00D+00 WtEn= 0.00D+00
 Coeff-Com:  0.694D-05-0.304D-04-0.256D-03-0.296D-03 0.292D-02 0.146D-01
 Coeff-Com: -0.501D-02-0.135D+00-0.462D-01 0.117D+01
 Coeff:      0.694D-05-0.304D-04-0.256D-03-0.296D-03 0.292D-02 0.146D-01
 Coeff:     -0.501D-02-0.135D+00-0.462D-01 0.117D+01
 Gap=     0.499 Goal=   None    Shift=    0.000
 RMSDP=1.08D-07 MaxDP=2.72D-06 DE=-2.33D-09 OVMax= 9.01D-06

 Cycle  11  Pass 1  IDiag  1:
 E= -389.148798695825     Delta-E=       -0.000000000221 Rises=F Damp=F
 DIIS: error= 9.39D-08 at cycle  11 NSaved=  11.
 NSaved=11 IEnMin=11 EnMin= -389.148798695825     IErMin=11 ErrMin= 9.39D-08
 ErrMax= 9.39D-08  0.00D+00 EMaxC= 1.00D-01 BMatC= 3.77D-12 BMatP= 6.21D-11
 IDIUse=1 WtCom= 1.00D+00 WtEn= 0.00D+00
 Coeff-Com: -0.597D-06 0.486D-05 0.349D-04-0.126D-03-0.459D-03 0.143D-02
 Coeff-Com:  0.958D-02 0.392D-02-0.862D-01 0.453D-01 0.103D+01
 Coeff:     -0.597D-06 0.486D-05 0.349D-04-0.126D-03-0.459D-03 0.143D-02
 Coeff:      0.958D-02 0.392D-02-0.862D-01 0.453D-01 0.103D+01
 Gap=     0.499 Goal=   None    Shift=    0.000
 RMSDP=1.86D-08 MaxDP=5.23D-07 DE=-2.21D-10 OVMax= 1.56D-06

 Cycle  12  Pass 1  IDiag  1:
 E= -389.148798695831     Delta-E=       -0.000000000006 Rises=F Damp=F
 DIIS: error= 3.75D-08 at cycle  12 NSaved=  12.
 NSaved=12 IEnMin=12 EnMin= -389.148798695831     IErMin=12 ErrMin= 3.75D-08
 ErrMax= 3.75D-08  0.00D+00 EMaxC= 1.00D-01 BMatC= 6.46D-13 BMatP= 3.77D-12
 IDIUse=1 WtCom= 1.00D+00 WtEn= 0.00D+00
 Coeff-Com: -0.813D-06 0.413D-05 0.332D-04 0.858D-05-0.407D-03-0.132D-02
 Coeff-Com:  0.213D-02 0.141D-01-0.158D-01-0.125D+00 0.192D+00 0.934D+00
 Coeff:     -0.813D-06 0.413D-05 0.332D-04 0.858D-05-0.407D-03-0.132D-02
 Coeff:      0.213D-02 0.141D-01-0.158D-01-0.125D+00 0.192D+00 0.934D+00
 Gap=     0.499 Goal=   None    Shift=    0.000
 RMSDP=8.45D-09 MaxDP=2.23D-07 DE=-5.68D-12 OVMax= 4.26D-07

 SCF Done:  E(RHF) =  -389.148798696     A.U. after   12 cycles
            NFock= 12  Conv=0.84D-08     -V/T= 2.0014
 KE= 3.886080185697D+02 PE=-1.940201232323D+03 EE= 6.447143662245D+02
 Leave Link  502 at Fri Sep 17 20:10:13 2021, MaxMem=   524288000 cpu:              34.9 elap:              35.1
 (Enter /opt/gaussian/g16_legacy/l801.exe)
 ExpMin= 1.61D-01 ExpMax= 3.05D+03 ExpMxC= 4.57D+02 IAcc=3 IRadAn=         5 AccDes= 0.00D+00
 HarFok:  IExCor=  205 AccDes= 0.00D+00 IRadAn=         5 IDoV=-2 UseB2=F ITyADJ=14
 ICtDFT= 12500011 ScaDFX=  1.000000  1.000000  1.000000  1.000000
 Largest valence mixing into a core orbital is  1.98D-04
 Largest core mixing into a valence orbital is  3.51D-05
 Range of M.O.s used for correlation:    11   240
 NBasis=   240 NAE=    39 NBE=    39 NFC=    10 NFV=     0
 NROrb=    230 NOA=    29 NOB=    29 NVA=   201 NVB=   201
 Leave Link  801 at Fri Sep 17 20:10:15 2021, MaxMem=   524288000 cpu:               1.6 elap:               1.6
 (Enter /opt/gaussian/g16_legacy/l906.exe)
 Frozen-core derivative calculation, NFC=  10 NFV=   0.
 FulOut=F Deriv=T AODrv=T NAtomX=    28
   MMem=          89  MDisk=          29 MDiskD=          29
  W3Min=     2246400 MinDsk=     2795480 NBas6D=         240
 NBas2D=       29244    NTT=       28920    LW2=     2040000
    MDV=   523627496 MDiskM=       30186 NBas2p=       24047
 Fully direct method using O(ONN) memory.
 IMap=   1   2   3   4   5   6   7   8   9  10  11  12  13  14  15  16  17  18  19  20
 IMap=  21  22  23  24  25  26  27  28  29  30  31  32  33  34  35  36  37  38  39
 JobTyp=1 Pass  1:  I=  11 to  39 NPSUse=  1 ParTrn=F ParDer=F DoDerP=T.
 Spin components of T(2) and E(2):
     alpha-alpha T2 =       0.5716096646D-01 E2=     -0.1639317637D+00
     alpha-beta  T2 =       0.3622675818D+00 E2=     -0.1090138048D+01
     beta-beta   T2 =       0.5716096646D-01 E2=     -0.1639317637D+00
 The integrals were generated   1 times.
 ANorm=    0.1215149997D+01
 E2 =    -0.1418001576D+01 EUMP2 =    -0.39056680027167D+03
 Leave Link  906 at Fri Sep 17 20:14:45 2021, MaxMem=   524288000 cpu:             269.7 elap:             269.8
 (Enter /opt/gaussian/g16_legacy/l1002.exe)
 Minotr:  Closed shell wavefunction.
          Computing MP2/KS-MP2 derivatives.
          Using Z-Vector for PSCF gradient.
          Skipping F1 and S1 gradient terms here.
          IDoAtm=1111111111111111111111111111
          Frozen-core window.
          Direct CPHF calculation.
          Differentiating once with respect to electric field.
                with respect to dipole field.
          Differentiating once with respect to nuclear coordinates.
          Requested convergence is 1.0D-10 RMS, and 1.0D-09 maximum.
          NewPWx=F KeepS1=T KeepF1=T KeepIn=T MapXYZ=F SortEE=F KeepMc=T.
 Keep R1 ints in memory in canonical form, NReq=425201067.
 FoFCou: FMM=F IPFlag=           0 FMFlag=           0 FMFlg1=           0
         NFxFlg=           0 DoJE=F BraDBF=F KetDBF=F FulRan=T
         wScrn=  0.000000 ICntrl=       600 IOpCl=  0 I1Cent=           0 NGrid=           0
         NMat0=    1 NMatS0=  28920 NMatT0=    0 NMatD0=    1 NMtDS0=    0 NMtDT0=    0
 Symmetry not used in FoFCou.
 Two-electron integral symmetry not used.
          MDV=     524288000 using IRadAn=       5.
          Solving linear equations separately, MaxMat=       0.
          There are     1 degrees of freedom in the 1st order CPHF.  IDoFFX=0 NUNeed=     1.
 LinEq1:  Iter=  0 NonCon=     1 RMS=2.52D-03 Max=3.71D-02 NDo=     1
 AX will form     1 AO Fock derivatives at one time.
 LinEq1:  Iter=  1 NonCon=     1 RMS=6.87D-04 Max=9.32D-03 NDo=     1
 LinEq1:  Iter=  2 NonCon=     1 RMS=1.56D-04 Max=3.26D-03 NDo=     1
 LinEq1:  Iter=  3 NonCon=     1 RMS=3.55D-05 Max=4.42D-04 NDo=     1
 LinEq1:  Iter=  4 NonCon=     1 RMS=1.77D-05 Max=7.73D-04 NDo=     1
 LinEq1:  Iter=  5 NonCon=     1 RMS=4.63D-06 Max=6.62D-05 NDo=     1
 LinEq1:  Iter=  6 NonCon=     1 RMS=1.48D-06 Max=3.15D-05 NDo=     1
 LinEq1:  Iter=  7 NonCon=     1 RMS=3.85D-07 Max=3.89D-06 NDo=     1
 LinEq1:  Iter=  8 NonCon=     1 RMS=9.01D-08 Max=7.95D-07 NDo=     1
 LinEq1:  Iter=  9 NonCon=     1 RMS=1.93D-08 Max=1.71D-07 NDo=     1
 LinEq1:  Iter= 10 NonCon=     1 RMS=5.33D-09 Max=8.97D-08 NDo=     1
 LinEq1:  Iter= 11 NonCon=     1 RMS=1.86D-09 Max=4.59D-08 NDo=     1
 LinEq1:  Iter= 12 NonCon=     1 RMS=6.21D-10 Max=1.07D-08 NDo=     1
 LinEq1:  Iter= 13 NonCon=     1 RMS=2.11D-10 Max=3.90D-09 NDo=     1
 LinEq1:  Iter= 14 NonCon=     0 RMS=5.82D-11 Max=9.15D-10 NDo=     1
 Linear equations converged to 1.000D-10 1.000D-09 after    14 iterations.
 End of Minotr F.D. properties file   721 does not exist.
 End of Minotr F.D. properties file   722 does not exist.
 End of Minotr F.D. properties file   788 does not exist.
 Leave Link 1002 at Fri Sep 17 20:15:21 2021, MaxMem=   524288000 cpu:              35.9 elap:              36.0
 (Enter /opt/gaussian/g16_legacy/l601.exe)
 Copying SCF densities to generalized density rwf, IOpCl= 0 IROHF=0.

 **********************************************************************

            Population analysis using the SCF density.

 **********************************************************************

 Orbital symmetries:
       Occupied  (A) (A) (A) (A) (A) (A) (A) (A) (A) (A) (A) (A)
                 (A) (A) (A) (A) (A) (A) (A) (A) (A) (A) (A) (A)
                 (A) (A) (A) (A) (A) (A) (A) (A) (A) (A) (A) (A)
                 (A) (A) (A)
       Virtual   (A) (A) (A) (A) (A) (A) (A) (A) (A) (A) (A) (A)
                 (A) (A) (A) (A) (A) (A) (A) (A) (A) (A) (A) (A)
                 (A) (A) (A) (A) (A) (A) (A) (A) (A) (A) (A) (A)
                 (A) (A) (A) (A) (A) (A) (A) (A) (A) (A) (A) (A)
                 (A) (A) (A) (A) (A) (A) (A) (A) (A) (A) (A) (A)
                 (A) (A) (A) (A) (A) (A) (A) (A) (A) (A) (A) (A)
                 (A) (A) (A) (A) (A) (A) (A) (A) (A) (A) (A) (A)
                 (A) (A) (A) (A) (A) (A) (A) (A) (A) (A) (A) (A)
                 (A) (A) (A) (A) (A) (A) (A) (A) (A) (A) (A) (A)
                 (A) (A) (A) (A) (A) (A) (A) (A) (A) (A) (A) (A)
                 (A) (A) (A) (A) (A) (A) (A) (A) (A) (A) (A) (A)
                 (A) (A) (A) (A) (A) (A) (A) (A) (A) (A) (A) (A)
                 (A) (A) (A) (A) (A) (A) (A) (A) (A) (A) (A) (A)
                 (A) (A) (A) (A) (A) (A) (A) (A) (A) (A) (A) (A)
                 (A) (A) (A) (A) (A) (A) (A) (A) (A) (A) (A) (A)
                 (A) (A) (A) (A) (A) (A) (A) (A) (A) (A) (A) (A)
                 (A) (A) (A) (A) (A) (A) (A) (A) (A)
 The electronic state is 1-A.
 Alpha  occ. eigenvalues --  -11.22747 -11.22359 -11.22162 -11.21848 -11.21614
 Alpha  occ. eigenvalues --  -11.21530 -11.21466 -11.21378 -11.21372 -11.20749
 Alpha  occ. eigenvalues --   -1.10420  -1.08053  -1.01772  -0.97635  -0.93430
 Alpha  occ. eigenvalues --   -0.91617  -0.87362  -0.82082  -0.70337  -0.68864
 Alpha  occ. eigenvalues --   -0.62791  -0.61947  -0.61222  -0.58448  -0.57643
 Alpha  occ. eigenvalues --   -0.57071  -0.55349  -0.54436  -0.53642  -0.53090
 Alpha  occ. eigenvalues --   -0.52579  -0.50924  -0.49968  -0.48468  -0.47801
 Alpha  occ. eigenvalues --   -0.45913  -0.44172  -0.32523  -0.31439
 Alpha virt. eigenvalues --    0.18481   0.19308   0.23615   0.24216   0.25722
 Alpha virt. eigenvalues --    0.26963   0.28675   0.29639   0.30152   0.30688
 Alpha virt. eigenvalues --    0.31044   0.31760   0.32674   0.33619   0.34206
 Alpha virt. eigenvalues --    0.34673   0.35982   0.36285   0.39216   0.39883
 Alpha virt. eigenvalues --    0.40863   0.41505   0.43930   0.45090   0.46368
 Alpha virt. eigenvalues --    0.50734   0.52256   0.60861   0.62099   0.70094
 Alpha virt. eigenvalues --    0.71092   0.72458   0.73948   0.75597   0.78828
 Alpha virt. eigenvalues --    0.79715   0.80328   0.80994   0.81175   0.82746
 Alpha virt. eigenvalues --    0.84600   0.86214   0.88885   0.90147   0.92419
 Alpha virt. eigenvalues --    0.93716   0.95022   0.95769   0.98385   0.98664
 Alpha virt. eigenvalues --    1.01318   1.02425   1.03291   1.04932   1.06877
 Alpha virt. eigenvalues --    1.08319   1.10723   1.11507   1.12806   1.13025
 Alpha virt. eigenvalues --    1.13242   1.13794   1.14446   1.15246   1.15476
 Alpha virt. eigenvalues --    1.16033   1.16879   1.17201   1.18158   1.18871
 Alpha virt. eigenvalues --    1.19561   1.21309   1.23275   1.24081   1.25795
 Alpha virt. eigenvalues --    1.26374   1.32008   1.38956   1.43543   1.45262
 Alpha virt. eigenvalues --    1.47806   1.51581   1.55143   1.57899   1.58866
 Alpha virt. eigenvalues --    1.61165   1.65458   1.68149   1.70706   1.71272
 Alpha virt. eigenvalues --    1.74486   1.78282   1.90688   1.92903   1.96792
 Alpha virt. eigenvalues --    1.99369   2.01460   2.04350   2.07268   2.07517
 Alpha virt. eigenvalues --    2.08836   2.09990   2.10887   2.12836   2.15280
 Alpha virt. eigenvalues --    2.16565   2.19709   2.23429   2.24742   2.27394
 Alpha virt. eigenvalues --    2.29445   2.30628   2.33053   2.34894   2.35466
 Alpha virt. eigenvalues --    2.35747   2.36335   2.37858   2.39746   2.40614
 Alpha virt. eigenvalues --    2.41196   2.41420   2.42855   2.44028   2.45872
 Alpha virt. eigenvalues --    2.47474   2.48810   2.49991   2.50113   2.52374
 Alpha virt. eigenvalues --    2.54682   2.56340   2.59452   2.61860   2.65291
 Alpha virt. eigenvalues --    2.66897   2.69710   2.71670   2.73495   2.74249
 Alpha virt. eigenvalues --    2.75203   2.80403   2.80990   2.83809   2.86397
 Alpha virt. eigenvalues --    2.87606   2.88674   2.89450   2.92688   2.93121
 Alpha virt. eigenvalues --    2.95969   2.98000   3.00000   3.01934   3.03948
 Alpha virt. eigenvalues --    3.05499   3.06975   3.09314   3.11243   3.14507
 Alpha virt. eigenvalues --    3.16294   3.17697   3.20251   3.20802   3.21542
 Alpha virt. eigenvalues --    3.22839   3.24227   3.25965   3.27029   3.37897
 Alpha virt. eigenvalues --    3.40604   3.42481   3.46583   3.55963   3.56637
 Alpha virt. eigenvalues --    3.60553   3.60963   3.66978   3.71211   3.78982
 Alpha virt. eigenvalues --    3.79435   3.80406   3.81117   3.81520   3.82828
 Alpha virt. eigenvalues --    3.82913   3.85680   3.86189   3.90381   3.92286
 Alpha virt. eigenvalues --    3.92967   4.59429   4.62996   4.76157   4.77299
 Alpha virt. eigenvalues --    4.89740   4.92262   4.93071   5.00942   5.09649
 Alpha virt. eigenvalues --    5.16030
          Condensed to atoms (all electrons):
               1          2          3          4          5          6
     1  C    4.965071   0.402672   0.413655   0.338435  -0.052379   0.003511
     2  H    0.402672   0.579415  -0.030976  -0.038175   0.000113  -0.000197
     3  H    0.413655  -0.030976   0.597485  -0.051413  -0.005163   0.000225
     4  C    0.338435  -0.038175  -0.051413   4.968730   0.344065  -0.039174
     5  C   -0.052379   0.000113  -0.005163   0.344065   4.914772   0.405776
     6  H    0.003511  -0.000197   0.000225  -0.039174   0.405776   0.571901
     7  H   -0.005180   0.001294  -0.001173  -0.043274   0.407534  -0.030784
     8  H    0.000781  -0.000070   0.001324  -0.041298   0.395847  -0.026096
     9  C   -0.054393  -0.002822   0.002765   0.693151  -0.052096  -0.002954
    10  H   -0.005159   0.000439   0.000011  -0.037117   0.003333   0.000015
    11  C    0.002964  -0.000117  -0.000065  -0.047017  -0.007518  -0.002065
    12  H    0.000082   0.000000  -0.000004  -0.000531  -0.001406  -0.001205
    13  H   -0.000031  -0.000006   0.000008  -0.001026   0.000169  -0.000068
    14  H   -0.000143   0.000021  -0.000001  -0.000155   0.000339   0.000206
    15  C   -0.000072   0.000001  -0.000014  -0.000001   0.000000  -0.000000
    16  H   -0.000008   0.000000  -0.000001  -0.000004  -0.000000  -0.000000
    17  H    0.000006  -0.000000  -0.000001  -0.000000   0.000000  -0.000000
    18  H   -0.000001  -0.000000   0.000001  -0.000000  -0.000000   0.000000
    19  C    0.000993  -0.000005  -0.000212   0.000490  -0.000002  -0.000000
    20  C    0.000119   0.000003  -0.000003  -0.000008   0.000000  -0.000000
    21  H   -0.000016   0.000007   0.000004  -0.000002  -0.000000   0.000000
    22  H   -0.000004   0.000000   0.000000   0.000000  -0.000000   0.000000
    23  H    0.000026  -0.000002  -0.000009   0.000000   0.000000  -0.000000
    24  C   -0.054083   0.004713  -0.001542  -0.005125  -0.000028  -0.000004
    25  H   -0.006446   0.000142   0.000583   0.004639  -0.000267   0.000014
    26  C    0.354526  -0.036712  -0.044295  -0.042788   0.003396  -0.000088
    27  H   -0.039146  -0.002902   0.005003  -0.004850  -0.000051   0.000002
    28  H   -0.038305  -0.002750  -0.004308   0.004438  -0.000087   0.000001
               7          8          9         10         11         12
     1  C   -0.005180   0.000781  -0.054393  -0.005159   0.002964   0.000082
     2  H    0.001294  -0.000070  -0.002822   0.000439  -0.000117   0.000000
     3  H   -0.001173   0.001324   0.002765   0.000011  -0.000065  -0.000004
     4  C   -0.043274  -0.041298   0.693151  -0.037117  -0.047017  -0.000531
     5  C    0.407534   0.395847  -0.052096   0.003333  -0.007518  -0.001406
     6  H   -0.030784  -0.026096  -0.002954   0.000015  -0.002065  -0.001205
     7  H    0.582642  -0.030964   0.002466  -0.000099   0.000124   0.000025
     8  H   -0.030964   0.576394  -0.003553  -0.000134   0.000772  -0.000261
     9  C    0.002466  -0.003553   4.951366   0.406484   0.341184  -0.042224
    10  H   -0.000099  -0.000134   0.406484   0.557459  -0.043621   0.003439
    11  C    0.000124   0.000772   0.341184  -0.043621   4.898575   0.407884
    12  H    0.000025  -0.000261  -0.042224   0.003439   0.407884   0.574273
    13  H   -0.000013   0.000181  -0.045759  -0.001983   0.405395  -0.029081
    14  H    0.000015  -0.000071  -0.043213  -0.001044   0.398026  -0.027480
    15  C    0.000000   0.000000   0.000001   0.000000  -0.000000   0.000000
    16  H   -0.000000   0.000001  -0.000004  -0.000000   0.000000  -0.000000
    17  H   -0.000000  -0.000000  -0.000000   0.000000  -0.000000   0.000000
    18  H    0.000000   0.000000  -0.000000  -0.000000   0.000000  -0.000000
    19  C    0.000001  -0.000006   0.000195  -0.000042  -0.000001  -0.000000
    20  C   -0.000000   0.000000  -0.000003  -0.000001   0.000000  -0.000000
    21  H    0.000000  -0.000000  -0.000000  -0.000003   0.000000  -0.000000
    22  H    0.000000  -0.000000   0.000000   0.000000   0.000000   0.000000
    23  H   -0.000000  -0.000000  -0.000000   0.000000  -0.000000   0.000000
    24  C    0.000005   0.000169  -0.003035  -0.000041  -0.000077  -0.000003
    25  H    0.000006   0.000037   0.002054  -0.000139  -0.000043  -0.000000
    26  C    0.000209  -0.000235  -0.005052  -0.000956   0.000001  -0.000001
    27  H   -0.000005   0.000005  -0.000677  -0.001285   0.000029  -0.000001
    28  H   -0.000003  -0.000000   0.000163   0.000056  -0.000000   0.000000
              13         14         15         16         17         18
     1  C   -0.000031  -0.000143  -0.000072  -0.000008   0.000006  -0.000001
     2  H   -0.000006   0.000021   0.000001   0.000000  -0.000000  -0.000000
     3  H    0.000008  -0.000001  -0.000014  -0.000001  -0.000001   0.000001
     4  C   -0.001026  -0.000155  -0.000001  -0.000004  -0.000000  -0.000000
     5  C    0.000169   0.000339   0.000000  -0.000000   0.000000  -0.000000
     6  H   -0.000068   0.000206  -0.000000  -0.000000  -0.000000   0.000000
     7  H   -0.000013   0.000015   0.000000  -0.000000  -0.000000   0.000000
     8  H    0.000181  -0.000071   0.000000   0.000001  -0.000000   0.000000
     9  C   -0.045759  -0.043213   0.000001  -0.000004  -0.000000  -0.000000
    10  H   -0.001983  -0.001044   0.000000  -0.000000   0.000000  -0.000000
    11  C    0.405395   0.398026  -0.000000   0.000000  -0.000000   0.000000
    12  H   -0.029081  -0.027480   0.000000  -0.000000   0.000000  -0.000000
    13  H    0.584697  -0.033880  -0.000000   0.000000   0.000000  -0.000000
    14  H   -0.033880   0.588762   0.000000  -0.000000  -0.000000   0.000000
    15  C   -0.000000   0.000000   4.892084   0.405672   0.400696   0.396329
    16  H    0.000000  -0.000000   0.405672   0.571047  -0.028111  -0.027870
    17  H    0.000000  -0.000000   0.400696  -0.028111   0.596835  -0.035077
    18  H   -0.000000   0.000000   0.396329  -0.027870  -0.035077   0.596659
    19  C   -0.000002   0.000000   0.354388  -0.041415  -0.047943  -0.043258
    20  C    0.000000  -0.000000  -0.058868   0.003740  -0.000192  -0.002529
    21  H   -0.000000   0.000000   0.003363  -0.000119  -0.000038  -0.000007
    22  H   -0.000000   0.000000  -0.005194   0.000122  -0.000487   0.002289
    23  H    0.000000  -0.000000   0.000931  -0.000136   0.001282  -0.000170
    24  C    0.000050   0.000001  -0.044617  -0.002157  -0.001201  -0.000630
    25  H   -0.000036   0.000005  -0.006520   0.002262   0.000082   0.000271
    26  C   -0.000005   0.000002   0.003105   0.000136  -0.000073  -0.000126
    27  H    0.000014  -0.000004  -0.000132  -0.000003  -0.000008   0.000033
    28  H   -0.000000   0.000000   0.000066   0.000002   0.000020  -0.000010
              19         20         21         22         23         24
     1  C    0.000993   0.000119  -0.000016  -0.000004   0.000026  -0.054083
     2  H   -0.000005   0.000003   0.000007   0.000000  -0.000002   0.004713
     3  H   -0.000212  -0.000003   0.000004   0.000000  -0.000009  -0.001542
     4  C    0.000490  -0.000008  -0.000002   0.000000   0.000000  -0.005125
     5  C   -0.000002   0.000000  -0.000000  -0.000000   0.000000  -0.000028
     6  H   -0.000000  -0.000000   0.000000   0.000000  -0.000000  -0.000004
     7  H    0.000001  -0.000000   0.000000   0.000000  -0.000000   0.000005
     8  H   -0.000006   0.000000  -0.000000  -0.000000  -0.000000   0.000169
     9  C    0.000195  -0.000003  -0.000000   0.000000  -0.000000  -0.003035
    10  H   -0.000042  -0.000001  -0.000003   0.000000   0.000000  -0.000041
    11  C   -0.000001   0.000000   0.000000   0.000000  -0.000000  -0.000077
    12  H   -0.000000  -0.000000  -0.000000   0.000000   0.000000  -0.000003
    13  H   -0.000002   0.000000  -0.000000  -0.000000   0.000000   0.000050
    14  H    0.000000  -0.000000   0.000000   0.000000  -0.000000   0.000001
    15  C    0.354388  -0.058868   0.003363  -0.005194   0.000931  -0.044617
    16  H   -0.041415   0.003740  -0.000119   0.000122  -0.000136  -0.002157
    17  H   -0.047943  -0.000192  -0.000038  -0.000487   0.001282  -0.001201
    18  H   -0.043258  -0.002529  -0.000007   0.002289  -0.000170  -0.000630
    19  C    4.948649   0.338994  -0.038825  -0.042715  -0.041639   0.697225
    20  C    0.338994   4.922218   0.406910   0.406084   0.396699  -0.050919
    21  H   -0.038825   0.406910   0.567415  -0.029786  -0.026819  -0.004116
    22  H   -0.042715   0.406084  -0.029786   0.581309  -0.030175   0.002712
    23  H   -0.041639   0.396699  -0.026819  -0.030175   0.576540  -0.003897
    24  C    0.697225  -0.050919  -0.004116   0.002712  -0.003897   4.959710
    25  H   -0.035406   0.003321   0.000066  -0.000098  -0.000133   0.404505
    26  C   -0.052376  -0.006623  -0.001515   0.000103   0.000609   0.341807
    27  H   -0.005497   0.000573   0.001180   0.000055  -0.000212  -0.045564
    28  H   -0.002636  -0.001536  -0.002184  -0.000023   0.001024  -0.045442
              25         26         27         28
     1  C   -0.006446   0.354526  -0.039146  -0.038305
     2  H    0.000142  -0.036712  -0.002902  -0.002750
     3  H    0.000583  -0.044295   0.005003  -0.004308
     4  C    0.004639  -0.042788  -0.004850   0.004438
     5  C   -0.000267   0.003396  -0.000051  -0.000087
     6  H    0.000014  -0.000088   0.000002   0.000001
     7  H    0.000006   0.000209  -0.000005  -0.000003
     8  H    0.000037  -0.000235   0.000005  -0.000000
     9  C    0.002054  -0.005052  -0.000677   0.000163
    10  H   -0.000139  -0.000956  -0.001285   0.000056
    11  C   -0.000043   0.000001   0.000029  -0.000000
    12  H   -0.000000  -0.000001  -0.000001   0.000000
    13  H   -0.000036  -0.000005   0.000014  -0.000000
    14  H    0.000005   0.000002  -0.000004   0.000000
    15  C   -0.006520   0.003105  -0.000132   0.000066
    16  H    0.002262   0.000136  -0.000003   0.000002
    17  H    0.000082  -0.000073  -0.000008   0.000020
    18  H    0.000271  -0.000126   0.000033  -0.000010
    19  C   -0.035406  -0.052376  -0.005497  -0.002636
    20  C    0.003321  -0.006623   0.000573  -0.001536
    21  H    0.000066  -0.001515   0.001180  -0.002184
    22  H   -0.000098   0.000103   0.000055  -0.000023
    23  H   -0.000133   0.000609  -0.000212   0.001024
    24  C    0.404505   0.341807  -0.045564  -0.045442
    25  H    0.539414  -0.040972   0.002192   0.002995
    26  C   -0.040972   4.948139   0.405499   0.416615
    27  H    0.002192   0.405499   0.598955  -0.032229
    28  H    0.002995   0.416615  -0.032229   0.585217
 Mulliken charges:
               1
     1  C   -0.227475
     2  H    0.125914
     3  H    0.118116
     4  C   -0.001989
     5  C   -0.356348
     6  H    0.120983
     7  H    0.117174
     8  H    0.127179
     9  C   -0.144044
    10  H    0.120389
    11  C   -0.354428
    12  H    0.116494
    13  H    0.121375
    14  H    0.118615
    15  C   -0.341217
    16  H    0.116847
    17  H    0.114209
    18  H    0.114096
    19  C    0.011048
    20  C   -0.357981
    21  H    0.124484
    22  H    0.115807
    23  H    0.126082
    24  C   -0.148414
    25  H    0.127473
    26  C   -0.242330
    27  H    0.119026
    28  H    0.118914
 Sum of Mulliken charges =  -0.00000
 Mulliken charges with hydrogens summed into heavy atoms:
               1
     1  C    0.016555
     4  C   -0.001989
     5  C    0.008988
     9  C   -0.023654
    11  C    0.002057
    15  C    0.003935
    19  C    0.011048
    20  C    0.008391
    24  C   -0.020941
    26  C   -0.004390
 Electronic spatial extent (au):  <R**2>=           2380.7758
 Charge=             -0.0000 electrons
 Dipole moment (field-independent basis, Debye):
    X=              0.0986    Y=             -0.1627    Z=              0.0752  Tot=              0.2045
 Quadrupole moment (field-independent basis, Debye-Ang):
   XX=            -63.8853   YY=            -64.7612   ZZ=            -65.2080
   XY=             -0.5232   XZ=             -1.2217   YZ=             -0.0280
 Traceless Quadrupole moment (field-independent basis, Debye-Ang):
   XX=              0.7329   YY=             -0.1430   ZZ=             -0.5899
   XY=             -0.5232   XZ=             -1.2217   YZ=             -0.0280
 Octapole moment (field-independent basis, Debye-Ang**2):
  XXX=              6.4475  YYY=             -2.1472  ZZZ=             -1.7368  XYY=             -0.1506
  XXY=              2.3649  XXZ=              2.4035  XZZ=             -0.9386  YZZ=              1.0099
  YYZ=              0.4116  XYZ=              1.2744
 Hexadecapole moment (field-independent basis, Debye-Ang**3):
 XXXX=          -2398.8785 YYYY=           -561.7212 ZZZZ=           -340.2145 XXXY=             -3.6889
 XXXZ=            -10.2721 YYYX=              2.8169 YYYZ=             -0.5048 ZZZX=              1.4422
 ZZZY=              0.2607 XXYY=           -498.8398 XXZZ=           -463.2607 YYZZ=           -151.1451
 XXYZ=             -7.7926 YYXZ=             -2.2167 ZZXY=             -3.3515
 N-N= 5.177300488333D+02 E-N=-1.940201231398D+03  KE= 3.886080185697D+02
 No NMR shielding tensors so no spin-rotation constants.
 Leave Link  601 at Fri Sep 17 20:15:21 2021, MaxMem=   524288000 cpu:               0.3 elap:               0.3
 (Enter /opt/gaussian/g16_legacy/l701.exe)
 ... and contract with generalized density number  2.
 Compute integral first derivatives.
 Leave Link  701 at Fri Sep 17 20:15:21 2021, MaxMem=   524288000 cpu:               0.3 elap:               0.3
 (Enter /opt/gaussian/g16_legacy/l702.exe)
 L702 exits ... SP integral derivatives will be done elsewhere.
 Leave Link  702 at Fri Sep 17 20:15:21 2021, MaxMem=   524288000 cpu:               0.1 elap:               0.1
 (Enter /opt/gaussian/g16_legacy/l703.exe)
 Integral derivatives from FoFJK, PRISM(SPDF).
 Compute integral first derivatives, UseDBF=F ICtDFT=           0.
 Calling FoFJK, ICntrl=  10002127 FMM=F ISym2X=0 I1Cent= 0 IOpClX= 0 NMat=1 NMatS=1 NMatT=0.
 FoFJK:  IHMeth= 1 ICntrl=10002127 DoSepK=F KAlg= 0 I1Cent=           0 FoldK=F
 IRaf=         0 NMat=       1 IRICut=       1 DoRegI=T DoRafI=F ISym2E= 0 IDoP0=0 IntGTp=1.
 FoFCou: FMM=F IPFlag=           0 FMFlag=      100000 FMFlg1=         800
         NFxFlg=           0 DoJE=F BraDBF=F KetDBF=F FulRan=T
         wScrn=  0.000000 ICntrl=  10002127 IOpCl=  0 I1Cent=           0 NGrid=           0
         NMat0=    1 NMatS0=      1 NMatT0=    0 NMatD0=    1 NMtDS0=    0 NMtDT0=    0
 Symmetry not used in FoFCou.
 Leave Link  703 at Fri Sep 17 20:15:56 2021, MaxMem=   524288000 cpu:              34.3 elap:              34.3
 (Enter /opt/gaussian/g16_legacy/l716.exe)
 Dipole        = 2.11105328D-02-4.20619944D-02 1.52243192D-02
 ***** Axes restored to original set *****
 -------------------------------------------------------------------
 Center     Atomic                   Forces (Hartrees/Bohr)
 Number     Number              X              Y              Z
 -------------------------------------------------------------------
      1        6           0.000252985   -0.000982210    0.003508062
      2        1          -0.001071527    0.001936589   -0.001228526
      3        1           0.002015043   -0.002089967    0.002506316
      4        6          -0.005482639    0.002996782    0.004011337
      5        6           0.004241265   -0.003880536   -0.001570466
      6        1          -0.002114703    0.004287852    0.000408044
      7        1          -0.000044628    0.002498211    0.003086577
      8        1           0.000950562   -0.001934266   -0.002599393
      9        6          -0.005804521    0.001750210   -0.002063522
     10        1          -0.001768139    0.002128480   -0.003497783
     11        6           0.003082125   -0.000843575   -0.001144904
     12        1          -0.002452621   -0.001151511    0.001178181
     13        1           0.001306329   -0.003385325   -0.000754888
     14        1           0.002170610    0.002368711    0.000930512
     15        6           0.002669404    0.000457182   -0.001293448
     16        1          -0.003985309   -0.002417627   -0.000119691
     17        1           0.000338032    0.000067908    0.003703127
     18        1          -0.001679606    0.001852208   -0.002685290
     19        6           0.010523058    0.000587186    0.002856128
     20        6          -0.004565584   -0.003502326    0.002631776
     21        1          -0.000334996    0.003057736   -0.003666769
     22        1           0.001038002   -0.000369197   -0.004467023
     23        1          -0.001860741   -0.000707479    0.003096802
     24        6           0.000441195   -0.000412040   -0.003546877
     25        1          -0.002155450   -0.000803417   -0.000196241
     26        6           0.002394195    0.001217150   -0.000103719
     27        1          -0.000682271   -0.001998823   -0.001659477
     28        1           0.002579929   -0.000727907    0.002681157
 -------------------------------------------------------------------
 Cartesian Forces:  Max     0.010523058 RMS     0.002680195
 Leave Link  716 at Fri Sep 17 20:15:56 2021, MaxMem=   524288000 cpu:               0.1 elap:               0.1
 (Enter /opt/gaussian/g16_legacy/l103.exe)

 GradGradGradGradGradGradGradGradGradGradGradGradGradGradGradGradGradGrad
 Berny optimization.
 FormGI is forming the generalized inverse of G from B-inverse, IUseBI=4.
 GSVD:  received Info=                   1 from GESDD.
 Internal  Forces:  Max     0.006379228 RMS     0.002251797
 Search for a local minimum.
 Step number   1 out of a maximum of  138
 All quantities printed in internal units (Hartrees-Bohrs-Radians)
 RMS Force = .22518D-02 SwitMx=.10000D-02 MixMth= 1
 Mixed Optimization -- RFO/linear search
 Second derivative matrix not updated -- first step.
 ITU=  0
     Eigenvalues ---    0.00232   0.00432   0.00636   0.00685   0.00698
     Eigenvalues ---    0.00784   0.00832   0.01190   0.01300   0.01520
     Eigenvalues ---    0.01660   0.02765   0.02798   0.03542   0.04031
     Eigenvalues ---    0.05256   0.05400   0.07030   0.07089   0.07104
     Eigenvalues ---    0.07193   0.07297   0.07297   0.07314   0.07555
     Eigenvalues ---    0.09318   0.09956   0.12831   0.13252   0.15990
     Eigenvalues ---    0.15999   0.16000   0.16000   0.16000   0.16000
     Eigenvalues ---    0.16000   0.16000   0.16000   0.16000   0.16000
     Eigenvalues ---    0.16000   0.16000   0.16000   0.21949   0.22000
     Eigenvalues ---    0.22003   0.22018   0.24978   0.24989   0.24994
     Eigenvalues ---    0.24997   0.28485   0.29869   0.31365   0.31746
     Eigenvalues ---    0.31843   0.32522   0.32905   0.33804   0.33949
     Eigenvalues ---    0.33999   0.34126   0.34172   0.34187   0.34198
     Eigenvalues ---    0.34207   0.34220   0.34248   0.34277   0.34289
     Eigenvalues ---    0.34338   0.34339   0.34445   0.34658   0.34961
     Eigenvalues ---    0.35017   0.55257   0.55805
 RFO step:  Lambda=-4.65881097D-03 EMin= 2.31762736D-03
 Linear search not attempted -- first point.
 Iteration  1 RMS(Cart)=  0.08805090 RMS(Int)=  0.00410655
 Iteration  2 RMS(Cart)=  0.00557094 RMS(Int)=  0.00011467
 Iteration  3 RMS(Cart)=  0.00002509 RMS(Int)=  0.00011394
 Iteration  4 RMS(Cart)=  0.00000000 RMS(Int)=  0.00011394
 ITry= 1 IFail=0 DXMaxC= 4.89D-01 DCOld= 1.00D+10 DXMaxT= 3.00D-01 DXLimC= 3.00D+00 Rises=F
 Variable       Old X    -DE/DX   Delta X   Delta X   Delta X     New X
                                 (Linear)    (Quad)   (Total)
    R1        2.07417  -0.00114   0.00000  -0.00331  -0.00331   2.07086
    R2        2.07662  -0.00347   0.00000  -0.01012  -0.01012   2.06650
    R3        2.88226  -0.00638   0.00000  -0.02103  -0.02103   2.86123
    R4        2.91090  -0.00616   0.00000  -0.02127  -0.02127   2.88963
    R5        2.84432   0.00253   0.00000   0.00783   0.00783   2.85215
    R6        2.54904  -0.00625   0.00000  -0.01122  -0.01122   2.53782
    R7        2.06762  -0.00383   0.00000  -0.01099  -0.01099   2.05663
    R8        2.06982  -0.00346   0.00000  -0.00999  -0.00999   2.05983
    R9        2.06763  -0.00143   0.00000  -0.00412  -0.00412   2.06351
   R10        2.05648  -0.00172   0.00000  -0.00485  -0.00485   2.05163
   R11        2.82518   0.00382   0.00000   0.01145   0.01145   2.83663
   R12        2.06234  -0.00272   0.00000  -0.00774  -0.00774   2.05461
   R13        2.07016  -0.00286   0.00000  -0.00826  -0.00826   2.06189
   R14        2.06586  -0.00113   0.00000  -0.00323  -0.00323   2.06263
   R15        2.07040  -0.00421   0.00000  -0.01216  -0.01216   2.05824
   R16        2.06997  -0.00207   0.00000  -0.00596  -0.00596   2.06401
   R17        2.06914  -0.00208   0.00000  -0.00598  -0.00598   2.06316
   R18        2.84611  -0.00087   0.00000  -0.00271  -0.00271   2.84340
   R19        2.83199   0.00534   0.00000   0.01620   0.01620   2.84819
   R20        2.54424  -0.00202   0.00000  -0.00359  -0.00359   2.54064
   R21        2.06846  -0.00382   0.00000  -0.01098  -0.01098   2.05748
   R22        2.07118  -0.00400   0.00000  -0.01156  -0.01156   2.05961
   R23        2.06865  -0.00155   0.00000  -0.00447  -0.00447   2.06418
   R24        2.05738  -0.00225   0.00000  -0.00636  -0.00636   2.05102
   R25        2.85321  -0.00297   0.00000  -0.00934  -0.00934   2.84387
   R26        2.06961  -0.00017   0.00000  -0.00049  -0.00049   2.06912
   R27        2.07331  -0.00335   0.00000  -0.00971  -0.00971   2.06360
    A1        1.85391  -0.00111   0.00000  -0.00484  -0.00483   1.84908
    A2        1.88741   0.00297   0.00000   0.01866   0.01868   1.90609
    A3        1.90418   0.00011   0.00000  -0.00106  -0.00100   1.90317
    A4        1.89745  -0.00034   0.00000  -0.00927  -0.00919   1.88826
    A5        1.87106   0.00320   0.00000   0.01791   0.01782   1.88888
    A6        2.04126  -0.00463   0.00000  -0.02059  -0.02057   2.02069
    A7        1.99146   0.00348   0.00000   0.01411   0.01377   2.00524
    A8        2.14022  -0.00377   0.00000  -0.01430  -0.01463   2.12559
    A9        2.15086   0.00032   0.00000   0.00180   0.00146   2.15232
   A10        1.95912   0.00063   0.00000   0.00638   0.00635   1.96548
   A11        1.93417  -0.00186   0.00000  -0.01086  -0.01082   1.92335
   A12        1.91912   0.00376   0.00000   0.01985   0.01985   1.93897
   A13        1.85689   0.00170   0.00000   0.01590   0.01592   1.87280
   A14        1.90386  -0.00253   0.00000  -0.01605  -0.01611   1.88775
   A15        1.88840  -0.00192   0.00000  -0.01664  -0.01658   1.87182
   A16        2.08261  -0.00280   0.00000  -0.01838  -0.01851   2.06410
   A17        2.22934  -0.00220   0.00000  -0.00954  -0.00966   2.21967
   A18        1.97026   0.00503   0.00000   0.02912   0.02900   1.99926
   A19        1.98370  -0.00250   0.00000  -0.01508  -0.01501   1.96869
   A20        1.90222   0.00239   0.00000   0.01491   0.01485   1.91707
   A21        1.91805   0.00406   0.00000   0.02422   0.02418   1.94223
   A22        1.87609   0.00010   0.00000   0.00148   0.00153   1.87762
   A23        1.89386  -0.00109   0.00000  -0.00727  -0.00719   1.88666
   A24        1.88730  -0.00317   0.00000  -0.01947  -0.01964   1.86766
   A25        1.87885   0.00074   0.00000   0.00689   0.00693   1.88579
   A26        1.87710   0.00123   0.00000   0.01136   0.01140   1.88850
   A27        1.95997  -0.00301   0.00000  -0.01504  -0.01499   1.94498
   A28        1.89716  -0.00342   0.00000  -0.02719  -0.02718   1.86998
   A29        1.92314   0.00237   0.00000   0.01238   0.01241   1.93555
   A30        1.92566   0.00196   0.00000   0.01069   0.01071   1.93638
   A31        2.02203  -0.00000   0.00000   0.00019  -0.00008   2.02195
   A32        2.10638   0.00236   0.00000   0.00952   0.00924   2.11561
   A33        2.15460  -0.00234   0.00000  -0.00894  -0.00921   2.14539
   A34        1.95103   0.00026   0.00000   0.00419   0.00417   1.95520
   A35        1.93544  -0.00114   0.00000  -0.00606  -0.00604   1.92940
   A36        1.92349   0.00405   0.00000   0.02109   0.02110   1.94458
   A37        1.86002   0.00170   0.00000   0.01695   0.01694   1.87696
   A38        1.89990  -0.00262   0.00000  -0.01747  -0.01751   1.88240
   A39        1.89187  -0.00248   0.00000  -0.02011  -0.02005   1.87181
   A40        2.06195   0.00104   0.00000   0.00511   0.00510   2.06705
   A41        2.19532  -0.00150   0.00000  -0.00664  -0.00665   2.18867
   A42        2.02585   0.00046   0.00000   0.00162   0.00161   2.02747
   A43        1.96555  -0.00268   0.00000  -0.00968  -0.00965   1.95590
   A44        1.92585  -0.00085   0.00000  -0.00945  -0.00940   1.91645
   A45        1.87528   0.00153   0.00000   0.00655   0.00656   1.88184
   A46        1.91075   0.00282   0.00000   0.02235   0.02233   1.93308
   A47        1.91855   0.00042   0.00000   0.00267   0.00267   1.92122
   A48        1.86492  -0.00122   0.00000  -0.01309  -0.01314   1.85178
    D1        1.54327  -0.00103   0.00000  -0.12600  -0.12592   1.41735
    D2       -1.63578  -0.00023   0.00000  -0.07898  -0.07901  -1.71479
    D3       -0.46248  -0.00112   0.00000  -0.12531  -0.12518  -0.58766
    D4        2.64166  -0.00032   0.00000  -0.07829  -0.07827   2.56339
    D5       -2.58322  -0.00181   0.00000  -0.12702  -0.12707  -2.71029
    D6        0.52092  -0.00101   0.00000  -0.08000  -0.08016   0.44076
    D7       -3.07934   0.00058   0.00000   0.02033   0.02035  -3.05899
    D8        1.06293  -0.00056   0.00000   0.00518   0.00518   1.06812
    D9       -0.96414   0.00048   0.00000   0.02210   0.02210  -0.94204
   D10       -1.07874   0.00101   0.00000   0.02350   0.02356  -1.05518
   D11        3.06354  -0.00012   0.00000   0.00835   0.00840   3.07193
   D12        1.03646   0.00091   0.00000   0.02527   0.02531   1.06178
   D13        1.05574  -0.00007   0.00000   0.01142   0.01138   1.06712
   D14       -1.08517  -0.00120   0.00000  -0.00373  -0.00379  -1.08895
   D15       -3.11224  -0.00016   0.00000   0.01319   0.01313  -3.09911
[...]
                 (A) (A) (A) (A) (A) (A) (A) (A) (A) (A) (A) (A)
                 (A) (A) (A) (A) (A) (A) (A) (A) (A) (A) (A) (A)
                 (A) (A) (A) (A) (A) (A) (A) (A) (A) (A) (A) (A)
                 (A) (A) (A) (A) (A) (A) (A) (A) (A) (A) (A) (A)
                 (A) (A) (A) (A) (A) (A) (A) (A) (A) (A) (A) (A)
                 (A) (A) (A) (A) (A) (A) (A) (A) (A) (A) (A) (A)
                 (A) (A) (A) (A) (A) (A) (A) (A) (A) (A) (A) (A)
                 (A) (A) (A) (A) (A) (A) (A) (A) (A) (A) (A) (A)
                 (A) (A) (A) (A) (A) (A) (A) (A) (A) (A) (A) (A)
                 (A) (A) (A) (A) (A) (A) (A) (A) (A) (A) (A) (A)
                 (A) (A) (A) (A) (A) (A) (A) (A) (A) (A) (A) (A)
                 (A) (A) (A) (A) (A) (A) (A) (A) (A) (A) (A) (A)
                 (A) (A) (A) (A) (A) (A) (A) (A) (A) (A) (A) (A)
                 (A) (A) (A) (A) (A) (A) (A) (A) (A) (A) (A) (A)
                 (A) (A) (A) (A) (A) (A) (A) (A) (A)
 The electronic state is 1-A.
 Alpha  occ. eigenvalues --  -11.22687 -11.22358 -11.21942 -11.21828 -11.21617
 Alpha  occ. eigenvalues --  -11.21343 -11.21321 -11.21276 -11.21210 -11.21081
 Alpha  occ. eigenvalues --   -1.10786  -1.08087  -1.02025  -0.97716  -0.93690
 Alpha  occ. eigenvalues --   -0.91841  -0.87599  -0.82525  -0.70620  -0.68858
 Alpha  occ. eigenvalues --   -0.64364  -0.61999  -0.59841  -0.59305  -0.58218
 Alpha  occ. eigenvalues --   -0.57454  -0.55135  -0.53680  -0.53150  -0.52864
 Alpha  occ. eigenvalues --   -0.52489  -0.51416  -0.50333  -0.49627  -0.46907
 Alpha  occ. eigenvalues --   -0.45821  -0.45195  -0.33141  -0.31218
 Alpha virt. eigenvalues --    0.18828   0.19896   0.23128   0.24461   0.25631
 Alpha virt. eigenvalues --    0.26761   0.28969   0.29283   0.30688   0.30910
 Alpha virt. eigenvalues --    0.32105   0.32486   0.33232   0.33802   0.34586
 Alpha virt. eigenvalues --    0.36184   0.36693   0.38072   0.38897   0.39813
 Alpha virt. eigenvalues --    0.41029   0.42150   0.43541   0.45009   0.46126
 Alpha virt. eigenvalues --    0.51802   0.52936   0.62954   0.63854   0.69328
 Alpha virt. eigenvalues --    0.71317   0.72489   0.73666   0.74481   0.77140
 Alpha virt. eigenvalues --    0.78849   0.80236   0.80656   0.81313   0.83754
 Alpha virt. eigenvalues --    0.85460   0.86651   0.87307   0.88623   0.92386
 Alpha virt. eigenvalues --    0.92748   0.96059   0.98795   0.99592   1.00251
 Alpha virt. eigenvalues --    1.00802   1.02183   1.03367   1.04648   1.08275
 Alpha virt. eigenvalues --    1.08457   1.09363   1.10288   1.11939   1.12704
 Alpha virt. eigenvalues --    1.13984   1.14781   1.15251   1.16245   1.16736
 Alpha virt. eigenvalues --    1.17150   1.18421   1.18773   1.19544   1.21099
 Alpha virt. eigenvalues --    1.22021   1.23025   1.23630   1.25583   1.25776
 Alpha virt. eigenvalues --    1.34668   1.36762   1.43402   1.44041   1.45993
 Alpha virt. eigenvalues --    1.47717   1.52807   1.54561   1.55010   1.58582
 Alpha virt. eigenvalues --    1.61140   1.62983   1.67745   1.72442   1.74165
 Alpha virt. eigenvalues --    1.78822   1.84513   1.90081   1.93285   1.95994
 Alpha virt. eigenvalues --    1.97990   2.01369   2.03099   2.07243   2.08489
 Alpha virt. eigenvalues --    2.09160   2.09932   2.10506   2.11652   2.14685
 Alpha virt. eigenvalues --    2.16689   2.19092   2.21217   2.23361   2.27097
 Alpha virt. eigenvalues --    2.29416   2.31546   2.32936   2.35360   2.35770
 Alpha virt. eigenvalues --    2.35871   2.36098   2.37309   2.40669   2.41178
 Alpha virt. eigenvalues --    2.42719   2.44299   2.45210   2.45706   2.46740
 Alpha virt. eigenvalues --    2.47842   2.49157   2.50795   2.51367   2.52218
 Alpha virt. eigenvalues --    2.55065   2.56492   2.60231   2.63067   2.65716
 Alpha virt. eigenvalues --    2.69233   2.69782   2.71864   2.73328   2.73993
 Alpha virt. eigenvalues --    2.77022   2.79201   2.81008   2.82641   2.83813
 Alpha virt. eigenvalues --    2.85588   2.90345   2.90915   2.94390   2.94585
 Alpha virt. eigenvalues --    2.98362   3.00016   3.03085   3.03143   3.05384
 Alpha virt. eigenvalues --    3.06853   3.08044   3.10862   3.11954   3.15958
 Alpha virt. eigenvalues --    3.18570   3.18775   3.18897   3.21432   3.23030
 Alpha virt. eigenvalues --    3.24238   3.25398   3.27061   3.28811   3.39711
 Alpha virt. eigenvalues --    3.40632   3.43150   3.45658   3.56547   3.57545
 Alpha virt. eigenvalues --    3.62361   3.62666   3.68341   3.72403   3.79784
 Alpha virt. eigenvalues --    3.80195   3.81668   3.82089   3.83528   3.84489
 Alpha virt. eigenvalues --    3.85078   3.86879   3.88159   3.91139   3.94028
 Alpha virt. eigenvalues --    3.95488   4.59340   4.62488   4.76755   4.82591
 Alpha virt. eigenvalues --    4.89264   4.92979   4.93677   5.01542   5.10446
 Alpha virt. eigenvalues --    5.17858
          Condensed to atoms (all electrons):
               1          2          3          4          5          6
     1  C    4.976358   0.408505   0.403974   0.349605  -0.065269   0.003883
     2  H    0.408505   0.597854  -0.037895  -0.044495  -0.002560  -0.000073
     3  H    0.403974  -0.037895   0.615025  -0.049680  -0.003533   0.000013
     4  C    0.349605  -0.044495  -0.049680   4.926589   0.353762  -0.038121
     5  C   -0.065269  -0.002560  -0.003533   0.353762   4.903947   0.406812
     6  H    0.003883  -0.000073   0.000013  -0.038121   0.406812   0.570900
     7  H   -0.002578   0.002633  -0.000562  -0.044818   0.401419  -0.027599
     8  H   -0.003221  -0.000173   0.002798  -0.043051   0.399579  -0.027251
     9  C   -0.046607  -0.001298   0.000876   0.704643  -0.043138  -0.002113
    10  H   -0.008152   0.000160   0.000096  -0.037811   0.003486   0.000047
    11  C    0.003245  -0.000098  -0.000088  -0.044518  -0.008915  -0.002541
    12  H    0.000066  -0.000002  -0.000003   0.000417  -0.002184  -0.001658
    13  H   -0.000097  -0.000004   0.000015  -0.001223   0.000271  -0.000017
    14  H   -0.000103   0.000018  -0.000003  -0.000479   0.000296   0.000018
    15  C   -0.000084   0.000001  -0.000003  -0.000013  -0.000000   0.000000
    16  H   -0.000008   0.000000   0.000001  -0.000000  -0.000000   0.000000
    17  H   -0.000003   0.000000   0.000000   0.000000  -0.000000   0.000000
    18  H    0.000012  -0.000000  -0.000000   0.000002   0.000000  -0.000000
    19  C    0.000436  -0.000062   0.000220   0.000181  -0.000007   0.000000
    20  C    0.000277   0.000001  -0.000009  -0.000002  -0.000000  -0.000000
    21  H    0.000040   0.000010  -0.000005   0.000003  -0.000000   0.000000
    22  H    0.000028  -0.000000   0.000000   0.000004   0.000000  -0.000000
    23  H   -0.000016   0.000000   0.000000   0.000001   0.000000   0.000000
    24  C   -0.062391   0.005219  -0.006635   0.001793  -0.000158   0.000001
    25  H   -0.003511  -0.000042   0.002762   0.000194  -0.000042   0.000001
    26  C    0.346725  -0.037355  -0.038819  -0.045786   0.003346  -0.000087
    27  H   -0.039080  -0.003777   0.005090  -0.002544  -0.000064   0.000001
    28  H   -0.047507  -0.004018  -0.002551   0.004470  -0.000092   0.000001
               7          8          9         10         11         12
     1  C   -0.002578  -0.003221  -0.046607  -0.008152   0.003245   0.000066
     2  H    0.002633  -0.000173  -0.001298   0.000160  -0.000098  -0.000002
     3  H   -0.000562   0.002798   0.000876   0.000096  -0.000088  -0.000003
     4  C   -0.044818  -0.043051   0.704643  -0.037811  -0.044518   0.000417
     5  C    0.401419   0.399579  -0.043138   0.003486  -0.008915  -0.002184
     6  H   -0.027599  -0.027251  -0.002113   0.000047  -0.002541  -0.001658
     7  H    0.591711  -0.036478  -0.000248  -0.000133   0.000275  -0.000033
     8  H   -0.036478   0.588935  -0.000162  -0.000109   0.000319  -0.000056
     9  C   -0.000248  -0.000162   4.921761   0.407857   0.342620  -0.044179
    10  H   -0.000133  -0.000109   0.407857   0.557509  -0.041511   0.003331
    11  C    0.000275   0.000319   0.342620  -0.041511   4.894066   0.408400
    12  H   -0.000033  -0.000056  -0.044179   0.003331   0.408400   0.578833
    13  H   -0.000026   0.000062  -0.043006  -0.001029   0.401931  -0.028524
    14  H    0.000046  -0.000027  -0.042187  -0.001482   0.400870  -0.028438
    15  C    0.000000   0.000000  -0.000000  -0.000057  -0.000001  -0.000000
    16  H    0.000000   0.000000   0.000002  -0.000004  -0.000000  -0.000000
    17  H   -0.000000   0.000000  -0.000003   0.000006   0.000000  -0.000000
    18  H    0.000000  -0.000000   0.000049  -0.000034   0.000001   0.000000
    19  C   -0.000000   0.000002  -0.003036   0.000418   0.000003  -0.000002
    20  C    0.000000  -0.000000   0.000126  -0.002524   0.000010  -0.000000
    21  H    0.000000  -0.000000  -0.000016  -0.000668  -0.000000  -0.000000
    22  H    0.000000  -0.000000   0.000295  -0.000454   0.000012   0.000000
    23  H   -0.000000   0.000000  -0.000012   0.000115  -0.000000   0.000000
    24  C    0.000004   0.000016  -0.003985   0.000794  -0.000034  -0.000007
    25  H   -0.000000   0.000001   0.000115  -0.000002  -0.000002   0.000000
    26  C   -0.000039  -0.000013  -0.005571  -0.002338  -0.000056   0.000002
    27  H   -0.000011   0.000007   0.000495  -0.002769  -0.000048  -0.000002
    28  H   -0.000002   0.000001   0.000102   0.000323   0.000000   0.000000
              13         14         15         16         17         18
     1  C   -0.000097  -0.000103  -0.000084  -0.000008  -0.000003   0.000012
     2  H   -0.000004   0.000018   0.000001   0.000000   0.000000  -0.000000
     3  H    0.000015  -0.000003  -0.000003   0.000001   0.000000  -0.000000
     4  C   -0.001223  -0.000479  -0.000013  -0.000000   0.000000   0.000002
     5  C    0.000271   0.000296  -0.000000  -0.000000  -0.000000   0.000000
     6  H   -0.000017   0.000018   0.000000   0.000000   0.000000  -0.000000
     7  H   -0.000026   0.000046   0.000000   0.000000  -0.000000   0.000000
     8  H    0.000062  -0.000027   0.000000   0.000000   0.000000  -0.000000
     9  C   -0.043006  -0.042187  -0.000000   0.000002  -0.000003   0.000049
    10  H   -0.001029  -0.001482  -0.000057  -0.000004   0.000006  -0.000034
    11  C    0.401931   0.400870  -0.000001  -0.000000   0.000000   0.000001
    12  H   -0.028524  -0.028438  -0.000000  -0.000000  -0.000000   0.000000
    13  H    0.588154  -0.036445   0.000000  -0.000000   0.000000  -0.000004
    14  H   -0.036445   0.590418   0.000000   0.000000  -0.000000   0.000000
    15  C    0.000000   0.000000   4.898379   0.406171   0.398036   0.398884
    16  H   -0.000000   0.000000   0.406171   0.566348  -0.026817  -0.026413
    17  H    0.000000  -0.000000   0.398036  -0.026817   0.597259  -0.038390
    18  H   -0.000004   0.000000   0.398884  -0.026413  -0.038390   0.595874
    19  C    0.000077  -0.000007   0.353010  -0.041706  -0.044128  -0.044675
    20  C   -0.000004   0.000002  -0.065461   0.003804  -0.001630  -0.001436
    21  H   -0.000001   0.000003   0.003788  -0.000115  -0.000063  -0.000035
    22  H   -0.000007   0.000008  -0.002283  -0.000043  -0.000533   0.002933
    23  H    0.000000  -0.000000  -0.002720  -0.000036   0.002700  -0.000446
    24  C    0.000022   0.000002  -0.042482  -0.002527  -0.000748  -0.001281
    25  H   -0.000000   0.000000  -0.007193   0.002424   0.000208   0.000179
    26  C   -0.000001   0.000007   0.003182   0.000142  -0.000121  -0.000076
    27  H    0.000014  -0.000018   0.000089   0.000005  -0.000006   0.000006
    28  H   -0.000000  -0.000000  -0.000119  -0.000007   0.000022  -0.000005
              19         20         21         22         23         24
     1  C    0.000436   0.000277   0.000040   0.000028  -0.000016  -0.062391
     2  H   -0.000062   0.000001   0.000010  -0.000000   0.000000   0.005219
     3  H    0.000220  -0.000009  -0.000005   0.000000   0.000000  -0.006635
     4  C    0.000181  -0.000002   0.000003   0.000004   0.000001   0.001793
     5  C   -0.000007  -0.000000  -0.000000   0.000000   0.000000  -0.000158
     6  H    0.000000  -0.000000   0.000000  -0.000000   0.000000   0.000001
     7  H   -0.000000   0.000000   0.000000   0.000000  -0.000000   0.000004
     8  H    0.000002  -0.000000  -0.000000  -0.000000   0.000000   0.000016
     9  C   -0.003036   0.000126  -0.000016   0.000295  -0.000012  -0.003985
    10  H    0.000418  -0.002524  -0.000668  -0.000454   0.000115   0.000794
    11  C    0.000003   0.000010  -0.000000   0.000012  -0.000000  -0.000034
    12  H   -0.000002  -0.000000  -0.000000   0.000000   0.000000  -0.000007
    13  H    0.000077  -0.000004  -0.000001  -0.000007   0.000000   0.000022
    14  H   -0.000007   0.000002   0.000003   0.000008  -0.000000   0.000002
    15  C    0.353010  -0.065461   0.003788  -0.002283  -0.002720  -0.042482
    16  H   -0.041706   0.003804  -0.000115  -0.000043  -0.000036  -0.002527
    17  H   -0.044128  -0.001630  -0.000063  -0.000533   0.002700  -0.000748
    18  H   -0.044675  -0.001436  -0.000035   0.002933  -0.000446  -0.001281
    19  C    4.920879   0.347571  -0.038784  -0.044791  -0.042055   0.707544
    20  C    0.347571   4.912745   0.406846   0.399250   0.403162  -0.042615
    21  H   -0.038784   0.406846   0.569735  -0.027438  -0.027031  -0.002406
    22  H   -0.044791   0.399250  -0.027438   0.590052  -0.035373  -0.000716
    23  H   -0.042055   0.403162  -0.027031  -0.035373   0.580199   0.000042
    24  C    0.707544  -0.042615  -0.002406  -0.000716   0.000042   4.935219
    25  H   -0.034956   0.003583   0.000052  -0.000123  -0.000119   0.400556
    26  C   -0.047598  -0.008659  -0.002150   0.000388   0.000194   0.342170
    27  H    0.001503  -0.002623  -0.000752   0.000109  -0.000149  -0.049250
    28  H   -0.002702   0.000418  -0.000053  -0.000035   0.000073  -0.043048
              25         26         27         28
     1  C   -0.003511   0.346725  -0.039080  -0.047507
     2  H   -0.000042  -0.037355  -0.003777  -0.004018
     3  H    0.002762  -0.038819   0.005090  -0.002551
     4  C    0.000194  -0.045786  -0.002544   0.004470
     5  C   -0.000042   0.003346  -0.000064  -0.000092
     6  H    0.000001  -0.000087   0.000001   0.000001
     7  H   -0.000000  -0.000039  -0.000011  -0.000002
     8  H    0.000001  -0.000013   0.000007   0.000001
     9  C    0.000115  -0.005571   0.000495   0.000102
    10  H   -0.000002  -0.002338  -0.002769   0.000323
    11  C   -0.000002  -0.000056  -0.000048   0.000000
    12  H    0.000000   0.000002  -0.000002   0.000000
    13  H   -0.000000  -0.000001   0.000014  -0.000000
    14  H    0.000000   0.000007  -0.000018  -0.000000
    15  C   -0.007193   0.003182   0.000089  -0.000119
    16  H    0.002424   0.000142   0.000005  -0.000007
    17  H    0.000208  -0.000121  -0.000006   0.000022
    18  H    0.000179  -0.000076   0.000006  -0.000005
    19  C   -0.034956  -0.047598   0.001503  -0.002702
    20  C    0.003583  -0.008659  -0.002623   0.000418
    21  H    0.000052  -0.002150  -0.000752  -0.000053
    22  H   -0.000123   0.000388   0.000109  -0.000035
    23  H   -0.000119   0.000194  -0.000149   0.000073
    24  C    0.400556   0.342170  -0.049250  -0.043048
    25  H    0.559495  -0.043286   0.003421   0.000234
    26  C   -0.043286   4.961394   0.414479   0.417755
    27  H    0.003421   0.414479   0.587171  -0.029059
    28  H    0.000234   0.417755  -0.029059   0.580252
 Mulliken charges:
               1
     1  C   -0.214529
     2  H    0.117451
     3  H    0.108918
     4  C    0.010877
     5  C   -0.346956
     6  H    0.117783
     7  H    0.116438
     8  H    0.118820
     9  C   -0.143383
    10  H    0.124934
    11  C   -0.353941
    12  H    0.114038
    13  H    0.119843
    14  H    0.117502
    15  C   -0.341126
    16  H    0.118780
    17  H    0.114209
    18  H    0.114856
    19  C    0.012665
    20  C   -0.352833
    21  H    0.119040
    22  H    0.118716
    23  H    0.121471
    24  C   -0.135098
    25  H    0.116052
    26  C   -0.257831
    27  H    0.117762
    28  H    0.125544
 Sum of Mulliken charges =  -0.00000
 Mulliken charges with hydrogens summed into heavy atoms:
               1
     1  C    0.011840
     4  C    0.010877
     5  C    0.006084
     9  C   -0.018449
    11  C   -0.002558
    15  C    0.006719
    19  C    0.012665
    20  C    0.006393
    24  C   -0.019047
    26  C   -0.014525
 Electronic spatial extent (au):  <R**2>=           2104.6914
 Charge=             -0.0000 electrons
 Dipole moment (field-independent basis, Debye):
    X=              0.0602    Y=             -0.0056    Z=             -0.0696  Tot=              0.0921
 Quadrupole moment (field-independent basis, Debye-Ang):
   XX=            -64.4223   YY=            -64.2833   ZZ=            -65.4199
   XY=              1.5939   XZ=             -0.7432   YZ=             -0.4494
 Traceless Quadrupole moment (field-independent basis, Debye-Ang):
   XX=              0.2862   YY=              0.4252   ZZ=             -0.7114
   XY=              1.5939   XZ=             -0.7432   YZ=             -0.4494
 Octapole moment (field-independent basis, Debye-Ang**2):
  XXX=              0.2650  YYY=              1.0492  ZZZ=              0.9512  XYY=             -2.7663
  XXY=              3.8491  XXZ=              1.3815  XZZ=              1.7128  YZZ=             -2.1032
  YYZ=              0.1504  XYZ=             -0.9430
 Hexadecapole moment (field-independent basis, Debye-Ang**3):
 XXXX=          -1907.4250 YYYY=           -683.5628 ZZZZ=           -323.9831 XXXY=              4.7698
 XXXZ=             -9.9680 YYYX=              4.8750 YYYZ=              2.1896 ZZZX=              0.1115
 ZZZY=             -4.7132 XXYY=           -439.9815 XXZZ=           -381.5422 YYZZ=           -165.3347
 XXYZ=              3.6201 YYXZ=              2.3868 ZZXY=             -0.4197
 N-N= 5.290268391033D+02 E-N=-1.962852040229D+03  KE= 3.887426901468D+02
 No NMR shielding tensors so no spin-rotation constants.
 Leave Link  601 at Sat Sep 18 00:57:20 2021, MaxMem=   524288000 cpu:               0.3 elap:               1.2
 (Enter /opt/gaussian/g16_legacy/l9999.exe)
 1\1\GINC-TRUENO90\FOpt\RMP2-FC\6-31G(d,p)\C10H18\JRAMOS\18-Sep-2021\0\
 \#p opt mp2/6-31g(d,p)\\Conformer number 024. Energy MM = 27.980 kcal/
 mol\\0,1\C,2.3165645626,1.5845843064,-9.4742783726\H,2.0760726806,0.64
 53823355,-9.9860713809\H,2.5600971035,2.2925447177,-10.2757105144\C,3.
 5612648257,1.3605143384,-8.6459881177\C,4.759792568,0.9902415829,-9.47
 79216315\H,5.6428123646,0.768126745,-8.8852484804\H,4.5385205152,0.114
 5556453,-10.092021165\H,5.0105171413,1.8021793925,-10.1641508934\C,3.5
 649893079,1.4646361558,-7.3046410562\H,2.641480774,1.7539330209,-6.819
 4558448\C,4.7165204011,1.2513043388,-6.368680289\H,5.6317817843,0.9594
 259114,-6.8768504744\H,4.924357482,2.1628317807,-5.8050408025\H,4.4783
 261909,0.4752736854,-5.638866641\C,1.1181141348,5.429336167,-6.6983635
 45\H,1.5557696849,5.9662889905,-7.5385390743\H,0.1800024149,5.91999895
 5,-6.4291018969\H,1.7869510651,5.5324679332,-5.840693111\C,0.891055876
 2,3.9792249327,-7.0269468303\C,0.2925179764,3.1726595682,-5.9082508189
 \H,0.124773179,2.1321831984,-6.1738776282\H,0.9422799729,3.2005543154,
 -5.0302196522\H,-0.6661566597,3.5989970158,-5.6046670237\C,1.221784308
 9,3.4891885408,-8.2359539371\H,1.6454878754,4.1865792304,-8.9558278547
 \C,1.0664171895,2.0869088915,-8.7475841278\H,0.803679763,1.3928901699,
 -7.9489541139\H,0.2371255166,2.0575881345,-9.4623947222\\Version=EM64L
 -G16RevA.03\State=1-A\HF=-389.1534787\MP2=-390.5720967\RMSD=9.318e-09\
 RMSF=6.632e-06\Dipole=-0.0263088,-0.0055969,0.0277221\PG=C01 [X(C10H18
 )]\\@


 Just remember, when you're over the hill, you begin to pick up speed.
 -- Charles Schulz
 Job cpu time:       0 days  4 hours 47 minutes 25.3 seconds.
 Elapsed time:       0 days  4 hours 47 minutes 42.9 seconds.
 File lengths (MBytes):  RWF=     37 Int=      0 D2E=      0 Chk=      7 Scr=      1
 Normal termination of Gaussian 16 at Sat Sep 18 00:57:21 2021.
