 Entering Gaussian System, Link 0=/opt/gaussian/g16_legacy/g16
 Input=02-IsoP_013_gaussian.com
 Output=02-IsoP_013_gaussian.log
 Initial command:
 /opt/gaussian/g16_legacy/l1.exe "/scratch-local/jramos/2661511/Gau-7084.inp" -scrdir="/scratch-local/jramos/2661511/"
 Entering Link 1 = /opt/gaussian/g16_legacy/l1.exe PID=      7095.
  
 Copyright (c) 1988,1990,1992,1993,1995,1998,2003,2009,2016,
            Gaussian, Inc.  All Rights Reserved.
  
 This is part of the Gaussian(R) 16 program.  It is based on
 the Gaussian(R) 09 system (copyright 2009, Gaussian, Inc.),
 the Gaussian(R) 03 system (copyright 2003, Gaussian, Inc.),
 the Gaussian(R) 98 system (copyright 1998, Gaussian, Inc.),
 the Gaussian(R) 94 system (copyright 1995, Gaussian, Inc.),
 the Gaussian 92(TM) system (copyright 1992, Gaussian, Inc.),
 the Gaussian 90(TM) system (copyright 1990, Gaussian, Inc.),
 the Gaussian 88(TM) system (copyright 1988, Gaussian, Inc.),
 the Gaussian 86(TM) system (copyright 1986, Carnegie Mellon
 University), and the Gaussian 82(TM) system (copyright 1983,
 Carnegie Mellon University). Gaussian is a federally registered
 trademark of Gaussian, Inc.
  
 This software contains proprietary and confidential information,
 including trade secrets, belonging to Gaussian, Inc.
  
 This software is provided under written license and may be
 used, copied, transmitted, or stored only in accord with that
 written license.
  
 The following legend is applicable only to US Government
 contracts under FAR:
  
                    RESTRICTED RIGHTS LEGEND
  
 Use, reproduction and disclosure by the US Government is
 subject to restrictions as set forth in subparagraphs (a)
 and (c) of the Commercial Computer Software - Restricted
 Rights clause in FAR 52.227-19.
  
 Gaussian, Inc.
 340 Quinnipiac St., Bldg. 40, Wallingford CT 06492
  
  
 ---------------------------------------------------------------
 Warning -- This program may not be used in any manner that
 competes with the business of Gaussian, Inc. or will provide
 assistance to any competitor of Gaussian, Inc.  The licensee
 of this program is prohibited from giving any competitor of
 Gaussian, Inc. access to this program.  By using this program,
 the user acknowledges that Gaussian, Inc. is engaged in the
 business of creating and licensing software in the field of
 computational chemistry and represents and warrants to the
 licensee that it is not a competitor of Gaussian, Inc. and that
 it will not use this program in any manner prohibited above.
 ---------------------------------------------------------------
  

 Cite this work as:
 Gaussian 16, Revision A.03,
 M. J. Frisch, G. W. Trucks, H. B. Schlegel, G. E. Scuseria, 
 M. A. Robb, J. R. Cheeseman, G. Scalmani, V. Barone, 
 G. A. Petersson, H. Nakatsuji, X. Li, M. Caricato, A. V. Marenich, 
 J. Bloino, B. G. Janesko, R. Gomperts, B. Mennucci, H. P. Hratchian, 
 J. V. Ortiz, A. F. Izmaylov, J. L. Sonnenberg, D. Williams-Young, 
 F. Ding, F. Lipparini, F. Egidi, J. Goings, B. Peng, A. Petrone, 
 T. Henderson, D. Ranasinghe, V. G. Zakrzewski, J. Gao, N. Rega, 
 G. Zheng, W. Liang, M. Hada, M. Ehara, K. Toyota, R. Fukuda, 
 J. Hasegawa, M. Ishida, T. Nakajima, Y. Honda, O. Kitao, H. Nakai, 
 T. Vreven, K. Throssell, J. A. Montgomery, Jr., J. E. Peralta, 
 F. Ogliaro, M. J. Bearpark, J. J. Heyd, E. N. Brothers, K. N. Kudin, 
 V. N. Staroverov, T. A. Keith, R. Kobayashi, J. Normand, 
 K. Raghavachari, A. P. Rendell, J. C. Burant, S. S. Iyengar, 
 J. Tomasi, M. Cossi, J. M. Millam, M. Klene, C. Adamo, R. Cammi, 
 J. W. Ochterski, R. L. Martin, K. Morokuma, O. Farkas, 
 J. B. Foresman, and D. J. Fox, Gaussian, Inc., Wallingford CT, 2016.
 
 ******************************************
 Gaussian 16:  EM64L-G16RevA.03 25-Dec-2016
                17-Sep-2021 
 ******************************************
 %chk=02-IsoP_013_gaussian.chk
 %nproc=1
 Will use up to    1 processors via shared memory.
 %mem=4000Mb
 ---------------------
 #p opt mp2/6-31g(d,p)
 ---------------------
 1/18=20,19=15,38=1/1,3;
 2/9=110,12=2,17=6,18=5,40=1/2;
 3/5=1,6=6,7=101,11=9,25=1,30=1,71=1/1,2,3;
 4//1;
 5/5=2,38=5/2;
 8/6=4,10=2/1;
 9/15=2,16=-3/6;
 10/5=1/2;
 6/7=2,8=2,9=2,10=2/1;
 7/12=2/1,2,3,16;
 1/18=20,19=15/3(2);
 2/9=110/2;
 99//99;
 2/9=110/2;
 3/5=1,6=6,7=101,11=9,25=1,30=1,71=1/1,2,3;
 4/5=5,16=3,69=1/1;
 5/5=2,38=5/2;
 8/6=4,10=2/1;
 9/15=2,16=-3/6;
 10/5=1/2;
 7/12=2/1,2,3,16;
 1/18=20,19=15/3(-8);
 2/9=110/2;
 6/7=2,8=2,9=2,10=2/1;
 99//99;
 Leave Link    1 at Fri Sep 17 20:09:26 2021, MaxMem=   524288000 cpu:               0.0 elap:               0.1
 (Enter /opt/gaussian/g16_legacy/l101.exe)
 -------------------------------------------------
 Conformer number 013. Energy MM = 27.094 kcal/mol
 -------------------------------------------------
 Symbolic Z-matrix:
 Charge =  0 Multiplicity = 1
 C                     2.1728    1.1747   -8.953 
 H                     1.8987    0.151    -9.2399 
 H                     2.0179    1.7765   -9.8582 
 C                     3.6427    1.2179   -8.5732 
 C                     4.2136   -0.0436   -7.9811 
 H                     4.9356    0.1692   -7.1871 
 H                     3.4366   -0.6684   -7.532 
 H                     4.7007   -0.6369   -8.7614 
 C                     4.3805    2.3225   -8.8051 
 H                     3.8933    3.1912   -9.2483 
 C                     5.8404    2.5069   -8.5309 
 H                     6.3216    1.6183   -8.1168 
 H                     6.3585    2.7621   -9.4603 
 H                     5.9817    3.3298   -7.8241 
 C                     1.4737    0.5657   -4.1279 
 H                     1.6955   -0.4713   -4.4042 
 H                     2.3201    0.9353   -3.5395 
 H                     0.5821    0.5628   -3.494 
 C                     1.2631    1.4436   -5.3336 
 C                     1.0555    2.9      -5.0288 
 H                     0.4567    3.4006   -5.795 
 H                     0.5108    3.0221   -4.0856 
 H                     2.0182    3.4136   -4.9384 
 C                     1.2672    0.9237   -6.5752 
 H                     1.3614   -0.1535   -6.6868 
 C                     1.2056    1.6932   -7.8715 
 H                     0.1833    1.6205   -8.2615 
 H                     1.4099    2.7586   -7.7092 
 
 ITRead=  0  0  0  0  0  0  0  0  0  0  0  0  0  0  0  0  0  0  0  0
 ITRead=  0  0  0  0  0  0  0  0
 MicOpt= -1 -1 -1 -1 -1 -1 -1 -1 -1 -1 -1 -1 -1 -1 -1 -1 -1 -1 -1 -1
 MicOpt= -1 -1 -1 -1 -1 -1 -1 -1
 NAtoms=     28 NQM=       28 NQMF=       0 NMMI=      0 NMMIF=      0
                NMic=       0 NMicF=      0.
                    Isotopes and Nuclear Properties:
 (Nuclear quadrupole moments (NQMom) in fm**2, nuclear magnetic moments (NMagM)
  in nuclear magnetons)

  Atom         1           2           3           4           5           6           7           8           9          10
 IAtWgt=          12           1           1          12          12           1           1           1          12           1
 AtmWgt=  12.0000000   1.0078250   1.0078250  12.0000000  12.0000000   1.0078250   1.0078250   1.0078250  12.0000000   1.0078250
 NucSpn=           0           1           1           0           0           1           1           1           0           1
 AtZEff=  -0.0000000  -0.0000000  -0.0000000  -0.0000000  -0.0000000  -0.0000000  -0.0000000  -0.0000000  -0.0000000  -0.0000000
 NQMom=    0.0000000   0.0000000   0.0000000   0.0000000   0.0000000   0.0000000   0.0000000   0.0000000   0.0000000   0.0000000
 NMagM=    0.0000000   2.7928460   2.7928460   0.0000000   0.0000000   2.7928460   2.7928460   2.7928460   0.0000000   2.7928460
 AtZNuc=   6.0000000   1.0000000   1.0000000   6.0000000   6.0000000   1.0000000   1.0000000   1.0000000   6.0000000   1.0000000

  Atom        11          12          13          14          15          16          17          18          19          20
 IAtWgt=          12           1           1           1          12           1           1           1          12          12
 AtmWgt=  12.0000000   1.0078250   1.0078250   1.0078250  12.0000000   1.0078250   1.0078250   1.0078250  12.0000000  12.0000000
 NucSpn=           0           1           1           1           0           1           1           1           0           0
 AtZEff=  -0.0000000  -0.0000000  -0.0000000  -0.0000000  -0.0000000  -0.0000000  -0.0000000  -0.0000000  -0.0000000  -0.0000000
 NQMom=    0.0000000   0.0000000   0.0000000   0.0000000   0.0000000   0.0000000   0.0000000   0.0000000   0.0000000   0.0000000
 NMagM=    0.0000000   2.7928460   2.7928460   2.7928460   0.0000000   2.7928460   2.7928460   2.7928460   0.0000000   0.0000000
 AtZNuc=   6.0000000   1.0000000   1.0000000   1.0000000   6.0000000   1.0000000   1.0000000   1.0000000   6.0000000   6.0000000

  Atom        21          22          23          24          25          26          27          28
 IAtWgt=           1           1           1          12           1          12           1           1
 AtmWgt=   1.0078250   1.0078250   1.0078250  12.0000000   1.0078250  12.0000000   1.0078250   1.0078250
 NucSpn=           1           1           1           0           1           0           1           1
 AtZEff=  -0.0000000  -0.0000000  -0.0000000  -0.0000000  -0.0000000  -0.0000000  -0.0000000  -0.0000000
 NQMom=    0.0000000   0.0000000   0.0000000   0.0000000   0.0000000   0.0000000   0.0000000   0.0000000
 NMagM=    2.7928460   2.7928460   2.7928460   0.0000000   2.7928460   0.0000000   2.7928460   2.7928460
 AtZNuc=   1.0000000   1.0000000   1.0000000   6.0000000   1.0000000   6.0000000   1.0000000   1.0000000
 Leave Link  101 at Fri Sep 17 20:09:26 2021, MaxMem=   524288000 cpu:               0.3 elap:               0.3
 (Enter /opt/gaussian/g16_legacy/l103.exe)

 GradGradGradGradGradGradGradGradGradGradGradGradGradGradGradGradGradGrad
 Berny optimization.
 Initialization pass.
                           ----------------------------
                           !    Initial Parameters    !
                           ! (Angstroms and Degrees)  !
 --------------------------                            --------------------------
 ! Name  Definition              Value          Derivative Info.                !
 --------------------------------------------------------------------------------
 ! R1    R(1,2)                  1.0979         estimate D2E/DX2                !
 ! R2    R(1,3)                  1.098          estimate D2E/DX2                !
 ! R3    R(1,4)                  1.5188         estimate D2E/DX2                !
 ! R4    R(1,26)                 1.5408         estimate D2E/DX2                !
 ! R5    R(4,5)                  1.506          estimate D2E/DX2                !
 ! R6    R(4,9)                  1.3484         estimate D2E/DX2                !
 ! R7    R(5,6)                  1.0941         estimate D2E/DX2                !
 ! R8    R(5,7)                  1.0935         estimate D2E/DX2                !
 ! R9    R(5,8)                  1.0946         estimate D2E/DX2                !
 ! R10   R(9,10)                 1.0902         estimate D2E/DX2                !
 ! R11   R(9,11)                 1.4968         estimate D2E/DX2                !
 ! R12   R(11,12)                1.0921         estimate D2E/DX2                !
 ! R13   R(11,13)                1.0942         estimate D2E/DX2                !
 ! R14   R(11,14)                1.0939         estimate D2E/DX2                !
 ! R15   R(15,16)                1.0959         estimate D2E/DX2                !
 ! R16   R(15,17)                1.0951         estimate D2E/DX2                !
 ! R17   R(15,18)                1.094          estimate D2E/DX2                !
 ! R18   R(15,19)                1.5062         estimate D2E/DX2                !
 ! R19   R(19,20)                1.5024         estimate D2E/DX2                !
 ! R20   R(19,24)                1.3461         estimate D2E/DX2                !
 ! R21   R(20,21)                1.0937         estimate D2E/DX2                !
 ! R22   R(20,22)                1.096          estimate D2E/DX2                !
 ! R23   R(20,23)                1.0949         estimate D2E/DX2                !
 ! R24   R(24,25)                1.0871         estimate D2E/DX2                !
 ! R25   R(24,26)                1.5087         estimate D2E/DX2                !
 ! R26   R(26,27)                1.0966         estimate D2E/DX2                !
 ! R27   R(26,28)                1.0969         estimate D2E/DX2                !
 ! A1    A(2,1,3)              105.0937         estimate D2E/DX2                !
 ! A2    A(2,1,4)              109.4806         estimate D2E/DX2                !
 ! A3    A(2,1,26)             109.9061         estimate D2E/DX2                !
 ! A4    A(3,1,4)              109.0934         estimate D2E/DX2                !
 ! A5    A(3,1,26)             107.799          estimate D2E/DX2                !
 ! A6    A(4,1,26)             114.9883         estimate D2E/DX2                !
 ! A7    A(1,4,5)              116.1924         estimate D2E/DX2                !
 ! A8    A(1,4,9)              120.6529         estimate D2E/DX2                !
 ! A9    A(5,4,9)              123.1201         estimate D2E/DX2                !
 ! A10   A(4,5,6)              111.8747         estimate D2E/DX2                !
 ! A11   A(4,5,7)              111.7603         estimate D2E/DX2                !
 ! A12   A(4,5,8)              110.027          estimate D2E/DX2                !
 ! A13   A(6,5,7)              106.3787         estimate D2E/DX2                !
 ! A14   A(6,5,8)              109.2144         estimate D2E/DX2                !
 ! A15   A(7,5,8)              107.4137         estimate D2E/DX2                !
 ! A16   A(4,9,10)             118.5651         estimate D2E/DX2                !
 ! A17   A(4,9,11)             127.09           estimate D2E/DX2                !
 ! A18   A(10,9,11)            114.3425         estimate D2E/DX2                !
 ! A19   A(9,11,12)            113.5143         estimate D2E/DX2                !
 ! A20   A(9,11,13)            109.569          estimate D2E/DX2                !
 ! A21   A(9,11,14)            109.6948         estimate D2E/DX2                !
 ! A22   A(12,11,13)           107.6502         estimate D2E/DX2                !
 ! A23   A(12,11,14)           108.0694         estimate D2E/DX2                !
 ! A24   A(13,11,14)           108.1908         estimate D2E/DX2                !
 ! A25   A(16,15,17)           107.3626         estimate D2E/DX2                !
 ! A26   A(16,15,18)           107.9715         estimate D2E/DX2                !
 ! A27   A(16,15,19)           112.2106         estimate D2E/DX2                !
 ! A28   A(17,15,18)           108.6314         estimate D2E/DX2                !
 ! A29   A(17,15,19)           109.9654         estimate D2E/DX2                !
 ! A30   A(18,15,19)           110.5741         estimate D2E/DX2                !
 ! A31   A(15,19,20)           114.9565         estimate D2E/DX2                !
 ! A32   A(15,19,24)           120.8509         estimate D2E/DX2                !
 ! A33   A(20,19,24)           124.1926         estimate D2E/DX2                !
 ! A34   A(19,20,21)           112.162          estimate D2E/DX2                !
 ! A35   A(19,20,22)           110.5647         estimate D2E/DX2                !
 ! A36   A(19,20,23)           110.4869         estimate D2E/DX2                !
 ! A37   A(21,20,22)           106.2476         estimate D2E/DX2                !
 ! A38   A(21,20,23)           108.9372         estimate D2E/DX2                !
 ! A39   A(22,20,23)           108.2808         estimate D2E/DX2                !
 ! A40   A(19,24,25)           118.535          estimate D2E/DX2                !
 ! A41   A(19,24,26)           126.5409         estimate D2E/DX2                !
 ! A42   A(25,24,26)           114.8809         estimate D2E/DX2                !
 ! A43   A(1,26,24)            113.9426         estimate D2E/DX2                !
 ! A44   A(1,26,27)            108.2563         estimate D2E/DX2                !
 ! A45   A(1,26,28)            108.2885         estimate D2E/DX2                !
 ! A46   A(24,26,27)           108.0485         estimate D2E/DX2                !
 ! A47   A(24,26,28)           111.1402         estimate D2E/DX2                !
 ! A48   A(27,26,28)           106.8973         estimate D2E/DX2                !
 ! D1    D(2,1,4,5)            -30.2357         estimate D2E/DX2                !
 ! D2    D(2,1,4,9)            147.6885         estimate D2E/DX2                !
 ! D3    D(3,1,4,5)           -144.7385         estimate D2E/DX2                !
 ! D4    D(3,1,4,9)             33.1857         estimate D2E/DX2                !
 ! D5    D(26,1,4,5)            94.0495         estimate D2E/DX2                !
 ! D6    D(26,1,4,9)           -88.0263         estimate D2E/DX2                !
 ! D7    D(2,1,26,24)           63.8291         estimate D2E/DX2                !
 ! D8    D(2,1,26,27)          -56.3982         estimate D2E/DX2                !
 ! D9    D(2,1,26,28)         -171.9525         estimate D2E/DX2                !
 ! D10   D(3,1,26,24)          177.8533         estimate D2E/DX2                !
 ! D11   D(3,1,26,27)           57.626          estimate D2E/DX2                !
 ! D12   D(3,1,26,28)          -57.9283         estimate D2E/DX2                !
 ! D13   D(4,1,26,24)          -60.2318         estimate D2E/DX2                !
 ! D14   D(4,1,26,27)          179.5409         estimate D2E/DX2                !
 ! D15   D(4,1,26,28)           63.9866         estimate D2E/DX2                !
 ! D16   D(1,4,5,6)           -142.5682         estimate D2E/DX2                !
 ! D17   D(1,4,5,7)            -23.396          estimate D2E/DX2                !
 ! D18   D(1,4,5,8)             95.844          estimate D2E/DX2                !
 ! D19   D(9,4,5,6)             39.564          estimate D2E/DX2                !
 ! D20   D(9,4,5,7)            158.7362         estimate D2E/DX2                !
 ! D21   D(9,4,5,8)            -82.0238         estimate D2E/DX2                !
 ! D22   D(1,4,9,10)             1.4721         estimate D2E/DX2                !
 ! D23   D(1,4,9,11)          -177.9269         estimate D2E/DX2                !
 ! D24   D(5,4,9,10)           179.248          estimate D2E/DX2                !
 ! D25   D(5,4,9,11)            -0.1509         estimate D2E/DX2                !
 ! D26   D(4,9,11,12)            1.2612         estimate D2E/DX2                !
 ! D27   D(4,9,11,13)          121.6325         estimate D2E/DX2                !
 ! D28   D(4,9,11,14)         -119.7377         estimate D2E/DX2                !
 ! D29   D(10,9,11,12)        -178.1594         estimate D2E/DX2                !
 ! D30   D(10,9,11,13)         -57.7881         estimate D2E/DX2                !
 ! D31   D(10,9,11,14)          60.8416         estimate D2E/DX2                !
 ! D32   D(16,15,19,20)       -175.6719         estimate D2E/DX2                !
 ! D33   D(16,15,19,24)          4.3444         estimate D2E/DX2                !
 ! D34   D(17,15,19,20)        -56.2472         estimate D2E/DX2                !
 ! D35   D(17,15,19,24)        123.769          estimate D2E/DX2                !
 ! D36   D(18,15,19,20)         63.7149         estimate D2E/DX2                !
 ! D37   D(18,15,19,24)       -116.2688         estimate D2E/DX2                !
 ! D38   D(15,19,20,21)       -152.5208         estimate D2E/DX2                !
 ! D39   D(15,19,20,22)        -34.1298         estimate D2E/DX2                !
 ! D40   D(15,19,20,23)         85.7259         estimate D2E/DX2                !
 ! D41   D(24,19,20,21)         27.4624         estimate D2E/DX2                !
 ! D42   D(24,19,20,22)        145.8533         estimate D2E/DX2                !
 ! D43   D(24,19,20,23)        -94.291          estimate D2E/DX2                !
 ! D44   D(15,19,24,25)          3.9133         estimate D2E/DX2                !
 ! D45   D(15,19,24,26)       -173.5636         estimate D2E/DX2                !
 ! D46   D(20,19,24,25)       -176.0688         estimate D2E/DX2                !
 ! D47   D(20,19,24,26)          6.4542         estimate D2E/DX2                !
 ! D48   D(19,24,26,1)         137.0782         estimate D2E/DX2                !
 ! D49   D(19,24,26,27)       -102.5779         estimate D2E/DX2                !
 ! D50   D(19,24,26,28)         14.4071         estimate D2E/DX2                !
 ! D51   D(25,24,26,1)         -40.4786         estimate D2E/DX2                !
 ! D52   D(25,24,26,27)         79.8654         estimate D2E/DX2                !
 ! D53   D(25,24,26,28)       -163.1496         estimate D2E/DX2                !
 --------------------------------------------------------------------------------
 Trust Radius=3.00D-01 FncErr=1.00D-07 GrdErr=1.00D-07 EigMax=2.50D+02 EigMin=1.00D-04
 Number of steps in this run=    138 maximum allowed number of steps=    168.
 GradGradGradGradGradGradGradGradGradGradGradGradGradGradGradGradGradGrad

 Leave Link  103 at Fri Sep 17 20:09:26 2021, MaxMem=   524288000 cpu:               0.1 elap:               0.1
 (Enter /opt/gaussian/g16_legacy/l202.exe)
                          Input orientation:                          
 ---------------------------------------------------------------------
 Center     Atomic      Atomic             Coordinates (Angstroms)
 Number     Number       Type             X           Y           Z
 ---------------------------------------------------------------------
      1          6           0        2.172800    1.174700   -8.953000
      2          1           0        1.898700    0.151000   -9.239900
      3          1           0        2.017900    1.776500   -9.858200
      4          6           0        3.642700    1.217900   -8.573200
      5          6           0        4.213600   -0.043600   -7.981100
      6          1           0        4.935600    0.169200   -7.187100
      7          1           0        3.436600   -0.668400   -7.532000
      8          1           0        4.700700   -0.636900   -8.761400
      9          6           0        4.380500    2.322500   -8.805100
     10          1           0        3.893300    3.191200   -9.248300
     11          6           0        5.840400    2.506900   -8.530900
     12          1           0        6.321600    1.618300   -8.116800
     13          1           0        6.358500    2.762100   -9.460300
     14          1           0        5.981700    3.329800   -7.824100
     15          6           0        1.473700    0.565700   -4.127900
     16          1           0        1.695500   -0.471300   -4.404200
     17          1           0        2.320100    0.935300   -3.539500
     18          1           0        0.582100    0.562800   -3.494000
     19          6           0        1.263100    1.443600   -5.333600
     20          6           0        1.055500    2.900000   -5.028800
     21          1           0        0.456700    3.400600   -5.795000
     22          1           0        0.510800    3.022100   -4.085600
     23          1           0        2.018200    3.413600   -4.938400
     24          6           0        1.267200    0.923700   -6.575200
     25          1           0        1.361400   -0.153500   -6.686800
     26          6           0        1.205600    1.693200   -7.871500
     27          1           0        0.183300    1.620500   -8.261500
     28          1           0        1.409900    2.758600   -7.709200
 ---------------------------------------------------------------------
                    Distance matrix (angstroms):
                    1          2          3          4          5
     1  C    0.000000
     2  H    1.097909   0.000000
     3  H    1.097973   1.743202   0.000000
     4  C    1.518789   2.150419   2.145515   0.000000
     5  C    2.567822   2.642198   3.414289   1.505952   0.000000
     6  H    3.429650   3.665662   4.269796   2.166249   1.094077
     7  H    2.648292   2.439974   3.660799   2.164417   1.093524
     8  H    3.115908   2.949738   3.771589   2.143611   1.094596
     9  C    2.492641   3.326228   2.643674   1.348432   2.511028
    10  H    2.667132   3.636113   2.427031   2.100589   3.488885
    11  C    3.924820   4.646498   4.111778   2.548175   3.074705
    12  H    4.255415   4.793367   4.645356   2.746839   2.687748
    13  H    4.505250   5.172643   4.468841   3.247625   3.828914
    14  H    4.519579   5.364713   4.718264   3.239166   3.811910
    15  C    4.913371   5.146372   5.882051   4.989050   4.767122
    16  H    4.860937   4.879810   5.907848   4.901586   4.395221
    17  H    5.420793   5.769512   6.381607   5.212223   4.926601
    18  H    5.718866   5.909178   6.636086   5.966129   5.804273
    19  C    3.741646   4.163410   4.599190   4.025971   4.233966
    20  C    4.429940   5.099152   5.050898   4.699557   5.230148
    21  H    4.227599   4.950414   4.645927   4.757433   5.545795
    22  H    5.465045   6.061047   6.094734   5.762160   6.187420
    23  H    4.599303   5.400161   5.185029   4.546633   5.101964
    24  C    2.556765   2.845432   3.474033   3.117941   3.404922
    25  H    2.749209   2.626734   3.770102   3.262449   3.134061
    26  C    1.540766   2.175152   2.147963   2.580261   3.475133
    27  H    2.152910   2.461563   2.437118   3.496669   4.369344
    28  H    2.153554   3.062931   2.439751   2.847042   3.973284
                    6          7          8          9         10
     6  H    0.000000
     7  H    1.751437   0.000000
     8  H    1.784207   1.763623   0.000000
     9  C    2.750047   3.384851   2.976993   0.000000
    10  H    3.803606   4.248620   3.942501   1.090151   0.000000
    11  C    2.844170   4.105921   3.351943   1.496829   2.184978
    12  H    2.210255   3.727494   2.851097   2.176585   3.106597
    13  H    3.730310   4.901446   3.845772   2.129558   2.511231
    14  H    3.389615   4.748522   4.272494   2.130928   2.531594
    15  C    4.636881   4.118723   5.773136   5.780314   6.242292
    16  H    4.318914   3.585165   5.295644   5.863656   6.458292
    17  H    4.553321   4.445051   5.950404   5.822037   6.336753
    18  H    5.722488   5.096025   6.793206   6.762556   7.140343
    19  C    4.306601   3.744010   5.281608   4.747837   5.029606
    20  C    5.212552   4.966802   6.303130   5.064541   5.093337
    21  H    5.695650   5.334204   6.566009   5.061542   4.876407
    22  H    6.110417   5.835903   7.266818   6.143102   6.174413
    23  H    4.908565   5.039975   6.182045   4.660722   4.705391
    24  C    3.794845   2.855967   4.359342   4.076976   4.379888
    25  H    3.623443   2.299117   3.960879   4.442154   4.915162
    26  C    4.087038   3.266462   4.293834   3.368622   3.370951
    27  H    5.083794   4.044156   5.074708   4.290081   4.147888
    28  H    4.405467   3.985378   4.844162   3.196192   2.953514
                   11         12         13         14         15
    11  C    0.000000
    12  H    1.092082   0.000000
    13  H    1.094230   1.764832   0.000000
    14  H    1.093936   1.769304   1.772403   0.000000
    15  C    6.497902   6.365644   7.557773   6.451683   0.000000
    16  H    6.563499   6.288929   7.600171   6.672000   1.095859
    17  H    6.306862   6.118020   7.396063   6.123622   1.095085
    18  H    7.536551   7.444879   8.590719   7.453974   1.093978
    19  C    5.683750   5.776257   6.688138   5.659110   1.506245
    20  C    5.942600   6.237813   6.912237   5.680306   2.536823
    21  H    6.104758   6.554724   6.976629   5.886245   3.442408
    22  H    6.959221   7.210175   7.946735   6.633386   2.638724
    23  H    5.323286   5.643100   6.301606   4.903429   3.010635
    24  C    5.219717   5.329724   6.133910   5.438343   2.481952
    25  H    5.526289   5.457816   6.415920   5.896949   2.660419
    26  C    4.751662   5.122425   5.497200   5.048944   3.918887
    27  H    5.732457   6.140006   6.393236   6.060897   4.456948
    28  H    4.513078   5.058776   5.249286   4.608777   4.199832
                   16         17         18         19         20
    16  H    0.000000
    17  H    1.765320   0.000000
    18  H    1.771295   1.778052   0.000000
    19  C    2.172003   2.143458   2.150279   0.000000
    20  C    3.487892   2.770789   2.835881   1.502365   0.000000
    21  H    4.296575   3.825865   3.655603   2.166338   1.093720
    22  H    3.702548   2.815409   2.530461   2.148283   1.096008
    23  H    3.934711   2.861824   3.503675   2.146453   1.094874
    24  C    2.615857   3.213130   3.177012   1.346062   2.518319
    25  H    2.328708   3.465557   3.363683   2.095601   3.488037
    26  C    4.116702   4.536821   4.563887   2.550793   3.091899
    27  H    4.641243   5.228068   4.899676   3.125678   3.584439
    28  H    4.629994   4.641044   4.824386   2.719237   2.707423
                   21         22         23         24         25
    21  H    0.000000
    22  H    1.751638   0.000000
    23  H    1.781071   1.775611   0.000000
    24  C    2.720415   3.342683   3.072900   0.000000
    25  H    3.774310   4.192159   4.026474   1.087055   0.000000
    26  C    2.790684   4.072071   3.496165   1.508747   2.199566
    27  H    3.054034   4.416999   4.198221   2.122258   2.648523
    28  H    2.232693   3.742765   2.911423   2.161753   3.086743
                   26         27         28
    26  C    0.000000
    27  H    1.096578   0.000000
    28  H    1.096885   1.762060   0.000000
 Stoichiometry    C10H18
 Framework group  C1[X(C10H18)]
 Deg. of freedom    78
 Full point group                 C1      NOp   1
 Largest Abelian subgroup         C1      NOp   1
 Largest concise Abelian subgroup C1      NOp   1
                         Standard orientation:                         
 ---------------------------------------------------------------------
 Center     Atomic      Atomic             Coordinates (Angstroms)
 Number     Number       Type             X           Y           Z
 ---------------------------------------------------------------------
      1          6           0       -0.944058    1.656849    0.062335
      2          1           0       -0.918928    2.219268    1.004916
      3          1           0       -1.514756    2.287665   -0.631869
      4          6           0       -1.688363    0.349678    0.272178
      5          6           0       -1.603740   -0.249439    1.651232
      6          1           0       -1.539203   -1.341110    1.618143
      7          1           0       -0.716624    0.095727    2.189451
      8          1           0       -2.478677    0.041995    2.240884
      9          6           0       -2.411650   -0.197448   -0.725707
     10          1           0       -2.430457    0.305977   -1.692474
     11          6           0       -3.231061   -1.448627   -0.665573
     12          1           0       -3.228266   -1.924477    0.317382
     13          1           0       -4.270194   -1.218773   -0.919954
     14          1           0       -2.853196   -2.172148   -1.393880
     15          6           0        3.044473   -1.063370    0.975153
     16          1           0        2.734891   -0.856500    2.005818
     17          1           0        2.868201   -2.127921    0.788414
     18          1           0        4.118290   -0.868409    0.899674
     19          6           0        2.284109   -0.232904   -0.025320
     20          6           0        2.587014   -0.539661   -1.464504
     21          1           0        2.427715    0.326310   -2.113304
     22          1           0        3.638827   -0.823409   -1.584540
     23          1           0        1.965188   -1.368253   -1.818790
     24          6           0        1.407428    0.704665    0.379990
     25          1           0        1.306529    0.895254    1.445440
     26          6           0        0.483193    1.510251   -0.499292
     27          1           0        0.911856    2.513021   -0.614108
     28          1           0        0.414736    1.075819   -1.504150
 ---------------------------------------------------------------------
 Rotational constants (GHZ):           1.8142883           0.6371515           0.6187829
 Leave Link  202 at Fri Sep 17 20:09:26 2021, MaxMem=   524288000 cpu:               0.0 elap:               0.0
 (Enter /opt/gaussian/g16_legacy/l301.exe)
 Standard basis: 6-31G(d,p) (6D, 7F)
 Ernie: Thresh=  0.10000D-02 Tol=  0.10000D-05 Strict=F.
 There are   240 symmetry adapted cartesian basis functions of A   symmetry.
 There are   240 symmetry adapted basis functions of A   symmetry.
   240 basis functions,   406 primitive gaussians,   240 cartesian basis functions
    39 alpha electrons       39 beta electrons
       nuclear repulsion energy       524.1257094621 Hartrees.
 IExCor=    0 DFT=F Ex=HF Corr=None ExCW=0 ScaHFX=  1.000000
 ScaDFX=  1.000000  1.000000  1.000000  1.000000 ScalE2=  1.000000  1.000000
 IRadAn=      5 IRanWt=     -1 IRanGd=            0 ICorTp=0 IEmpDi=  4
 NAtoms=   28 NActive=   28 NUniq=   28 SFac= 1.00D+00 NAtFMM=   60 NAOKFM=F Big=F
 Integral buffers will be    131072 words long.
 Raffenetti 1 integral format.
 Two-electron integral symmetry is turned on.
 Leave Link  301 at Fri Sep 17 20:09:26 2021, MaxMem=   524288000 cpu:               0.1 elap:               0.1
 (Enter /opt/gaussian/g16_legacy/l302.exe)
 NPDir=0 NMtPBC=     1 NCelOv=     1 NCel=       1 NClECP=     1 NCelD=      1
         NCelK=      1 NCelE2=     1 NClLst=     1 CellRange=     0.0.
 One-electron integrals computed using PRISM.
 One-electron integral symmetry used in STVInt
 NBasis=   240 RedAO= T EigKep=  2.05D-03  NBF=   240
 NBsUse=   240 1.00D-06 EigRej= -1.00D+00 NBFU=   240
 Leave Link  302 at Fri Sep 17 20:09:27 2021, MaxMem=   524288000 cpu:               0.3 elap:               0.3
 (Enter /opt/gaussian/g16_legacy/l303.exe)
 DipDrv:  MaxL=1.
 Leave Link  303 at Fri Sep 17 20:09:27 2021, MaxMem=   524288000 cpu:               0.1 elap:               0.3
 (Enter /opt/gaussian/g16_legacy/l401.exe)
 ExpMin= 1.61D-01 ExpMax= 3.05D+03 ExpMxC= 4.57D+02 IAcc=3 IRadAn=         5 AccDes= 0.00D+00
 Harris functional with IExCor=  205 and IRadAn=       5 diagonalized for initial guess.
 HarFok:  IExCor=  205 AccDes= 0.00D+00 IRadAn=         5 IDoV= 1 UseB2=F ITyADJ=14
 ICtDFT=  3500011 ScaDFX=  1.000000  1.000000  1.000000  1.000000
 FoFCou: FMM=F IPFlag=           0 FMFlag=      100000 FMFlg1=           0
         NFxFlg=           0 DoJE=T BraDBF=F KetDBF=T FulRan=T
         wScrn=  0.000000 ICntrl=       500 IOpCl=  0 I1Cent=   200000004 NGrid=           0
         NMat0=    1 NMatS0=      1 NMatT0=    0 NMatD0=    1 NMtDS0=    0 NMtDT0=    0
 Petite list used in FoFCou.
 Harris En= -390.106870027594    
 JPrj=0 DoOrth=F DoCkMO=F.
 Leave Link  401 at Fri Sep 17 20:09:38 2021, MaxMem=   524288000 cpu:              11.3 elap:              11.6
 (Enter /opt/gaussian/g16_legacy/l502.exe)
 Keep R1 ints in memory in canonical form, NReq=425198025.
 FoFCou: FMM=F IPFlag=           0 FMFlag=           0 FMFlg1=           0
         NFxFlg=           0 DoJE=F BraDBF=F KetDBF=F FulRan=T
         wScrn=  0.000000 ICntrl=       600 IOpCl=  0 I1Cent=           0 NGrid=           0
         NMat0=    1 NMatS0=  28920 NMatT0=    0 NMatD0=    1 NMtDS0=    0 NMtDT0=    0
 Symmetry not used in FoFCou.
 Two-electron integral symmetry not used.
 Closed shell SCF:
 Using DIIS extrapolation, IDIIS=  1040.
 NGot=   524288000 LenX=   105970886 LenY=   105912845
 Requested convergence on RMS density matrix=1.00D-08 within 128 cycles.
 Requested convergence on MAX density matrix=1.00D-06.
 Requested convergence on             energy=1.00D-06.
 No special actions if energy rises.

 Cycle   1  Pass 1  IDiag  1:
 E= -388.523634192651    
 DIIS: error= 5.62D-02 at cycle   1 NSaved=   1.
 NSaved= 1 IEnMin= 1 EnMin= -388.523634192651     IErMin= 1 ErrMin= 5.62D-02
 ErrMax= 5.62D-02  0.00D+00 EMaxC= 1.00D-01 BMatC= 8.11D-01 BMatP= 8.11D-01
 IDIUse=3 WtCom= 4.38D-01 WtEn= 5.62D-01
 Coeff-Com:  0.100D+01
 Coeff-En:   0.100D+01
 Coeff:      0.100D+01
 Gap=     0.509 Goal=   None    Shift=    0.000
 GapD=    0.509 DampG=2.000 DampE=0.500 DampFc=1.0000 IDamp=-1.
 RMSDP=4.05D-03 MaxDP=1.16D-01              OVMax= 1.38D-01

 Cycle   2  Pass 1  IDiag  1:
 E= -389.062421724070     Delta-E=       -0.538787531419 Rises=F Damp=F
 DIIS: error= 1.38D-02 at cycle   2 NSaved=   2.
 NSaved= 2 IEnMin= 2 EnMin= -389.062421724070     IErMin= 2 ErrMin= 1.38D-02
 ErrMax= 1.38D-02  0.00D+00 EMaxC= 1.00D-01 BMatC= 9.21D-02 BMatP= 8.11D-01
 IDIUse=3 WtCom= 8.62D-01 WtEn= 1.38D-01
 Coeff-Com:  0.189D+00 0.811D+00
 Coeff-En:   0.000D+00 0.100D+01
 Coeff:      0.163D+00 0.837D+00
 Gap=     0.553 Goal=   None    Shift=    0.000
 RMSDP=1.78D-03 MaxDP=3.10D-02 DE=-5.39D-01 OVMax= 4.66D-02

 Cycle   3  Pass 1  IDiag  1:
 E= -389.145204551466     Delta-E=       -0.082782827395 Rises=F Damp=F
 DIIS: error= 3.00D-03 at cycle   3 NSaved=   3.
 NSaved= 3 IEnMin= 3 EnMin= -389.145204551466     IErMin= 3 ErrMin= 3.00D-03
 ErrMax= 3.00D-03  0.00D+00 EMaxC= 1.00D-01 BMatC= 3.66D-03 BMatP= 9.21D-02
 IDIUse=3 WtCom= 9.70D-01 WtEn= 3.00D-02
 Coeff-Com: -0.232D-01 0.114D+00 0.909D+00
 Coeff-En:   0.000D+00 0.000D+00 0.100D+01
 Coeff:     -0.225D-01 0.110D+00 0.912D+00
 Gap=     0.494 Goal=   None    Shift=    0.000
 RMSDP=2.88D-04 MaxDP=7.10D-03 DE=-8.28D-02 OVMax= 1.12D-02

 Cycle   4  Pass 1  IDiag  1:
 E= -389.149318636853     Delta-E=       -0.004114085388 Rises=F Damp=F
 DIIS: error= 5.24D-04 at cycle   4 NSaved=   4.
 NSaved= 4 IEnMin= 4 EnMin= -389.149318636853     IErMin= 4 ErrMin= 5.24D-04
 ErrMax= 5.24D-04  0.00D+00 EMaxC= 1.00D-01 BMatC= 1.44D-04 BMatP= 3.66D-03
 IDIUse=3 WtCom= 9.95D-01 WtEn= 5.24D-03
 Coeff-Com: -0.634D-02 0.522D-02 0.159D+00 0.842D+00
 Coeff-En:   0.000D+00 0.000D+00 0.000D+00 0.100D+01
 Coeff:     -0.631D-02 0.519D-02 0.158D+00 0.843D+00
 Gap=     0.494 Goal=   None    Shift=    0.000
 RMSDP=8.66D-05 MaxDP=2.08D-03 DE=-4.11D-03 OVMax= 4.22D-03

 Cycle   5  Pass 1  IDiag  1:
 E= -389.149487929842     Delta-E=       -0.000169292989 Rises=F Damp=F
 DIIS: error= 2.07D-04 at cycle   5 NSaved=   5.
 NSaved= 5 IEnMin= 5 EnMin= -389.149487929842     IErMin= 5 ErrMin= 2.07D-04
 ErrMax= 2.07D-04  0.00D+00 EMaxC= 1.00D-01 BMatC= 2.01D-05 BMatP= 1.44D-04
 IDIUse=3 WtCom= 9.98D-01 WtEn= 2.07D-03
 Coeff-Com:  0.182D-02-0.141D-01-0.839D-01 0.146D+00 0.950D+00
 Coeff-En:   0.000D+00 0.000D+00 0.000D+00 0.000D+00 0.100D+01
 Coeff:      0.182D-02-0.140D-01-0.838D-01 0.146D+00 0.950D+00
 Gap=     0.495 Goal=   None    Shift=    0.000
 RMSDP=3.35D-05 MaxDP=8.16D-04 DE=-1.69D-04 OVMax= 1.29D-03

 Cycle   6  Pass 1  IDiag  1:
 E= -389.149515577557     Delta-E=       -0.000027647715 Rises=F Damp=F
 DIIS: error= 4.35D-05 at cycle   6 NSaved=   6.
 NSaved= 6 IEnMin= 6 EnMin= -389.149515577557     IErMin= 6 ErrMin= 4.35D-05
 ErrMax= 4.35D-05  0.00D+00 EMaxC= 1.00D-01 BMatC= 1.07D-06 BMatP= 2.01D-05
 IDIUse=1 WtCom= 1.00D+00 WtEn= 0.00D+00
 Coeff-Com:  0.860D-03-0.391D-02-0.303D-01-0.249D-01 0.199D+00 0.860D+00
 Coeff:      0.860D-03-0.391D-02-0.303D-01-0.249D-01 0.199D+00 0.860D+00
 Gap=     0.495 Goal=   None    Shift=    0.000
 RMSDP=7.66D-06 MaxDP=1.75D-04 DE=-2.76D-05 OVMax= 4.02D-04

 Cycle   7  Pass 1  IDiag  1:
 E= -389.149517096978     Delta-E=       -0.000001519420 Rises=F Damp=F
 DIIS: error= 9.66D-06 at cycle   7 NSaved=   7.
 NSaved= 7 IEnMin= 7 EnMin= -389.149517096978     IErMin= 7 ErrMin= 9.66D-06
 ErrMax= 9.66D-06  0.00D+00 EMaxC= 1.00D-01 BMatC= 4.74D-08 BMatP= 1.07D-06
 IDIUse=1 WtCom= 1.00D+00 WtEn= 0.00D+00
 Coeff-Com:  0.347D-04 0.559D-04-0.130D-03-0.824D-02-0.222D-01 0.110D+00
 Coeff-Com:  0.921D+00
 Coeff:      0.347D-04 0.559D-04-0.130D-03-0.824D-02-0.222D-01 0.110D+00
 Coeff:      0.921D+00
 Gap=     0.495 Goal=   None    Shift=    0.000
 RMSDP=1.73D-06 MaxDP=4.27D-05 DE=-1.52D-06 OVMax= 1.26D-04

 Cycle   8  Pass 1  IDiag  1:
 E= -389.149517185157     Delta-E=       -0.000000088179 Rises=F Damp=F
 DIIS: error= 3.85D-06 at cycle   8 NSaved=   8.
 NSaved= 8 IEnMin= 8 EnMin= -389.149517185157     IErMin= 8 ErrMin= 3.85D-06
 ErrMax= 3.85D-06  0.00D+00 EMaxC= 1.00D-01 BMatC= 8.29D-09 BMatP= 4.74D-08
 IDIUse=1 WtCom= 1.00D+00 WtEn= 0.00D+00
 Coeff-Com: -0.784D-04 0.379D-03 0.300D-02 0.252D-02-0.252D-01-0.733D-01
 Coeff-Com:  0.127D+00 0.966D+00
 Coeff:     -0.784D-04 0.379D-03 0.300D-02 0.252D-02-0.252D-01-0.733D-01
 Coeff:      0.127D+00 0.966D+00
 Gap=     0.495 Goal=   None    Shift=    0.000
 RMSDP=7.50D-07 MaxDP=1.89D-05 DE=-8.82D-08 OVMax= 3.94D-05

 Cycle   9  Pass 1  IDiag  1:
 E= -389.149517200968     Delta-E=       -0.000000015812 Rises=F Damp=F
 DIIS: error= 1.80D-06 at cycle   9 NSaved=   9.
 NSaved= 9 IEnMin= 9 EnMin= -389.149517200968     IErMin= 9 ErrMin= 1.80D-06
 ErrMax= 1.80D-06  0.00D+00 EMaxC= 1.00D-01 BMatC= 9.04D-10 BMatP= 8.29D-09
 IDIUse=1 WtCom= 1.00D+00 WtEn= 0.00D+00
 Coeff-Com: -0.127D-04 0.321D-04 0.329D-03 0.182D-02-0.114D-02-0.201D-01
 Coeff-Com: -0.801D-01 0.196D-01 0.108D+01
 Coeff:     -0.127D-04 0.321D-04 0.329D-03 0.182D-02-0.114D-02-0.201D-01
 Coeff:     -0.801D-01 0.196D-01 0.108D+01
 Gap=     0.495 Goal=   None    Shift=    0.000
 RMSDP=3.12D-07 MaxDP=1.08D-05 DE=-1.58D-08 OVMax= 3.37D-05

 Cycle  10  Pass 1  IDiag  1:
 E= -389.149517204203     Delta-E=       -0.000000003235 Rises=F Damp=F
 DIIS: error= 6.54D-07 at cycle  10 NSaved=  10.
 NSaved=10 IEnMin=10 EnMin= -389.149517204203     IErMin=10 ErrMin= 6.54D-07
 ErrMax= 6.54D-07  0.00D+00 EMaxC= 1.00D-01 BMatC= 2.52D-10 BMatP= 9.04D-10
 IDIUse=1 WtCom= 1.00D+00 WtEn= 0.00D+00
 Coeff-Com:  0.123D-04-0.624D-04-0.494D-03-0.185D-03 0.341D-02 0.129D-01
 Coeff-Com: -0.942D-02-0.220D+00 0.816D-01 0.113D+01
 Coeff:      0.123D-04-0.624D-04-0.494D-03-0.185D-03 0.341D-02 0.129D-01
 Coeff:     -0.942D-02-0.220D+00 0.816D-01 0.113D+01
 Gap=     0.495 Goal=   None    Shift=    0.000
 RMSDP=1.70D-07 MaxDP=4.89D-06 DE=-3.23D-09 OVMax= 1.31D-05

 Cycle  11  Pass 1  IDiag  1:
 E= -389.149517204848     Delta-E=       -0.000000000645 Rises=F Damp=F
 DIIS: error= 1.59D-07 at cycle  11 NSaved=  11.
 NSaved=11 IEnMin=11 EnMin= -389.149517204848     IErMin=11 ErrMin= 1.59D-07
 ErrMax= 1.59D-07  0.00D+00 EMaxC= 1.00D-01 BMatC= 1.43D-11 BMatP= 2.52D-10
 IDIUse=1 WtCom= 1.00D+00 WtEn= 0.00D+00
 Coeff-Com:  0.199D-05-0.645D-05-0.578D-04-0.172D-03 0.412D-04 0.308D-02
 Coeff-Com:  0.127D-01-0.198D-01-0.946D-01-0.703D-02 0.111D+01
 Coeff:      0.199D-05-0.645D-05-0.578D-04-0.172D-03 0.412D-04 0.308D-02
 Coeff:      0.127D-01-0.198D-01-0.946D-01-0.703D-02 0.111D+01
 Gap=     0.495 Goal=   None    Shift=    0.000
 RMSDP=4.54D-08 MaxDP=1.42D-06 DE=-6.45D-10 OVMax= 4.18D-06

 Cycle  12  Pass 1  IDiag  1:
 E= -389.149517204920     Delta-E=       -0.000000000072 Rises=F Damp=F
 DIIS: error= 4.12D-08 at cycle  12 NSaved=  12.
 NSaved=12 IEnMin=12 EnMin= -389.149517204920     IErMin=12 ErrMin= 4.12D-08
 ErrMax= 4.12D-08  0.00D+00 EMaxC= 1.00D-01 BMatC= 1.23D-12 BMatP= 1.43D-11
 IDIUse=1 WtCom= 1.00D+00 WtEn= 0.00D+00
 Coeff-Com: -0.114D-05 0.581D-05 0.463D-04 0.358D-04-0.349D-03-0.128D-02
 Coeff-Com:  0.490D-03 0.185D-01 0.255D-02-0.117D+00-0.519D-01 0.115D+01
 Coeff:     -0.114D-05 0.581D-05 0.463D-04 0.358D-04-0.349D-03-0.128D-02
 Coeff:      0.490D-03 0.185D-01 0.255D-02-0.117D+00-0.519D-01 0.115D+01
 Gap=     0.495 Goal=   None    Shift=    0.000
 RMSDP=1.39D-08 MaxDP=3.64D-07 DE=-7.19D-11 OVMax= 1.01D-06

 Cycle  13  Pass 1  IDiag  1:
 E= -389.149517204903     Delta-E=        0.000000000017 Rises=F Damp=F
 DIIS: error= 9.21D-09 at cycle  13 NSaved=  13.
 NSaved=13 IEnMin=12 EnMin= -389.149517204920     IErMin=13 ErrMin= 9.21D-09
 ErrMax= 9.21D-09  0.00D+00 EMaxC= 1.00D-01 BMatC= 5.25D-14 BMatP= 1.23D-12
 IDIUse=1 WtCom= 1.00D+00 WtEn= 0.00D+00
 Coeff-Com: -0.176D-06 0.736D-06 0.601D-05 0.144D-04-0.301D-04-0.243D-03
 Coeff-Com: -0.695D-03 0.211D-02 0.676D-02-0.688D-02-0.673D-01 0.815D-01
 Coeff-Com:  0.985D+00
 Coeff:     -0.176D-06 0.736D-06 0.601D-05 0.144D-04-0.301D-04-0.243D-03
 Coeff:     -0.695D-03 0.211D-02 0.676D-02-0.688D-02-0.673D-01 0.815D-01
 Coeff:      0.985D+00
 Gap=     0.495 Goal=   None    Shift=    0.000
 RMSDP=2.16D-09 MaxDP=4.72D-08 DE= 1.71D-11 OVMax= 1.12D-07

 SCF Done:  E(RHF) =  -389.149517205     A.U. after   13 cycles
            NFock= 13  Conv=0.22D-08     -V/T= 2.0014
 KE= 3.886142485944D+02 PE=-1.953000267251D+03 EE= 6.511107919891D+02
 Leave Link  502 at Fri Sep 17 20:10:21 2021, MaxMem=   524288000 cpu:              41.7 elap:              42.3
 (Enter /opt/gaussian/g16_legacy/l801.exe)
 ExpMin= 1.61D-01 ExpMax= 3.05D+03 ExpMxC= 4.57D+02 IAcc=3 IRadAn=         5 AccDes= 0.00D+00
 HarFok:  IExCor=  205 AccDes= 0.00D+00 IRadAn=         5 IDoV=-2 UseB2=F ITyADJ=14
 ICtDFT= 12500011 ScaDFX=  1.000000  1.000000  1.000000  1.000000
 Largest valence mixing into a core orbital is  1.98D-04
 Largest core mixing into a valence orbital is  3.53D-05
 Range of M.O.s used for correlation:    11   240
 NBasis=   240 NAE=    39 NBE=    39 NFC=    10 NFV=     0
 NROrb=    230 NOA=    29 NOB=    29 NVA=   201 NVB=   201
 Leave Link  801 at Fri Sep 17 20:10:23 2021, MaxMem=   524288000 cpu:               1.8 elap:               1.8
 (Enter /opt/gaussian/g16_legacy/l906.exe)
 Frozen-core derivative calculation, NFC=  10 NFV=   0.
 FulOut=F Deriv=T AODrv=T NAtomX=    28
   MMem=          87  MDisk=          29 MDiskD=          29
  W3Min=     2246400 MinDsk=     2795480 NBas6D=         240
 NBas2D=       29244    NTT=       28920    LW2=     2040000
    MDV=   523623292 MDiskM=       30186 NBas2p=       24741
 Fully direct method using O(ONN) memory.
 IMap=   1   2   3   4   5   6   7   8   9  10  11  12  13  14  15  16  17  18  19  20
 IMap=  21  22  23  24  25  26  27  28  29  30  31  32  33  34  35  36  37  38  39
 JobTyp=1 Pass  1:  I=  11 to  39 NPSUse=  1 ParTrn=F ParDer=F DoDerP=T.
 Spin components of T(2) and E(2):
     alpha-alpha T2 =       0.5721449853D-01 E2=     -0.1639197356D+00
     alpha-beta  T2 =       0.3624897072D+00 E2=     -0.1090294300D+01
     beta-beta   T2 =       0.5721449853D-01 E2=     -0.1639197356D+00
 The integrals were generated   1 times.
 ANorm=    0.1215285441D+01
 E2 =    -0.1418133772D+01 EUMP2 =    -0.39056765097659D+03
 Leave Link  906 at Fri Sep 17 20:15:24 2021, MaxMem=   524288000 cpu:             300.9 elap:             301.3
 (Enter /opt/gaussian/g16_legacy/l1002.exe)
 Minotr:  Closed shell wavefunction.
          Computing MP2/KS-MP2 derivatives.
          Using Z-Vector for PSCF gradient.
          Skipping F1 and S1 gradient terms here.
          IDoAtm=1111111111111111111111111111
          Frozen-core window.
          Direct CPHF calculation.
          Differentiating once with respect to electric field.
                with respect to dipole field.
          Differentiating once with respect to nuclear coordinates.
          Requested convergence is 1.0D-10 RMS, and 1.0D-09 maximum.
          NewPWx=F KeepS1=T KeepF1=T KeepIn=T MapXYZ=F SortEE=F KeepMc=T.
 Keep R1 ints in memory in canonical form, NReq=425201067.
 FoFCou: FMM=F IPFlag=           0 FMFlag=           0 FMFlg1=           0
         NFxFlg=           0 DoJE=F BraDBF=F KetDBF=F FulRan=T
         wScrn=  0.000000 ICntrl=       600 IOpCl=  0 I1Cent=           0 NGrid=           0
         NMat0=    1 NMatS0=  28920 NMatT0=    0 NMatD0=    1 NMtDS0=    0 NMtDT0=    0
 Symmetry not used in FoFCou.
 Two-electron integral symmetry not used.
          MDV=     524288000 using IRadAn=       5.
          Solving linear equations separately, MaxMat=       0.
          There are     1 degrees of freedom in the 1st order CPHF.  IDoFFX=0 NUNeed=     1.
 LinEq1:  Iter=  0 NonCon=     1 RMS=2.53D-03 Max=3.77D-02 NDo=     1
 AX will form     1 AO Fock derivatives at one time.
 LinEq1:  Iter=  1 NonCon=     1 RMS=6.96D-04 Max=1.08D-02 NDo=     1
 LinEq1:  Iter=  2 NonCon=     1 RMS=1.74D-04 Max=4.55D-03 NDo=     1
 LinEq1:  Iter=  3 NonCon=     1 RMS=4.66D-05 Max=7.39D-04 NDo=     1
 LinEq1:  Iter=  4 NonCon=     1 RMS=2.22D-05 Max=9.10D-04 NDo=     1
 LinEq1:  Iter=  5 NonCon=     1 RMS=6.24D-06 Max=1.24D-04 NDo=     1
 LinEq1:  Iter=  6 NonCon=     1 RMS=1.99D-06 Max=6.13D-05 NDo=     1
 LinEq1:  Iter=  7 NonCon=     1 RMS=6.54D-07 Max=1.74D-05 NDo=     1
 LinEq1:  Iter=  8 NonCon=     1 RMS=2.17D-07 Max=4.04D-06 NDo=     1
 LinEq1:  Iter=  9 NonCon=     1 RMS=5.95D-08 Max=9.16D-07 NDo=     1
 LinEq1:  Iter= 10 NonCon=     1 RMS=1.62D-08 Max=2.60D-07 NDo=     1
 LinEq1:  Iter= 11 NonCon=     1 RMS=4.53D-09 Max=6.88D-08 NDo=     1
 LinEq1:  Iter= 12 NonCon=     1 RMS=1.18D-09 Max=1.59D-08 NDo=     1
 LinEq1:  Iter= 13 NonCon=     1 RMS=3.43D-10 Max=5.52D-09 NDo=     1
 LinEq1:  Iter= 14 NonCon=     0 RMS=8.90D-11 Max=8.36D-10 NDo=     1
 Linear equations converged to 1.000D-10 1.000D-09 after    14 iterations.
 End of Minotr F.D. properties file   721 does not exist.
 End of Minotr F.D. properties file   722 does not exist.
 End of Minotr F.D. properties file   788 does not exist.
 Leave Link 1002 at Fri Sep 17 20:16:01 2021, MaxMem=   524288000 cpu:              36.8 elap:              36.8
 (Enter /opt/gaussian/g16_legacy/l601.exe)
 Copying SCF densities to generalized density rwf, IOpCl= 0 IROHF=0.

 **********************************************************************

            Population analysis using the SCF density.

 **********************************************************************

 Orbital symmetries:
       Occupied  (A) (A) (A) (A) (A) (A) (A) (A) (A) (A) (A) (A)
                 (A) (A) (A) (A) (A) (A) (A) (A) (A) (A) (A) (A)
                 (A) (A) (A) (A) (A) (A) (A) (A) (A) (A) (A) (A)
                 (A) (A) (A)
       Virtual   (A) (A) (A) (A) (A) (A) (A) (A) (A) (A) (A) (A)
                 (A) (A) (A) (A) (A) (A) (A) (A) (A) (A) (A) (A)
                 (A) (A) (A) (A) (A) (A) (A) (A) (A) (A) (A) (A)
                 (A) (A) (A) (A) (A) (A) (A) (A) (A) (A) (A) (A)
                 (A) (A) (A) (A) (A) (A) (A) (A) (A) (A) (A) (A)
                 (A) (A) (A) (A) (A) (A) (A) (A) (A) (A) (A) (A)
                 (A) (A) (A) (A) (A) (A) (A) (A) (A) (A) (A) (A)
                 (A) (A) (A) (A) (A) (A) (A) (A) (A) (A) (A) (A)
                 (A) (A) (A) (A) (A) (A) (A) (A) (A) (A) (A) (A)
                 (A) (A) (A) (A) (A) (A) (A) (A) (A) (A) (A) (A)
                 (A) (A) (A) (A) (A) (A) (A) (A) (A) (A) (A) (A)
                 (A) (A) (A) (A) (A) (A) (A) (A) (A) (A) (A) (A)
                 (A) (A) (A) (A) (A) (A) (A) (A) (A) (A) (A) (A)
                 (A) (A) (A) (A) (A) (A) (A) (A) (A) (A) (A) (A)
                 (A) (A) (A) (A) (A) (A) (A) (A) (A) (A) (A) (A)
                 (A) (A) (A) (A) (A) (A) (A) (A) (A) (A) (A) (A)
                 (A) (A) (A) (A) (A) (A) (A) (A) (A)
 The electronic state is 1-A.
 Alpha  occ. eigenvalues --  -11.22766 -11.22433 -11.21957 -11.21892 -11.21621
 Alpha  occ. eigenvalues --  -11.21551 -11.21369 -11.21284 -11.21276 -11.21182
 Alpha  occ. eigenvalues --   -1.10388  -1.08067  -1.01883  -0.97073  -0.93488
 Alpha  occ. eigenvalues --   -0.92285  -0.87309  -0.81544  -0.70569  -0.69340
 Alpha  occ. eigenvalues --   -0.62961  -0.62346  -0.59789  -0.58741  -0.57598
 Alpha  occ. eigenvalues --   -0.57362  -0.55229  -0.54430  -0.53673  -0.52776
 Alpha  occ. eigenvalues --   -0.52277  -0.51275  -0.49691  -0.48733  -0.47867
 Alpha  occ. eigenvalues --   -0.45902  -0.44231  -0.32501  -0.31564
 Alpha virt. eigenvalues --    0.17903   0.19483   0.23143   0.25003   0.25798
 Alpha virt. eigenvalues --    0.26831   0.28549   0.29376   0.30350   0.30757
 Alpha virt. eigenvalues --    0.31957   0.32666   0.32825   0.33614   0.34061
 Alpha virt. eigenvalues --    0.35146   0.35259   0.36510   0.37220   0.40152
 Alpha virt. eigenvalues --    0.41122   0.41616   0.43066   0.44184   0.47290
 Alpha virt. eigenvalues --    0.51676   0.53268   0.58575   0.62303   0.69955
 Alpha virt. eigenvalues --    0.70891   0.72059   0.72900   0.74043   0.77344
 Alpha virt. eigenvalues --    0.78833   0.79259   0.80841   0.81586   0.83368
 Alpha virt. eigenvalues --    0.84573   0.87106   0.87654   0.91050   0.92065
 Alpha virt. eigenvalues --    0.93811   0.94352   0.95255   0.98801   0.99061
 Alpha virt. eigenvalues --    1.02194   1.02553   1.03255   1.05194   1.06158
 Alpha virt. eigenvalues --    1.07748   1.08171   1.09887   1.11350   1.13108
 Alpha virt. eigenvalues --    1.13661   1.14304   1.14353   1.15002   1.15200
 Alpha virt. eigenvalues --    1.16585   1.17454   1.18035   1.18232   1.19136
 Alpha virt. eigenvalues --    1.22009   1.22440   1.22678   1.23873   1.25788
 Alpha virt. eigenvalues --    1.27046   1.29846   1.41641   1.42938   1.45898
 Alpha virt. eigenvalues --    1.48888   1.50486   1.53934   1.56802   1.58571
 Alpha virt. eigenvalues --    1.62538   1.67038   1.68761   1.69736   1.71407
 Alpha virt. eigenvalues --    1.73677   1.79589   1.90370   1.91206   1.95126
 Alpha virt. eigenvalues --    1.98349   2.01041   2.02524   2.06410   2.06736
 Alpha virt. eigenvalues --    2.09363   2.10295   2.10620   2.12846   2.15029
 Alpha virt. eigenvalues --    2.18455   2.19848   2.21100   2.24867   2.28860
 Alpha virt. eigenvalues --    2.30158   2.31637   2.32441   2.35389   2.35775
 Alpha virt. eigenvalues --    2.36192   2.36757   2.38151   2.39956   2.40529
 Alpha virt. eigenvalues --    2.41967   2.42075   2.43390   2.44444   2.46275
 Alpha virt. eigenvalues --    2.47839   2.48612   2.49401   2.51099   2.53161
 Alpha virt. eigenvalues --    2.56544   2.57270   2.60725   2.61416   2.64268
 Alpha virt. eigenvalues --    2.65964   2.69178   2.70170   2.71661   2.72888
 Alpha virt. eigenvalues --    2.76172   2.76714   2.80281   2.84218   2.85323
 Alpha virt. eigenvalues --    2.87190   2.88346   2.89993   2.91605   2.93553
 Alpha virt. eigenvalues --    2.94711   2.98849   3.00475   3.01653   3.03729
 Alpha virt. eigenvalues --    3.05216   3.07236   3.10252   3.10677   3.15377
 Alpha virt. eigenvalues --    3.17012   3.18489   3.19364   3.20325   3.21588
 Alpha virt. eigenvalues --    3.22258   3.24567   3.25918   3.26759   3.37575
 Alpha virt. eigenvalues --    3.39229   3.43892   3.45754   3.55579   3.56527
 Alpha virt. eigenvalues --    3.60668   3.62129   3.66516   3.69641   3.78811
 Alpha virt. eigenvalues --    3.79672   3.80880   3.81511   3.81980   3.82853
 Alpha virt. eigenvalues --    3.84408   3.85584   3.86172   3.88947   3.92467
 Alpha virt. eigenvalues --    3.94376   4.57891   4.61813   4.74569   4.85179
 Alpha virt. eigenvalues --    4.88706   4.91460   4.92322   5.04948   5.11674
 Alpha virt. eigenvalues --    5.16208
          Condensed to atoms (all electrons):
               1          2          3          4          5          6
     1  C    4.983993   0.411854   0.415424   0.334877  -0.049324   0.003386
     2  H    0.411854   0.601310  -0.031785  -0.048738  -0.004341   0.000150
     3  H    0.415424  -0.031785   0.580690  -0.042724   0.003660  -0.000113
     4  C    0.334877  -0.048738  -0.042724   4.966254   0.338587  -0.039092
     5  C   -0.049324  -0.004341   0.003660   0.338587   4.913869   0.404946
     6  H    0.003386   0.000150  -0.000113  -0.039092   0.404946   0.570308
     7  H   -0.004343  -0.000763   0.000175  -0.041008   0.407826  -0.029520
     8  H    0.000452   0.000917  -0.000174  -0.040765   0.396519  -0.026630
     9  C   -0.050057   0.002726  -0.004449   0.693173  -0.053670  -0.003805
    10  H   -0.005224   0.000094   0.001850  -0.038695   0.003339  -0.000012
    11  C    0.002899  -0.000090   0.000054  -0.049599  -0.006922  -0.001851
    12  H    0.000119  -0.000001   0.000003  -0.000942  -0.001513  -0.001170
    13  H   -0.000105   0.000007   0.000010  -0.000638   0.000225  -0.000106
    14  H   -0.000090  -0.000001  -0.000012  -0.000097   0.000269   0.000329
    15  C   -0.000062  -0.000001   0.000001  -0.000029   0.000014   0.000000
    16  H   -0.000010   0.000000   0.000000  -0.000001   0.000001   0.000003
    17  H    0.000012   0.000000  -0.000000  -0.000002   0.000002  -0.000001
    18  H   -0.000003  -0.000000   0.000000   0.000000  -0.000000   0.000000
    19  C    0.000328   0.000014  -0.000058   0.000592   0.000054   0.000049
    20  C    0.000142  -0.000006   0.000005  -0.000064  -0.000004   0.000000
    21  H   -0.000026  -0.000003   0.000007   0.000004   0.000000   0.000000
    22  H   -0.000008   0.000000   0.000000   0.000001   0.000000   0.000000
    23  H    0.000066   0.000001  -0.000002   0.000026  -0.000003  -0.000002
    24  C   -0.054901  -0.004091   0.004727  -0.001217  -0.001689   0.000180
    25  H   -0.002570   0.002197  -0.000052   0.000081  -0.001433   0.000078
    26  C    0.345559  -0.041255  -0.040603  -0.055088   0.000447  -0.000097
    27  H   -0.047391  -0.003023  -0.003007   0.005987  -0.000132   0.000004
    28  H   -0.038915   0.004666  -0.003819  -0.002799   0.000001   0.000005
               7          8          9         10         11         12
     1  C   -0.004343   0.000452  -0.050057  -0.005224   0.002899   0.000119
     2  H   -0.000763   0.000917   0.002726   0.000094  -0.000090  -0.000001
     3  H    0.000175  -0.000174  -0.004449   0.001850   0.000054   0.000003
     4  C   -0.041008  -0.040765   0.693173  -0.038695  -0.049599  -0.000942
     5  C    0.407826   0.396519  -0.053670   0.003339  -0.006922  -0.001513
     6  H   -0.029520  -0.026630  -0.003805  -0.000012  -0.001851  -0.001170
     7  H    0.581780  -0.031259   0.002904  -0.000104   0.000156   0.000025
     8  H   -0.031259   0.580260  -0.004582  -0.000119   0.000702  -0.000288
     9  C    0.002904  -0.004582   4.950081   0.404470   0.342363  -0.041384
    10  H   -0.000104  -0.000119   0.404470   0.562266  -0.042570   0.003320
    11  C    0.000156   0.000702   0.342363  -0.042570   4.898271   0.408397
    12  H    0.000025  -0.000288  -0.041384   0.003320   0.408397   0.572372
    13  H   -0.000010   0.000216  -0.043854  -0.001507   0.402674  -0.028872
    14  H    0.000007  -0.000084  -0.044306  -0.001214   0.399815  -0.028130
    15  C   -0.000002  -0.000000  -0.000000  -0.000000   0.000000  -0.000000
    16  H    0.000112  -0.000000   0.000000  -0.000000   0.000000  -0.000000
    17  H   -0.000010  -0.000000   0.000000   0.000000   0.000000   0.000000
    18  H    0.000001   0.000000  -0.000000  -0.000000  -0.000000  -0.000000
    19  C    0.000339   0.000008  -0.000039  -0.000005  -0.000002  -0.000001
    20  C    0.000004  -0.000000  -0.000033   0.000001   0.000000   0.000000
    21  H    0.000000   0.000000  -0.000007  -0.000001   0.000000  -0.000000
    22  H    0.000000   0.000000   0.000000  -0.000000  -0.000000  -0.000000
    23  H   -0.000003  -0.000000   0.000056   0.000002  -0.000000   0.000000
    24  C   -0.000235   0.000172  -0.000252   0.000027  -0.000006  -0.000001
    25  H   -0.000623   0.000034   0.000018   0.000001  -0.000000   0.000000
    26  C   -0.000092  -0.000044  -0.004154   0.000185  -0.000066  -0.000004
    27  H   -0.000025   0.000007  -0.000011  -0.000031   0.000001   0.000000
    28  H   -0.000040   0.000004   0.002813   0.000479  -0.000045   0.000001
              13         14         15         16         17         18
     1  C   -0.000105  -0.000090  -0.000062  -0.000010   0.000012  -0.000003
     2  H    0.000007  -0.000001  -0.000001   0.000000   0.000000  -0.000000
     3  H    0.000010  -0.000012   0.000001   0.000000  -0.000000   0.000000
     4  C   -0.000638  -0.000097  -0.000029  -0.000001  -0.000002   0.000000
     5  C    0.000225   0.000269   0.000014   0.000001   0.000002  -0.000000
     6  H   -0.000106   0.000329   0.000000   0.000003  -0.000001   0.000000
     7  H   -0.000010   0.000007  -0.000002   0.000112  -0.000010   0.000001
     8  H    0.000216  -0.000084  -0.000000  -0.000000  -0.000000   0.000000
     9  C   -0.043854  -0.044306  -0.000000   0.000000   0.000000  -0.000000
    10  H   -0.001507  -0.001214  -0.000000  -0.000000   0.000000  -0.000000
    11  C    0.402674   0.399815   0.000000   0.000000   0.000000  -0.000000
    12  H   -0.028872  -0.028130  -0.000000  -0.000000   0.000000  -0.000000
    13  H    0.586414  -0.033710  -0.000000  -0.000000  -0.000000  -0.000000
    14  H   -0.033710   0.588962   0.000000   0.000000   0.000000   0.000000
    15  C   -0.000000   0.000000   4.897683   0.405162   0.402819   0.394741
    16  H   -0.000000   0.000000   0.405162   0.573148  -0.028763  -0.027019
    17  H   -0.000000   0.000000   0.402819  -0.028763   0.591925  -0.034642
    18  H   -0.000000   0.000000   0.394741  -0.027019  -0.034642   0.594337
    19  C    0.000000   0.000000   0.351755  -0.041502  -0.046958  -0.042953
    20  C   -0.000000   0.000001  -0.060517   0.003800  -0.000939  -0.002003
    21  H   -0.000000   0.000000   0.003468  -0.000117   0.000007  -0.000061
    22  H    0.000000  -0.000000  -0.005104   0.000134  -0.000581   0.002318
    23  H    0.000000  -0.000001   0.000518  -0.000143   0.001491  -0.000194
    24  C   -0.000000  -0.000000  -0.044446  -0.002292  -0.001187  -0.000593
    25  H    0.000000  -0.000000  -0.006487   0.002006   0.000133   0.000238
    26  C   -0.000005   0.000025   0.003181   0.000145  -0.000072  -0.000133
    27  H    0.000000  -0.000000  -0.000136  -0.000005  -0.000005   0.000025
    28  H    0.000002  -0.000007   0.000111   0.000004   0.000007  -0.000007
              19         20         21         22         23         24
     1  C    0.000328   0.000142  -0.000026  -0.000008   0.000066  -0.054901
     2  H    0.000014  -0.000006  -0.000003   0.000000   0.000001  -0.004091
     3  H   -0.000058   0.000005   0.000007   0.000000  -0.000002   0.004727
     4  C    0.000592  -0.000064   0.000004   0.000001   0.000026  -0.001217
     5  C    0.000054  -0.000004   0.000000   0.000000  -0.000003  -0.001689
     6  H    0.000049   0.000000   0.000000   0.000000  -0.000002   0.000180
     7  H    0.000339   0.000004   0.000000   0.000000  -0.000003  -0.000235
     8  H    0.000008  -0.000000   0.000000   0.000000  -0.000000   0.000172
     9  C   -0.000039  -0.000033  -0.000007   0.000000   0.000056  -0.000252
    10  H   -0.000005   0.000001  -0.000001  -0.000000   0.000002   0.000027
    11  C   -0.000002   0.000000   0.000000  -0.000000  -0.000000  -0.000006
    12  H   -0.000001   0.000000  -0.000000  -0.000000   0.000000  -0.000001
    13  H    0.000000  -0.000000  -0.000000   0.000000   0.000000  -0.000000
    14  H    0.000000   0.000001   0.000000  -0.000000  -0.000001  -0.000000
    15  C    0.351755  -0.060517   0.003468  -0.005104   0.000518  -0.044446
    16  H   -0.041502   0.003800  -0.000117   0.000134  -0.000143  -0.002292
    17  H   -0.046958  -0.000939   0.000007  -0.000581   0.001491  -0.001187
    18  H   -0.042953  -0.002003  -0.000061   0.002318  -0.000194  -0.000593
    19  C    4.930206   0.340485  -0.037603  -0.043427  -0.040855   0.701031
    20  C    0.340485   4.920325   0.406856   0.406116   0.395948  -0.048732
    21  H   -0.037603   0.406856   0.566688  -0.030750  -0.025859  -0.003607
    22  H   -0.043427   0.406116  -0.030750   0.583542  -0.030699   0.002396
    23  H   -0.040855   0.395948  -0.025859  -0.030699   0.573112  -0.003065
    24  C    0.701031  -0.048732  -0.003607   0.002396  -0.003065   4.952517
    25  H   -0.034449   0.003323   0.000039  -0.000108  -0.000112   0.402220
    26  C   -0.049390  -0.007156  -0.001842   0.000118   0.000653   0.344178
    27  H   -0.002973   0.000544   0.000447   0.000034  -0.000102  -0.047780
    28  H   -0.001286  -0.002374  -0.001773   0.000013   0.000388  -0.044335
              25         26         27         28
     1  C   -0.002570   0.345559  -0.047391  -0.038915
     2  H    0.002197  -0.041255  -0.003023   0.004666
     3  H   -0.000052  -0.040603  -0.003007  -0.003819
     4  C    0.000081  -0.055088   0.005987  -0.002799
     5  C   -0.001433   0.000447  -0.000132   0.000001
     6  H    0.000078  -0.000097   0.000004   0.000005
     7  H   -0.000623  -0.000092  -0.000025  -0.000040
     8  H    0.000034  -0.000044   0.000007   0.000004
     9  C    0.000018  -0.004154  -0.000011   0.002813
    10  H    0.000001   0.000185  -0.000031   0.000479
    11  C   -0.000000  -0.000066   0.000001  -0.000045
    12  H    0.000000  -0.000004   0.000000   0.000001
    13  H    0.000000  -0.000005   0.000000   0.000002
    14  H   -0.000000   0.000025  -0.000000  -0.000007
    15  C   -0.006487   0.003181  -0.000136   0.000111
    16  H    0.002006   0.000145  -0.000005   0.000004
    17  H    0.000133  -0.000072  -0.000005   0.000007
    18  H    0.000238  -0.000133   0.000025  -0.000007
    19  C   -0.034449  -0.049390  -0.002973  -0.001286
    20  C    0.003323  -0.007156   0.000544  -0.002374
    21  H    0.000039  -0.001842   0.000447  -0.001773
    22  H   -0.000108   0.000118   0.000034   0.000013
    23  H   -0.000112   0.000653  -0.000102   0.000388
    24  C    0.402220   0.344178  -0.047780  -0.044335
    25  H    0.562237  -0.044496   0.000925   0.003323
    26  C   -0.044496   4.953421   0.404556   0.411595
    27  H    0.000925   0.404556   0.604767  -0.028892
    28  H    0.003323   0.411595  -0.028892   0.581833
 Mulliken charges:
               1
     1  C   -0.246081
     2  H    0.110162
     3  H    0.120193
     4  C    0.021918
     5  C   -0.350730
     6  H    0.122961
     7  H    0.114707
     8  H    0.124656
     9  C   -0.148000
    10  H    0.113451
    11  C   -0.354180
    12  H    0.118067
    13  H    0.119258
    14  H    0.118246
    15  C   -0.342669
    16  H    0.115337
    17  H    0.116763
    18  H    0.115947
    19  C    0.016639
    20  C   -0.355724
    21  H    0.124134
    22  H    0.116003
    23  H    0.128780
    24  C   -0.149017
    25  H    0.113478
    26  C   -0.219566
    27  H    0.116218
    28  H    0.119049
 Sum of Mulliken charges =  -0.00000
 Mulliken charges with hydrogens summed into heavy atoms:
               1
     1  C   -0.015726
     4  C    0.021918
     5  C    0.011594
     9  C   -0.034549
    11  C    0.001392
    15  C    0.005378
    19  C    0.016639
    20  C    0.013194
    24  C   -0.035539
    26  C    0.015700
 Electronic spatial extent (au):  <R**2>=           2171.3541
 Charge=             -0.0000 electrons
 Dipole moment (field-independent basis, Debye):
    X=              0.1691    Y=             -0.1730    Z=             -0.0463  Tot=              0.2463
 Quadrupole moment (field-independent basis, Debye-Ang):
   XX=            -65.9414   YY=            -65.1250   ZZ=            -63.6161
   XY=             -0.5185   XZ=             -0.2078   YZ=              0.0126
 Traceless Quadrupole moment (field-independent basis, Debye-Ang):
   XX=             -1.0473   YY=             -0.2308   ZZ=              1.2780
   XY=             -0.5185   XZ=             -0.2078   YZ=              0.0126
 Octapole moment (field-independent basis, Debye-Ang**2):
  XXX=              4.6340  YYY=             -1.0250  ZZZ=              0.0458  XYY=             -0.6429
  XXY=             -6.7026  XXZ=             -3.2687  XZZ=             -1.5347  YZZ=              1.5884
  YYZ=             -0.5664  XYZ=              0.6177
 Hexadecapole moment (field-independent basis, Debye-Ang**3):
 XXXX=          -2012.4639 YYYY=           -534.9301 ZZZZ=           -477.8724 XXXY=             -5.2655
 XXXZ=             -3.8400 YYYX=             -1.0128 YYYZ=             -0.9820 ZZZX=              4.7357
 ZZZY=              0.9199 XXYY=           -437.2124 XXZZ=           -411.4336 YYZZ=           -168.1087
 XXYZ=             -1.4810 YYXZ=             -2.2353 ZZXY=              0.7763
 N-N= 5.241257094621D+02 E-N=-1.953000266742D+03  KE= 3.886142485944D+02
 No NMR shielding tensors so no spin-rotation constants.
 Leave Link  601 at Fri Sep 17 20:16:01 2021, MaxMem=   524288000 cpu:               0.3 elap:               0.3
 (Enter /opt/gaussian/g16_legacy/l701.exe)
 ... and contract with generalized density number  2.
 Compute integral first derivatives.
 Leave Link  701 at Fri Sep 17 20:16:01 2021, MaxMem=   524288000 cpu:               0.3 elap:               0.3
 (Enter /opt/gaussian/g16_legacy/l702.exe)
 L702 exits ... SP integral derivatives will be done elsewhere.
 Leave Link  702 at Fri Sep 17 20:16:02 2021, MaxMem=   524288000 cpu:               0.0 elap:               0.0
 (Enter /opt/gaussian/g16_legacy/l703.exe)
 Integral derivatives from FoFJK, PRISM(SPDF).
 Compute integral first derivatives, UseDBF=F ICtDFT=           0.
 Calling FoFJK, ICntrl=  10002127 FMM=F ISym2X=0 I1Cent= 0 IOpClX= 0 NMat=1 NMatS=1 NMatT=0.
 FoFJK:  IHMeth= 1 ICntrl=10002127 DoSepK=F KAlg= 0 I1Cent=           0 FoldK=F
 IRaf=         0 NMat=       1 IRICut=       1 DoRegI=T DoRafI=F ISym2E= 0 IDoP0=0 IntGTp=1.
 FoFCou: FMM=F IPFlag=           0 FMFlag=      100000 FMFlg1=         800
         NFxFlg=           0 DoJE=F BraDBF=F KetDBF=F FulRan=T
         wScrn=  0.000000 ICntrl=  10002127 IOpCl=  0 I1Cent=           0 NGrid=           0
         NMat0=    1 NMatS0=      1 NMatT0=    0 NMatD0=    1 NMtDS0=    0 NMtDT0=    0
 Symmetry not used in FoFCou.
 Leave Link  703 at Fri Sep 17 20:16:37 2021, MaxMem=   524288000 cpu:              35.7 elap:              35.7
 (Enter /opt/gaussian/g16_legacy/l716.exe)
 Dipole        = 2.85361068D-02-7.95115346D-02-3.34118798D-02
 ***** Axes restored to original set *****
 -------------------------------------------------------------------
 Center     Atomic                   Forces (Hartrees/Bohr)
 Number     Number              X              Y              Z
 -------------------------------------------------------------------
      1        6           0.001221353    0.002588590   -0.005985449
      2        1           0.000655721    0.001525923    0.003136424
      3        1           0.000396094   -0.000275793    0.003229442
      4        6          -0.006178145    0.002561519    0.000371262
      5        6           0.001970919   -0.002534130    0.004842984
      6        1           0.000041838   -0.001661810   -0.004314811
      7        1           0.001440926    0.003298723   -0.002727467
      8        1           0.000848003   -0.000304735    0.002934572
      9        6          -0.003780196   -0.002437192   -0.000349377
     10        1          -0.000920295   -0.003077921    0.000049195
     11        6           0.001107192   -0.000195781    0.001575144
     12        1          -0.002813603    0.001987668   -0.001216434
     13        1           0.000534861    0.000925828    0.002937003
     14        1           0.002596831   -0.000639740   -0.002091605
     15        6          -0.000324058   -0.004053849   -0.001798262
     16        1          -0.001425019    0.004319783   -0.000429672
     17        1          -0.003225634   -0.000137562    0.000814665
     18        1           0.002815228    0.000763619    0.001669471
     19        6          -0.001962141   -0.007326164    0.000618580
     20        6          -0.002140991    0.004596105   -0.001802616
     21        1           0.004570030   -0.001042449    0.001144632
     22        1           0.003906327   -0.001303002   -0.001942532
     23        1          -0.002880329    0.001317724    0.001031010
     24        6           0.007401056    0.004708585   -0.004744770
     25        1           0.000377768    0.000047812    0.001710910
     26        6          -0.004624837   -0.000959516    0.003719633
     27        1           0.000530240    0.001712168   -0.002917577
     28        1          -0.000139138   -0.004404401    0.000535642
 -------------------------------------------------------------------
 Cartesian Forces:  Max     0.007401056 RMS     0.002763021
 Leave Link  716 at Fri Sep 17 20:16:37 2021, MaxMem=   524288000 cpu:               0.1 elap:               0.1
 (Enter /opt/gaussian/g16_legacy/l103.exe)

 GradGradGradGradGradGradGradGradGradGradGradGradGradGradGradGradGradGrad
 Berny optimization.
 FormGI is forming the generalized inverse of G from B-inverse, IUseBI=4.
 Internal  Forces:  Max     0.005837983 RMS     0.002184503
 Search for a local minimum.
 Step number   1 out of a maximum of  138
 All quantities printed in internal units (Hartrees-Bohrs-Radians)
 RMS Force = .21845D-02 SwitMx=.10000D-02 MixMth= 1
 Mixed Optimization -- RFO/linear search
 Second derivative matrix not updated -- first step.
 ITU=  0
     Eigenvalues ---    0.00230   0.00517   0.00650   0.00683   0.00687
     Eigenvalues ---    0.00735   0.00808   0.01194   0.01292   0.01547
     Eigenvalues ---    0.01628   0.02771   0.02802   0.03697   0.03913
     Eigenvalues ---    0.05281   0.05402   0.07038   0.07071   0.07099
     Eigenvalues ---    0.07099   0.07220   0.07305   0.07309   0.07495
     Eigenvalues ---    0.09502   0.09718   0.12965   0.13102   0.15992
     Eigenvalues ---    0.16000   0.16000   0.16000   0.16000   0.16000
     Eigenvalues ---    0.16000   0.16000   0.16000   0.16000   0.16000
     Eigenvalues ---    0.16000   0.16000   0.16000   0.21932   0.21982
     Eigenvalues ---    0.22000   0.22002   0.24981   0.24989   0.25000
     Eigenvalues ---    0.25000   0.28451   0.30483   0.31477   0.31731
     Eigenvalues ---    0.31761   0.32130   0.32712   0.33907   0.33914
     Eigenvalues ---    0.34029   0.34063   0.34128   0.34144   0.34232
     Eigenvalues ---    0.34255   0.34287   0.34328   0.34346   0.34357
     Eigenvalues ---    0.34362   0.34386   0.34409   0.34573   0.34795
     Eigenvalues ---    0.35155   0.55356   0.55868
 RFO step:  Lambda=-5.23281409D-03 EMin= 2.30000000D-03
 Linear search not attempted -- first point.
 Iteration  1 RMS(Cart)=  0.17894804 RMS(Int)=  0.00762983
 Iteration  2 RMS(Cart)=  0.01460850 RMS(Int)=  0.00013374
 Iteration  3 RMS(Cart)=  0.00009045 RMS(Int)=  0.00012750
 Iteration  4 RMS(Cart)=  0.00000001 RMS(Int)=  0.00012750
 ITry= 1 IFail=0 DXMaxC= 8.53D-01 DCOld= 1.00D+10 DXMaxT= 3.00D-01 DXLimC= 3.00D+00 Rises=F
 Variable       Old X    -DE/DX   Delta X   Delta X   Delta X     New X
                                 (Linear)    (Quad)   (Total)
    R1        2.07475  -0.00241   0.00000  -0.00699  -0.00699   2.06776
    R2        2.07487  -0.00287   0.00000  -0.00833  -0.00833   2.06653
    R3        2.87010  -0.00454   0.00000  -0.01465  -0.01465   2.85545
    R4        2.91163  -0.00408   0.00000  -0.01407  -0.01407   2.89755
    R5        2.84584   0.00293   0.00000   0.00907   0.00907   2.85490
    R6        2.54817  -0.00476   0.00000  -0.00852  -0.00852   2.53964
    R7        2.06751  -0.00343   0.00000  -0.00983  -0.00983   2.05768
    R8        2.06646  -0.00403   0.00000  -0.01153  -0.01153   2.05493
    R9        2.06849  -0.00155   0.00000  -0.00445  -0.00445   2.06403
   R10        2.06009  -0.00206   0.00000  -0.00584  -0.00584   2.05425
   R11        2.82860   0.00187   0.00000   0.00562   0.00562   2.83421
   R12        2.06374  -0.00332   0.00000  -0.00945  -0.00945   2.05428
   R13        2.06779  -0.00203   0.00000  -0.00581  -0.00581   2.06198
   R14        2.06724  -0.00150   0.00000  -0.00429  -0.00429   2.06295
   R15        2.07087  -0.00427   0.00000  -0.01231  -0.01231   2.05856
   R16        2.06941  -0.00210   0.00000  -0.00605  -0.00605   2.06336
   R17        2.06732  -0.00133   0.00000  -0.00381  -0.00381   2.06351
   R18        2.84639  -0.00062   0.00000  -0.00191  -0.00191   2.84448
   R19        2.83906   0.00266   0.00000   0.00816   0.00816   2.84722
   R20        2.54369  -0.00175   0.00000  -0.00310  -0.00310   2.54059
   R21        2.06683  -0.00378   0.00000  -0.01083  -0.01083   2.05600
   R22        2.07115  -0.00376   0.00000  -0.01085  -0.01085   2.06031
   R23        2.06901  -0.00183   0.00000  -0.00526  -0.00526   2.06375
   R24        2.05424  -0.00019   0.00000  -0.00053  -0.00053   2.05370
   R25        2.85112  -0.00388   0.00000  -0.01212  -0.01212   2.83900
   R26        2.07223   0.00043   0.00000   0.00124   0.00124   2.07347
   R27        2.07281  -0.00422   0.00000  -0.01223  -0.01223   2.06059
    A1        1.83423   0.00053   0.00000   0.02432   0.02425   1.85848
    A2        1.91080   0.00231   0.00000   0.00641   0.00602   1.91681
    A3        1.91822   0.00041   0.00000  -0.00670  -0.00687   1.91135
    A4        1.90404   0.00159   0.00000   0.00679   0.00672   1.91076
    A5        1.88145   0.00154   0.00000   0.00650   0.00651   1.88796
    A6        2.00692  -0.00584   0.00000  -0.03207  -0.03226   1.97466
    A7        2.02794   0.00516   0.00000   0.02044   0.02036   2.04830
    A8        2.10579  -0.00468   0.00000  -0.01811  -0.01819   2.08760
    A9        2.14885  -0.00047   0.00000  -0.00158  -0.00166   2.14719
   A10        1.95258   0.00141   0.00000   0.00867   0.00868   1.96127
   A11        1.95059  -0.00318   0.00000  -0.01735  -0.01728   1.93330
   A12        1.92033   0.00320   0.00000   0.01735   0.01738   1.93771
   A13        1.85666   0.00163   0.00000   0.01362   0.01367   1.87033
   A14        1.90615  -0.00314   0.00000  -0.02249  -0.02251   1.88364
   A15        1.87472  -0.00011   0.00000  -0.00090  -0.00082   1.87390
   A16        2.06935  -0.00240   0.00000  -0.01452  -0.01452   2.05483
   A17        2.21814  -0.00000   0.00000   0.00000  -0.00000   2.21813
   A18        1.99565   0.00240   0.00000   0.01457   0.01456   2.01022
   A19        1.98120  -0.00324   0.00000  -0.01951  -0.01942   1.96177
   A20        1.91234   0.00256   0.00000   0.01502   0.01497   1.92731
   A21        1.91454   0.00389   0.00000   0.02392   0.02389   1.93843
   A22        1.87885   0.00015   0.00000   0.00022   0.00029   1.87914
   A23        1.88617  -0.00032   0.00000  -0.00111  -0.00100   1.88516
   A24        1.88829  -0.00322   0.00000  -0.01967  -0.01984   1.86845
   A25        1.87383   0.00117   0.00000   0.01014   0.01016   1.88399
   A26        1.88446   0.00048   0.00000   0.00610   0.00613   1.89059
   A27        1.95844  -0.00238   0.00000  -0.01114  -0.01111   1.94733
   A28        1.89598  -0.00313   0.00000  -0.02537  -0.02536   1.87062
   A29        1.91926   0.00121   0.00000   0.00562   0.00564   1.92490
   A30        1.92988   0.00253   0.00000   0.01377   0.01379   1.94367
   A31        2.00637   0.00133   0.00000   0.00523   0.00517   2.01154
   A32        2.10925   0.00112   0.00000   0.00439   0.00434   2.11358
   A33        2.16757  -0.00245   0.00000  -0.00962  -0.00967   2.15790
   A34        1.95760   0.00004   0.00000   0.00321   0.00320   1.96080
   A35        1.92972  -0.00174   0.00000  -0.00959  -0.00956   1.92016
   A36        1.92836   0.00336   0.00000   0.01647   0.01649   1.94485
   A37        1.85437   0.00229   0.00000   0.02128   0.02128   1.87565
   A38        1.90131  -0.00217   0.00000  -0.01474  -0.01475   1.88656
   A39        1.88986  -0.00195   0.00000  -0.01759  -0.01754   1.87231
   A40        2.06883  -0.00201   0.00000  -0.01117  -0.01157   2.05725
   A41        2.20855   0.00035   0.00000   0.00195   0.00154   2.21010
   A42        2.00505   0.00170   0.00000   0.01114   0.01073   2.01578
   A43        1.98867  -0.00416   0.00000  -0.01980  -0.02008   1.96859
   A44        1.88943   0.00016   0.00000   0.00680   0.00691   1.89634
   A45        1.88999   0.00084   0.00000  -0.01141  -0.01189   1.87810
   A46        1.88580   0.00372   0.00000   0.03890   0.03901   1.92481
   A47        1.93976   0.00022   0.00000  -0.01397  -0.01447   1.92530
   A48        1.86571  -0.00058   0.00000   0.00145   0.00157   1.86727
    D1       -0.52771   0.00102   0.00000  -0.02345  -0.02339  -0.55110
    D2        2.57765   0.00141   0.00000  -0.00134  -0.00130   2.57635
    D3       -2.52616  -0.00173   0.00000  -0.05960  -0.05963  -2.58580
    D4        0.57920  -0.00135   0.00000  -0.03749  -0.03755   0.54165
[...]
                 (A) (A) (A) (A) (A) (A) (A) (A) (A) (A) (A) (A)
                 (A) (A) (A) (A) (A) (A) (A) (A) (A) (A) (A) (A)
                 (A) (A) (A) (A) (A) (A) (A) (A) (A) (A) (A) (A)
                 (A) (A) (A) (A) (A) (A) (A) (A) (A) (A) (A) (A)
                 (A) (A) (A) (A) (A) (A) (A) (A) (A) (A) (A) (A)
                 (A) (A) (A) (A) (A) (A) (A) (A) (A) (A) (A) (A)
                 (A) (A) (A) (A) (A) (A) (A) (A) (A) (A) (A) (A)
                 (A) (A) (A) (A) (A) (A) (A) (A) (A) (A) (A) (A)
                 (A) (A) (A) (A) (A) (A) (A) (A) (A) (A) (A) (A)
                 (A) (A) (A) (A) (A) (A) (A) (A) (A) (A) (A) (A)
                 (A) (A) (A) (A) (A) (A) (A) (A) (A) (A) (A) (A)
                 (A) (A) (A) (A) (A) (A) (A) (A) (A) (A) (A) (A)
                 (A) (A) (A) (A) (A) (A) (A) (A) (A)
 The electronic state is 1-A.
 Alpha  occ. eigenvalues --  -11.22905 -11.22417 -11.21815 -11.21726 -11.21476
 Alpha  occ. eigenvalues --  -11.21353 -11.21281 -11.21253 -11.21241 -11.20944
 Alpha  occ. eigenvalues --   -1.10826  -1.08027  -1.01971  -0.97278  -0.93554
 Alpha  occ. eigenvalues --   -0.92408  -0.87489  -0.81946  -0.70430  -0.69259
 Alpha  occ. eigenvalues --   -0.63913  -0.62528  -0.59471  -0.59239  -0.58025
 Alpha  occ. eigenvalues --   -0.57118  -0.55206  -0.53892  -0.53053  -0.52844
 Alpha  occ. eigenvalues --   -0.52471  -0.51203  -0.50221  -0.49365  -0.47950
 Alpha  occ. eigenvalues --   -0.45451  -0.44722  -0.33172  -0.31265
 Alpha virt. eigenvalues --    0.18605   0.18963   0.22657   0.25753   0.25951
 Alpha virt. eigenvalues --    0.27100   0.28218   0.29767   0.29949   0.30980
 Alpha virt. eigenvalues --    0.31951   0.32553   0.32839   0.33437   0.34120
 Alpha virt. eigenvalues --    0.35439   0.36568   0.37297   0.39978   0.40249
 Alpha virt. eigenvalues --    0.41207   0.41953   0.43404   0.43992   0.47371
 Alpha virt. eigenvalues --    0.50788   0.52612   0.61810   0.64257   0.66713
 Alpha virt. eigenvalues --    0.70391   0.71100   0.73866   0.74210   0.77045
 Alpha virt. eigenvalues --    0.77682   0.80673   0.81030   0.82168   0.83987
 Alpha virt. eigenvalues --    0.85714   0.86734   0.88397   0.89063   0.91824
 Alpha virt. eigenvalues --    0.92909   0.94849   0.97125   0.98140   1.00195
 Alpha virt. eigenvalues --    1.01162   1.02720   1.04011   1.04624   1.06351
 Alpha virt. eigenvalues --    1.08731   1.08947   1.09911   1.12408   1.12686
 Alpha virt. eigenvalues --    1.13344   1.13876   1.15525   1.15714   1.16330
 Alpha virt. eigenvalues --    1.17648   1.18627   1.19520   1.20008   1.21082
 Alpha virt. eigenvalues --    1.22008   1.23360   1.24733   1.26475   1.28124
 Alpha virt. eigenvalues --    1.29170   1.31104   1.42226   1.44095   1.45994
 Alpha virt. eigenvalues --    1.46979   1.48214   1.54737   1.58392   1.59758
 Alpha virt. eigenvalues --    1.61485   1.67278   1.69429   1.70409   1.73917
 Alpha virt. eigenvalues --    1.76148   1.77708   1.90629   1.92052   1.96211
 Alpha virt. eigenvalues --    1.99312   2.01613   2.02693   2.06571   2.07059
 Alpha virt. eigenvalues --    2.09090   2.09795   2.11363   2.14310   2.15262
 Alpha virt. eigenvalues --    2.16800   2.19014   2.21113   2.26453   2.28519
 Alpha virt. eigenvalues --    2.29801   2.31416   2.33411   2.35541   2.35811
 Alpha virt. eigenvalues --    2.36023   2.36581   2.39135   2.40022   2.41946
 Alpha virt. eigenvalues --    2.43876   2.44126   2.44819   2.45322   2.46533
 Alpha virt. eigenvalues --    2.47184   2.49172   2.50867   2.52033   2.54023
 Alpha virt. eigenvalues --    2.56608   2.58265   2.59665   2.64074   2.64545
 Alpha virt. eigenvalues --    2.67468   2.69790   2.70571   2.73169   2.74166
 Alpha virt. eigenvalues --    2.75897   2.76633   2.79599   2.82897   2.84678
 Alpha virt. eigenvalues --    2.86621   2.87879   2.90364   2.93554   2.94985
 Alpha virt. eigenvalues --    2.95537   2.98971   3.00135   3.02280   3.03569
 Alpha virt. eigenvalues --    3.06314   3.07959   3.11382   3.14748   3.15173
 Alpha virt. eigenvalues --    3.18289   3.19140   3.19560   3.20423   3.22505
 Alpha virt. eigenvalues --    3.23489   3.26146   3.27283   3.27650   3.39597
 Alpha virt. eigenvalues --    3.40169   3.44372   3.45778   3.56285   3.58115
 Alpha virt. eigenvalues --    3.62762   3.63554   3.66883   3.71308   3.79632
 Alpha virt. eigenvalues --    3.80749   3.82615   3.83482   3.83806   3.84208
 Alpha virt. eigenvalues --    3.85439   3.86926   3.87415   3.90180   3.91804
 Alpha virt. eigenvalues --    3.94497   4.58874   4.64386   4.74906   4.85593
 Alpha virt. eigenvalues --    4.91791   4.92122   4.93444   5.10660   5.12449
 Alpha virt. eigenvalues --    5.16090
          Condensed to atoms (all electrons):
               1          2          3          4          5          6
     1  C    5.011964   0.411102   0.411564   0.334993  -0.052481   0.003808
     2  H    0.411102   0.595032  -0.028999  -0.047257  -0.004705   0.000133
     3  H    0.411564  -0.028999   0.575255  -0.039921   0.003179  -0.000118
     4  C    0.334993  -0.047257  -0.039921   4.953970   0.350407  -0.040966
     5  C   -0.052481  -0.004705   0.003179   0.350407   4.906014   0.405634
     6  H    0.003808   0.000133  -0.000118  -0.040966   0.405634   0.579882
     7  H   -0.000512  -0.000149   0.000040  -0.044383   0.401726  -0.026166
     8  H   -0.004489   0.002100  -0.000016  -0.041752   0.396949  -0.028101
     9  C   -0.057551   0.003725  -0.004589   0.695520  -0.043612  -0.002597
    10  H   -0.005954   0.000141   0.001709  -0.044263   0.003575   0.000033
    11  C    0.002922  -0.000092   0.000035  -0.043825  -0.008258  -0.002296
    12  H    0.000086   0.000000   0.000004   0.000006  -0.002058  -0.001379
    13  H   -0.000112   0.000005   0.000013  -0.000961   0.000273  -0.000027
    14  H   -0.000073  -0.000000  -0.000013  -0.000459   0.000277   0.000005
    15  C   -0.000090  -0.000000   0.000002  -0.000059   0.000046  -0.000006
    16  H   -0.000006   0.000002   0.000000   0.000003  -0.000006  -0.000000
    17  H    0.000028  -0.000001  -0.000000  -0.000016   0.000166  -0.000007
    18  H   -0.000006   0.000000   0.000000   0.000001  -0.000004   0.000000
    19  C   -0.004221   0.000482  -0.000046   0.003764  -0.004540   0.000213
    20  C    0.000568  -0.000018  -0.000005  -0.000752   0.000166  -0.000019
    21  H   -0.000315   0.000001   0.000041   0.001173  -0.000010  -0.000002
    22  H   -0.000057   0.000000   0.000001   0.000102  -0.000011   0.000001
    23  H    0.000128  -0.000000  -0.000003  -0.000233   0.000288  -0.000023
    24  C   -0.065797  -0.003116   0.005150  -0.003354  -0.006072   0.000078
    25  H    0.000354   0.001459  -0.000123  -0.000222   0.000046   0.000004
    26  C    0.337512  -0.042557  -0.038828  -0.055693   0.001256  -0.000121
    27  H   -0.047955  -0.002261  -0.002953   0.006170  -0.000173   0.000003
    28  H   -0.040644   0.004530  -0.003453  -0.005534   0.000146   0.000003
               7          8          9         10         11         12
     1  C   -0.000512  -0.004489  -0.057551  -0.005954   0.002922   0.000086
     2  H   -0.000149   0.002100   0.003725   0.000141  -0.000092   0.000000
     3  H    0.000040  -0.000016  -0.004589   0.001709   0.000035   0.000004
     4  C   -0.044383  -0.041752   0.695520  -0.044263  -0.043825   0.000006
     5  C    0.401726   0.396949  -0.043612   0.003575  -0.008258  -0.002058
     6  H   -0.026166  -0.028101  -0.002597   0.000033  -0.002296  -0.001379
     7  H    0.565739  -0.033840  -0.000296  -0.000135   0.000263  -0.000066
     8  H   -0.033840   0.592255  -0.000015  -0.000119   0.000293  -0.000032
     9  C   -0.000296  -0.000015   4.948148   0.406307   0.342483  -0.043723
    10  H   -0.000135  -0.000119   0.406307   0.568395  -0.041977   0.003432
    11  C    0.000263   0.000293   0.342483  -0.041977   4.889638   0.408352
    12  H   -0.000066  -0.000032  -0.043723   0.003432   0.408352   0.576333
    13  H   -0.000022   0.000053  -0.042300  -0.001167   0.401922  -0.028145
    14  H    0.000047  -0.000028  -0.043282  -0.001304   0.401036  -0.028429
    15  C    0.000005  -0.000000  -0.000001  -0.000000  -0.000000  -0.000000
    16  H    0.000014   0.000000   0.000000  -0.000000  -0.000000  -0.000000
    17  H   -0.000139  -0.000003  -0.000002  -0.000000   0.000000  -0.000000
    18  H    0.000020   0.000000  -0.000000   0.000000  -0.000000  -0.000000
    19  C    0.001551   0.000123   0.000590  -0.000004  -0.000017  -0.000002
    20  C   -0.000205   0.000002  -0.001017  -0.000034   0.000011  -0.000002
    21  H   -0.000077   0.000003   0.001660   0.000029  -0.000086  -0.000003
    22  H    0.000005   0.000000   0.000078   0.000001  -0.000002   0.000000
    23  H   -0.000151  -0.000003  -0.000122  -0.000003   0.000077   0.000014
    24  C    0.005605   0.000310  -0.000377   0.000095  -0.000005   0.000003
    25  H    0.000105  -0.000019  -0.000008   0.000001  -0.000000   0.000000
    26  C   -0.000434   0.000057  -0.006089  -0.000072  -0.000061  -0.000008
    27  H   -0.000017   0.000012   0.000121  -0.000042   0.000002   0.000000
    28  H    0.000044  -0.000001   0.001734   0.000720  -0.000068   0.000001
              13         14         15         16         17         18
     1  C   -0.000112  -0.000073  -0.000090  -0.000006   0.000028  -0.000006
     2  H    0.000005  -0.000000  -0.000000   0.000002  -0.000001   0.000000
     3  H    0.000013  -0.000013   0.000002   0.000000  -0.000000   0.000000
     4  C   -0.000961  -0.000459  -0.000059   0.000003  -0.000016   0.000001
     5  C    0.000273   0.000277   0.000046  -0.000006   0.000166  -0.000004
     6  H   -0.000027   0.000005  -0.000006  -0.000000  -0.000007   0.000000
     7  H   -0.000022   0.000047   0.000005   0.000014  -0.000139   0.000020
     8  H    0.000053  -0.000028  -0.000000   0.000000  -0.000003   0.000000
     9  C   -0.042300  -0.043282  -0.000001   0.000000  -0.000002  -0.000000
    10  H   -0.001167  -0.001304  -0.000000  -0.000000  -0.000000   0.000000
    11  C    0.401922   0.401036  -0.000000  -0.000000   0.000000  -0.000000
    12  H   -0.028145  -0.028429  -0.000000  -0.000000  -0.000000  -0.000000
    13  H    0.588170  -0.036623   0.000000   0.000000  -0.000000  -0.000000
    14  H   -0.036623   0.591049   0.000000  -0.000000   0.000000   0.000000
    15  C    0.000000   0.000000   4.903652   0.405821   0.397629   0.398946
    16  H    0.000000  -0.000000   0.405821   0.568120  -0.026900  -0.026575
    17  H   -0.000000   0.000000   0.397629  -0.026900   0.596108  -0.037759
    18  H   -0.000000   0.000000   0.398946  -0.026575  -0.037759   0.592379
    19  C    0.000000  -0.000008   0.353332  -0.041856  -0.044097  -0.043726
    20  C    0.000001   0.000108  -0.065406   0.003807  -0.001936  -0.001300
    21  H    0.000008  -0.000030   0.003733  -0.000113  -0.000074  -0.000031
    22  H    0.000000  -0.000011  -0.002351  -0.000047  -0.000502   0.002722
    23  H   -0.000000   0.000135  -0.002690  -0.000027   0.002901  -0.000492
    24  C   -0.000000   0.000001  -0.045067  -0.002604  -0.000798  -0.000962
    25  H   -0.000000   0.000000  -0.007041   0.002364   0.000203   0.000184
    26  C   -0.000005   0.000030   0.003183   0.000145  -0.000080  -0.000125
    27  H    0.000000  -0.000001  -0.000103  -0.000008  -0.000003   0.000011
    28  H    0.000001  -0.000000   0.000082   0.000006  -0.000004   0.000005
              19         20         21         22         23         24
     1  C   -0.004221   0.000568  -0.000315  -0.000057   0.000128  -0.065797
     2  H    0.000482  -0.000018   0.000001   0.000000  -0.000000  -0.003116
     3  H   -0.000046  -0.000005   0.000041   0.000001  -0.000003   0.005150
     4  C    0.003764  -0.000752   0.001173   0.000102  -0.000233  -0.003354
     5  C   -0.004540   0.000166  -0.000010  -0.000011   0.000288  -0.006072
     6  H    0.000213  -0.000019  -0.000002   0.000001  -0.000023   0.000078
     7  H    0.001551  -0.000205  -0.000077   0.000005  -0.000151   0.005605
     8  H    0.000123   0.000002   0.000003   0.000000  -0.000003   0.000310
     9  C    0.000590  -0.001017   0.001660   0.000078  -0.000122  -0.000377
    10  H   -0.000004  -0.000034   0.000029   0.000001  -0.000003   0.000095
    11  C   -0.000017   0.000011  -0.000086  -0.000002   0.000077  -0.000005
    12  H   -0.000002  -0.000002  -0.000003   0.000000   0.000014   0.000003
    13  H    0.000000   0.000001   0.000008   0.000000  -0.000000  -0.000000
    14  H   -0.000008   0.000108  -0.000030  -0.000011   0.000135   0.000001
    15  C    0.353332  -0.065406   0.003733  -0.002351  -0.002690  -0.045067
    16  H   -0.041856   0.003807  -0.000113  -0.000047  -0.000027  -0.002604
    17  H   -0.044097  -0.001936  -0.000074  -0.000502   0.002901  -0.000798
    18  H   -0.043726  -0.001300  -0.000031   0.002722  -0.000492  -0.000962
    19  C    4.912970   0.351805  -0.036502  -0.044692  -0.043391   0.694599
    20  C    0.351805   4.901989   0.406990   0.396684   0.401421  -0.041916
    21  H   -0.036502   0.406990   0.556759  -0.025730  -0.027673  -0.002834
    22  H   -0.044692   0.396684  -0.025730   0.596025  -0.036649  -0.000447
    23  H   -0.043391   0.401421  -0.027673  -0.036649   0.588254  -0.000293
    24  C    0.694599  -0.041916  -0.002834  -0.000447  -0.000293   4.969970
    25  H   -0.039353   0.003500   0.000035  -0.000128  -0.000121   0.403351
    26  C   -0.048651  -0.008019  -0.002716   0.000190   0.000361   0.349197
    27  H    0.001517   0.000136   0.000111   0.000035  -0.000016  -0.043646
    28  H    0.000545  -0.002576  -0.001440   0.000077  -0.000076  -0.047423
              25         26         27         28
     1  C    0.000354   0.337512  -0.047955  -0.040644
     2  H    0.001459  -0.042557  -0.002261   0.004530
     3  H   -0.000123  -0.038828  -0.002953  -0.003453
     4  C   -0.000222  -0.055693   0.006170  -0.005534
     5  C    0.000046   0.001256  -0.000173   0.000146
     6  H    0.000004  -0.000121   0.000003   0.000003
     7  H    0.000105  -0.000434  -0.000017   0.000044
     8  H   -0.000019   0.000057   0.000012  -0.000001
     9  C   -0.000008  -0.006089   0.000121   0.001734
    10  H    0.000001  -0.000072  -0.000042   0.000720
    11  C   -0.000000  -0.000061   0.000002  -0.000068
    12  H    0.000000  -0.000008   0.000000   0.000001
    13  H   -0.000000  -0.000005   0.000000   0.000001
    14  H    0.000000   0.000030  -0.000001  -0.000000
    15  C   -0.007041   0.003183  -0.000103   0.000082
    16  H    0.002364   0.000145  -0.000008   0.000006
    17  H    0.000203  -0.000080  -0.000003  -0.000004
    18  H    0.000184  -0.000125   0.000011   0.000005
    19  C   -0.039353  -0.048651   0.001517   0.000545
    20  C    0.003500  -0.008019   0.000136  -0.002576
    21  H    0.000035  -0.002716   0.000111  -0.001440
    22  H   -0.000128   0.000190   0.000035   0.000077
    23  H   -0.000121   0.000361  -0.000016  -0.000076
    24  C    0.403351   0.349197  -0.043646  -0.047423
    25  H    0.561456  -0.040935  -0.003496   0.003471
    26  C   -0.040935   4.950046   0.410754   0.417781
    27  H   -0.003496   0.410754   0.596572  -0.029425
    28  H    0.003471   0.417781  -0.029425   0.583769
 Mulliken charges:
               1
     1  C   -0.234768
     2  H    0.110444
     3  H    0.122077
     4  C    0.023539
     5  C   -0.348217
     6  H    0.112033
     7  H    0.131431
     8  H    0.116261
     9  C   -0.154787
    10  H    0.110636
    11  C   -0.350345
    12  H    0.115615
    13  H    0.118918
    14  H    0.117572
    15  C   -0.343616
    16  H    0.117859
    17  H    0.115286
    18  H    0.116711
    19  C    0.029616
    20  C   -0.343983
    21  H    0.127092
    22  H    0.114706
    23  H    0.118390
    24  C   -0.163649
    25  H    0.114915
    26  C   -0.226118
    27  H    0.114655
    28  H    0.117729
 Sum of Mulliken charges =  -0.00000
 Mulliken charges with hydrogens summed into heavy atoms:
               1
     1  C   -0.002247
     4  C    0.023539
     5  C    0.011508
     9  C   -0.044151
    11  C    0.001760
    15  C    0.006240
    19  C    0.029616
    20  C    0.016204
    24  C   -0.048735
    26  C    0.006267
 Electronic spatial extent (au):  <R**2>=           1885.7694
 Charge=             -0.0000 electrons
 Dipole moment (field-independent basis, Debye):
    X=              0.1610    Y=             -0.1828    Z=              0.0696  Tot=              0.2533
 Quadrupole moment (field-independent basis, Debye-Ang):
   XX=            -66.8104   YY=            -63.9416   ZZ=            -64.7086
   XY=             -0.0093   XZ=              1.4135   YZ=              0.2963
 Traceless Quadrupole moment (field-independent basis, Debye-Ang):
   XX=             -1.6569   YY=              1.2119   ZZ=              0.4449
   XY=             -0.0093   XZ=              1.4135   YZ=              0.2963
 Octapole moment (field-independent basis, Debye-Ang**2):
  XXX=              3.0946  YYY=              1.7887  ZZZ=             -1.0474  XYY=              1.3465
  XXY=             -5.3903  XXZ=             -0.0333  XZZ=             -2.5654  YZZ=              0.1186
  YYZ=              1.3469  XYZ=              2.7227
 Hexadecapole moment (field-independent basis, Debye-Ang**3):
 XXXX=          -1566.2968 YYYY=           -662.4519 ZZZZ=           -422.5526 XXXY=              1.0117
 XXXZ=             11.8488 YYYX=              2.1068 YYYZ=             -2.0674 ZZZX=              2.5240
 ZZZY=              1.1550 XXYY=           -368.8552 XXZZ=           -325.7335 YYZZ=           -176.1709
 XXYZ=              6.5499 YYXZ=              0.4802 ZZXY=             -1.0442
 N-N= 5.399887473874D+02 E-N=-1.984821866838D+03  KE= 3.887516738666D+02
 No NMR shielding tensors so no spin-rotation constants.
 Leave Link  601 at Fri Sep 17 22:13:06 2021, MaxMem=   524288000 cpu:               0.3 elap:               0.6
 (Enter /opt/gaussian/g16_legacy/l9999.exe)
 1\1\GINC-TRUENO90\FOpt\RMP2-FC\6-31G(d,p)\C10H18\JRAMOS\17-Sep-2021\0\
 \#p opt mp2/6-31g(d,p)\\Conformer number 013. Energy MM = 27.094 kcal/
 mol\\0,1\C,2.1380831078,0.9734286774,-9.0001972157\H,1.9854590595,-0.0
 97417032,-9.1618990963\H,2.0415501346,1.4567837104,-9.9757311235\C,3.5
 231985998,1.2167342815,-8.4417234099\C,4.1453235129,0.0609633098,-7.70
 90651165\H,5.1114254963,0.3028644547,-7.2727423778\H,3.4834602383,-0.2
 738725603,-6.9100057635\H,4.2847895044,-0.7819006982,-8.3898952813\C,4
 .0960866751,2.4234389269,-8.6126084011\H,3.5321861931,3.1587405316,-9.
 1828267336\C,5.4247778496,2.8994274569,-8.1096935484\H,5.9640373428,2.
 1323174,-7.5599835738\H,6.0578397987,3.2247062834,-8.9372173707\H,5.30
 05416597,3.7589363966,-7.4479592515\C,1.3776873603,0.5475304797,-4.299
 2025013\H,0.929458045,-0.4292448488,-4.4755994526\H,2.372159435,0.3968
 405056,-3.872755329\H,0.7841626286,1.0646725357,-3.5417946194\C,1.4554
 643893,1.3585932114,-5.5638507997\C,2.0583668621,2.7250047727,-5.39368
 78345\H,2.1392068305,3.2726803487,-6.3279776966\H,1.4693113938,3.31721
 77373,-4.6894188661\H,3.0626641744,2.6383699849,-4.972916276\C,1.01199
 92382,0.8531834333,-6.7310912765\H,0.6157107928,-0.1598799718,-6.71533
 32525\C,1.0256328173,1.5105486063,-8.0778615551\H,0.0589313149,1.34535
 77624,-8.5637386745\H,1.1481855451,2.5900743038,-7.9858236028\\Version
 =EM64L-G16RevA.03\State=1-A\HF=-389.1534458\MP2=-390.5737736\RMSD=3.39
 2e-09\RMSF=1.806e-06\Dipole=0.0346178,0.0216899,0.0796819\PG=C01 [X(C1
 0H18)]\\@


 ... IT CAN BE VERY DIFFICULT, IN THESE COMPLEX TIMES,
 TO UNDERSTAND JUST HOW SCIENTISTS DO WHAT THEY DO.

                     DON MOSER IN THE FEBRUARY 1979 SMITHSONIAN
 Job cpu time:       0 days  2 hours  3 minutes 25.5 seconds.
 Elapsed time:       0 days  2 hours  3 minutes 36.7 seconds.
 File lengths (MBytes):  RWF=     32 Int=      0 D2E=      0 Chk=      7 Scr=      1
 Normal termination of Gaussian 16 at Fri Sep 17 22:13:06 2021.
