 Entering Gaussian System, Link 0=/opt/gaussian/g16_legacy/g16
 Input=02-IsoP_031_gaussian.com
 Output=02-IsoP_031_gaussian.log
 Initial command:
 /opt/gaussian/g16_legacy/l1.exe "/scratch-local/jramos/2661522/Gau-7268.inp" -scrdir="/scratch-local/jramos/2661522/"
 Entering Link 1 = /opt/gaussian/g16_legacy/l1.exe PID=      7269.
  
 Copyright (c) 1988,1990,1992,1993,1995,1998,2003,2009,2016,
            Gaussian, Inc.  All Rights Reserved.
  
 This is part of the Gaussian(R) 16 program.  It is based on
 the Gaussian(R) 09 system (copyright 2009, Gaussian, Inc.),
 the Gaussian(R) 03 system (copyright 2003, Gaussian, Inc.),
 the Gaussian(R) 98 system (copyright 1998, Gaussian, Inc.),
 the Gaussian(R) 94 system (copyright 1995, Gaussian, Inc.),
 the Gaussian 92(TM) system (copyright 1992, Gaussian, Inc.),
 the Gaussian 90(TM) system (copyright 1990, Gaussian, Inc.),
 the Gaussian 88(TM) system (copyright 1988, Gaussian, Inc.),
 the Gaussian 86(TM) system (copyright 1986, Carnegie Mellon
 University), and the Gaussian 82(TM) system (copyright 1983,
 Carnegie Mellon University). Gaussian is a federally registered
 trademark of Gaussian, Inc.
  
 This software contains proprietary and confidential information,
 including trade secrets, belonging to Gaussian, Inc.
  
 This software is provided under written license and may be
 used, copied, transmitted, or stored only in accord with that
 written license.
  
 The following legend is applicable only to US Government
 contracts under FAR:
  
                    RESTRICTED RIGHTS LEGEND
  
 Use, reproduction and disclosure by the US Government is
 subject to restrictions as set forth in subparagraphs (a)
 and (c) of the Commercial Computer Software - Restricted
 Rights clause in FAR 52.227-19.
  
 Gaussian, Inc.
 340 Quinnipiac St., Bldg. 40, Wallingford CT 06492
  
  
 ---------------------------------------------------------------
 Warning -- This program may not be used in any manner that
 competes with the business of Gaussian, Inc. or will provide
 assistance to any competitor of Gaussian, Inc.  The licensee
 of this program is prohibited from giving any competitor of
 Gaussian, Inc. access to this program.  By using this program,
 the user acknowledges that Gaussian, Inc. is engaged in the
 business of creating and licensing software in the field of
 computational chemistry and represents and warrants to the
 licensee that it is not a competitor of Gaussian, Inc. and that
 it will not use this program in any manner prohibited above.
 ---------------------------------------------------------------
  

 Cite this work as:
 Gaussian 16, Revision A.03,
 M. J. Frisch, G. W. Trucks, H. B. Schlegel, G. E. Scuseria, 
 M. A. Robb, J. R. Cheeseman, G. Scalmani, V. Barone, 
 G. A. Petersson, H. Nakatsuji, X. Li, M. Caricato, A. V. Marenich, 
 J. Bloino, B. G. Janesko, R. Gomperts, B. Mennucci, H. P. Hratchian, 
 J. V. Ortiz, A. F. Izmaylov, J. L. Sonnenberg, D. Williams-Young, 
 F. Ding, F. Lipparini, F. Egidi, J. Goings, B. Peng, A. Petrone, 
 T. Henderson, D. Ranasinghe, V. G. Zakrzewski, J. Gao, N. Rega, 
 G. Zheng, W. Liang, M. Hada, M. Ehara, K. Toyota, R. Fukuda, 
 J. Hasegawa, M. Ishida, T. Nakajima, Y. Honda, O. Kitao, H. Nakai, 
 T. Vreven, K. Throssell, J. A. Montgomery, Jr., J. E. Peralta, 
 F. Ogliaro, M. J. Bearpark, J. J. Heyd, E. N. Brothers, K. N. Kudin, 
 V. N. Staroverov, T. A. Keith, R. Kobayashi, J. Normand, 
 K. Raghavachari, A. P. Rendell, J. C. Burant, S. S. Iyengar, 
 J. Tomasi, M. Cossi, J. M. Millam, M. Klene, C. Adamo, R. Cammi, 
 J. W. Ochterski, R. L. Martin, K. Morokuma, O. Farkas, 
 J. B. Foresman, and D. J. Fox, Gaussian, Inc., Wallingford CT, 2016.
 
 ******************************************
 Gaussian 16:  EM64L-G16RevA.03 25-Dec-2016
                17-Sep-2021 
 ******************************************
 %chk=02-IsoP_031_gaussian.chk
 %nproc=1
 Will use up to    1 processors via shared memory.
 %mem=4000Mb
 ---------------------
 #p opt mp2/6-31g(d,p)
 ---------------------
 1/18=20,19=15,38=1/1,3;
 2/9=110,12=2,17=6,18=5,40=1/2;
 3/5=1,6=6,7=101,11=9,25=1,30=1,71=1/1,2,3;
 4//1;
 5/5=2,38=5/2;
 8/6=4,10=2/1;
 9/15=2,16=-3/6;
 10/5=1/2;
 6/7=2,8=2,9=2,10=2/1;
 7/12=2/1,2,3,16;
 1/18=20,19=15/3(2);
 2/9=110/2;
 99//99;
 2/9=110/2;
 3/5=1,6=6,7=101,11=9,25=1,30=1,71=1/1,2,3;
 4/5=5,16=3,69=1/1;
 5/5=2,38=5/2;
 8/6=4,10=2/1;
 9/15=2,16=-3/6;
 10/5=1/2;
 7/12=2/1,2,3,16;
 1/18=20,19=15/3(-8);
 2/9=110/2;
 6/7=2,8=2,9=2,10=2/1;
 99//99;
 Leave Link    1 at Fri Sep 17 20:09:27 2021, MaxMem=   524288000 cpu:               0.0 elap:               0.1
 (Enter /opt/gaussian/g16_legacy/l101.exe)
 -------------------------------------------------
 Conformer number 031. Energy MM = 27.788 kcal/mol
 -------------------------------------------------
 Symbolic Z-matrix:
 Charge =  0 Multiplicity = 1
 C                     2.2081    1.2715   -8.9484 
 H                     1.9726    0.2525   -9.2849 
 H                     2.06      1.9259   -9.8175 
 C                     3.6909    1.3124   -8.5896 
 C                     4.5859    0.7584   -9.6713 
 H                     5.4595    0.2415   -9.2639 
 H                     4.0546    0.0216   -10.2835 
 H                     4.9217    1.5651   -10.3309 
 C                     4.1721    1.7796   -7.4186 
 H                     3.4826    2.1819   -6.6797 
 C                     5.5958    1.8277   -6.9646 
 H                     6.3115    1.5164   -7.7267 
 H                     5.8519    2.8517   -6.6698 
 H                     5.723     1.1827   -6.0913 
 C                     0.9139    0.2762   -4.239 
 H                     1.609    -0.5459   -4.4416 
 H                     1.3511    0.8829   -3.4384 
 H                    -0.0242   -0.1556   -3.8769 
 C                     0.6678    1.1264   -5.4556 
 C                    -0.1733    2.3489   -5.2259 
 H                    -0.6638    2.6911   -6.1422 
 H                    -0.9719    2.1344   -4.5048 
 H                     0.438     3.1649   -4.829 
 C                     1.1917    0.7951   -6.6518 
 H                     1.7637   -0.1288   -6.7339 
 C                     1.1545    1.6554   -7.8895 
 H                     0.1634    1.557    -8.3499 
 H                     1.2885    2.7123   -7.6244 
 
 ITRead=  0  0  0  0  0  0  0  0  0  0  0  0  0  0  0  0  0  0  0  0
 ITRead=  0  0  0  0  0  0  0  0
 MicOpt= -1 -1 -1 -1 -1 -1 -1 -1 -1 -1 -1 -1 -1 -1 -1 -1 -1 -1 -1 -1
 MicOpt= -1 -1 -1 -1 -1 -1 -1 -1
 NAtoms=     28 NQM=       28 NQMF=       0 NMMI=      0 NMMIF=      0
                NMic=       0 NMicF=      0.
                    Isotopes and Nuclear Properties:
 (Nuclear quadrupole moments (NQMom) in fm**2, nuclear magnetic moments (NMagM)
  in nuclear magnetons)

  Atom         1           2           3           4           5           6           7           8           9          10
 IAtWgt=          12           1           1          12          12           1           1           1          12           1
 AtmWgt=  12.0000000   1.0078250   1.0078250  12.0000000  12.0000000   1.0078250   1.0078250   1.0078250  12.0000000   1.0078250
 NucSpn=           0           1           1           0           0           1           1           1           0           1
 AtZEff=  -0.0000000  -0.0000000  -0.0000000  -0.0000000  -0.0000000  -0.0000000  -0.0000000  -0.0000000  -0.0000000  -0.0000000
 NQMom=    0.0000000   0.0000000   0.0000000   0.0000000   0.0000000   0.0000000   0.0000000   0.0000000   0.0000000   0.0000000
 NMagM=    0.0000000   2.7928460   2.7928460   0.0000000   0.0000000   2.7928460   2.7928460   2.7928460   0.0000000   2.7928460
 AtZNuc=   6.0000000   1.0000000   1.0000000   6.0000000   6.0000000   1.0000000   1.0000000   1.0000000   6.0000000   1.0000000

  Atom        11          12          13          14          15          16          17          18          19          20
 IAtWgt=          12           1           1           1          12           1           1           1          12          12
 AtmWgt=  12.0000000   1.0078250   1.0078250   1.0078250  12.0000000   1.0078250   1.0078250   1.0078250  12.0000000  12.0000000
 NucSpn=           0           1           1           1           0           1           1           1           0           0
 AtZEff=  -0.0000000  -0.0000000  -0.0000000  -0.0000000  -0.0000000  -0.0000000  -0.0000000  -0.0000000  -0.0000000  -0.0000000
 NQMom=    0.0000000   0.0000000   0.0000000   0.0000000   0.0000000   0.0000000   0.0000000   0.0000000   0.0000000   0.0000000
 NMagM=    0.0000000   2.7928460   2.7928460   2.7928460   0.0000000   2.7928460   2.7928460   2.7928460   0.0000000   0.0000000
 AtZNuc=   6.0000000   1.0000000   1.0000000   1.0000000   6.0000000   1.0000000   1.0000000   1.0000000   6.0000000   6.0000000

  Atom        21          22          23          24          25          26          27          28
 IAtWgt=           1           1           1          12           1          12           1           1
 AtmWgt=   1.0078250   1.0078250   1.0078250  12.0000000   1.0078250  12.0000000   1.0078250   1.0078250
 NucSpn=           1           1           1           0           1           0           1           1
 AtZEff=  -0.0000000  -0.0000000  -0.0000000  -0.0000000  -0.0000000  -0.0000000  -0.0000000  -0.0000000
 NQMom=    0.0000000   0.0000000   0.0000000   0.0000000   0.0000000   0.0000000   0.0000000   0.0000000
 NMagM=    2.7928460   2.7928460   2.7928460   0.0000000   2.7928460   0.0000000   2.7928460   2.7928460
 AtZNuc=   1.0000000   1.0000000   1.0000000   6.0000000   1.0000000   6.0000000   1.0000000   1.0000000
 Leave Link  101 at Fri Sep 17 20:09:27 2021, MaxMem=   524288000 cpu:               0.3 elap:               0.3
 (Enter /opt/gaussian/g16_legacy/l103.exe)

 GradGradGradGradGradGradGradGradGradGradGradGradGradGradGradGradGradGrad
 Berny optimization.
 Initialization pass.
                           ----------------------------
                           !    Initial Parameters    !
                           ! (Angstroms and Degrees)  !
 --------------------------                            --------------------------
 ! Name  Definition              Value          Derivative Info.                !
 --------------------------------------------------------------------------------
 ! R1    R(1,2)                  1.0987         estimate D2E/DX2                !
 ! R2    R(1,3)                  1.098          estimate D2E/DX2                !
 ! R3    R(1,4)                  1.5261         estimate D2E/DX2                !
 ! R4    R(1,26)                 1.5423         estimate D2E/DX2                !
 ! R5    R(4,5)                  1.5093         estimate D2E/DX2                !
 ! R6    R(4,9)                  1.3495         estimate D2E/DX2                !
 ! R7    R(5,6)                  1.0938         estimate D2E/DX2                !
 ! R8    R(5,7)                  1.0954         estimate D2E/DX2                !
 ! R9    R(5,8)                  1.0948         estimate D2E/DX2                !
 ! R10   R(9,10)                 1.0878         estimate D2E/DX2                !
 ! R11   R(9,11)                 1.4951         estimate D2E/DX2                !
 ! R12   R(11,12)                1.0908         estimate D2E/DX2                !
 ! R13   R(11,13)                1.0959         estimate D2E/DX2                !
 ! R14   R(11,14)                1.0931         estimate D2E/DX2                !
 ! R15   R(15,16)                1.0955         estimate D2E/DX2                !
 ! R16   R(15,17)                1.0955         estimate D2E/DX2                !
 ! R17   R(15,18)                1.0943         estimate D2E/DX2                !
 ! R18   R(15,19)                1.5045         estimate D2E/DX2                !
 ! R19   R(19,20)                1.5016         estimate D2E/DX2                !
 ! R20   R(19,24)                1.3473         estimate D2E/DX2                !
 ! R21   R(20,21)                1.0942         estimate D2E/DX2                !
 ! R22   R(20,22)                1.0972         estimate D2E/DX2                !
 ! R23   R(20,23)                1.0941         estimate D2E/DX2                !
 ! R24   R(24,25)                1.0897         estimate D2E/DX2                !
 ! R25   R(24,26)                1.5078         estimate D2E/DX2                !
 ! R26   R(26,27)                1.0972         estimate D2E/DX2                !
 ! R27   R(26,28)                1.0978         estimate D2E/DX2                !
 ! A1    A(2,1,3)              106.3466         estimate D2E/DX2                !
 ! A2    A(2,1,4)              107.7659         estimate D2E/DX2                !
 ! A3    A(2,1,26)             107.1406         estimate D2E/DX2                !
 ! A4    A(3,1,4)              107.5286         estimate D2E/DX2                !
 ! A5    A(3,1,26)             107.6354         estimate D2E/DX2                !
 ! A6    A(4,1,26)             119.7124         estimate D2E/DX2                !
 ! A7    A(1,4,5)              113.4416         estimate D2E/DX2                !
 ! A8    A(1,4,9)              124.0382         estimate D2E/DX2                !
 ! A9    A(5,4,9)              122.5157         estimate D2E/DX2                !
 ! A10   A(4,5,6)              112.3423         estimate D2E/DX2                !
 ! A11   A(4,5,7)              111.0888         estimate D2E/DX2                !
 ! A12   A(4,5,8)              110.0725         estimate D2E/DX2                !
 ! A13   A(6,5,7)              106.1219         estimate D2E/DX2                !
 ! A14   A(6,5,8)              109.1262         estimate D2E/DX2                !
 ! A15   A(7,5,8)              107.9189         estimate D2E/DX2                !
 ! A16   A(4,9,10)             119.4367         estimate D2E/DX2                !
 ! A17   A(4,9,11)             127.893          estimate D2E/DX2                !
 ! A18   A(10,9,11)            112.6703         estimate D2E/DX2                !
 ! A19   A(9,11,12)            113.7932         estimate D2E/DX2                !
 ! A20   A(9,11,13)            109.5277         estimate D2E/DX2                !
 ! A21   A(9,11,14)            109.5375         estimate D2E/DX2                !
 ! A22   A(12,11,13)           107.533          estimate D2E/DX2                !
 ! A23   A(12,11,14)           108.2653         estimate D2E/DX2                !
 ! A24   A(13,11,14)           108.0133         estimate D2E/DX2                !
 ! A25   A(16,15,17)           107.3093         estimate D2E/DX2                !
 ! A26   A(16,15,18)           107.9997         estimate D2E/DX2                !
 ! A27   A(16,15,19)           112.2299         estimate D2E/DX2                !
 ! A28   A(17,15,18)           108.5907         estimate D2E/DX2                !
 ! A29   A(17,15,19)           110.0763         estimate D2E/DX2                !
 ! A30   A(18,15,19)           110.5068         estimate D2E/DX2                !
 ! A31   A(15,19,20)           115.341          estimate D2E/DX2                !
 ! A32   A(15,19,24)           121.0241         estimate D2E/DX2                !
 ! A33   A(20,19,24)           123.6311         estimate D2E/DX2                !
 ! A34   A(19,20,21)           112.1857         estimate D2E/DX2                !
 ! A35   A(19,20,22)           110.4317         estimate D2E/DX2                !
 ! A36   A(19,20,23)           110.4707         estimate D2E/DX2                !
 ! A37   A(21,20,22)           106.573          estimate D2E/DX2                !
 ! A38   A(21,20,23)           108.7229         estimate D2E/DX2                !
 ! A39   A(22,20,23)           108.3046         estimate D2E/DX2                !
 ! A40   A(19,24,25)           118.6521         estimate D2E/DX2                !
 ! A41   A(19,24,26)           125.3754         estimate D2E/DX2                !
 ! A42   A(25,24,26)           115.7759         estimate D2E/DX2                !
 ! A43   A(1,26,24)            113.8729         estimate D2E/DX2                !
 ! A44   A(1,26,27)            107.8572         estimate D2E/DX2                !
 ! A45   A(1,26,28)            108.786          estimate D2E/DX2                !
 ! A46   A(24,26,27)           108.3943         estimate D2E/DX2                !
 ! A47   A(24,26,28)           110.3688         estimate D2E/DX2                !
 ! A48   A(27,26,28)           107.3319         estimate D2E/DX2                !
 ! D1    D(2,1,4,5)             50.6294         estimate D2E/DX2                !
 ! D2    D(2,1,4,9)           -128.6177         estimate D2E/DX2                !
 ! D3    D(3,1,4,5)            -63.6466         estimate D2E/DX2                !
 ! D4    D(3,1,4,9)            117.1063         estimate D2E/DX2                !
 ! D5    D(26,1,4,5)           173.2568         estimate D2E/DX2                !
 ! D6    D(26,1,4,9)            -5.9903         estimate D2E/DX2                !
 ! D7    D(2,1,26,24)           63.363          estimate D2E/DX2                !
 ! D8    D(2,1,26,27)          -56.9768         estimate D2E/DX2                !
 ! D9    D(2,1,26,28)         -173.0923         estimate D2E/DX2                !
 ! D10   D(3,1,26,24)          177.3856         estimate D2E/DX2                !
 ! D11   D(3,1,26,27)           57.0459         estimate D2E/DX2                !
 ! D12   D(3,1,26,28)          -59.0697         estimate D2E/DX2                !
 ! D13   D(4,1,26,24)          -59.5697         estimate D2E/DX2                !
 ! D14   D(4,1,26,27)         -179.9095         estimate D2E/DX2                !
 ! D15   D(4,1,26,28)           63.975          estimate D2E/DX2                !
 ! D16   D(1,4,5,6)           -145.5423         estimate D2E/DX2                !
 ! D17   D(1,4,5,7)            -26.8394         estimate D2E/DX2                !
 ! D18   D(1,4,5,8)             92.6325         estimate D2E/DX2                !
 ! D19   D(9,4,5,6)             33.7178         estimate D2E/DX2                !
 ! D20   D(9,4,5,7)            152.4207         estimate D2E/DX2                !
 ! D21   D(9,4,5,8)            -88.1074         estimate D2E/DX2                !
 ! D22   D(1,4,9,10)            -1.7431         estimate D2E/DX2                !
 ! D23   D(1,4,9,11)           178.2955         estimate D2E/DX2                !
 ! D24   D(5,4,9,10)           179.0761         estimate D2E/DX2                !
 ! D25   D(5,4,9,11)            -0.8854         estimate D2E/DX2                !
 ! D26   D(4,9,11,12)            5.4084         estimate D2E/DX2                !
 ! D27   D(4,9,11,13)          125.7867         estimate D2E/DX2                !
 ! D28   D(4,9,11,14)         -115.9183         estimate D2E/DX2                !
 ! D29   D(10,9,11,12)        -174.5552         estimate D2E/DX2                !
 ! D30   D(10,9,11,13)         -54.1769         estimate D2E/DX2                !
 ! D31   D(10,9,11,14)          64.1181         estimate D2E/DX2                !
 ! D32   D(16,15,19,20)       -174.5143         estimate D2E/DX2                !
 ! D33   D(16,15,19,24)          4.7992         estimate D2E/DX2                !
 ! D34   D(17,15,19,20)        -55.0695         estimate D2E/DX2                !
 ! D35   D(17,15,19,24)        124.244          estimate D2E/DX2                !
 ! D36   D(18,15,19,20)         64.8703         estimate D2E/DX2                !
 ! D37   D(18,15,19,24)       -115.8162         estimate D2E/DX2                !
 ! D38   D(15,19,20,21)       -156.183          estimate D2E/DX2                !
 ! D39   D(15,19,20,22)        -37.4559         estimate D2E/DX2                !
 ! D40   D(15,19,20,23)         82.3332         estimate D2E/DX2                !
 ! D41   D(24,19,20,21)         24.5235         estimate D2E/DX2                !
 ! D42   D(24,19,20,22)        143.2506         estimate D2E/DX2                !
 ! D43   D(24,19,20,23)        -96.9602         estimate D2E/DX2                !
 ! D44   D(15,19,24,25)          2.707          estimate D2E/DX2                !
 ! D45   D(15,19,24,26)       -171.968          estimate D2E/DX2                !
 ! D46   D(20,19,24,25)       -178.0382         estimate D2E/DX2                !
 ! D47   D(20,19,24,26)          7.2869         estimate D2E/DX2                !
 ! D48   D(19,24,26,1)         160.3367         estimate D2E/DX2                !
 ! D49   D(19,24,26,27)        -79.6258         estimate D2E/DX2                !
 ! D50   D(19,24,26,28)         37.6551         estimate D2E/DX2                !
 ! D51   D(25,24,26,1)         -14.4743         estimate D2E/DX2                !
 ! D52   D(25,24,26,27)        105.5631         estimate D2E/DX2                !
 ! D53   D(25,24,26,28)       -137.1559         estimate D2E/DX2                !
 --------------------------------------------------------------------------------
 Trust Radius=3.00D-01 FncErr=1.00D-07 GrdErr=1.00D-07 EigMax=2.50D+02 EigMin=1.00D-04
 Number of steps in this run=    138 maximum allowed number of steps=    168.
 GradGradGradGradGradGradGradGradGradGradGradGradGradGradGradGradGradGrad

 Leave Link  103 at Fri Sep 17 20:09:27 2021, MaxMem=   524288000 cpu:               0.0 elap:               0.0
 (Enter /opt/gaussian/g16_legacy/l202.exe)
                          Input orientation:                          
 ---------------------------------------------------------------------
 Center     Atomic      Atomic             Coordinates (Angstroms)
 Number     Number       Type             X           Y           Z
 ---------------------------------------------------------------------
      1          6           0        2.208100    1.271500   -8.948400
      2          1           0        1.972600    0.252500   -9.284900
      3          1           0        2.060000    1.925900   -9.817500
      4          6           0        3.690900    1.312400   -8.589600
      5          6           0        4.585900    0.758400   -9.671300
      6          1           0        5.459500    0.241500   -9.263900
      7          1           0        4.054600    0.021600  -10.283500
      8          1           0        4.921700    1.565100  -10.330900
      9          6           0        4.172100    1.779600   -7.418600
     10          1           0        3.482600    2.181900   -6.679700
     11          6           0        5.595800    1.827700   -6.964600
     12          1           0        6.311500    1.516400   -7.726700
     13          1           0        5.851900    2.851700   -6.669800
     14          1           0        5.723000    1.182700   -6.091300
     15          6           0        0.913900    0.276200   -4.239000
     16          1           0        1.609000   -0.545900   -4.441600
     17          1           0        1.351100    0.882900   -3.438400
     18          1           0       -0.024200   -0.155600   -3.876900
     19          6           0        0.667800    1.126400   -5.455600
     20          6           0       -0.173300    2.348900   -5.225900
     21          1           0       -0.663800    2.691100   -6.142200
     22          1           0       -0.971900    2.134400   -4.504800
     23          1           0        0.438000    3.164900   -4.829000
     24          6           0        1.191700    0.795100   -6.651800
     25          1           0        1.763700   -0.128800   -6.733900
     26          6           0        1.154500    1.655400   -7.889500
     27          1           0        0.163400    1.557000   -8.349900
     28          1           0        1.288500    2.712300   -7.624400
 ---------------------------------------------------------------------
                    Distance matrix (angstroms):
                    1          2          3          4          5
     1  C    0.000000
     2  H    1.098660   0.000000
     3  H    1.097956   1.758286   0.000000
     4  C    1.526141   2.135272   2.131656   0.000000
     5  C    2.537674   2.689717   2.786503   1.509310   0.000000
     6  H    3.425207   3.486981   3.834094   2.174731   1.093772
     7  H    2.598904   2.320612   2.796774   2.160495   1.095419
     8  H    3.059597   3.393262   2.929690   2.147289   1.094805
     9  C    2.540817   3.263880   3.199545   1.349470   2.507735
    10  H    2.756842   3.576276   3.454724   2.108824   3.491890
    11  C    3.965014   4.581771   4.544289   2.556326   3.080507
    12  H    4.288405   4.780323   4.755459   2.766542   2.708086
    13  H    4.578900   5.351968   5.014342   3.274904   3.872165
    14  H    4.530500   5.012968   5.277735   3.223004   3.780136
    15  C    4.984378   5.155823   5.929141   5.264329   6.574647
    16  H    4.896234   4.922114   5.934096   4.999349   6.157345
    17  H    5.589773   5.913140   6.502561   5.673975   7.023423
    18  H    5.721878   5.779292   6.630781   6.177907   7.460797
    19  C    3.820109   4.138809   4.647967   4.358404   5.767067
    20  C    4.548501   5.047302   5.123412   5.226935   6.703824
    21  H    4.258853   4.772205   4.638151   5.182084   6.614320
    22  H    5.531960   5.921232   6.120512   6.253237   7.712019
    23  H    4.866998   5.540047   5.389911   5.306150   6.814997
    24  C    2.556247   2.799542   3.471932   3.204476   4.543052
    25  H    2.657507   2.587785   3.717281   3.038878   4.168963
    26  C    1.542310   2.141158   2.147157   2.653510   3.969122
    27  H    2.149537   2.418502   2.426320   3.544085   4.684268
    28  H    2.162070   3.045631   2.454246   2.943273   4.345155
                    6          7          8          9         10
     6  H    0.000000
     7  H    1.749767   0.000000
     8  H    1.783153   1.771017   0.000000
     9  C    2.725488   3.363335   3.014863   0.000000
    10  H    3.788321   4.240455   3.972746   1.087763   0.000000
    11  C    2.796675   4.080734   3.443159   1.495109   2.161536
    12  H    2.171234   3.723607   2.952249   2.177437   3.088976
    13  H    3.700875   4.929359   3.990522   2.128809   2.462176
    14  H    3.319741   4.658997   4.331572   2.126806   2.522698
    15  C    6.775936   6.816509   7.405064   4.794365   4.023298
    16  H    6.221007   6.358523   7.079135   4.565081   3.995042
    17  H    7.157290   7.409868   7.792377   4.960252   4.091054
    18  H    7.697300   7.596877   8.311248   5.822162   5.061348
    19  C    6.184382   5.999968   6.485112   4.069417   3.245859
    20  C    7.243964   6.990764   7.254956   4.900463   3.937896
    21  H    7.296599   6.822015   7.071838   5.083892   4.211986
    22  H    8.221618   7.944998   8.306748   5.922571   4.957319
    23  H    7.309587   7.260282   7.275564   4.750641   3.696075
    24  C    5.034248   4.688682   5.295430   3.231100   2.678099
    25  H    4.494103   4.227352   5.077467   3.148205   2.880432
    26  C    4.735094   4.100136   4.490032   3.056646   2.675980
    27  H    5.533047   4.608438   5.154207   4.121474   3.767911
    28  H    5.117622   4.686362   4.673473   3.037669   2.447010
                   11         12         13         14         15
    11  C    0.000000
    12  H    1.090839   0.000000
    13  H    1.095934   1.763887   0.000000
    14  H    1.093095   1.769808   1.771112   0.000000
    15  C    5.635267   6.544940   6.076663   5.232609   0.000000
    16  H    5.281485   6.095775   5.874586   4.757580   1.095472
    17  H    5.598590   6.587595   5.880078   5.122623   1.095531
    18  H    6.712062   7.599845   7.167475   6.302771   1.094349
    19  C    5.201354   6.096011   5.596949   5.095324   1.504500
    20  C    6.047912   6.999978   6.216164   6.072503   2.540091
    21  H    6.372158   7.248819   6.538998   6.562703   3.455872
    22  H    7.019926   7.988146   7.194859   6.945819   2.660789
    23  H    5.740365   6.753682   5.726862   5.783921   2.986498
    24  C    4.534336   5.280912   5.093858   4.582256   2.483553
    25  H    4.308840   4.937086   5.059730   4.220074   2.666592
    26  C    4.539854   5.161441   4.998437   4.932359   3.909761
    27  H    5.612780   6.179738   6.071080   6.012531   4.370721
    28  H    4.446424   5.164414   4.664259   4.935065   4.187582
                   16         17         18         19         20
    16  H    0.000000
    17  H    1.764764   0.000000
    18  H    1.771599   1.778262   0.000000
    19  C    2.170401   2.143662   2.148181   0.000000
    20  C    3.488780   2.769135   2.848605   1.501572   0.000000
    21  H    4.305326   3.826218   3.693829   2.166302   1.094211
    22  H    3.721431   2.846013   2.556657   2.146788   1.097159
    23  H    3.910416   2.824012   3.485089   2.144975   1.094108
    24  C    2.618665   3.218549   3.175266   1.347266   2.512113
    25  H    2.335068   3.471901   3.370423   2.100137   3.487840
    26  C    4.115860   4.521913   4.557413   2.537831   3.055938
    27  H    4.667629   5.097830   4.793321   2.969311   3.240347
    28  H    4.566049   4.568722   4.898141   2.757543   2.832264
                   21         22         23         24         25
    21  H    0.000000
    22  H    1.756678   0.000000
    23  H    1.778467   1.776191   0.000000
    24  C    2.701368   3.329339   3.083280   0.000000
    25  H    3.767586   4.192191   4.029216   1.089732   0.000000
    26  C    2.726160   4.025818   3.486922   1.507780   2.211313
    27  H    2.616177   4.050567   3.880397   2.126367   2.830961
    28  H    2.451294   3.895546   2.956765   2.151970   3.015071
                   26         27         28
    26  C    0.000000
    27  H    1.097237   0.000000
    28  H    1.097849   1.768309   0.000000
 Stoichiometry    C10H18
 Framework group  C1[X(C10H18)]
 Deg. of freedom    78
 Full point group                 C1      NOp   1
 Largest Abelian subgroup         C1      NOp   1
 Largest concise Abelian subgroup C1      NOp   1
                         Standard orientation:                         
 ---------------------------------------------------------------------
 Center     Atomic      Atomic             Coordinates (Angstroms)
 Number     Number       Type             X           Y           Z
 ---------------------------------------------------------------------
      1          6           0        1.036292   -1.566041    0.061781
      2          1           0        1.071700   -1.966845    1.084110
      3          1           0        1.481695   -2.332379   -0.586177
      4          6           0        1.941694   -0.338524    0.011233
      5          6           0        3.322339   -0.587456    0.567891
      6          1           0        3.729548    0.290329    1.077805
      7          1           0        3.308450   -1.391885    1.311291
      8          1           0        4.003882   -0.883548   -0.236116
      9          6           0        1.557939    0.863999   -0.465988
     10          1           0        0.554984    0.983632   -0.869718
     11          6           0        2.356881    2.126405   -0.524068
     12          1           0        3.394859    2.005094   -0.211312
     13          1           0        2.364059    2.508462   -1.551225
     14          1           0        1.892771    2.882452    0.114566
     15          6           0       -2.982416    1.218120    1.032582
     16          1           0       -2.320039    1.516371    1.852559
     17          1           0       -3.161760    2.107467    0.418508
     18          1           0       -3.934018    0.896144    1.466615
     19          6           0       -2.388665    0.120983    0.191589
     20          6           0       -3.180137   -0.253615   -1.028233
     21          1           0       -2.966850   -1.273615   -1.362007
     22          1           0       -4.255503   -0.212691   -0.814531
     23          1           0       -2.966548    0.436644   -1.849814
     24          6           0       -1.218636   -0.455989    0.528131
     25          1           0       -0.728058   -0.143707    1.449722
     26          6           0       -0.451279   -1.435115   -0.323852
     27          1           0       -0.914710   -2.423985   -0.217562
     28          1           0       -0.518540   -1.154552   -1.383113
 ---------------------------------------------------------------------
 Rotational constants (GHZ):           1.9684111           0.6304302           0.5431077
 Leave Link  202 at Fri Sep 17 20:09:27 2021, MaxMem=   524288000 cpu:               0.0 elap:               0.0
 (Enter /opt/gaussian/g16_legacy/l301.exe)
 Standard basis: 6-31G(d,p) (6D, 7F)
 Ernie: Thresh=  0.10000D-02 Tol=  0.10000D-05 Strict=F.
 There are   240 symmetry adapted cartesian basis functions of A   symmetry.
 There are   240 symmetry adapted basis functions of A   symmetry.
   240 basis functions,   406 primitive gaussians,   240 cartesian basis functions
    39 alpha electrons       39 beta electrons
       nuclear repulsion energy       520.6055764431 Hartrees.
 IExCor=    0 DFT=F Ex=HF Corr=None ExCW=0 ScaHFX=  1.000000
 ScaDFX=  1.000000  1.000000  1.000000  1.000000 ScalE2=  1.000000  1.000000
 IRadAn=      5 IRanWt=     -1 IRanGd=            0 ICorTp=0 IEmpDi=  4
 NAtoms=   28 NActive=   28 NUniq=   28 SFac= 1.00D+00 NAtFMM=   60 NAOKFM=F Big=F
 Integral buffers will be    131072 words long.
 Raffenetti 1 integral format.
 Two-electron integral symmetry is turned on.
 Leave Link  301 at Fri Sep 17 20:09:28 2021, MaxMem=   524288000 cpu:               0.1 elap:               0.1
 (Enter /opt/gaussian/g16_legacy/l302.exe)
 NPDir=0 NMtPBC=     1 NCelOv=     1 NCel=       1 NClECP=     1 NCelD=      1
         NCelK=      1 NCelE2=     1 NClLst=     1 CellRange=     0.0.
 One-electron integrals computed using PRISM.
 One-electron integral symmetry used in STVInt
 NBasis=   240 RedAO= T EigKep=  2.13D-03  NBF=   240
 NBsUse=   240 1.00D-06 EigRej= -1.00D+00 NBFU=   240
 Leave Link  302 at Fri Sep 17 20:09:28 2021, MaxMem=   524288000 cpu:               0.3 elap:               0.3
 (Enter /opt/gaussian/g16_legacy/l303.exe)
 DipDrv:  MaxL=1.
 Leave Link  303 at Fri Sep 17 20:09:28 2021, MaxMem=   524288000 cpu:               0.1 elap:               0.1
 (Enter /opt/gaussian/g16_legacy/l401.exe)
 ExpMin= 1.61D-01 ExpMax= 3.05D+03 ExpMxC= 4.57D+02 IAcc=3 IRadAn=         5 AccDes= 0.00D+00
 Harris functional with IExCor=  205 and IRadAn=       5 diagonalized for initial guess.
 HarFok:  IExCor=  205 AccDes= 0.00D+00 IRadAn=         5 IDoV= 1 UseB2=F ITyADJ=14
 ICtDFT=  3500011 ScaDFX=  1.000000  1.000000  1.000000  1.000000
 FoFCou: FMM=F IPFlag=           0 FMFlag=      100000 FMFlg1=           0
         NFxFlg=           0 DoJE=T BraDBF=F KetDBF=T FulRan=T
         wScrn=  0.000000 ICntrl=       500 IOpCl=  0 I1Cent=   200000004 NGrid=           0
         NMat0=    1 NMatS0=      1 NMatT0=    0 NMatD0=    1 NMtDS0=    0 NMtDT0=    0
 Petite list used in FoFCou.
 Harris En= -390.105459568193    
 JPrj=0 DoOrth=F DoCkMO=F.
 Leave Link  401 at Fri Sep 17 20:09:39 2021, MaxMem=   524288000 cpu:              11.1 elap:              11.1
 (Enter /opt/gaussian/g16_legacy/l502.exe)
 Keep R1 ints in memory in canonical form, NReq=425198025.
 FoFCou: FMM=F IPFlag=           0 FMFlag=           0 FMFlg1=           0
         NFxFlg=           0 DoJE=F BraDBF=F KetDBF=F FulRan=T
         wScrn=  0.000000 ICntrl=       600 IOpCl=  0 I1Cent=           0 NGrid=           0
         NMat0=    1 NMatS0=  28920 NMatT0=    0 NMatD0=    1 NMtDS0=    0 NMtDT0=    0
 Symmetry not used in FoFCou.
 Two-electron integral symmetry not used.
 Closed shell SCF:
 Using DIIS extrapolation, IDIIS=  1040.
 NGot=   524288000 LenX=   105970886 LenY=   105912845
 Requested convergence on RMS density matrix=1.00D-08 within 128 cycles.
 Requested convergence on MAX density matrix=1.00D-06.
 Requested convergence on             energy=1.00D-06.
 No special actions if energy rises.

 Cycle   1  Pass 1  IDiag  1:
 E= -388.526116767938    
 DIIS: error= 5.18D-02 at cycle   1 NSaved=   1.
 NSaved= 1 IEnMin= 1 EnMin= -388.526116767938     IErMin= 1 ErrMin= 5.18D-02
 ErrMax= 5.18D-02  0.00D+00 EMaxC= 1.00D-01 BMatC= 8.08D-01 BMatP= 8.08D-01
 IDIUse=3 WtCom= 4.82D-01 WtEn= 5.18D-01
 Coeff-Com:  0.100D+01
 Coeff-En:   0.100D+01
 Coeff:      0.100D+01
 Gap=     0.507 Goal=   None    Shift=    0.000
 GapD=    0.507 DampG=2.000 DampE=0.500 DampFc=1.0000 IDamp=-1.
 RMSDP=4.06D-03 MaxDP=1.16D-01              OVMax= 1.39D-01

 Cycle   2  Pass 1  IDiag  1:
 E= -389.066634653655     Delta-E=       -0.540517885717 Rises=F Damp=F
 DIIS: error= 1.50D-02 at cycle   2 NSaved=   2.
 NSaved= 2 IEnMin= 2 EnMin= -389.066634653655     IErMin= 2 ErrMin= 1.50D-02
 ErrMax= 1.50D-02  0.00D+00 EMaxC= 1.00D-01 BMatC= 8.74D-02 BMatP= 8.08D-01
 IDIUse=3 WtCom= 8.50D-01 WtEn= 1.50D-01
 Coeff-Com:  0.184D+00 0.816D+00
 Coeff-En:   0.000D+00 0.100D+01
 Coeff:      0.156D+00 0.844D+00
 Gap=     0.565 Goal=   None    Shift=    0.000
 RMSDP=1.69D-03 MaxDP=3.14D-02 DE=-5.41D-01 OVMax= 4.35D-02

 Cycle   3  Pass 1  IDiag  1:
 E= -389.145151207770     Delta-E=       -0.078516554114 Rises=F Damp=F
 DIIS: error= 3.11D-03 at cycle   3 NSaved=   3.
 NSaved= 3 IEnMin= 3 EnMin= -389.145151207770     IErMin= 3 ErrMin= 3.11D-03
 ErrMax= 3.11D-03  0.00D+00 EMaxC= 1.00D-01 BMatC= 3.00D-03 BMatP= 8.74D-02
 IDIUse=3 WtCom= 9.69D-01 WtEn= 3.11D-02
 Coeff-Com: -0.250D-01 0.102D+00 0.923D+00
 Coeff-En:   0.000D+00 0.000D+00 0.100D+01
 Coeff:     -0.243D-01 0.990D-01 0.925D+00
 Gap=     0.498 Goal=   None    Shift=    0.000
 RMSDP=2.57D-04 MaxDP=6.42D-03 DE=-7.85D-02 OVMax= 1.10D-02

 Cycle   4  Pass 1  IDiag  1:
 E= -389.148712727083     Delta-E=       -0.003561519314 Rises=F Damp=F
 DIIS: error= 4.53D-04 at cycle   4 NSaved=   4.
 NSaved= 4 IEnMin= 4 EnMin= -389.148712727083     IErMin= 4 ErrMin= 4.53D-04
 ErrMax= 4.53D-04  0.00D+00 EMaxC= 1.00D-01 BMatC= 6.48D-05 BMatP= 3.00D-03
 IDIUse=3 WtCom= 9.95D-01 WtEn= 4.53D-03
 Coeff-Com: -0.154D-02-0.127D-01-0.156D-05 0.101D+01
 Coeff-En:   0.000D+00 0.000D+00 0.000D+00 0.100D+01
 Coeff:     -0.153D-02-0.127D-01-0.155D-05 0.101D+01
 Gap=     0.498 Goal=   None    Shift=    0.000
 RMSDP=7.92D-05 MaxDP=1.52D-03 DE=-3.56D-03 OVMax= 2.06D-03

 Cycle   5  Pass 1  IDiag  1:
 E= -389.148816553264     Delta-E=       -0.000103826181 Rises=F Damp=F
 DIIS: error= 2.10D-04 at cycle   5 NSaved=   5.
 NSaved= 5 IEnMin= 5 EnMin= -389.148816553264     IErMin= 5 ErrMin= 2.10D-04
 ErrMax= 2.10D-04  0.00D+00 EMaxC= 1.00D-01 BMatC= 9.56D-06 BMatP= 6.48D-05
 IDIUse=3 WtCom= 9.98D-01 WtEn= 2.10D-03
 Coeff-Com:  0.225D-02-0.134D-01-0.917D-01 0.174D+00 0.929D+00
 Coeff-En:   0.000D+00 0.000D+00 0.000D+00 0.000D+00 0.100D+01
 Coeff:      0.224D-02-0.134D-01-0.915D-01 0.174D+00 0.929D+00
 Gap=     0.499 Goal=   None    Shift=    0.000
 RMSDP=2.42D-05 MaxDP=6.59D-04 DE=-1.04D-04 OVMax= 9.86D-04

 Cycle   6  Pass 1  IDiag  1:
 E= -389.148830710120     Delta-E=       -0.000014156856 Rises=F Damp=F
 DIIS: error= 2.75D-05 at cycle   6 NSaved=   6.
 NSaved= 6 IEnMin= 6 EnMin= -389.148830710120     IErMin= 6 ErrMin= 2.75D-05
 ErrMax= 2.75D-05  0.00D+00 EMaxC= 1.00D-01 BMatC= 5.16D-07 BMatP= 9.56D-06
 IDIUse=1 WtCom= 1.00D+00 WtEn= 0.00D+00
 Coeff-Com:  0.566D-03-0.245D-02-0.195D-01-0.157D-01 0.188D+00 0.849D+00
 Coeff:      0.566D-03-0.245D-02-0.195D-01-0.157D-01 0.188D+00 0.849D+00
 Gap=     0.499 Goal=   None    Shift=    0.000
 RMSDP=5.08D-06 MaxDP=1.49D-04 DE=-1.42D-05 OVMax= 2.51D-04

 Cycle   7  Pass 1  IDiag  1:
 E= -389.148831445760     Delta-E=       -0.000000735640 Rises=F Damp=F
 DIIS: error= 1.71D-05 at cycle   7 NSaved=   7.
 NSaved= 7 IEnMin= 7 EnMin= -389.148831445760     IErMin= 7 ErrMin= 1.71D-05
 ErrMax= 1.71D-05  0.00D+00 EMaxC= 1.00D-01 BMatC= 4.82D-08 BMatP= 5.16D-07
 IDIUse=1 WtCom= 1.00D+00 WtEn= 0.00D+00
 Coeff-Com: -0.679D-04 0.532D-03 0.361D-02-0.154D-01-0.386D-01 0.131D+00
 Coeff-Com:  0.919D+00
 Coeff:     -0.679D-04 0.532D-03 0.361D-02-0.154D-01-0.386D-01 0.131D+00
 Coeff:      0.919D+00
 Gap=     0.499 Goal=   None    Shift=    0.000
 RMSDP=1.85D-06 MaxDP=5.93D-05 DE=-7.36D-07 OVMax= 1.25D-04

 Cycle   8  Pass 1  IDiag  1:
 E= -389.148831548928     Delta-E=       -0.000000103167 Rises=F Damp=F
 DIIS: error= 4.16D-06 at cycle   8 NSaved=   8.
 NSaved= 8 IEnMin= 8 EnMin= -389.148831548928     IErMin= 8 ErrMin= 4.16D-06
 ErrMax= 4.16D-06  0.00D+00 EMaxC= 1.00D-01 BMatC= 7.84D-09 BMatP= 4.82D-08
 IDIUse=1 WtCom= 1.00D+00 WtEn= 0.00D+00
 Coeff-Com: -0.700D-04 0.287D-03 0.246D-02 0.387D-02-0.235D-01-0.143D+00
 Coeff-Com: -0.338D-01 0.119D+01
 Coeff:     -0.700D-04 0.287D-03 0.246D-02 0.387D-02-0.235D-01-0.143D+00
 Coeff:     -0.338D-01 0.119D+01
 Gap=     0.499 Goal=   None    Shift=    0.000
 RMSDP=1.01D-06 MaxDP=2.36D-05 DE=-1.03D-07 OVMax= 8.71D-05

 Cycle   9  Pass 1  IDiag  1:
 E= -389.148831574256     Delta-E=       -0.000000025328 Rises=F Damp=F
 DIIS: error= 1.99D-06 at cycle   9 NSaved=   9.
 NSaved= 9 IEnMin= 9 EnMin= -389.148831574256     IErMin= 9 ErrMin= 1.99D-06
 ErrMax= 1.99D-06  0.00D+00 EMaxC= 1.00D-01 BMatC= 8.26D-10 BMatP= 7.84D-09
 IDIUse=1 WtCom= 1.00D+00 WtEn= 0.00D+00
 Coeff-Com:  0.151D-04-0.997D-04-0.734D-03 0.179D-02 0.753D-02-0.484D-02
 Coeff-Com: -0.987D-01-0.167D+00 0.126D+01
 Coeff:      0.151D-04-0.997D-04-0.734D-03 0.179D-02 0.753D-02-0.484D-02
 Coeff:     -0.987D-01-0.167D+00 0.126D+01
 Gap=     0.499 Goal=   None    Shift=    0.000
 RMSDP=3.91D-07 MaxDP=1.00D-05 DE=-2.53D-08 OVMax= 3.40D-05

 Cycle  10  Pass 1  IDiag  1:
 E= -389.148831577384     Delta-E=       -0.000000003128 Rises=F Damp=F
 DIIS: error= 4.07D-07 at cycle  10 NSaved=  10.
 NSaved=10 IEnMin=10 EnMin= -389.148831577384     IErMin=10 ErrMin= 4.07D-07
 ErrMax= 4.07D-07  0.00D+00 EMaxC= 1.00D-01 BMatC= 5.05D-11 BMatP= 8.26D-10
 IDIUse=1 WtCom= 1.00D+00 WtEn= 0.00D+00
 Coeff-Com:  0.721D-05-0.321D-04-0.267D-03-0.287D-03 0.254D-02 0.135D-01
 Coeff-Com:  0.601D-02-0.117D+00 0.344D-01 0.106D+01
 Coeff:      0.721D-05-0.321D-04-0.267D-03-0.287D-03 0.254D-02 0.135D-01
 Coeff:      0.601D-02-0.117D+00 0.344D-01 0.106D+01
 Gap=     0.499 Goal=   None    Shift=    0.000
 RMSDP=8.55D-08 MaxDP=2.40D-06 DE=-3.13D-09 OVMax= 8.10D-06

 Cycle  11  Pass 1  IDiag  1:
 E= -389.148831577560     Delta-E=       -0.000000000176 Rises=F Damp=F
 DIIS: error= 1.33D-07 at cycle  11 NSaved=  11.
 NSaved=11 IEnMin=11 EnMin= -389.148831577560     IErMin=11 ErrMin= 1.33D-07
 ErrMax= 1.33D-07  0.00D+00 EMaxC= 1.00D-01 BMatC= 8.29D-12 BMatP= 5.05D-11
 IDIUse=1 WtCom= 1.00D+00 WtEn= 0.00D+00
 Coeff-Com: -0.107D-06 0.303D-05 0.183D-04-0.164D-03-0.270D-03 0.176D-02
 Coeff-Com:  0.738D-02-0.571D-02-0.107D+00 0.135D+00 0.969D+00
 Coeff:     -0.107D-06 0.303D-05 0.183D-04-0.164D-03-0.270D-03 0.176D-02
 Coeff:      0.738D-02-0.571D-02-0.107D+00 0.135D+00 0.969D+00
 Gap=     0.499 Goal=   None    Shift=    0.000
 RMSDP=3.04D-08 MaxDP=6.43D-07 DE=-1.76D-10 OVMax= 1.76D-06

 Cycle  12  Pass 1  IDiag  1:
 E= -389.148831577598     Delta-E=       -0.000000000037 Rises=F Damp=F
 DIIS: error= 5.77D-08 at cycle  12 NSaved=  12.
 NSaved=12 IEnMin=12 EnMin= -389.148831577598     IErMin=12 ErrMin= 5.77D-08
 ErrMax= 5.77D-08  0.00D+00 EMaxC= 1.00D-01 BMatC= 7.02D-13 BMatP= 8.29D-12
 IDIUse=1 WtCom= 1.00D+00 WtEn= 0.00D+00
 Coeff-Com: -0.932D-06 0.479D-05 0.383D-04 0.816D-05-0.388D-03-0.142D-02
 Coeff-Com:  0.113D-02 0.161D-01-0.224D-01-0.996D-01 0.179D+00 0.928D+00
 Coeff:     -0.932D-06 0.479D-05 0.383D-04 0.816D-05-0.388D-03-0.142D-02
 Coeff:      0.113D-02 0.161D-01-0.224D-01-0.996D-01 0.179D+00 0.928D+00
 Gap=     0.499 Goal=   None    Shift=    0.000
 RMSDP=7.06D-09 MaxDP=1.63D-07 DE=-3.74D-11 OVMax= 3.01D-07

 SCF Done:  E(RHF) =  -389.148831578     A.U. after   12 cycles
            NFock= 12  Conv=0.71D-08     -V/T= 2.0015
 KE= 3.885771530842D+02 PE=-1.945924365853D+03 EE= 6.475928047482D+02
 Leave Link  502 at Fri Sep 17 20:10:14 2021, MaxMem=   524288000 cpu:              35.5 elap:              35.5
 (Enter /opt/gaussian/g16_legacy/l801.exe)
 ExpMin= 1.61D-01 ExpMax= 3.05D+03 ExpMxC= 4.57D+02 IAcc=3 IRadAn=         5 AccDes= 0.00D+00
 HarFok:  IExCor=  205 AccDes= 0.00D+00 IRadAn=         5 IDoV=-2 UseB2=F ITyADJ=14
 ICtDFT= 12500011 ScaDFX=  1.000000  1.000000  1.000000  1.000000
 Largest valence mixing into a core orbital is  1.98D-04
 Largest core mixing into a valence orbital is  3.52D-05
 Range of M.O.s used for correlation:    11   240
 NBasis=   240 NAE=    39 NBE=    39 NFC=    10 NFV=     0
 NROrb=    230 NOA=    29 NOB=    29 NVA=   201 NVB=   201
 Leave Link  801 at Fri Sep 17 20:10:16 2021, MaxMem=   524288000 cpu:               1.7 elap:               1.6
 (Enter /opt/gaussian/g16_legacy/l906.exe)
 Frozen-core derivative calculation, NFC=  10 NFV=   0.
 FulOut=F Deriv=T AODrv=T NAtomX=    28
   MMem=          88  MDisk=          29 MDiskD=          29
  W3Min=     2246400 MinDsk=     2795480 NBas6D=         240
 NBas2D=       29244    NTT=       28920    LW2=     2040000
    MDV=   523625726 MDiskM=       30186 NBas2p=       24407
 Fully direct method using O(ONN) memory.
 IMap=   1   2   3   4   5   6   7   8   9  10  11  12  13  14  15  16  17  18  19  20
 IMap=  21  22  23  24  25  26  27  28  29  30  31  32  33  34  35  36  37  38  39
 JobTyp=1 Pass  1:  I=  11 to  39 NPSUse=  1 ParTrn=F ParDer=F DoDerP=T.
 Spin components of T(2) and E(2):
     alpha-alpha T2 =       0.5718937743D-01 E2=     -0.1639165788D+00
     alpha-beta  T2 =       0.3624895073D+00 E2=     -0.1090191737D+01
     beta-beta   T2 =       0.5718937743D-01 E2=     -0.1639165788D+00
 The integrals were generated   1 times.
 ANorm=    0.1215264688D+01
 E2 =    -0.1418024895D+01 EUMP2 =    -0.39056685647239D+03
 Leave Link  906 at Fri Sep 17 20:14:49 2021, MaxMem=   524288000 cpu:             272.5 elap:             272.6
 (Enter /opt/gaussian/g16_legacy/l1002.exe)
 Minotr:  Closed shell wavefunction.
          Computing MP2/KS-MP2 derivatives.
          Using Z-Vector for PSCF gradient.
          Skipping F1 and S1 gradient terms here.
          IDoAtm=1111111111111111111111111111
          Frozen-core window.
          Direct CPHF calculation.
          Differentiating once with respect to electric field.
                with respect to dipole field.
          Differentiating once with respect to nuclear coordinates.
          Requested convergence is 1.0D-10 RMS, and 1.0D-09 maximum.
          NewPWx=F KeepS1=T KeepF1=T KeepIn=T MapXYZ=F SortEE=F KeepMc=T.
 Keep R1 ints in memory in canonical form, NReq=425201067.
 FoFCou: FMM=F IPFlag=           0 FMFlag=           0 FMFlg1=           0
         NFxFlg=           0 DoJE=F BraDBF=F KetDBF=F FulRan=T
         wScrn=  0.000000 ICntrl=       600 IOpCl=  0 I1Cent=           0 NGrid=           0
         NMat0=    1 NMatS0=  28920 NMatT0=    0 NMatD0=    1 NMtDS0=    0 NMtDT0=    0
 Symmetry not used in FoFCou.
 Two-electron integral symmetry not used.
          MDV=     524288000 using IRadAn=       5.
          Solving linear equations separately, MaxMat=       0.
          There are     1 degrees of freedom in the 1st order CPHF.  IDoFFX=0 NUNeed=     1.
 LinEq1:  Iter=  0 NonCon=     1 RMS=2.52D-03 Max=3.65D-02 NDo=     1
 AX will form     1 AO Fock derivatives at one time.
 LinEq1:  Iter=  1 NonCon=     1 RMS=6.86D-04 Max=9.59D-03 NDo=     1
 LinEq1:  Iter=  2 NonCon=     1 RMS=1.52D-04 Max=2.62D-03 NDo=     1
 LinEq1:  Iter=  3 NonCon=     1 RMS=3.38D-05 Max=4.79D-04 NDo=     1
 LinEq1:  Iter=  4 NonCon=     1 RMS=1.47D-05 Max=5.52D-04 NDo=     1
 LinEq1:  Iter=  5 NonCon=     1 RMS=4.00D-06 Max=4.88D-05 NDo=     1
 LinEq1:  Iter=  6 NonCon=     1 RMS=1.46D-06 Max=4.05D-05 NDo=     1
 LinEq1:  Iter=  7 NonCon=     1 RMS=4.10D-07 Max=6.59D-06 NDo=     1
 LinEq1:  Iter=  8 NonCon=     1 RMS=9.70D-08 Max=1.94D-06 NDo=     1
 LinEq1:  Iter=  9 NonCon=     1 RMS=2.54D-08 Max=6.20D-07 NDo=     1
 LinEq1:  Iter= 10 NonCon=     1 RMS=9.45D-09 Max=2.09D-07 NDo=     1
 LinEq1:  Iter= 11 NonCon=     1 RMS=2.78D-09 Max=2.83D-08 NDo=     1
 LinEq1:  Iter= 12 NonCon=     1 RMS=8.00D-10 Max=1.28D-08 NDo=     1
 LinEq1:  Iter= 13 NonCon=     1 RMS=2.34D-10 Max=4.35D-09 NDo=     1
 LinEq1:  Iter= 14 NonCon=     0 RMS=6.63D-11 Max=7.66D-10 NDo=     1
 Linear equations converged to 1.000D-10 1.000D-09 after    14 iterations.
 End of Minotr F.D. properties file   721 does not exist.
 End of Minotr F.D. properties file   722 does not exist.
 End of Minotr F.D. properties file   788 does not exist.
 Leave Link 1002 at Fri Sep 17 20:15:26 2021, MaxMem=   524288000 cpu:              36.9 elap:              36.9
 (Enter /opt/gaussian/g16_legacy/l601.exe)
 Copying SCF densities to generalized density rwf, IOpCl= 0 IROHF=0.

 **********************************************************************

            Population analysis using the SCF density.

 **********************************************************************

 Orbital symmetries:
       Occupied  (A) (A) (A) (A) (A) (A) (A) (A) (A) (A) (A) (A)
                 (A) (A) (A) (A) (A) (A) (A) (A) (A) (A) (A) (A)
                 (A) (A) (A) (A) (A) (A) (A) (A) (A) (A) (A) (A)
                 (A) (A) (A)
       Virtual   (A) (A) (A) (A) (A) (A) (A) (A) (A) (A) (A) (A)
                 (A) (A) (A) (A) (A) (A) (A) (A) (A) (A) (A) (A)
                 (A) (A) (A) (A) (A) (A) (A) (A) (A) (A) (A) (A)
                 (A) (A) (A) (A) (A) (A) (A) (A) (A) (A) (A) (A)
                 (A) (A) (A) (A) (A) (A) (A) (A) (A) (A) (A) (A)
                 (A) (A) (A) (A) (A) (A) (A) (A) (A) (A) (A) (A)
                 (A) (A) (A) (A) (A) (A) (A) (A) (A) (A) (A) (A)
                 (A) (A) (A) (A) (A) (A) (A) (A) (A) (A) (A) (A)
                 (A) (A) (A) (A) (A) (A) (A) (A) (A) (A) (A) (A)
                 (A) (A) (A) (A) (A) (A) (A) (A) (A) (A) (A) (A)
                 (A) (A) (A) (A) (A) (A) (A) (A) (A) (A) (A) (A)
                 (A) (A) (A) (A) (A) (A) (A) (A) (A) (A) (A) (A)
                 (A) (A) (A) (A) (A) (A) (A) (A) (A) (A) (A) (A)
                 (A) (A) (A) (A) (A) (A) (A) (A) (A) (A) (A) (A)
                 (A) (A) (A) (A) (A) (A) (A) (A) (A) (A) (A) (A)
                 (A) (A) (A) (A) (A) (A) (A) (A) (A) (A) (A) (A)
                 (A) (A) (A) (A) (A) (A) (A) (A) (A)
 The electronic state is 1-A.
 Alpha  occ. eigenvalues --  -11.22711 -11.22455 -11.22316 -11.21964 -11.21639
 Alpha  occ. eigenvalues --  -11.21494 -11.21416 -11.21344 -11.21224 -11.21055
 Alpha  occ. eigenvalues --   -1.10320  -1.07993  -1.01819  -0.97586  -0.93442
 Alpha  occ. eigenvalues --   -0.91608  -0.87395  -0.82037  -0.70247  -0.68996
 Alpha  occ. eigenvalues --   -0.63171  -0.61696  -0.60427  -0.58780  -0.57833
 Alpha  occ. eigenvalues --   -0.57141  -0.55341  -0.54596  -0.53614  -0.52678
 Alpha  occ. eigenvalues --   -0.52511  -0.51027  -0.49698  -0.49334  -0.46892
 Alpha  occ. eigenvalues --   -0.45698  -0.44647  -0.32751  -0.31183
 Alpha virt. eigenvalues --    0.18678   0.19362   0.23141   0.24249   0.25652
 Alpha virt. eigenvalues --    0.26983   0.28771   0.29437   0.30172   0.30785
 Alpha virt. eigenvalues --    0.31622   0.32752   0.33344   0.33558   0.33691
 Alpha virt. eigenvalues --    0.34369   0.36033   0.36369   0.38276   0.39483
 Alpha virt. eigenvalues --    0.40021   0.41476   0.42545   0.45311   0.46543
 Alpha virt. eigenvalues --    0.51323   0.51761   0.60463   0.61947   0.69315
 Alpha virt. eigenvalues --    0.70554   0.72505   0.75404   0.76251   0.77221
 Alpha virt. eigenvalues --    0.78745   0.80194   0.80449   0.81415   0.83556
 Alpha virt. eigenvalues --    0.84292   0.86251   0.87753   0.91104   0.92856
 Alpha virt. eigenvalues --    0.93610   0.95020   0.97418   0.98813   1.00162
 Alpha virt. eigenvalues --    1.00896   1.01828   1.03103   1.04346   1.06689
 Alpha virt. eigenvalues --    1.07828   1.09902   1.12126   1.12279   1.13275
 Alpha virt. eigenvalues --    1.13534   1.13942   1.14675   1.15365   1.15782
 Alpha virt. eigenvalues --    1.16247   1.17249   1.17809   1.18499   1.19415
 Alpha virt. eigenvalues --    1.20865   1.22492   1.22743   1.24108   1.25262
 Alpha virt. eigenvalues --    1.26499   1.32637   1.38459   1.41148   1.44692
 Alpha virt. eigenvalues --    1.45863   1.53324   1.54451   1.57110   1.58334
 Alpha virt. eigenvalues --    1.61832   1.64278   1.68063   1.70530   1.71776
 Alpha virt. eigenvalues --    1.76624   1.80130   1.91391   1.92840   1.95432
 Alpha virt. eigenvalues --    2.00467   2.02612   2.04162   2.06101   2.08673
 Alpha virt. eigenvalues --    2.08934   2.09625   2.11832   2.12708   2.14052
 Alpha virt. eigenvalues --    2.15665   2.20672   2.22731   2.23190   2.27365
 Alpha virt. eigenvalues --    2.28917   2.30420   2.33114   2.35296   2.35567
 Alpha virt. eigenvalues --    2.35904   2.36642   2.38695   2.39919   2.40557
 Alpha virt. eigenvalues --    2.41130   2.41501   2.42843   2.44422   2.46081
 Alpha virt. eigenvalues --    2.47317   2.48276   2.49789   2.50705   2.52128
 Alpha virt. eigenvalues --    2.53157   2.54307   2.60408   2.61892   2.64842
 Alpha virt. eigenvalues --    2.67560   2.69656   2.71195   2.72974   2.74649
 Alpha virt. eigenvalues --    2.77201   2.78326   2.82777   2.83900   2.86096
 Alpha virt. eigenvalues --    2.87722   2.89611   2.91605   2.92412   2.94009
 Alpha virt. eigenvalues --    2.95754   2.98618   3.00659   3.02489   3.03212
 Alpha virt. eigenvalues --    3.05153   3.06166   3.09371   3.11799   3.13631
 Alpha virt. eigenvalues --    3.16205   3.17440   3.20014   3.21179   3.22539
 Alpha virt. eigenvalues --    3.23414   3.24635   3.25642   3.27443   3.38400
 Alpha virt. eigenvalues --    3.39326   3.42791   3.45592   3.55831   3.56436
 Alpha virt. eigenvalues --    3.60468   3.61214   3.66470   3.71096   3.78764
 Alpha virt. eigenvalues --    3.79420   3.80919   3.81324   3.82257   3.82754
 Alpha virt. eigenvalues --    3.83126   3.85840   3.86133   3.89647   3.92057
 Alpha virt. eigenvalues --    3.92598   4.59189   4.61377   4.76319   4.80924
 Alpha virt. eigenvalues --    4.89317   4.91592   4.92373   5.00513   5.09396
 Alpha virt. eigenvalues --    5.17232
          Condensed to atoms (all electrons):
               1          2          3          4          5          6
     1  C    4.940007   0.403577   0.411504   0.350209  -0.056797   0.003124
     2  H    0.403577   0.611941  -0.034407  -0.046957  -0.006470   0.000023
     3  H    0.411504  -0.034407   0.594239  -0.048384   0.000161  -0.000008
     4  C    0.350209  -0.046957  -0.048384   4.953899   0.340824  -0.037028
     5  C   -0.056797  -0.006470   0.000161   0.340824   4.924549   0.405248
     6  H    0.003124   0.000023  -0.000008  -0.037028   0.405248   0.568276
     7  H   -0.005033   0.002156  -0.000229  -0.043258   0.405753  -0.030261
     8  H    0.000706  -0.000001   0.000887  -0.041011   0.398064  -0.026201
     9  C   -0.043625   0.001325  -0.001494   0.693084  -0.053428  -0.002884
    10  H   -0.006201   0.000127   0.000040  -0.032818   0.003279   0.000040
    11  C    0.002965  -0.000086  -0.000091  -0.048542  -0.007385  -0.002266
    12  H    0.000089  -0.000001  -0.000003  -0.000240  -0.001524  -0.001541
    13  H   -0.000094  -0.000003   0.000015   0.000618   0.000179  -0.000081
    14  H   -0.000097   0.000016  -0.000004  -0.001880   0.000340   0.000344
    15  C   -0.000065  -0.000000   0.000001  -0.000011  -0.000000   0.000000
    16  H   -0.000008  -0.000000   0.000000  -0.000000  -0.000000   0.000000
    17  H    0.000004   0.000000  -0.000000  -0.000001   0.000000  -0.000000
    18  H   -0.000000  -0.000000  -0.000000   0.000000   0.000000   0.000000
    19  C    0.001844  -0.000156  -0.000049   0.000377   0.000002  -0.000000
    20  C    0.000143  -0.000005   0.000004  -0.000009   0.000000  -0.000000
    21  H    0.000012  -0.000006   0.000006   0.000002  -0.000000   0.000000
    22  H   -0.000004   0.000000  -0.000000   0.000000  -0.000000   0.000000
    23  H    0.000006   0.000000  -0.000000  -0.000004   0.000000  -0.000000
    24  C   -0.050522  -0.004886   0.004936   0.000816  -0.000023   0.000003
    25  H   -0.005320   0.001336   0.000121   0.001967  -0.000096   0.000004
    26  C    0.356487  -0.040966  -0.039395  -0.044748   0.003287  -0.000086
    27  H   -0.039262  -0.004245  -0.003350   0.004150  -0.000075   0.000001
    28  H   -0.039461   0.005200  -0.004246  -0.002567  -0.000094   0.000001
               7          8          9         10         11         12
     1  C   -0.005033   0.000706  -0.043625  -0.006201   0.002965   0.000089
     2  H    0.002156  -0.000001   0.001325   0.000127  -0.000086  -0.000001
     3  H   -0.000229   0.000887  -0.001494   0.000040  -0.000091  -0.000003
     4  C   -0.043258  -0.041011   0.693084  -0.032818  -0.048542  -0.000240
     5  C    0.405753   0.398064  -0.053428   0.003279  -0.007385  -0.001524
     6  H   -0.030261  -0.026201  -0.002884   0.000040  -0.002266  -0.001541
     7  H    0.584427  -0.030958   0.003061  -0.000093   0.000159   0.000012
     8  H   -0.030958   0.575500  -0.004338  -0.000144   0.000611  -0.000123
     9  C    0.003061  -0.004338   4.953298   0.402978   0.340868  -0.042346
    10  H   -0.000093  -0.000144   0.402978   0.544102  -0.043190   0.003339
    11  C    0.000159   0.000611   0.340868  -0.043190   4.901583   0.407934
    12  H    0.000012  -0.000123  -0.042346   0.003339   0.407934   0.575438
    13  H   -0.000011   0.000147  -0.042827  -0.002376   0.401303  -0.028936
    14  H    0.000014  -0.000074  -0.045162  -0.000597   0.402133  -0.028143
    15  C   -0.000000  -0.000000   0.000036  -0.000062  -0.000000   0.000000
    16  H   -0.000000   0.000000   0.000012  -0.000001  -0.000001  -0.000000
    17  H   -0.000000   0.000000   0.000020  -0.000031   0.000000   0.000000
    18  H    0.000000  -0.000000  -0.000002   0.000004  -0.000000  -0.000000
    19  C   -0.000000   0.000000  -0.001494   0.001855  -0.000002  -0.000000
    20  C    0.000000  -0.000000  -0.000000   0.000018   0.000000  -0.000000
    21  H   -0.000000   0.000000  -0.000004   0.000000   0.000000  -0.000000
    22  H    0.000000  -0.000000  -0.000001   0.000002  -0.000000  -0.000000
    23  H   -0.000000   0.000000   0.000041  -0.000013  -0.000000   0.000000
    24  C   -0.000005   0.000003  -0.007692   0.003824  -0.000087  -0.000006
    25  H   -0.000011   0.000002   0.000851  -0.000323  -0.000029  -0.000000
    26  C    0.000198  -0.000127  -0.002974  -0.001626  -0.000022   0.000002
    27  H   -0.000007   0.000002  -0.000024   0.000202   0.000000   0.000000
    28  H    0.000003  -0.000001   0.001706  -0.001395  -0.000038  -0.000000
              13         14         15         16         17         18
     1  C   -0.000094  -0.000097  -0.000065  -0.000008   0.000004  -0.000000
     2  H   -0.000003   0.000016  -0.000000  -0.000000   0.000000  -0.000000
     3  H    0.000015  -0.000004   0.000001   0.000000  -0.000000  -0.000000
     4  C    0.000618  -0.001880  -0.000011  -0.000000  -0.000001   0.000000
     5  C    0.000179   0.000340  -0.000000  -0.000000   0.000000   0.000000
     6  H   -0.000081   0.000344   0.000000   0.000000  -0.000000   0.000000
     7  H   -0.000011   0.000014  -0.000000  -0.000000  -0.000000   0.000000
     8  H    0.000147  -0.000074  -0.000000   0.000000   0.000000  -0.000000
     9  C   -0.042827  -0.045162   0.000036   0.000012   0.000020  -0.000002
    10  H   -0.002376  -0.000597  -0.000062  -0.000001  -0.000031   0.000004
    11  C    0.401303   0.402133  -0.000000  -0.000001   0.000000  -0.000000
    12  H   -0.028936  -0.028143   0.000000  -0.000000   0.000000  -0.000000
    13  H    0.587737  -0.033708   0.000000   0.000000   0.000000  -0.000000
    14  H   -0.033708   0.585381  -0.000000   0.000002  -0.000001   0.000000
    15  C    0.000000  -0.000000   4.896045   0.405496   0.402780   0.394743
    16  H    0.000000   0.000002   0.405496   0.569197  -0.028782  -0.026849
    17  H    0.000000  -0.000001   0.402780  -0.028782   0.595469  -0.035061
    18  H   -0.000000   0.000000   0.394743  -0.026849  -0.035061   0.596282
    19  C   -0.000001   0.000007   0.351390  -0.040724  -0.047440  -0.043772
    20  C    0.000000  -0.000000  -0.061085   0.003749  -0.001246  -0.001719
    21  H   -0.000000  -0.000000   0.003530  -0.000113  -0.000007  -0.000058
    22  H   -0.000000   0.000000  -0.004919   0.000101  -0.000603   0.002489
    23  H    0.000000  -0.000000   0.000330  -0.000139   0.001737  -0.000234
    24  C    0.000003   0.000028  -0.043660  -0.002430  -0.000965  -0.000809
    25  H    0.000002  -0.000014  -0.006448   0.002249   0.000087   0.000259
    26  C   -0.000003   0.000007   0.003118   0.000124  -0.000070  -0.000120
    27  H   -0.000000   0.000000  -0.000127  -0.000003  -0.000008   0.000030
    28  H   -0.000007   0.000006   0.000044   0.000003   0.000031  -0.000013
              19         20         21         22         23         24
     1  C    0.001844   0.000143   0.000012  -0.000004   0.000006  -0.050522
     2  H   -0.000156  -0.000005  -0.000006   0.000000   0.000000  -0.004886
     3  H   -0.000049   0.000004   0.000006  -0.000000  -0.000000   0.004936
     4  C    0.000377  -0.000009   0.000002   0.000000  -0.000004   0.000816
     5  C    0.000002   0.000000  -0.000000  -0.000000   0.000000  -0.000023
     6  H   -0.000000  -0.000000   0.000000   0.000000  -0.000000   0.000003
     7  H   -0.000000   0.000000  -0.000000   0.000000  -0.000000  -0.000005
     8  H    0.000000  -0.000000   0.000000  -0.000000   0.000000   0.000003
     9  C   -0.001494  -0.000000  -0.000004  -0.000001   0.000041  -0.007692
    10  H    0.001855   0.000018   0.000000   0.000002  -0.000013   0.003824
    11  C   -0.000002   0.000000   0.000000  -0.000000  -0.000000  -0.000087
    12  H   -0.000000  -0.000000  -0.000000  -0.000000   0.000000  -0.000006
    13  H   -0.000001   0.000000  -0.000000  -0.000000   0.000000   0.000003
    14  H    0.000007  -0.000000  -0.000000   0.000000  -0.000000   0.000028
    15  C    0.351390  -0.061085   0.003530  -0.004919   0.000330  -0.043660
    16  H   -0.040724   0.003749  -0.000113   0.000101  -0.000139  -0.002430
    17  H   -0.047440  -0.001246  -0.000007  -0.000603   0.001737  -0.000965
    18  H   -0.043772  -0.001719  -0.000058   0.002489  -0.000234  -0.000809
    19  C    4.948117   0.343825  -0.038229  -0.043457  -0.041881   0.700399
    20  C    0.343825   4.918658   0.406929   0.405556   0.395420  -0.049928
    21  H   -0.038229   0.406929   0.566776  -0.029825  -0.026757  -0.003944
    22  H   -0.043457   0.405556  -0.029825   0.582878  -0.031230   0.002287
    23  H   -0.041881   0.395420  -0.026757  -0.031230   0.580310  -0.002941
    24  C    0.700399  -0.049928  -0.003944   0.002287  -0.002941   4.951077
    25  H   -0.034585   0.003388   0.000068  -0.000102  -0.000126   0.404346
    26  C   -0.056613  -0.006699  -0.001172   0.000116   0.000507   0.340979
    27  H   -0.004136   0.000396   0.000910   0.000093  -0.000225  -0.045476
    28  H   -0.005178  -0.001101  -0.001916  -0.000063   0.001138  -0.046675
              25         26         27         28
     1  C   -0.005320   0.356487  -0.039262  -0.039461
     2  H    0.001336  -0.040966  -0.004245   0.005200
     3  H    0.000121  -0.039395  -0.003350  -0.004246
     4  C    0.001967  -0.044748   0.004150  -0.002567
     5  C   -0.000096   0.003287  -0.000075  -0.000094
     6  H    0.000004  -0.000086   0.000001   0.000001
     7  H   -0.000011   0.000198  -0.000007   0.000003
     8  H    0.000002  -0.000127   0.000002  -0.000001
     9  C    0.000851  -0.002974  -0.000024   0.001706
    10  H   -0.000323  -0.001626   0.000202  -0.001395
    11  C   -0.000029  -0.000022   0.000000  -0.000038
    12  H   -0.000000   0.000002   0.000000  -0.000000
    13  H    0.000002  -0.000003  -0.000000  -0.000007
    14  H   -0.000014   0.000007   0.000000   0.000006
    15  C   -0.006448   0.003118  -0.000127   0.000044
    16  H    0.002249   0.000124  -0.000003   0.000003
    17  H    0.000087  -0.000070  -0.000008   0.000031
    18  H    0.000259  -0.000120   0.000030  -0.000013
    19  C   -0.034585  -0.056613  -0.004136  -0.005178
    20  C    0.003388  -0.006699   0.000396  -0.001101
    21  H    0.000068  -0.001172   0.000910  -0.001916
    22  H   -0.000102   0.000116   0.000093  -0.000063
    23  H   -0.000126   0.000507  -0.000225   0.001138
    24  C    0.404346   0.340979  -0.045476  -0.046675
    25  H    0.545546  -0.044025   0.002568   0.002981
    26  C   -0.044025   4.954765   0.410282   0.412417
    27  H    0.002568   0.410282   0.585319  -0.030789
    28  H    0.002981   0.412417  -0.030789   0.588786
 Mulliken charges:
               1
     1  C   -0.224189
     2  H    0.112487
     3  H    0.119747
     4  C    0.001511
     5  C   -0.355795
     6  H    0.123290
     7  H    0.114083
     8  H    0.127056
     9  C   -0.148987
    10  H    0.129060
    11  C   -0.355817
    12  H    0.116049
    13  H    0.118043
    14  H    0.121404
    15  C   -0.341136
    16  H    0.118119
    17  H    0.114086
    18  H    0.114830
    19  C    0.009901
    20  C   -0.356292
    21  H    0.123797
    22  H    0.116682
    23  H    0.124059
    24  C   -0.148652
    25  H    0.125305
    26  C   -0.243644
    27  H    0.123774
    28  H    0.121227
 Sum of Mulliken charges =  -0.00000
 Mulliken charges with hydrogens summed into heavy atoms:
               1
     1  C    0.008045
     4  C    0.001511
     5  C    0.008635
     9  C   -0.019926
    11  C   -0.000321
    15  C    0.005899
    19  C    0.009901
    20  C    0.008246
    24  C   -0.023347
    26  C    0.001357
 Electronic spatial extent (au):  <R**2>=           2283.4102
 Charge=             -0.0000 electrons
 Dipole moment (field-independent basis, Debye):
    X=              0.0016    Y=             -0.0541    Z=             -0.1283  Tot=              0.1393
 Quadrupole moment (field-independent basis, Debye-Ang):
   XX=            -63.7386   YY=            -64.5148   ZZ=            -65.6906
   XY=             -0.7882   XZ=              1.5367   YZ=              0.0502
 Traceless Quadrupole moment (field-independent basis, Debye-Ang):
   XX=              0.9094   YY=              0.1332   ZZ=             -1.0426
   XY=             -0.7882   XZ=              1.5367   YZ=              0.0502
 Octapole moment (field-independent basis, Debye-Ang**2):
  XXX=             -1.4284  YYY=             -0.8613  ZZZ=              0.6515  XYY=              1.3602
  XXY=              1.6969  XXZ=             -0.1809  XZZ=              0.2140  YZZ=              1.1477
  YYZ=             -1.3570  XYZ=             -0.7555
 Hexadecapole moment (field-independent basis, Debye-Ang**3):
 XXXX=          -2212.9249 YYYY=           -666.4309 ZZZZ=           -280.4170 XXXY=              1.3931
 XXXZ=              3.1842 YYYX=             -0.4554 YYYZ=              1.2414 ZZZX=              2.7408
 ZZZY=             -2.2061 XXYY=           -489.1158 XXZZ=           -428.4043 YYZZ=           -154.8273
 XXYZ=              3.3626 YYXZ=              3.8364 ZZXY=             -2.5241
 N-N= 5.206055764431D+02 E-N=-1.945924365752D+03  KE= 3.885771530842D+02
 No NMR shielding tensors so no spin-rotation constants.
 Leave Link  601 at Fri Sep 17 20:15:26 2021, MaxMem=   524288000 cpu:               0.3 elap:               0.3
 (Enter /opt/gaussian/g16_legacy/l701.exe)
 ... and contract with generalized density number  2.
 Compute integral first derivatives.
 Leave Link  701 at Fri Sep 17 20:15:26 2021, MaxMem=   524288000 cpu:               0.3 elap:               0.3
 (Enter /opt/gaussian/g16_legacy/l702.exe)
 L702 exits ... SP integral derivatives will be done elsewhere.
 Leave Link  702 at Fri Sep 17 20:15:26 2021, MaxMem=   524288000 cpu:               0.1 elap:               0.1
 (Enter /opt/gaussian/g16_legacy/l703.exe)
 Integral derivatives from FoFJK, PRISM(SPDF).
 Compute integral first derivatives, UseDBF=F ICtDFT=           0.
 Calling FoFJK, ICntrl=  10002127 FMM=F ISym2X=0 I1Cent= 0 IOpClX= 0 NMat=1 NMatS=1 NMatT=0.
 FoFJK:  IHMeth= 1 ICntrl=10002127 DoSepK=F KAlg= 0 I1Cent=           0 FoldK=F
 IRaf=         0 NMat=       1 IRICut=       1 DoRegI=T DoRafI=F ISym2E= 0 IDoP0=0 IntGTp=1.
 FoFCou: FMM=F IPFlag=           0 FMFlag=      100000 FMFlg1=         800
         NFxFlg=           0 DoJE=F BraDBF=F KetDBF=F FulRan=T
         wScrn=  0.000000 ICntrl=  10002127 IOpCl=  0 I1Cent=           0 NGrid=           0
         NMat0=    1 NMatS0=      1 NMatT0=    0 NMatD0=    1 NMtDS0=    0 NMtDT0=    0
 Symmetry not used in FoFCou.
 Leave Link  703 at Fri Sep 17 20:16:01 2021, MaxMem=   524288000 cpu:              34.6 elap:              34.7
 (Enter /opt/gaussian/g16_legacy/l716.exe)
 Dipole        = 4.82183663D-03-3.65005051D-03-5.66132870D-02
 ***** Axes restored to original set *****
 -------------------------------------------------------------------
 Center     Atomic                   Forces (Hartrees/Bohr)
 Number     Number              X              Y              Z
 -------------------------------------------------------------------
      1        6          -0.001164878    0.001440642    0.003565388
      2        1           0.001895175    0.002101042   -0.000918680
      3        1          -0.000354103   -0.002994247   -0.000697118
      4        6          -0.006205840   -0.004437679    0.007651916
      5        6           0.001260076   -0.002691425   -0.001457377
      6        1          -0.001357088    0.004525973   -0.001435356
      7        1           0.000281771    0.003979237    0.001452165
      8        1           0.001157256   -0.003528789   -0.000272115
      9        6          -0.008171458    0.002105679   -0.001692821
     10        1          -0.002871850   -0.002995639   -0.003292189
     11        6           0.003773893    0.001783024   -0.002262879
     12        1          -0.002210258    0.000230323    0.001157548
     13        1           0.000701377   -0.003803750    0.000668265
     14        1           0.001781913    0.002013340   -0.000039113
     15        6           0.000721549   -0.003898680   -0.000887048
     16        1          -0.002971608    0.003264827   -0.001011108
     17        1          -0.003058492   -0.001554880   -0.000392442
     18        1           0.001943069    0.001547450    0.002641685
     19        6           0.002001625   -0.007543829   -0.002183552
     20        6          -0.003912532    0.002230720   -0.002451669
     21        1           0.003878556    0.000166890    0.002365470
     22        1           0.004681588    0.001170501   -0.001095776
     23        1          -0.002868249    0.000513856    0.000553897
     24        6           0.008078957    0.003077803    0.001574351
     25        1          -0.000711990    0.002054082    0.001523561
     26        6           0.003625187    0.000857213   -0.000120590
     27        1           0.002242442    0.003565049   -0.002702052
     28        1          -0.002166089   -0.003178733   -0.000242360
 -------------------------------------------------------------------
 Cartesian Forces:  Max     0.008171458 RMS     0.002924093
 Leave Link  716 at Fri Sep 17 20:16:01 2021, MaxMem=   524288000 cpu:               0.1 elap:               0.1
 (Enter /opt/gaussian/g16_legacy/l103.exe)

 GradGradGradGradGradGradGradGradGradGradGradGradGradGradGradGradGradGrad
 Berny optimization.
 FormGI is forming the generalized inverse of G from B-inverse, IUseBI=4.
 GSVD:  received Info=                   1 from GESDD.
 Internal  Forces:  Max     0.014321635 RMS     0.003063558
 Search for a local minimum.
 Step number   1 out of a maximum of  138
 All quantities printed in internal units (Hartrees-Bohrs-Radians)
 RMS Force = .30636D-02 SwitMx=.10000D-02 MixMth= 1
 Mixed Optimization -- RFO/linear search
 Second derivative matrix not updated -- first step.
 ITU=  0
     Eigenvalues ---    0.00230   0.00420   0.00643   0.00663   0.00706
     Eigenvalues ---    0.00745   0.00831   0.01168   0.01295   0.01551
     Eigenvalues ---    0.01655   0.02757   0.02786   0.03295   0.03942
     Eigenvalues ---    0.05216   0.05410   0.07015   0.07027   0.07111
     Eigenvalues ---    0.07112   0.07233   0.07315   0.07321   0.07528
     Eigenvalues ---    0.09489   0.10369   0.12951   0.13503   0.15962
     Eigenvalues ---    0.16000   0.16000   0.16000   0.16000   0.16000
     Eigenvalues ---    0.16000   0.16000   0.16000   0.16000   0.16000
     Eigenvalues ---    0.16000   0.16000   0.16000   0.22000   0.22000
     Eigenvalues ---    0.22010   0.22081   0.24997   0.24998   0.24999
     Eigenvalues ---    0.24999   0.28315   0.29783   0.31420   0.31575
     Eigenvalues ---    0.31910   0.32213   0.32896   0.33831   0.33909
     Eigenvalues ---    0.33921   0.33989   0.33998   0.34136   0.34181
     Eigenvalues ---    0.34188   0.34194   0.34263   0.34315   0.34331
     Eigenvalues ---    0.34342   0.34380   0.34457   0.34716   0.34844
     Eigenvalues ---    0.35072   0.55134   0.55607
 RFO step:  Lambda=-7.36740852D-03 EMin= 2.30000000D-03
 Linear search not attempted -- first point.
 Iteration  1 RMS(Cart)=  0.14996013 RMS(Int)=  0.00487360
 Iteration  2 RMS(Cart)=  0.00853972 RMS(Int)=  0.00026323
 Iteration  3 RMS(Cart)=  0.00003091 RMS(Int)=  0.00026263
 Iteration  4 RMS(Cart)=  0.00000000 RMS(Int)=  0.00026263
 ITry= 1 IFail=0 DXMaxC= 6.32D-01 DCOld= 1.00D+10 DXMaxT= 3.00D-01 DXLimC= 3.00D+00 Rises=F
 Variable       Old X    -DE/DX   Delta X   Delta X   Delta X     New X
                                 (Linear)    (Quad)   (Total)
    R1        2.07617  -0.00207   0.00000  -0.00600  -0.00600   2.07017
    R2        2.07484  -0.00119   0.00000  -0.00342  -0.00342   2.07142
    R3        2.88399  -0.01149   0.00000  -0.03764  -0.03764   2.84635
    R4        2.91454  -0.00895   0.00000  -0.03079  -0.03079   2.88375
    R5        2.85218   0.00118   0.00000   0.00368   0.00368   2.85587
    R6        2.55013  -0.00746   0.00000  -0.01336  -0.01336   2.53677
    R7        2.06693  -0.00376   0.00000  -0.01070  -0.01070   2.05623
    R8        2.07004  -0.00362   0.00000  -0.01038  -0.01038   2.05966
    R9        2.06888  -0.00208   0.00000  -0.00595  -0.00595   2.06294
   R10        2.05557  -0.00152   0.00000  -0.00426  -0.00426   2.05132
   R11        2.82535   0.00372   0.00000   0.01105   0.01105   2.83640
   R12        2.06139  -0.00232   0.00000  -0.00656  -0.00656   2.05483
   R13        2.07101  -0.00321   0.00000  -0.00921  -0.00921   2.06181
   R14        2.06565  -0.00101   0.00000  -0.00288  -0.00288   2.06278
   R15        2.07014  -0.00415   0.00000  -0.01188  -0.01188   2.05826
   R16        2.07025  -0.00237   0.00000  -0.00678  -0.00678   2.06347
   R17        2.06802  -0.00140   0.00000  -0.00400  -0.00400   2.06402
   R18        2.84309   0.00010   0.00000   0.00029   0.00029   2.84339
   R19        2.83756   0.00223   0.00000   0.00677   0.00677   2.84433
   R20        2.54596  -0.00336   0.00000  -0.00595  -0.00595   2.54001
   R21        2.06776  -0.00367   0.00000  -0.01046  -0.01046   2.05730
   R22        2.07333  -0.00436   0.00000  -0.01254  -0.01254   2.06079
   R23        2.06757  -0.00102   0.00000  -0.00290  -0.00290   2.06466
   R24        2.05929  -0.00223   0.00000  -0.00627  -0.00627   2.05303
   R25        2.84929   0.00013   0.00000   0.00040   0.00040   2.84969
   R26        2.07348  -0.00121   0.00000  -0.00349  -0.00349   2.06999
   R27        2.07463  -0.00338   0.00000  -0.00976  -0.00976   2.06487
    A1        1.85610  -0.00297   0.00000  -0.00990  -0.01038   1.84572
    A2        1.88087   0.00322   0.00000   0.00987   0.01030   1.89117
    A3        1.86996   0.00601   0.00000   0.03316   0.03306   1.90302
    A4        1.87673   0.00450   0.00000   0.01571   0.01576   1.89249
    A5        1.87859   0.00435   0.00000   0.01878   0.01857   1.89716
    A6        2.08937  -0.01432   0.00000  -0.06360  -0.06339   2.02598
    A7        1.97993   0.00442   0.00000   0.01736   0.01672   1.99665
    A8        2.16488  -0.00864   0.00000  -0.03332  -0.03388   2.13100
    A9        2.13830   0.00424   0.00000   0.01672   0.01606   2.15436
   A10        1.96074  -0.00030   0.00000  -0.00069  -0.00068   1.96007
   A11        1.93887  -0.00187   0.00000  -0.00911  -0.00908   1.92979
   A12        1.92113   0.00402   0.00000   0.02086   0.02089   1.94202
   A13        1.85218   0.00227   0.00000   0.01950   0.01951   1.87168
   A14        1.90461  -0.00276   0.00000  -0.02015  -0.02013   1.88449
   A15        1.88354  -0.00157   0.00000  -0.01154  -0.01148   1.87206
   A16        2.08456  -0.00355   0.00000  -0.02338  -0.02339   2.06118
   A17        2.23215  -0.00273   0.00000  -0.01203  -0.01203   2.22012
   A18        1.96647   0.00629   0.00000   0.03541   0.03541   2.00188
   A19        1.98607  -0.00217   0.00000  -0.01258  -0.01253   1.97354
   A20        1.91162   0.00254   0.00000   0.01525   0.01521   1.92683
   A21        1.91179   0.00291   0.00000   0.01700   0.01698   1.92877
   A22        1.87681  -0.00015   0.00000  -0.00013  -0.00009   1.87671
   A23        1.88959  -0.00051   0.00000  -0.00308  -0.00303   1.88655
   A24        1.88519  -0.00282   0.00000  -0.01760  -0.01771   1.86748
   A25        1.87290   0.00135   0.00000   0.01056   0.01058   1.88348
   A26        1.88495   0.00034   0.00000   0.00525   0.00529   1.89024
   A27        1.95878  -0.00266   0.00000  -0.01287  -0.01284   1.94595
   A28        1.89526  -0.00324   0.00000  -0.02524  -0.02523   1.87004
   A29        1.92119   0.00098   0.00000   0.00413   0.00415   1.92535
   A30        1.92871   0.00310   0.00000   0.01725   0.01728   1.94598
   A31        2.01308   0.00129   0.00000   0.00501   0.00501   2.01809
   A32        2.11227   0.00236   0.00000   0.00918   0.00918   2.12145
   A33        2.15777  -0.00365   0.00000  -0.01419  -0.01419   2.14357
   A34        1.95801  -0.00058   0.00000  -0.00093  -0.00093   1.95708
   A35        1.92740  -0.00080   0.00000  -0.00389  -0.00388   1.92352
   A36        1.92808   0.00328   0.00000   0.01617   0.01619   1.94426
   A37        1.86005   0.00200   0.00000   0.01854   0.01854   1.87859
   A38        1.89757  -0.00180   0.00000  -0.01230  -0.01230   1.88527
   A39        1.89027  -0.00226   0.00000  -0.01852  -0.01849   1.87179
   A40        2.07087  -0.00137   0.00000  -0.00586  -0.00677   2.06410
   A41        2.18821   0.00007   0.00000   0.00157   0.00067   2.18888
   A42        2.02067   0.00144   0.00000   0.01039   0.00949   2.03016
   A43        1.98746  -0.00546   0.00000  -0.02191  -0.02184   1.96562
   A44        1.88246  -0.00105   0.00000  -0.01180  -0.01160   1.87086
   A45        1.89867   0.00301   0.00000   0.01207   0.01206   1.91074
   A46        1.89184   0.00482   0.00000   0.03727   0.03723   1.92907
   A47        1.92630   0.00064   0.00000  -0.00008  -0.00009   1.92621
   A48        1.87330  -0.00186   0.00000  -0.01578  -0.01584   1.85746
    D1        0.88365   0.00114   0.00000   0.07569   0.07520   0.95885
    D2       -2.24480  -0.00012   0.00000   0.01132   0.01165  -2.23316
    D3       -1.11084   0.00078   0.00000   0.07456   0.07417  -1.03667
    D4        2.04389  -0.00048   0.00000   0.01020   0.01062   2.05451
    D5        3.02390   0.00155   0.00000   0.08246   0.08213   3.10603
    D6       -0.10455   0.00028   0.00000   0.01810   0.01857  -0.08598
    D7        1.10589  -0.00033   0.00000  -0.03562  -0.03585   1.07005
    D8       -0.99443  -0.00223   0.00000  -0.06057  -0.06089  -1.05532
    D9       -3.02103  -0.00105   0.00000  -0.04196  -0.04225  -3.06328
   D10        3.09596   0.00125   0.00000  -0.02194  -0.02173   3.07423
   D11        0.99564  -0.00065   0.00000  -0.04689  -0.04677   0.94886
   D12       -1.03096   0.00052   0.00000  -0.02828  -0.02813  -1.05909
   D13       -1.03969   0.00054   0.00000  -0.03141  -0.03123  -1.07092
   D14       -3.14001  -0.00136   0.00000  -0.05636  -0.05628   3.08689
   D15        1.11657  -0.00018   0.00000  -0.03775  -0.03764   1.07894
[...]
                 (A) (A) (A) (A) (A) (A) (A) (A) (A) (A) (A) (A)
                 (A) (A) (A) (A) (A) (A) (A) (A) (A) (A) (A) (A)
                 (A) (A) (A) (A) (A) (A) (A) (A) (A) (A) (A) (A)
                 (A) (A) (A) (A) (A) (A) (A) (A) (A) (A) (A) (A)
                 (A) (A) (A) (A) (A) (A) (A) (A) (A) (A) (A) (A)
                 (A) (A) (A) (A) (A) (A) (A) (A) (A) (A) (A) (A)
                 (A) (A) (A) (A) (A) (A) (A) (A) (A) (A) (A) (A)
                 (A) (A) (A) (A) (A) (A) (A) (A) (A) (A) (A) (A)
                 (A) (A) (A) (A) (A) (A) (A) (A) (A) (A) (A) (A)
                 (A) (A) (A) (A) (A) (A) (A) (A) (A) (A) (A) (A)
                 (A) (A) (A) (A) (A) (A) (A) (A) (A) (A) (A) (A)
                 (A) (A) (A) (A) (A) (A) (A) (A) (A) (A) (A) (A)
                 (A) (A) (A) (A) (A) (A) (A) (A) (A) (A) (A) (A)
                 (A) (A) (A) (A) (A) (A) (A) (A) (A)
 The electronic state is 1-A.
 Alpha  occ. eigenvalues --  -11.22686 -11.22358 -11.21942 -11.21829 -11.21617
 Alpha  occ. eigenvalues --  -11.21343 -11.21320 -11.21276 -11.21210 -11.21081
 Alpha  occ. eigenvalues --   -1.10786  -1.08087  -1.02024  -0.97716  -0.93690
 Alpha  occ. eigenvalues --   -0.91841  -0.87599  -0.82525  -0.70620  -0.68858
 Alpha  occ. eigenvalues --   -0.64364  -0.62000  -0.59841  -0.59305  -0.58218
 Alpha  occ. eigenvalues --   -0.57455  -0.55135  -0.53680  -0.53149  -0.52864
 Alpha  occ. eigenvalues --   -0.52489  -0.51416  -0.50333  -0.49626  -0.46907
 Alpha  occ. eigenvalues --   -0.45822  -0.45195  -0.33141  -0.31217
 Alpha virt. eigenvalues --    0.18829   0.19896   0.23128   0.24462   0.25631
 Alpha virt. eigenvalues --    0.26760   0.28970   0.29284   0.30687   0.30911
 Alpha virt. eigenvalues --    0.32103   0.32488   0.33232   0.33802   0.34586
 Alpha virt. eigenvalues --    0.36183   0.36691   0.38072   0.38898   0.39814
 Alpha virt. eigenvalues --    0.41030   0.42150   0.43541   0.45010   0.46125
 Alpha virt. eigenvalues --    0.51800   0.52936   0.62955   0.63856   0.69329
 Alpha virt. eigenvalues --    0.71317   0.72489   0.73667   0.74479   0.77142
 Alpha virt. eigenvalues --    0.78849   0.80236   0.80657   0.81313   0.83752
 Alpha virt. eigenvalues --    0.85462   0.86655   0.87305   0.88622   0.92388
 Alpha virt. eigenvalues --    0.92746   0.96058   0.98795   0.99594   1.00249
 Alpha virt. eigenvalues --    1.00805   1.02185   1.03367   1.04648   1.08272
 Alpha virt. eigenvalues --    1.08459   1.09362   1.10290   1.11938   1.12703
 Alpha virt. eigenvalues --    1.13983   1.14781   1.15252   1.16243   1.16733
 Alpha virt. eigenvalues --    1.17150   1.18419   1.18774   1.19544   1.21099
 Alpha virt. eigenvalues --    1.22022   1.23025   1.23632   1.25582   1.25775
 Alpha virt. eigenvalues --    1.34667   1.36765   1.43407   1.44036   1.45996
 Alpha virt. eigenvalues --    1.47716   1.52819   1.54558   1.55007   1.58580
 Alpha virt. eigenvalues --    1.61138   1.62982   1.67748   1.72444   1.74160
 Alpha virt. eigenvalues --    1.78820   1.84509   1.90081   1.93284   1.95994
 Alpha virt. eigenvalues --    1.97993   2.01369   2.03100   2.07244   2.08484
 Alpha virt. eigenvalues --    2.09163   2.09937   2.10508   2.11651   2.14684
 Alpha virt. eigenvalues --    2.16691   2.19091   2.21218   2.23361   2.27096
 Alpha virt. eigenvalues --    2.29414   2.31545   2.32940   2.35360   2.35770
 Alpha virt. eigenvalues --    2.35872   2.36099   2.37310   2.40669   2.41179
 Alpha virt. eigenvalues --    2.42719   2.44300   2.45209   2.45709   2.46741
 Alpha virt. eigenvalues --    2.47842   2.49153   2.50796   2.51370   2.52218
 Alpha virt. eigenvalues --    2.55063   2.56494   2.60227   2.63066   2.65717
 Alpha virt. eigenvalues --    2.69232   2.69781   2.71866   2.73328   2.73991
 Alpha virt. eigenvalues --    2.77028   2.79200   2.81007   2.82640   2.83812
 Alpha virt. eigenvalues --    2.85586   2.90344   2.90914   2.94392   2.94587
 Alpha virt. eigenvalues --    2.98363   3.00012   3.03082   3.03142   3.05388
 Alpha virt. eigenvalues --    3.06853   3.08047   3.10862   3.11950   3.15961
 Alpha virt. eigenvalues --    3.18569   3.18775   3.18897   3.21431   3.23029
 Alpha virt. eigenvalues --    3.24237   3.25395   3.27062   3.28810   3.39713
 Alpha virt. eigenvalues --    3.40633   3.43151   3.45659   3.56547   3.57544
 Alpha virt. eigenvalues --    3.62361   3.62667   3.68337   3.72404   3.79785
 Alpha virt. eigenvalues --    3.80196   3.81671   3.82089   3.83524   3.84490
 Alpha virt. eigenvalues --    3.85079   3.86880   3.88158   3.91138   3.94028
 Alpha virt. eigenvalues --    3.95486   4.59341   4.62486   4.76755   4.82592
 Alpha virt. eigenvalues --    4.89262   4.92979   4.93677   5.01542   5.10445
 Alpha virt. eigenvalues --    5.17858
          Condensed to atoms (all electrons):
               1          2          3          4          5          6
     1  C    4.976356   0.403989   0.408487   0.349603  -0.065257   0.003883
     2  H    0.403989   0.615037  -0.037891  -0.049699  -0.003533   0.000013
     3  H    0.408487  -0.037891   0.597825  -0.044474  -0.002558  -0.000074
     4  C    0.349603  -0.049699  -0.044474   4.926611   0.353755  -0.038119
     5  C   -0.065257  -0.003533  -0.002558   0.353755   4.903939   0.406810
     6  H    0.003883   0.000013  -0.000074  -0.038119   0.406810   0.570894
     7  H   -0.003218   0.002797  -0.000172  -0.043045   0.399574  -0.027250
     8  H   -0.002578  -0.000564   0.002633  -0.044825   0.401427  -0.027601
     9  C   -0.046616   0.000880  -0.001302   0.704638  -0.043139  -0.002113
    10  H   -0.008153   0.000096   0.000160  -0.037819   0.003487   0.000047
    11  C    0.003245  -0.000088  -0.000098  -0.044515  -0.008911  -0.002539
    12  H    0.000066  -0.000003  -0.000002   0.000415  -0.002181  -0.001655
    13  H   -0.000103  -0.000003   0.000018  -0.000472   0.000295   0.000019
    14  H   -0.000097   0.000015  -0.000004  -0.001230   0.000271  -0.000017
    15  C   -0.000084  -0.000003   0.000001  -0.000013  -0.000000   0.000000
    16  H   -0.000008   0.000001   0.000000  -0.000000  -0.000000   0.000000
    17  H    0.000012  -0.000000  -0.000000   0.000002   0.000000  -0.000000
    18  H   -0.000003   0.000000   0.000000   0.000000  -0.000000   0.000000
    19  C    0.000436   0.000219  -0.000062   0.000180  -0.000007   0.000000
    20  C    0.000277  -0.000009   0.000001  -0.000002  -0.000000  -0.000000
    21  H    0.000040  -0.000005   0.000010   0.000003  -0.000000   0.000000
    22  H   -0.000016   0.000000   0.000000   0.000001   0.000000   0.000000
    23  H    0.000028   0.000000  -0.000000   0.000004   0.000000  -0.000000
    24  C   -0.062397  -0.006632   0.005219   0.001793  -0.000159   0.000001
    25  H   -0.003509   0.002761  -0.000042   0.000193  -0.000042   0.000001
    26  C    0.346731  -0.038824  -0.037347  -0.045788   0.003346  -0.000087
    27  H   -0.047503  -0.002556  -0.004012   0.004470  -0.000092   0.000001
    28  H   -0.039071   0.005090  -0.003780  -0.002546  -0.000064   0.000001
               7          8          9         10         11         12
     1  C   -0.003218  -0.002578  -0.046616  -0.008153   0.003245   0.000066
     2  H    0.002797  -0.000564   0.000880   0.000096  -0.000088  -0.000003
     3  H   -0.000172   0.002633  -0.001302   0.000160  -0.000098  -0.000002
     4  C   -0.043045  -0.044825   0.704638  -0.037819  -0.044515   0.000415
     5  C    0.399574   0.401427  -0.043139   0.003487  -0.008911  -0.002181
     6  H   -0.027250  -0.027601  -0.002113   0.000047  -0.002539  -0.001655
     7  H    0.588922  -0.036477  -0.000166  -0.000109   0.000319  -0.000056
     8  H   -0.036477   0.591722  -0.000244  -0.000133   0.000274  -0.000033
     9  C   -0.000166  -0.000244   4.921737   0.407865   0.342622  -0.044176
    10  H   -0.000109  -0.000133   0.407865   0.557542  -0.041514   0.003332
    11  C    0.000319   0.000274   0.342622  -0.041514   4.894062   0.408397
    12  H   -0.000056  -0.000033  -0.044176   0.003332   0.408397   0.578829
    13  H   -0.000027   0.000046  -0.042183  -0.001488   0.400871  -0.028437
    14  H    0.000062  -0.000026  -0.043009  -0.001024   0.401931  -0.028527
    15  C    0.000000   0.000000  -0.000000  -0.000057  -0.000001  -0.000000
    16  H    0.000000   0.000000   0.000002  -0.000004  -0.000000  -0.000000
    17  H   -0.000000   0.000000   0.000049  -0.000034   0.000001   0.000000
    18  H    0.000000  -0.000000  -0.000003   0.000006   0.000000  -0.000000
    19  C    0.000002  -0.000000  -0.003034   0.000414   0.000003  -0.000002
    20  C   -0.000000   0.000000   0.000126  -0.002525   0.000010  -0.000000
    21  H   -0.000000   0.000000  -0.000016  -0.000669  -0.000000  -0.000000
    22  H    0.000000  -0.000000  -0.000012   0.000115  -0.000000   0.000000
    23  H   -0.000000   0.000000   0.000295  -0.000454   0.000013   0.000000
    24  C    0.000016   0.000004  -0.003983   0.000788  -0.000035  -0.000007
    25  H    0.000001  -0.000000   0.000115  -0.000002  -0.000002   0.000000
    26  C   -0.000013  -0.000038  -0.005573  -0.002337  -0.000056   0.000002
    27  H    0.000001  -0.000002   0.000102   0.000323   0.000000   0.000000
    28  H    0.000007  -0.000011   0.000492  -0.002771  -0.000047  -0.000002
              13         14         15         16         17         18
     1  C   -0.000103  -0.000097  -0.000084  -0.000008   0.000012  -0.000003
     2  H   -0.000003   0.000015  -0.000003   0.000001  -0.000000   0.000000
     3  H    0.000018  -0.000004   0.000001   0.000000  -0.000000   0.000000
     4  C   -0.000472  -0.001230  -0.000013  -0.000000   0.000002   0.000000
     5  C    0.000295   0.000271  -0.000000  -0.000000   0.000000  -0.000000
     6  H    0.000019  -0.000017   0.000000   0.000000  -0.000000   0.000000
     7  H   -0.000027   0.000062   0.000000   0.000000  -0.000000   0.000000
     8  H    0.000046  -0.000026   0.000000   0.000000   0.000000  -0.000000
     9  C   -0.042183  -0.043009  -0.000000   0.000002   0.000049  -0.000003
    10  H   -0.001488  -0.001024  -0.000057  -0.000004  -0.000034   0.000006
    11  C    0.400871   0.401931  -0.000001  -0.000000   0.000001   0.000000
    12  H   -0.028437  -0.028527  -0.000000  -0.000000   0.000000  -0.000000
    13  H    0.590421  -0.036446   0.000000   0.000000   0.000000  -0.000000
    14  H   -0.036446   0.588152   0.000000  -0.000000  -0.000004   0.000000
    15  C    0.000000   0.000000   4.898365   0.406172   0.398878   0.398044
    16  H    0.000000  -0.000000   0.406172   0.566351  -0.026410  -0.026821
    17  H    0.000000  -0.000004   0.398878  -0.026410   0.595863  -0.038391
    18  H   -0.000000   0.000000   0.398044  -0.026821  -0.038391   0.597269
    19  C   -0.000007   0.000077   0.353009  -0.041709  -0.044670  -0.044132
    20  C    0.000002  -0.000004  -0.065453   0.003804  -0.001431  -0.001635
    21  H    0.000003  -0.000001   0.003788  -0.000115  -0.000035  -0.000062
    22  H   -0.000000   0.000000  -0.002722  -0.000036  -0.000445   0.002701
    23  H    0.000008  -0.000007  -0.002278  -0.000043   0.002932  -0.000533
    24  C    0.000002   0.000022  -0.042481  -0.002527  -0.001291  -0.000739
    25  H    0.000000  -0.000000  -0.007193   0.002425   0.000179   0.000208
    26  C    0.000007  -0.000001   0.003181   0.000142  -0.000076  -0.000120
    27  H   -0.000000  -0.000000  -0.000118  -0.000007  -0.000005   0.000022
    28  H   -0.000018   0.000014   0.000089   0.000005   0.000006  -0.000006
              19         20         21         22         23         24
     1  C    0.000436   0.000277   0.000040  -0.000016   0.000028  -0.062397
     2  H    0.000219  -0.000009  -0.000005   0.000000   0.000000  -0.006632
     3  H   -0.000062   0.000001   0.000010   0.000000  -0.000000   0.005219
     4  C    0.000180  -0.000002   0.000003   0.000001   0.000004   0.001793
     5  C   -0.000007  -0.000000  -0.000000   0.000000   0.000000  -0.000159
     6  H    0.000000  -0.000000   0.000000   0.000000  -0.000000   0.000001
     7  H    0.000002  -0.000000  -0.000000   0.000000  -0.000000   0.000016
     8  H   -0.000000   0.000000   0.000000  -0.000000   0.000000   0.000004
     9  C   -0.003034   0.000126  -0.000016  -0.000012   0.000295  -0.003983
    10  H    0.000414  -0.002525  -0.000669   0.000115  -0.000454   0.000788
    11  C    0.000003   0.000010  -0.000000  -0.000000   0.000013  -0.000035
    12  H   -0.000002  -0.000000  -0.000000   0.000000   0.000000  -0.000007
    13  H   -0.000007   0.000002   0.000003  -0.000000   0.000008   0.000002
    14  H    0.000077  -0.000004  -0.000001   0.000000  -0.000007   0.000022
    15  C    0.353009  -0.065453   0.003788  -0.002722  -0.002278  -0.042481
    16  H   -0.041709   0.003804  -0.000115  -0.000036  -0.000043  -0.002527
    17  H   -0.044670  -0.001431  -0.000035  -0.000445   0.002932  -0.001291
    18  H   -0.044132  -0.001635  -0.000062   0.002701  -0.000533  -0.000739
    19  C    4.920867   0.347573  -0.038790  -0.042048  -0.044797   0.707549
    20  C    0.347573   4.912750   0.406851   0.403153   0.399255  -0.042621
    21  H   -0.038790   0.406851   0.569750  -0.027028  -0.027440  -0.002407
    22  H   -0.042048   0.403153  -0.027028   0.580204  -0.035376   0.000044
    23  H   -0.044797   0.399255  -0.027440  -0.035376   0.590061  -0.000719
    24  C    0.707549  -0.042621  -0.002407   0.000044  -0.000719   4.935215
    25  H   -0.034960   0.003584   0.000052  -0.000119  -0.000123   0.400554
    26  C   -0.047592  -0.008663  -0.002153   0.000194   0.000389   0.342169
    27  H   -0.002703   0.000418  -0.000053   0.000073  -0.000035  -0.043045
    28  H    0.001504  -0.002626  -0.000753  -0.000149   0.000109  -0.049253
              25         26         27         28
     1  C   -0.003509   0.346731  -0.047503  -0.039071
     2  H    0.002761  -0.038824  -0.002556   0.005090
     3  H   -0.000042  -0.037347  -0.004012  -0.003780
     4  C    0.000193  -0.045788   0.004470  -0.002546
     5  C   -0.000042   0.003346  -0.000092  -0.000064
     6  H    0.000001  -0.000087   0.000001   0.000001
     7  H    0.000001  -0.000013   0.000001   0.000007
     8  H   -0.000000  -0.000038  -0.000002  -0.000011
     9  C    0.000115  -0.005573   0.000102   0.000492
    10  H   -0.000002  -0.002337   0.000323  -0.002771
    11  C   -0.000002  -0.000056   0.000000  -0.000047
    12  H    0.000000   0.000002   0.000000  -0.000002
    13  H    0.000000   0.000007  -0.000000  -0.000018
    14  H   -0.000000  -0.000001  -0.000000   0.000014
    15  C   -0.007193   0.003181  -0.000118   0.000089
    16  H    0.002425   0.000142  -0.000007   0.000005
    17  H    0.000179  -0.000076  -0.000005   0.000006
    18  H    0.000208  -0.000120   0.000022  -0.000006
    19  C   -0.034960  -0.047592  -0.002703   0.001504
    20  C    0.003584  -0.008663   0.000418  -0.002626
    21  H    0.000052  -0.002153  -0.000053  -0.000753
    22  H   -0.000119   0.000194   0.000073  -0.000149
    23  H   -0.000123   0.000389  -0.000035   0.000109
    24  C    0.400554   0.342169  -0.043045  -0.049253
    25  H    0.559509  -0.043287   0.000234   0.003421
    26  C   -0.043287   4.961400   0.417758   0.414476
    27  H    0.000234   0.417758   0.580239  -0.029063
    28  H    0.003421   0.414476  -0.029063   0.587197
 Mulliken charges:
               1
     1  C   -0.214539
     2  H    0.108911
     3  H    0.117465
     4  C    0.010877
     5  C   -0.346960
     6  H    0.117786
     7  H    0.118833
     8  H    0.116427
     9  C   -0.143357
    10  H    0.124919
    11  C   -0.353944
    12  H    0.114039
    13  H    0.117494
    14  H    0.119852
    15  C   -0.341125
    16  H    0.118779
    17  H    0.114871
    18  H    0.114196
    19  C    0.012679
    20  C   -0.352836
    21  H    0.119031
    22  H    0.121466
    23  H    0.118712
    24  C   -0.135083
    25  H    0.116043
    26  C   -0.257840
    27  H    0.125552
    28  H    0.117750
 Sum of Mulliken charges =  -0.00000
 Mulliken charges with hydrogens summed into heavy atoms:
               1
     1  C    0.011837
     4  C    0.010877
     5  C    0.006086
     9  C   -0.018438
    11  C   -0.002559
    15  C    0.006722
    19  C    0.012679
    20  C    0.006374
    24  C   -0.019040
    26  C   -0.014538
 Electronic spatial extent (au):  <R**2>=           2104.4797
 Charge=              0.0000 electrons
 Dipole moment (field-independent basis, Debye):
    X=             -0.0600    Y=             -0.0055    Z=             -0.0692  Tot=              0.0918
 Quadrupole moment (field-independent basis, Debye-Ang):
   XX=            -64.4237   YY=            -64.2834   ZZ=            -65.4193
   XY=             -1.5940   XZ=              0.7441   YZ=             -0.4489
 Traceless Quadrupole moment (field-independent basis, Debye-Ang):
   XX=              0.2851   YY=              0.4254   ZZ=             -0.7105
   XY=             -1.5940   XZ=              0.7441   YZ=             -0.4489
 Octapole moment (field-independent basis, Debye-Ang**2):
  XXX=             -0.2645  YYY=              1.0488  ZZZ=              0.9537  XYY=              2.7683
  XXY=              3.8500  XXZ=              1.3844  XZZ=             -1.7137  YZZ=             -2.1026
  YYZ=              0.1493  XYZ=              0.9425
 Hexadecapole moment (field-independent basis, Debye-Ang**3):
 XXXX=          -1907.0318 YYYY=           -683.5813 ZZZZ=           -324.0595 XXXY=             -4.7773
 XXXZ=              9.9679 YYYX=             -4.8700 YYYZ=              2.1894 ZZZX=             -0.1089
 ZZZY=             -4.7117 XXYY=           -439.9185 XXZZ=           -381.4971 YYZZ=           -165.3506
 XXYZ=              3.6224 YYXZ=             -2.3865 ZZXY=              0.4196
 N-N= 5.290362271177D+02 E-N=-1.962870841037D+03  KE= 3.887426966442D+02
 No NMR shielding tensors so no spin-rotation constants.
 Leave Link  601 at Fri Sep 17 22:33:21 2021, MaxMem=   524288000 cpu:               0.3 elap:               1.0
 (Enter /opt/gaussian/g16_legacy/l9999.exe)
 1\1\GINC-TRUENO90\FOpt\RMP2-FC\6-31G(d,p)\C10H18\JRAMOS\17-Sep-2021\0\
 \#p opt mp2/6-31g(d,p)\\Conformer number 031. Energy MM = 27.788 kcal/
 mol\\0,1\C,2.1652905055,1.0836839299,-9.0054495602\H,2.0359542362,0.02
 04068804,-9.2410858806\H,2.0452700526,1.6050397156,-9.9623424698\C,3.5
 857088625,1.2945237115,-8.5327193152\C,4.6086384514,0.7239400516,-9.47
 80913064\H,5.6327385822,0.9253208545,-9.1764619078\H,4.4882157188,-0.3
 586535981,-9.5587319576\H,4.4672741895,1.1330934108,-10.4808441113\C,3
 .8785775222,1.9477204506,-7.3935745355\H,3.0528302037,2.2989226018,-6.
 7879675466\C,5.2338555138,2.2402272441,-6.8233091759\H,6.0471033368,1.
 8818704042,-7.4488778799\H,5.3677421005,3.3147857193,-6.6855466377\H,5
 .3418801711,1.7791253655,-5.8396944892\C,0.7612853344,0.0494571552,-4.
 4356455392\H,0.8462723017,-0.9684063052,-4.8131202603\H,1.5680030488,0
 .216667607,-3.7181267884\H,-0.1768940316,0.1326972806,-3.8823011804\C,
 0.819663296,1.0586890525,-5.5493408\C,0.7127924805,2.4895764763,-5.100
 5782018\H,0.7433088825,3.1988950072,-5.9235205161\H,-0.2215753091,2.64
 75028132,-4.5574347765\H,1.523931512,2.7325367138,-4.4099766233\C,0.96
 57090426,0.6632190078,-6.8274241303\H,1.0278690831,-0.4073270924,-7.01
 22571968\C,1.0372365269,1.5116666191,-8.0632606307\H,0.09569775,1.4188
 145134,-8.6149654664\H,1.1442206352,2.5692044099,-7.8209511162\\Versio
 n=EM64L-G16RevA.03\State=1-A\HF=-389.153476\MP2=-390.5720967\RMSD=5.47
 5e-09\RMSF=1.151e-06\Dipole=-0.0168351,0.0281201,0.0202388\PG=C01 [X(C
 10H18)]\\@


 FOR THE NATURE OF THE CHEMICAL BOND
 IS THE PROBLEM AT THE HEART OF ALL CHEMISTRY.

                     -- BRYCE CRAWFORD, JR., 1953
 Job cpu time:       0 days  2 hours 23 minutes 35.2 seconds.
 Elapsed time:       0 days  2 hours 23 minutes 46.9 seconds.
 File lengths (MBytes):  RWF=     37 Int=      0 D2E=      0 Chk=      7 Scr=      1
 Normal termination of Gaussian 16 at Fri Sep 17 22:33:21 2021.
