 Entering Gaussian System, Link 0=/opt/gaussian/g16_legacy/g16
 Input=02-IsoP_009_gaussian.com
 Output=02-IsoP_009_gaussian.log
 Initial command:
 /opt/gaussian/g16_legacy/l1.exe "/scratch-local/jramos/2661508/Gau-7000.inp" -scrdir="/scratch-local/jramos/2661508/"
 Entering Link 1 = /opt/gaussian/g16_legacy/l1.exe PID=      7001.
  
 Copyright (c) 1988,1990,1992,1993,1995,1998,2003,2009,2016,
            Gaussian, Inc.  All Rights Reserved.
  
 This is part of the Gaussian(R) 16 program.  It is based on
 the Gaussian(R) 09 system (copyright 2009, Gaussian, Inc.),
 the Gaussian(R) 03 system (copyright 2003, Gaussian, Inc.),
 the Gaussian(R) 98 system (copyright 1998, Gaussian, Inc.),
 the Gaussian(R) 94 system (copyright 1995, Gaussian, Inc.),
 the Gaussian 92(TM) system (copyright 1992, Gaussian, Inc.),
 the Gaussian 90(TM) system (copyright 1990, Gaussian, Inc.),
 the Gaussian 88(TM) system (copyright 1988, Gaussian, Inc.),
 the Gaussian 86(TM) system (copyright 1986, Carnegie Mellon
 University), and the Gaussian 82(TM) system (copyright 1983,
 Carnegie Mellon University). Gaussian is a federally registered
 trademark of Gaussian, Inc.
  
 This software contains proprietary and confidential information,
 including trade secrets, belonging to Gaussian, Inc.
  
 This software is provided under written license and may be
 used, copied, transmitted, or stored only in accord with that
 written license.
  
 The following legend is applicable only to US Government
 contracts under FAR:
  
                    RESTRICTED RIGHTS LEGEND
  
 Use, reproduction and disclosure by the US Government is
 subject to restrictions as set forth in subparagraphs (a)
 and (c) of the Commercial Computer Software - Restricted
 Rights clause in FAR 52.227-19.
  
 Gaussian, Inc.
 340 Quinnipiac St., Bldg. 40, Wallingford CT 06492
  
  
 ---------------------------------------------------------------
 Warning -- This program may not be used in any manner that
 competes with the business of Gaussian, Inc. or will provide
 assistance to any competitor of Gaussian, Inc.  The licensee
 of this program is prohibited from giving any competitor of
 Gaussian, Inc. access to this program.  By using this program,
 the user acknowledges that Gaussian, Inc. is engaged in the
 business of creating and licensing software in the field of
 computational chemistry and represents and warrants to the
 licensee that it is not a competitor of Gaussian, Inc. and that
 it will not use this program in any manner prohibited above.
 ---------------------------------------------------------------
  

 Cite this work as:
 Gaussian 16, Revision A.03,
 M. J. Frisch, G. W. Trucks, H. B. Schlegel, G. E. Scuseria, 
 M. A. Robb, J. R. Cheeseman, G. Scalmani, V. Barone, 
 G. A. Petersson, H. Nakatsuji, X. Li, M. Caricato, A. V. Marenich, 
 J. Bloino, B. G. Janesko, R. Gomperts, B. Mennucci, H. P. Hratchian, 
 J. V. Ortiz, A. F. Izmaylov, J. L. Sonnenberg, D. Williams-Young, 
 F. Ding, F. Lipparini, F. Egidi, J. Goings, B. Peng, A. Petrone, 
 T. Henderson, D. Ranasinghe, V. G. Zakrzewski, J. Gao, N. Rega, 
 G. Zheng, W. Liang, M. Hada, M. Ehara, K. Toyota, R. Fukuda, 
 J. Hasegawa, M. Ishida, T. Nakajima, Y. Honda, O. Kitao, H. Nakai, 
 T. Vreven, K. Throssell, J. A. Montgomery, Jr., J. E. Peralta, 
 F. Ogliaro, M. J. Bearpark, J. J. Heyd, E. N. Brothers, K. N. Kudin, 
 V. N. Staroverov, T. A. Keith, R. Kobayashi, J. Normand, 
 K. Raghavachari, A. P. Rendell, J. C. Burant, S. S. Iyengar, 
 J. Tomasi, M. Cossi, J. M. Millam, M. Klene, C. Adamo, R. Cammi, 
 J. W. Ochterski, R. L. Martin, K. Morokuma, O. Farkas, 
 J. B. Foresman, and D. J. Fox, Gaussian, Inc., Wallingford CT, 2016.
 
 ******************************************
 Gaussian 16:  EM64L-G16RevA.03 25-Dec-2016
                17-Sep-2021 
 ******************************************
 %chk=02-IsoP_009_gaussian.chk
 %nproc=1
 Will use up to    1 processors via shared memory.
 %mem=4000Mb
 ---------------------
 #p opt mp2/6-31g(d,p)
 ---------------------
 1/18=20,19=15,38=1/1,3;
 2/9=110,12=2,17=6,18=5,40=1/2;
 3/5=1,6=6,7=101,11=9,25=1,30=1,71=1/1,2,3;
 4//1;
 5/5=2,38=5/2;
 8/6=4,10=2/1;
 9/15=2,16=-3/6;
 10/5=1/2;
 6/7=2,8=2,9=2,10=2/1;
 7/12=2/1,2,3,16;
 1/18=20,19=15/3(2);
 2/9=110/2;
 99//99;
 2/9=110/2;
 3/5=1,6=6,7=101,11=9,25=1,30=1,71=1/1,2,3;
 4/5=5,16=3,69=1/1;
 5/5=2,38=5/2;
 8/6=4,10=2/1;
 9/15=2,16=-3/6;
 10/5=1/2;
 7/12=2/1,2,3,16;
 1/18=20,19=15/3(-8);
 2/9=110/2;
 6/7=2,8=2,9=2,10=2/1;
 99//99;
 Leave Link    1 at Fri Sep 17 20:09:25 2021, MaxMem=   524288000 cpu:               0.0 elap:               0.1
 (Enter /opt/gaussian/g16_legacy/l101.exe)
 -------------------------------------------------
 Conformer number 009. Energy MM = 27.427 kcal/mol
 -------------------------------------------------
 Symbolic Z-matrix:
 Charge =  0 Multiplicity = 1
 C                     2.1613    1.194    -8.9449 
 H                     1.8755    0.1601   -9.183 
 H                     1.9986    1.776    -9.8595 
 C                     3.6338    1.2171   -8.5564 
 C                     4.0382    0.3468   -7.3937 
 H                     4.8384    0.7995   -6.8046 
 H                     3.214     0.1857   -6.6951 
 H                     4.3645   -0.6339   -7.7523 
 C                     4.5115    1.9769   -9.2446 
 H                     4.1457    2.5756   -10.0772 
 C                     5.9854    2.091    -9.0107 
 H                     6.3504    1.4632   -8.1947 
 H                     6.5249    1.7985   -9.917 
 H                     6.2428    3.1295   -8.78 
 C                    -2.532     2.6652   -8.0566 
 H                    -2.7544    1.8581   -8.763 
 H                    -3.1374    2.4998   -7.161 
 H                    -2.8433    3.6087   -8.5179 
 C                    -1.0721    2.7164   -7.6915 
 C                    -0.7142    3.7732   -6.6805 
 H                     0.2956    4.1655   -6.8184 
 H                    -1.3888    4.6351   -6.76 
 H                    -0.8018    3.3697   -5.6668 
 C                    -0.1884    1.8442   -8.2106 
 H                    -0.5474    1.0871   -8.9088 
 C                     1.2635    1.7479   -7.8272 
 H                     1.658     2.7231   -7.5241 
 H                     1.3134    1.0897   -6.9531 
 
 ITRead=  0  0  0  0  0  0  0  0  0  0  0  0  0  0  0  0  0  0  0  0
 ITRead=  0  0  0  0  0  0  0  0
 MicOpt= -1 -1 -1 -1 -1 -1 -1 -1 -1 -1 -1 -1 -1 -1 -1 -1 -1 -1 -1 -1
 MicOpt= -1 -1 -1 -1 -1 -1 -1 -1
 NAtoms=     28 NQM=       28 NQMF=       0 NMMI=      0 NMMIF=      0
                NMic=       0 NMicF=      0.
                    Isotopes and Nuclear Properties:
 (Nuclear quadrupole moments (NQMom) in fm**2, nuclear magnetic moments (NMagM)
  in nuclear magnetons)

  Atom         1           2           3           4           5           6           7           8           9          10
 IAtWgt=          12           1           1          12          12           1           1           1          12           1
 AtmWgt=  12.0000000   1.0078250   1.0078250  12.0000000  12.0000000   1.0078250   1.0078250   1.0078250  12.0000000   1.0078250
 NucSpn=           0           1           1           0           0           1           1           1           0           1
 AtZEff=  -0.0000000  -0.0000000  -0.0000000  -0.0000000  -0.0000000  -0.0000000  -0.0000000  -0.0000000  -0.0000000  -0.0000000
 NQMom=    0.0000000   0.0000000   0.0000000   0.0000000   0.0000000   0.0000000   0.0000000   0.0000000   0.0000000   0.0000000
 NMagM=    0.0000000   2.7928460   2.7928460   0.0000000   0.0000000   2.7928460   2.7928460   2.7928460   0.0000000   2.7928460
 AtZNuc=   6.0000000   1.0000000   1.0000000   6.0000000   6.0000000   1.0000000   1.0000000   1.0000000   6.0000000   1.0000000

  Atom        11          12          13          14          15          16          17          18          19          20
 IAtWgt=          12           1           1           1          12           1           1           1          12          12
 AtmWgt=  12.0000000   1.0078250   1.0078250   1.0078250  12.0000000   1.0078250   1.0078250   1.0078250  12.0000000  12.0000000
 NucSpn=           0           1           1           1           0           1           1           1           0           0
 AtZEff=  -0.0000000  -0.0000000  -0.0000000  -0.0000000  -0.0000000  -0.0000000  -0.0000000  -0.0000000  -0.0000000  -0.0000000
 NQMom=    0.0000000   0.0000000   0.0000000   0.0000000   0.0000000   0.0000000   0.0000000   0.0000000   0.0000000   0.0000000
 NMagM=    0.0000000   2.7928460   2.7928460   2.7928460   0.0000000   2.7928460   2.7928460   2.7928460   0.0000000   0.0000000
 AtZNuc=   6.0000000   1.0000000   1.0000000   1.0000000   6.0000000   1.0000000   1.0000000   1.0000000   6.0000000   6.0000000

  Atom        21          22          23          24          25          26          27          28
 IAtWgt=           1           1           1          12           1          12           1           1
 AtmWgt=   1.0078250   1.0078250   1.0078250  12.0000000   1.0078250  12.0000000   1.0078250   1.0078250
 NucSpn=           1           1           1           0           1           0           1           1
 AtZEff=  -0.0000000  -0.0000000  -0.0000000  -0.0000000  -0.0000000  -0.0000000  -0.0000000  -0.0000000
 NQMom=    0.0000000   0.0000000   0.0000000   0.0000000   0.0000000   0.0000000   0.0000000   0.0000000
 NMagM=    2.7928460   2.7928460   2.7928460   0.0000000   2.7928460   0.0000000   2.7928460   2.7928460
 AtZNuc=   1.0000000   1.0000000   1.0000000   6.0000000   1.0000000   6.0000000   1.0000000   1.0000000
 Leave Link  101 at Fri Sep 17 20:09:25 2021, MaxMem=   524288000 cpu:               0.3 elap:               0.3
 (Enter /opt/gaussian/g16_legacy/l103.exe)

 GradGradGradGradGradGradGradGradGradGradGradGradGradGradGradGradGradGrad
 Berny optimization.
 Initialization pass.
                           ----------------------------
                           !    Initial Parameters    !
                           ! (Angstroms and Degrees)  !
 --------------------------                            --------------------------
 ! Name  Definition              Value          Derivative Info.                !
 --------------------------------------------------------------------------------
 ! R1    R(1,2)                  1.0988         estimate D2E/DX2                !
 ! R2    R(1,3)                  1.0962         estimate D2E/DX2                !
 ! R3    R(1,4)                  1.5231         estimate D2E/DX2                !
 ! R4    R(1,26)                 1.5369         estimate D2E/DX2                !
 ! R5    R(4,5)                  1.5076         estimate D2E/DX2                !
 ! R6    R(4,9)                  1.3495         estimate D2E/DX2                !
 ! R7    R(5,6)                  1.0919         estimate D2E/DX2                !
 ! R8    R(5,7)                  1.0924         estimate D2E/DX2                !
 ! R9    R(5,8)                  1.094          estimate D2E/DX2                !
 ! R10   R(9,10)                 1.0888         estimate D2E/DX2                !
 ! R11   R(9,11)                 1.4967         estimate D2E/DX2                !
 ! R12   R(11,12)                1.0923         estimate D2E/DX2                !
 ! R13   R(11,13)                1.0945         estimate D2E/DX2                !
 ! R14   R(11,14)                1.0945         estimate D2E/DX2                !
 ! R15   R(15,16)                1.0954         estimate D2E/DX2                !
 ! R16   R(15,17)                1.0936         estimate D2E/DX2                !
 ! R17   R(15,18)                1.0954         estimate D2E/DX2                !
 ! R18   R(15,19)                1.5057         estimate D2E/DX2                !
 ! R19   R(19,20)                1.5057         estimate D2E/DX2                !
 ! R20   R(19,24)                1.3458         estimate D2E/DX2                !
 ! R21   R(20,21)                1.0921         estimate D2E/DX2                !
 ! R22   R(20,22)                1.0974         estimate D2E/DX2                !
 ! R23   R(20,23)                1.0946         estimate D2E/DX2                !
 ! R24   R(24,25)                1.0907         estimate D2E/DX2                !
 ! R25   R(24,26)                1.5048         estimate D2E/DX2                !
 ! R26   R(26,27)                1.0948         estimate D2E/DX2                !
 ! R27   R(26,28)                1.0953         estimate D2E/DX2                !
 ! A1    A(2,1,3)              106.2703         estimate D2E/DX2                !
 ! A2    A(2,1,4)              108.7244         estimate D2E/DX2                !
 ! A3    A(2,1,26)             110.1672         estimate D2E/DX2                !
 ! A4    A(3,1,4)              110.3808         estimate D2E/DX2                !
 ! A5    A(3,1,26)             109.1905         estimate D2E/DX2                !
 ! A6    A(4,1,26)             111.9499         estimate D2E/DX2                !
 ! A7    A(1,4,5)              116.5709         estimate D2E/DX2                !
 ! A8    A(1,4,9)              120.48           estimate D2E/DX2                !
 ! A9    A(5,4,9)              122.9456         estimate D2E/DX2                !
 ! A10   A(4,5,6)              111.921          estimate D2E/DX2                !
 ! A11   A(4,5,7)              112.0838         estimate D2E/DX2                !
 ! A12   A(4,5,8)              110.1634         estimate D2E/DX2                !
 ! A13   A(6,5,7)              105.6071         estimate D2E/DX2                !
 ! A14   A(6,5,8)              109.2638         estimate D2E/DX2                !
 ! A15   A(7,5,8)              107.6056         estimate D2E/DX2                !
 ! A16   A(4,9,10)             118.7531         estimate D2E/DX2                !
 ! A17   A(4,9,11)             127.1344         estimate D2E/DX2                !
 ! A18   A(10,9,11)            114.1066         estimate D2E/DX2                !
 ! A19   A(9,11,12)            113.7021         estimate D2E/DX2                !
 ! A20   A(9,11,13)            109.6104         estimate D2E/DX2                !
 ! A21   A(9,11,14)            109.6859         estimate D2E/DX2                !
 ! A22   A(12,11,13)           107.4732         estimate D2E/DX2                !
 ! A23   A(12,11,14)           108.0157         estimate D2E/DX2                !
 ! A24   A(13,11,14)           108.1903         estimate D2E/DX2                !
 ! A25   A(16,15,17)           107.7156         estimate D2E/DX2                !
 ! A26   A(16,15,18)           107.7801         estimate D2E/DX2                !
 ! A27   A(16,15,19)           112.2269         estimate D2E/DX2                !
 ! A28   A(17,15,18)           108.5315         estimate D2E/DX2                !
 ! A29   A(17,15,19)           110.0783         estimate D2E/DX2                !
 ! A30   A(18,15,19)           110.3872         estimate D2E/DX2                !
 ! A31   A(15,19,20)           114.6544         estimate D2E/DX2                !
 ! A32   A(15,19,24)           121.4056         estimate D2E/DX2                !
 ! A33   A(20,19,24)           123.904          estimate D2E/DX2                !
 ! A34   A(19,20,21)           112.7767         estimate D2E/DX2                !
 ! A35   A(19,20,22)           110.8851         estimate D2E/DX2                !
 ! A36   A(19,20,23)           110.1263         estimate D2E/DX2                !
 ! A37   A(21,20,22)           106.0892         estimate D2E/DX2                !
 ! A38   A(21,20,23)           108.867          estimate D2E/DX2                !
 ! A39   A(22,20,23)           107.9042         estimate D2E/DX2                !
 ! A40   A(19,24,25)           118.7292         estimate D2E/DX2                !
 ! A41   A(19,24,26)           125.2242         estimate D2E/DX2                !
 ! A42   A(25,24,26)           115.8665         estimate D2E/DX2                !
 ! A43   A(1,26,24)            113.6663         estimate D2E/DX2                !
 ! A44   A(1,26,27)            108.1725         estimate D2E/DX2                !
 ! A45   A(1,26,28)            109.7045         estimate D2E/DX2                !
 ! A46   A(24,26,27)           111.1757         estimate D2E/DX2                !
 ! A47   A(24,26,28)           106.6032         estimate D2E/DX2                !
 ! A48   A(27,26,28)           107.3329         estimate D2E/DX2                !
 ! D1    D(2,1,4,5)            -57.9182         estimate D2E/DX2                !
 ! D2    D(2,1,4,9)            121.4283         estimate D2E/DX2                !
 ! D3    D(3,1,4,5)           -174.1184         estimate D2E/DX2                !
 ! D4    D(3,1,4,9)              5.2281         estimate D2E/DX2                !
 ! D5    D(26,1,4,5)            64.0252         estimate D2E/DX2                !
 ! D6    D(26,1,4,9)          -116.6283         estimate D2E/DX2                !
 ! D7    D(2,1,26,24)          -63.445          estimate D2E/DX2                !
 ! D8    D(2,1,26,27)          172.5707         estimate D2E/DX2                !
 ! D9    D(2,1,26,28)           55.7869         estimate D2E/DX2                !
 ! D10   D(3,1,26,24)           52.9055         estimate D2E/DX2                !
 ! D11   D(3,1,26,27)          -71.0788         estimate D2E/DX2                !
 ! D12   D(3,1,26,28)          172.1374         estimate D2E/DX2                !
 ! D13   D(4,1,26,24)          175.442          estimate D2E/DX2                !
 ! D14   D(4,1,26,27)           51.4577         estimate D2E/DX2                !
 ! D15   D(4,1,26,28)          -65.3261         estimate D2E/DX2                !
 ! D16   D(1,4,5,6)           -145.6989         estimate D2E/DX2                !
 ! D17   D(1,4,5,7)            -27.2586         estimate D2E/DX2                !
 ! D18   D(1,4,5,8)             92.5237         estimate D2E/DX2                !
 ! D19   D(9,4,5,6)             34.9721         estimate D2E/DX2                !
 ! D20   D(9,4,5,7)            153.4124         estimate D2E/DX2                !
 ! D21   D(9,4,5,8)            -86.8053         estimate D2E/DX2                !
 ! D22   D(1,4,9,10)             0.3393         estimate D2E/DX2                !
 ! D23   D(1,4,9,11)          -178.7252         estimate D2E/DX2                !
 ! D24   D(5,4,9,10)           179.6428         estimate D2E/DX2                !
 ! D25   D(5,4,9,11)             0.5783         estimate D2E/DX2                !
 ! D26   D(4,9,11,12)            0.9648         estimate D2E/DX2                !
 ! D27   D(4,9,11,13)          121.2648         estimate D2E/DX2                !
 ! D28   D(4,9,11,14)         -120.0865         estimate D2E/DX2                !
 ! D29   D(10,9,11,12)        -178.1367         estimate D2E/DX2                !
 ! D30   D(10,9,11,13)         -57.8367         estimate D2E/DX2                !
 ! D31   D(10,9,11,14)          60.812          estimate D2E/DX2                !
 ! D32   D(16,15,19,20)       -177.7184         estimate D2E/DX2                !
 ! D33   D(16,15,19,24)          0.1804         estimate D2E/DX2                !
 ! D34   D(17,15,19,20)        -57.7611         estimate D2E/DX2                !
 ! D35   D(17,15,19,24)        120.1377         estimate D2E/DX2                !
 ! D36   D(18,15,19,20)         62.0305         estimate D2E/DX2                !
 ! D37   D(18,15,19,24)       -120.0706         estimate D2E/DX2                !
 ! D38   D(15,19,20,21)       -148.7811         estimate D2E/DX2                !
 ! D39   D(15,19,20,22)        -29.9702         estimate D2E/DX2                !
 ! D40   D(15,19,20,23)         89.3886         estimate D2E/DX2                !
 ! D41   D(24,19,20,21)         33.3796         estimate D2E/DX2                !
 ! D42   D(24,19,20,22)        152.1906         estimate D2E/DX2                !
 ! D43   D(24,19,20,23)        -88.4507         estimate D2E/DX2                !
 ! D44   D(15,19,24,25)         -0.0755         estimate D2E/DX2                !
 ! D45   D(15,19,24,26)       -174.9853         estimate D2E/DX2                !
 ! D46   D(20,19,24,25)        177.6236         estimate D2E/DX2                !
 ! D47   D(20,19,24,26)          2.7137         estimate D2E/DX2                !
 ! D48   D(19,24,26,1)        -152.9153         estimate D2E/DX2                !
 ! D49   D(19,24,26,27)        -30.5745         estimate D2E/DX2                !
 ! D50   D(19,24,26,28)         86.0989         estimate D2E/DX2                !
 ! D51   D(25,24,26,1)          32.0449         estimate D2E/DX2                !
 ! D52   D(25,24,26,27)        154.3857         estimate D2E/DX2                !
 ! D53   D(25,24,26,28)        -88.9409         estimate D2E/DX2                !
 --------------------------------------------------------------------------------
 Trust Radius=3.00D-01 FncErr=1.00D-07 GrdErr=1.00D-07 EigMax=2.50D+02 EigMin=1.00D-04
 Number of steps in this run=    138 maximum allowed number of steps=    168.
 GradGradGradGradGradGradGradGradGradGradGradGradGradGradGradGradGradGrad

 Leave Link  103 at Fri Sep 17 20:09:25 2021, MaxMem=   524288000 cpu:               0.0 elap:               0.2
 (Enter /opt/gaussian/g16_legacy/l202.exe)
                          Input orientation:                          
 ---------------------------------------------------------------------
 Center     Atomic      Atomic             Coordinates (Angstroms)
 Number     Number       Type             X           Y           Z
 ---------------------------------------------------------------------
      1          6           0        2.161300    1.194000   -8.944900
      2          1           0        1.875500    0.160100   -9.183000
      3          1           0        1.998600    1.776000   -9.859500
      4          6           0        3.633800    1.217100   -8.556400
      5          6           0        4.038200    0.346800   -7.393700
      6          1           0        4.838400    0.799500   -6.804600
      7          1           0        3.214000    0.185700   -6.695100
      8          1           0        4.364500   -0.633900   -7.752300
      9          6           0        4.511500    1.976900   -9.244600
     10          1           0        4.145700    2.575600  -10.077200
     11          6           0        5.985400    2.091000   -9.010700
     12          1           0        6.350400    1.463200   -8.194700
     13          1           0        6.524900    1.798500   -9.917000
     14          1           0        6.242800    3.129500   -8.780000
     15          6           0       -2.532000    2.665200   -8.056600
     16          1           0       -2.754400    1.858100   -8.763000
     17          1           0       -3.137400    2.499800   -7.161000
     18          1           0       -2.843300    3.608700   -8.517900
     19          6           0       -1.072100    2.716400   -7.691500
     20          6           0       -0.714200    3.773200   -6.680500
     21          1           0        0.295600    4.165500   -6.818400
     22          1           0       -1.388800    4.635100   -6.760000
     23          1           0       -0.801800    3.369700   -5.666800
     24          6           0       -0.188400    1.844200   -8.210600
     25          1           0       -0.547400    1.087100   -8.908800
     26          6           0        1.263500    1.747900   -7.827200
     27          1           0        1.658000    2.723100   -7.524100
     28          1           0        1.313400    1.089700   -6.953100
 ---------------------------------------------------------------------
                    Distance matrix (angstroms):
                    1          2          3          4          5
     1  C    0.000000
     2  H    1.098782   0.000000
     3  H    1.096216   1.756115   0.000000
     4  C    1.523063   2.145110   2.164329   0.000000
     5  C    2.578124   2.813134   3.504676   1.507592   0.000000
     6  H    3.450127   3.852843   4.283740   2.166623   1.091923
     7  H    2.680755   2.825223   3.744286   2.168976   1.092383
     8  H    3.101226   2.978667   3.980627   2.146323   1.094001
     9  C    2.495234   3.202039   2.594827   1.349545   2.511388
    10  H    2.669975   3.433372   2.301476   2.102474   3.490025
    11  C    3.928445   4.544154   4.088308   2.549532   3.073843
    12  H    4.264250   4.764403   4.669857   2.751601   2.689650
    13  H    4.511253   4.983977   4.526721   3.247725   3.828597
    14  H    4.520176   5.296513   4.583723   3.242553   3.811234
    15  C    4.998057   5.193299   4.956557   6.353258   6.998710
    16  H    4.963690   4.949301   4.878531   6.423602   7.092138
    17  H    5.741397   5.889978   5.846733   7.031473   7.495251
    18  H    5.573072   5.882370   5.348147   6.904640   7.697978
    19  C    3.787293   4.177031   3.874761   5.014125   5.640820
    20  C    4.477531   5.101328   4.631861   5.381241   5.902049
    21  H    4.102761   4.912295   4.225897   4.780929   5.377778
    22  H    5.405383   6.045842   5.408866   6.335321   6.945748
    23  H    4.925401   5.461971   5.287802   5.714720   5.962022
    24  C    2.546183   2.835743   2.739798   3.888707   4.557815
    25  H    2.711049   2.608632   2.803664   4.198038   4.885826
    26  C    1.536914   2.175740   2.161343   2.536100   3.138465
    27  H    2.147121   3.060756   2.543049   2.690254   3.365881
    28  H    2.167275   2.480437   3.063930   2.823306   2.858420
                    6          7          8          9         10
     6  H    0.000000
     7  H    1.739947   0.000000
     8  H    1.782513   1.764388   0.000000
     9  C    2.728871   3.375182   3.010788   0.000000
    10  H    3.787384   4.244795   3.969121   1.088795   0.000000
    11  C    2.801867   4.083238   3.411153   1.496699   2.180999
    12  H    2.158476   3.703756   2.921874   2.178929   3.105148
    13  H    3.678222   4.893243   3.907662   2.130194   2.508015
    14  H    3.362060   4.710244   4.329822   2.131136   2.527323
    15  C    7.705267   6.404539   7.651037   7.176071   6.977287
    16  H    7.912432   6.534136   7.609883   7.282812   7.060687
    17  H    8.162808   6.775869   8.151577   7.944840   7.845605
    18  H    8.356765   7.192386   8.398701   7.568616   7.234973
    19  C    6.276552   5.076210   6.386300   5.842565   5.739061
    20  C    6.299973   5.319880   6.809147   6.091736   6.049004
    21  H    5.653952   4.936706   6.361003   5.333876   5.288746
    22  H    7.313811   6.402120   7.864317   6.932013   6.773186
    23  H    6.301775   5.227036   6.860669   6.555280   6.675326
    24  C    5.323246   4.077216   5.203837   4.814128   4.775308
    25  H    5.789405   4.456582   5.331613   5.147521   5.060235
    26  C    3.837328   2.743459   3.910854   3.551192   3.748955
    27  H    3.785877   3.089786   4.318179   3.414586   3.567734
    28  H    3.540041   2.120392   3.594263   4.033105   4.470998
                   11         12         13         14         15
    11  C    0.000000
    12  H    1.092343   0.000000
    13  H    1.094530   1.763291   0.000000
    14  H    1.094513   1.769381   1.773108   0.000000
    15  C    8.589884   8.964424   9.286533   8.816802   0.000000
    16  H    8.746411   9.131062   9.350972   9.086603   1.095387
    17  H    9.317402   9.600074  10.072110   9.539698   1.093602
    18  H    8.971745   9.446256   9.643520   9.102502   1.095398
    19  C    7.206922   7.544351   7.969304   7.406973   1.505732
    20  C    7.290012   7.585346   8.171838   7.295348   2.534899
    21  H    6.440773   6.771797   7.349026   6.347469   3.432107
    22  H    8.118924   8.486138   8.979955   8.036700   2.620798
    23  H    7.673514   7.821700   8.614720   7.705589   3.033324
    24  C    6.230319   6.549910   6.926925   6.583050   2.488015
    25  H    6.610270   6.944857   7.179135   7.091883   2.674936
    26  C    4.880034   5.108098   5.661462   5.254529   3.911507
    27  H    4.619082   4.904658   5.501597   4.771041   4.224099
    28  H    5.202298   5.201196   6.037121   5.638912   4.299653
                   16         17         18         19         20
    16  H    0.000000
    17  H    1.767731   0.000000
    18  H    1.769909   1.776888   0.000000
    19  C    2.171388   2.143317   2.148554   0.000000
    20  C    3.488098   2.779267   2.817120   1.505669   0.000000
    21  H    4.290462   3.831112   3.612620   2.175499   1.092068
    22  H    3.686272   2.788890   2.501855   2.156247   1.097396
    23  H    3.960308   2.905923   3.514771   2.144592   1.094566
    24  C    2.624823   3.198136   3.202560   1.345780   2.517680
    25  H    2.342338   3.429085   3.432554   2.100416   3.494034
    26  C    4.126910   4.514100   4.561299   2.532081   3.054187
    27  H    4.663944   4.814308   4.693999   2.735236   2.727949
    28  H    4.518094   4.673460   5.106086   2.980268   3.374410
                   21         22         23         24         25
    21  H    0.000000
    22  H    1.749611   0.000000
    23  H    1.778698   1.772256   0.000000
    24  C    2.749711   3.366649   3.028915   0.000000
    25  H    3.815359   4.232446   3.973103   1.090672   0.000000
    26  C    2.792722   4.063193   3.400445   1.504753   2.210401
    27  H    2.105864   3.677306   3.149329   2.157068   3.075334
    28  H    3.242623   4.461954   3.365567   2.099043   2.699508
                   26         27         28
    26  C    0.000000
    27  H    1.094767   0.000000
    28  H    1.095339   1.764309   0.000000
 Stoichiometry    C10H18
 Framework group  C1[X(C10H18)]
 Deg. of freedom    78
 Full point group                 C1      NOp   1
 Largest Abelian subgroup         C1      NOp   1
 Largest concise Abelian subgroup C1      NOp   1
                         Standard orientation:                         
 ---------------------------------------------------------------------
 Center     Atomic      Atomic             Coordinates (Angstroms)
 Number     Number       Type             X           Y           Z
 ---------------------------------------------------------------------
      1          6           0        0.719163   -0.773853   -0.593064
      2          1           0        0.695581   -1.870441   -0.658350
      3          1           0        0.584387   -0.402339   -1.615561
      4          6           0        2.075152   -0.345587   -0.047532
      5          6           0        2.464362   -0.896914    1.300573
      6          1           0        3.050458   -0.180738    1.880124
      7          1           0        1.592611   -1.129836    1.916282
      8          1           0        3.039580   -1.819498    1.178912
      9          6           0        2.872407    0.475534   -0.762666
     10          1           0        2.525213    0.829077   -1.732170
     11          6           0        4.235053    0.966256   -0.385179
     12          1           0        4.590129    0.581927    0.573688
     13          1           0        4.958826    0.664192   -1.148662
     14          1           0        4.231420    2.059437   -0.331300
     15          6           0       -4.257400   -0.312086   -0.558953
     16          1           0       -4.193539   -1.252544   -1.116926
     17          1           0       -4.947885   -0.466155    0.274988
     18          1           0       -4.681885    0.445090   -1.227080
     19          6           0       -2.915753    0.136385   -0.043119
     20          6           0       -2.948466    1.397321    0.779080
     21          1           0       -2.033490    1.986268    0.686500
     22          1           0       -3.766587    2.053677    0.456356
     23          1           0       -3.108010    1.154758    1.834440
     24          6           0       -1.799779   -0.578414   -0.277189
     25          1           0       -1.879490   -1.501417   -0.852756
     26          6           0       -0.438047   -0.270258    0.284067
     27          1           0       -0.307495    0.805928    0.436690
     28          1           0       -0.389982   -0.747689    1.268708
 ---------------------------------------------------------------------
 Rotational constants (GHZ):           3.0953537           0.4314710           0.4246330
 Leave Link  202 at Fri Sep 17 20:09:26 2021, MaxMem=   524288000 cpu:               0.1 elap:               0.1
 (Enter /opt/gaussian/g16_legacy/l301.exe)
 Standard basis: 6-31G(d,p) (6D, 7F)
 Ernie: Thresh=  0.10000D-02 Tol=  0.10000D-05 Strict=F.
 There are   240 symmetry adapted cartesian basis functions of A   symmetry.
 There are   240 symmetry adapted basis functions of A   symmetry.
   240 basis functions,   406 primitive gaussians,   240 cartesian basis functions
    39 alpha electrons       39 beta electrons
       nuclear repulsion energy       505.2188071263 Hartrees.
 IExCor=    0 DFT=F Ex=HF Corr=None ExCW=0 ScaHFX=  1.000000
 ScaDFX=  1.000000  1.000000  1.000000  1.000000 ScalE2=  1.000000  1.000000
 IRadAn=      5 IRanWt=     -1 IRanGd=            0 ICorTp=0 IEmpDi=  4
 NAtoms=   28 NActive=   28 NUniq=   28 SFac= 1.00D+00 NAtFMM=   60 NAOKFM=F Big=F
 Integral buffers will be    131072 words long.
 Raffenetti 1 integral format.
 Two-electron integral symmetry is turned on.
 Leave Link  301 at Fri Sep 17 20:09:26 2021, MaxMem=   524288000 cpu:               0.1 elap:               0.2
 (Enter /opt/gaussian/g16_legacy/l302.exe)
 NPDir=0 NMtPBC=     1 NCelOv=     1 NCel=       1 NClECP=     1 NCelD=      1
         NCelK=      1 NCelE2=     1 NClLst=     1 CellRange=     0.0.
 One-electron integrals computed using PRISM.
 One-electron integral symmetry used in STVInt
 NBasis=   240 RedAO= T EigKep=  2.07D-03  NBF=   240
 NBsUse=   240 1.00D-06 EigRej= -1.00D+00 NBFU=   240
 Leave Link  302 at Fri Sep 17 20:09:27 2021, MaxMem=   524288000 cpu:               0.3 elap:               0.6
 (Enter /opt/gaussian/g16_legacy/l303.exe)
 DipDrv:  MaxL=1.
 Leave Link  303 at Fri Sep 17 20:09:27 2021, MaxMem=   524288000 cpu:               0.1 elap:               0.3
 (Enter /opt/gaussian/g16_legacy/l401.exe)
 ExpMin= 1.61D-01 ExpMax= 3.05D+03 ExpMxC= 4.57D+02 IAcc=3 IRadAn=         5 AccDes= 0.00D+00
 Harris functional with IExCor=  205 and IRadAn=       5 diagonalized for initial guess.
 HarFok:  IExCor=  205 AccDes= 0.00D+00 IRadAn=         5 IDoV= 1 UseB2=F ITyADJ=14
 ICtDFT=  3500011 ScaDFX=  1.000000  1.000000  1.000000  1.000000
 FoFCou: FMM=F IPFlag=           0 FMFlag=      100000 FMFlg1=           0
         NFxFlg=           0 DoJE=T BraDBF=F KetDBF=T FulRan=T
         wScrn=  0.000000 ICntrl=       500 IOpCl=  0 I1Cent=   200000004 NGrid=           0
         NMat0=    1 NMatS0=      1 NMatT0=    0 NMatD0=    1 NMtDS0=    0 NMtDT0=    0
 Petite list used in FoFCou.
 Harris En= -390.108039869774    
 JPrj=0 DoOrth=F DoCkMO=F.
 Leave Link  401 at Fri Sep 17 20:09:38 2021, MaxMem=   524288000 cpu:              10.7 elap:              11.0
 (Enter /opt/gaussian/g16_legacy/l502.exe)
 Keep R1 ints in memory in canonical form, NReq=425198025.
 FoFCou: FMM=F IPFlag=           0 FMFlag=           0 FMFlg1=           0
         NFxFlg=           0 DoJE=F BraDBF=F KetDBF=F FulRan=T
         wScrn=  0.000000 ICntrl=       600 IOpCl=  0 I1Cent=           0 NGrid=           0
         NMat0=    1 NMatS0=  28920 NMatT0=    0 NMatD0=    1 NMtDS0=    0 NMtDT0=    0
 Symmetry not used in FoFCou.
 Two-electron integral symmetry not used.
 Closed shell SCF:
 Using DIIS extrapolation, IDIIS=  1040.
 NGot=   524288000 LenX=   105970886 LenY=   105912845
 Requested convergence on RMS density matrix=1.00D-08 within 128 cycles.
 Requested convergence on MAX density matrix=1.00D-06.
 Requested convergence on             energy=1.00D-06.
 No special actions if energy rises.

 Cycle   1  Pass 1  IDiag  1:
 E= -388.530803202958    
 DIIS: error= 5.01D-02 at cycle   1 NSaved=   1.
 NSaved= 1 IEnMin= 1 EnMin= -388.530803202958     IErMin= 1 ErrMin= 5.01D-02
 ErrMax= 5.01D-02  0.00D+00 EMaxC= 1.00D-01 BMatC= 8.06D-01 BMatP= 8.06D-01
 IDIUse=3 WtCom= 4.99D-01 WtEn= 5.01D-01
 Coeff-Com:  0.100D+01
 Coeff-En:   0.100D+01
 Coeff:      0.100D+01
 Gap=     0.508 Goal=   None    Shift=    0.000
 GapD=    0.508 DampG=2.000 DampE=0.500 DampFc=1.0000 IDamp=-1.
 RMSDP=4.02D-03 MaxDP=1.14D-01              OVMax= 1.32D-01

 Cycle   2  Pass 1  IDiag  1:
 E= -389.071888412123     Delta-E=       -0.541085209165 Rises=F Damp=F
 DIIS: error= 1.09D-02 at cycle   2 NSaved=   2.
 NSaved= 2 IEnMin= 2 EnMin= -389.071888412123     IErMin= 2 ErrMin= 1.09D-02
 ErrMax= 1.09D-02  0.00D+00 EMaxC= 1.00D-01 BMatC= 8.52D-02 BMatP= 8.06D-01
 IDIUse=3 WtCom= 8.91D-01 WtEn= 1.09D-01
 Coeff-Com:  0.181D+00 0.819D+00
 Coeff-En:   0.000D+00 0.100D+01
 Coeff:      0.162D+00 0.838D+00
 Gap=     0.556 Goal=   None    Shift=    0.000
 RMSDP=1.59D-03 MaxDP=3.02D-02 DE=-5.41D-01 OVMax= 4.38D-02

 Cycle   3  Pass 1  IDiag  1:
 E= -389.148280333148     Delta-E=       -0.076391921025 Rises=F Damp=F
 DIIS: error= 2.62D-03 at cycle   3 NSaved=   3.
 NSaved= 3 IEnMin= 3 EnMin= -389.148280333148     IErMin= 3 ErrMin= 2.62D-03
 ErrMax= 2.62D-03  0.00D+00 EMaxC= 1.00D-01 BMatC= 2.70D-03 BMatP= 8.52D-02
 IDIUse=3 WtCom= 9.74D-01 WtEn= 2.62D-02
 Coeff-Com: -0.245D-01 0.939D-01 0.931D+00
 Coeff-En:   0.000D+00 0.000D+00 0.100D+01
 Coeff:     -0.238D-01 0.915D-01 0.932D+00
 Gap=     0.498 Goal=   None    Shift=    0.000
 RMSDP=2.43D-04 MaxDP=5.99D-03 DE=-7.64D-02 OVMax= 9.92D-03

 Cycle   4  Pass 1  IDiag  1:
 E= -389.151434497763     Delta-E=       -0.003154164616 Rises=F Damp=F
 DIIS: error= 4.45D-04 at cycle   4 NSaved=   4.
 NSaved= 4 IEnMin= 4 EnMin= -389.151434497763     IErMin= 4 ErrMin= 4.45D-04
 ErrMax= 4.45D-04  0.00D+00 EMaxC= 1.00D-01 BMatC= 8.97D-05 BMatP= 2.70D-03
 IDIUse=3 WtCom= 9.96D-01 WtEn= 4.45D-03
 Coeff-Com: -0.408D-02-0.252D-02 0.939D-01 0.913D+00
 Coeff-En:   0.000D+00 0.000D+00 0.000D+00 0.100D+01
 Coeff:     -0.407D-02-0.251D-02 0.935D-01 0.913D+00
 Gap=     0.498 Goal=   None    Shift=    0.000
 RMSDP=6.94D-05 MaxDP=1.72D-03 DE=-3.15D-03 OVMax= 3.21D-03

 Cycle   5  Pass 1  IDiag  1:
 E= -389.151551313798     Delta-E=       -0.000116816035 Rises=F Damp=F
 DIIS: error= 1.46D-04 at cycle   5 NSaved=   5.
 NSaved= 5 IEnMin= 5 EnMin= -389.151551313798     IErMin= 5 ErrMin= 1.46D-04
 ErrMax= 1.46D-04  0.00D+00 EMaxC= 1.00D-01 BMatC= 1.76D-05 BMatP= 8.97D-05
 IDIUse=3 WtCom= 9.99D-01 WtEn= 1.46D-03
 Coeff-Com:  0.242D-02-0.144D-01-0.105D+00 0.210D+00 0.908D+00
 Coeff-En:   0.000D+00 0.000D+00 0.000D+00 0.000D+00 0.100D+01
 Coeff:      0.242D-02-0.144D-01-0.105D+00 0.209D+00 0.908D+00
 Gap=     0.498 Goal=   None    Shift=    0.000
 RMSDP=2.98D-05 MaxDP=7.25D-04 DE=-1.17D-04 OVMax= 8.50D-04

 Cycle   6  Pass 1  IDiag  1:
 E= -389.151573820739     Delta-E=       -0.000022506942 Rises=F Damp=F
 DIIS: error= 2.55D-05 at cycle   6 NSaved=   6.
 NSaved= 6 IEnMin= 6 EnMin= -389.151573820739     IErMin= 6 ErrMin= 2.55D-05
 ErrMax= 2.55D-05  0.00D+00 EMaxC= 1.00D-01 BMatC= 4.67D-07 BMatP= 1.76D-05
 IDIUse=1 WtCom= 1.00D+00 WtEn= 0.00D+00
 Coeff-Com:  0.652D-03-0.273D-02-0.238D-01-0.617D-02 0.140D+00 0.892D+00
 Coeff:      0.652D-03-0.273D-02-0.238D-01-0.617D-02 0.140D+00 0.892D+00
 Gap=     0.499 Goal=   None    Shift=    0.000
 RMSDP=5.39D-06 MaxDP=1.16D-04 DE=-2.25D-05 OVMax= 2.80D-04

 Cycle   7  Pass 1  IDiag  1:
 E= -389.151574601006     Delta-E=       -0.000000780267 Rises=F Damp=F
 DIIS: error= 9.33D-06 at cycle   7 NSaved=   7.
 NSaved= 7 IEnMin= 7 EnMin= -389.151574601006     IErMin= 7 ErrMin= 9.33D-06
 ErrMax= 9.33D-06  0.00D+00 EMaxC= 1.00D-01 BMatC= 4.24D-08 BMatP= 4.67D-07
 IDIUse=1 WtCom= 1.00D+00 WtEn= 0.00D+00
 Coeff-Com: -0.464D-04 0.394D-03 0.284D-02-0.937D-02-0.433D-01 0.122D+00
 Coeff-Com:  0.927D+00
 Coeff:     -0.464D-04 0.394D-03 0.284D-02-0.937D-02-0.433D-01 0.122D+00
 Coeff:      0.927D+00
 Gap=     0.499 Goal=   None    Shift=    0.000
 RMSDP=1.56D-06 MaxDP=4.21D-05 DE=-7.80D-07 OVMax= 6.58D-05

 Cycle   8  Pass 1  IDiag  1:
 E= -389.151574671637     Delta-E=       -0.000000070631 Rises=F Damp=F
 DIIS: error= 3.30D-06 at cycle   8 NSaved=   8.
 NSaved= 8 IEnMin= 8 EnMin= -389.151574671637     IErMin= 8 ErrMin= 3.30D-06
 ErrMax= 3.30D-06  0.00D+00 EMaxC= 1.00D-01 BMatC= 4.54D-09 BMatP= 4.24D-08
 IDIUse=1 WtCom= 1.00D+00 WtEn= 0.00D+00
 Coeff-Com: -0.544D-04 0.208D-03 0.195D-02 0.341D-02-0.154D-01-0.828D-01
 Coeff-Com: -0.115D+00 0.121D+01
 Coeff:     -0.544D-04 0.208D-03 0.195D-02 0.341D-02-0.154D-01-0.828D-01
 Coeff:     -0.115D+00 0.121D+01
 Gap=     0.499 Goal=   None    Shift=    0.000
 RMSDP=7.27D-07 MaxDP=1.76D-05 DE=-7.06D-08 OVMax= 5.28D-05

 Cycle   9  Pass 1  IDiag  1:
 E= -389.151574684776     Delta-E=       -0.000000013139 Rises=F Damp=F
 DIIS: error= 9.66D-07 at cycle   9 NSaved=   9.
 NSaved= 9 IEnMin= 9 EnMin= -389.151574684776     IErMin= 9 ErrMin= 9.66D-07
 ErrMax= 9.66D-07  0.00D+00 EMaxC= 1.00D-01 BMatC= 6.41D-10 BMatP= 4.54D-09
 IDIUse=1 WtCom= 1.00D+00 WtEn= 0.00D+00
 Coeff-Com:  0.146D-04-0.798D-04-0.667D-03 0.105D-02 0.432D-02 0.120D-01
 Coeff-Com: -0.690D-01-0.266D+00 0.132D+01
 Coeff:      0.146D-04-0.798D-04-0.667D-03 0.105D-02 0.432D-02 0.120D-01
 Coeff:     -0.690D-01-0.266D+00 0.132D+01
 Gap=     0.499 Goal=   None    Shift=    0.000
 RMSDP=2.92D-07 MaxDP=7.01D-06 DE=-1.31D-08 OVMax= 2.47D-05

 Cycle  10  Pass 1  IDiag  1:
 E= -389.151574686734     Delta-E=       -0.000000001957 Rises=F Damp=F
 DIIS: error= 3.74D-07 at cycle  10 NSaved=  10.
 NSaved=10 IEnMin=10 EnMin= -389.151574686734     IErMin=10 ErrMin= 3.74D-07
 ErrMax= 3.74D-07  0.00D+00 EMaxC= 1.00D-01 BMatC= 6.70D-11 BMatP= 6.41D-10
 IDIUse=1 WtCom= 1.00D+00 WtEn= 0.00D+00
 Coeff-Com:  0.755D-05-0.322D-04-0.291D-03-0.132D-03 0.150D-02 0.125D-01
 Coeff-Com:  0.760D-02-0.171D+00 0.112D+00 0.104D+01
 Coeff:      0.755D-05-0.322D-04-0.291D-03-0.132D-03 0.150D-02 0.125D-01
 Coeff:      0.760D-02-0.171D+00 0.112D+00 0.104D+01
 Gap=     0.499 Goal=   None    Shift=    0.000
 RMSDP=8.64D-08 MaxDP=2.17D-06 DE=-1.96D-09 OVMax= 7.28D-06

 Cycle  11  Pass 1  IDiag  1:
 E= -389.151574686924     Delta-E=       -0.000000000190 Rises=F Damp=F
 DIIS: error= 1.03D-07 at cycle  11 NSaved=  11.
 NSaved=11 IEnMin=11 EnMin= -389.151574686924     IErMin=11 ErrMin= 1.03D-07
 ErrMax= 1.03D-07  0.00D+00 EMaxC= 1.00D-01 BMatC= 6.05D-12 BMatP= 6.70D-11
 IDIUse=1 WtCom= 1.00D+00 WtEn= 0.00D+00
 Coeff-Com: -0.973D-06 0.616D-05 0.509D-04-0.881D-04-0.543D-03-0.652D-05
 Coeff-Com:  0.852D-02 0.160D-01-0.139D+00 0.885D-01 0.103D+01
 Coeff:     -0.973D-06 0.616D-05 0.509D-04-0.881D-04-0.543D-03-0.652D-05
 Coeff:      0.852D-02 0.160D-01-0.139D+00 0.885D-01 0.103D+01
 Gap=     0.499 Goal=   None    Shift=    0.000
 RMSDP=2.47D-08 MaxDP=5.83D-07 DE=-1.90D-10 OVMax= 2.07D-06

 Cycle  12  Pass 1  IDiag  1:
 E= -389.151574686935     Delta-E=       -0.000000000011 Rises=F Damp=F
 DIIS: error= 4.23D-08 at cycle  12 NSaved=  12.
 NSaved=12 IEnMin=12 EnMin= -389.151574686935     IErMin=12 ErrMin= 4.23D-08
 ErrMax= 4.23D-08  0.00D+00 EMaxC= 1.00D-01 BMatC= 6.75D-13 BMatP= 6.05D-12
 IDIUse=1 WtCom= 1.00D+00 WtEn= 0.00D+00
 Coeff-Com: -0.951D-06 0.460D-05 0.403D-04 0.143D-05-0.291D-03-0.127D-02
 Coeff-Com:  0.875D-03 0.211D-01-0.405D-01-0.971D-01 0.208D+00 0.909D+00
 Coeff:     -0.951D-06 0.460D-05 0.403D-04 0.143D-05-0.291D-03-0.127D-02
 Coeff:      0.875D-03 0.211D-01-0.405D-01-0.971D-01 0.208D+00 0.909D+00
 Gap=     0.499 Goal=   None    Shift=    0.000
 RMSDP=7.19D-09 MaxDP=1.71D-07 DE=-1.14D-11 OVMax= 5.05D-07

 SCF Done:  E(RHF) =  -389.151574687     A.U. after   12 cycles
            NFock= 12  Conv=0.72D-08     -V/T= 2.0014
 KE= 3.886142568015D+02 PE=-1.915119149585D+03 EE= 6.321345109700D+02
 Leave Link  502 at Fri Sep 17 20:10:16 2021, MaxMem=   524288000 cpu:              37.7 elap:              38.0
 (Enter /opt/gaussian/g16_legacy/l801.exe)
 ExpMin= 1.61D-01 ExpMax= 3.05D+03 ExpMxC= 4.57D+02 IAcc=3 IRadAn=         5 AccDes= 0.00D+00
 HarFok:  IExCor=  205 AccDes= 0.00D+00 IRadAn=         5 IDoV=-2 UseB2=F ITyADJ=14
 ICtDFT= 12500011 ScaDFX=  1.000000  1.000000  1.000000  1.000000
 Largest valence mixing into a core orbital is  1.96D-04
 Largest core mixing into a valence orbital is  3.50D-05
 Range of M.O.s used for correlation:    11   240
 NBasis=   240 NAE=    39 NBE=    39 NFC=    10 NFV=     0
 NROrb=    230 NOA=    29 NOB=    29 NVA=   201 NVB=   201
 Leave Link  801 at Fri Sep 17 20:10:18 2021, MaxMem=   524288000 cpu:               1.7 elap:               1.7
 (Enter /opt/gaussian/g16_legacy/l906.exe)
 Frozen-core derivative calculation, NFC=  10 NFV=   0.
 FulOut=F Deriv=T AODrv=T NAtomX=    28
   MMem=          93  MDisk=          29 MDiskD=          29
  W3Min=     2246400 MinDsk=     2795480 NBas6D=         240
 NBas2D=       29244    NTT=       28920    LW2=     2040000
    MDV=   523637129 MDiskM=       30187 NBas2p=       23026
 Fully direct method using O(ONN) memory.
 IMap=   1   2   3   4   5   6   7   8   9  10  11  12  13  14  15  16  17  18  19  20
 IMap=  21  22  23  24  25  26  27  28  29  30  31  32  33  34  35  36  37  38  39
 JobTyp=1 Pass  1:  I=  11 to  39 NPSUse=  1 ParTrn=F ParDer=F DoDerP=T.
 Spin components of T(2) and E(2):
     alpha-alpha T2 =       0.5705850023D-01 E2=     -0.1636844533D+00
     alpha-beta  T2 =       0.3618312905D+00 E2=     -0.1089320080D+01
     beta-beta   T2 =       0.5705850023D-01 E2=     -0.1636844533D+00
 The integrals were generated   1 times.
 ANorm=    0.1214886123D+01
 E2 =    -0.1416688987D+01 EUMP2 =    -0.39056826367383D+03
 Leave Link  906 at Fri Sep 17 20:14:51 2021, MaxMem=   524288000 cpu:             273.5 elap:             273.8
 (Enter /opt/gaussian/g16_legacy/l1002.exe)
 Minotr:  Closed shell wavefunction.
          Computing MP2/KS-MP2 derivatives.
          Using Z-Vector for PSCF gradient.
          Skipping F1 and S1 gradient terms here.
          IDoAtm=1111111111111111111111111111
          Frozen-core window.
          Direct CPHF calculation.
          Differentiating once with respect to electric field.
                with respect to dipole field.
          Differentiating once with respect to nuclear coordinates.
          Requested convergence is 1.0D-10 RMS, and 1.0D-09 maximum.
          NewPWx=F KeepS1=T KeepF1=T KeepIn=T MapXYZ=F SortEE=F KeepMc=T.
 Keep R1 ints in memory in canonical form, NReq=425201067.
 FoFCou: FMM=F IPFlag=           0 FMFlag=           0 FMFlg1=           0
         NFxFlg=           0 DoJE=F BraDBF=F KetDBF=F FulRan=T
         wScrn=  0.000000 ICntrl=       600 IOpCl=  0 I1Cent=           0 NGrid=           0
         NMat0=    1 NMatS0=  28920 NMatT0=    0 NMatD0=    1 NMtDS0=    0 NMtDT0=    0
 Symmetry not used in FoFCou.
 Two-electron integral symmetry not used.
          MDV=     524288000 using IRadAn=       5.
          Solving linear equations separately, MaxMat=       0.
          There are     1 degrees of freedom in the 1st order CPHF.  IDoFFX=0 NUNeed=     1.
 LinEq1:  Iter=  0 NonCon=     1 RMS=2.54D-03 Max=3.72D-02 NDo=     1
 AX will form     1 AO Fock derivatives at one time.
 LinEq1:  Iter=  1 NonCon=     1 RMS=6.87D-04 Max=1.08D-02 NDo=     1
 LinEq1:  Iter=  2 NonCon=     1 RMS=1.59D-04 Max=4.04D-03 NDo=     1
 LinEq1:  Iter=  3 NonCon=     1 RMS=4.40D-05 Max=5.81D-04 NDo=     1
 LinEq1:  Iter=  4 NonCon=     1 RMS=1.94D-05 Max=7.98D-04 NDo=     1
 LinEq1:  Iter=  5 NonCon=     1 RMS=4.70D-06 Max=9.15D-05 NDo=     1
 LinEq1:  Iter=  6 NonCon=     1 RMS=1.41D-06 Max=2.11D-05 NDo=     1
 LinEq1:  Iter=  7 NonCon=     1 RMS=3.70D-07 Max=3.28D-06 NDo=     1
 LinEq1:  Iter=  8 NonCon=     1 RMS=8.26D-08 Max=1.15D-06 NDo=     1
 LinEq1:  Iter=  9 NonCon=     1 RMS=1.98D-08 Max=4.02D-07 NDo=     1
 LinEq1:  Iter= 10 NonCon=     1 RMS=7.04D-09 Max=2.20D-07 NDo=     1
 LinEq1:  Iter= 11 NonCon=     1 RMS=2.31D-09 Max=4.61D-08 NDo=     1
 LinEq1:  Iter= 12 NonCon=     1 RMS=8.97D-10 Max=2.00D-08 NDo=     1
 LinEq1:  Iter= 13 NonCon=     1 RMS=2.33D-10 Max=3.61D-09 NDo=     1
 LinEq1:  Iter= 14 NonCon=     0 RMS=5.86D-11 Max=7.95D-10 NDo=     1
 Linear equations converged to 1.000D-10 1.000D-09 after    14 iterations.
 End of Minotr F.D. properties file   721 does not exist.
 End of Minotr F.D. properties file   722 does not exist.
 End of Minotr F.D. properties file   788 does not exist.
 Leave Link 1002 at Fri Sep 17 20:15:24 2021, MaxMem=   524288000 cpu:              32.9 elap:              32.9
 (Enter /opt/gaussian/g16_legacy/l601.exe)
 Copying SCF densities to generalized density rwf, IOpCl= 0 IROHF=0.

 **********************************************************************

            Population analysis using the SCF density.

 **********************************************************************

 Orbital symmetries:
       Occupied  (A) (A) (A) (A) (A) (A) (A) (A) (A) (A) (A) (A)
                 (A) (A) (A) (A) (A) (A) (A) (A) (A) (A) (A) (A)
                 (A) (A) (A) (A) (A) (A) (A) (A) (A) (A) (A) (A)
                 (A) (A) (A)
       Virtual   (A) (A) (A) (A) (A) (A) (A) (A) (A) (A) (A) (A)
                 (A) (A) (A) (A) (A) (A) (A) (A) (A) (A) (A) (A)
                 (A) (A) (A) (A) (A) (A) (A) (A) (A) (A) (A) (A)
                 (A) (A) (A) (A) (A) (A) (A) (A) (A) (A) (A) (A)
                 (A) (A) (A) (A) (A) (A) (A) (A) (A) (A) (A) (A)
                 (A) (A) (A) (A) (A) (A) (A) (A) (A) (A) (A) (A)
                 (A) (A) (A) (A) (A) (A) (A) (A) (A) (A) (A) (A)
                 (A) (A) (A) (A) (A) (A) (A) (A) (A) (A) (A) (A)
                 (A) (A) (A) (A) (A) (A) (A) (A) (A) (A) (A) (A)
                 (A) (A) (A) (A) (A) (A) (A) (A) (A) (A) (A) (A)
                 (A) (A) (A) (A) (A) (A) (A) (A) (A) (A) (A) (A)
                 (A) (A) (A) (A) (A) (A) (A) (A) (A) (A) (A) (A)
                 (A) (A) (A) (A) (A) (A) (A) (A) (A) (A) (A) (A)
                 (A) (A) (A) (A) (A) (A) (A) (A) (A) (A) (A) (A)
                 (A) (A) (A) (A) (A) (A) (A) (A) (A) (A) (A) (A)
                 (A) (A) (A) (A) (A) (A) (A) (A) (A) (A) (A) (A)
                 (A) (A) (A) (A) (A) (A) (A) (A) (A)
 The electronic state is 1-A.
 Alpha  occ. eigenvalues --  -11.22730 -11.22681 -11.21975 -11.21727 -11.21667
 Alpha  occ. eigenvalues --  -11.21556 -11.21546 -11.21498 -11.21416 -11.21250
 Alpha  occ. eigenvalues --   -1.10425  -1.08287  -1.02057  -0.97186  -0.93475
 Alpha  occ. eigenvalues --   -0.92291  -0.87558  -0.81261  -0.70875  -0.69250
 Alpha  occ. eigenvalues --   -0.63354  -0.62731  -0.59804  -0.58755  -0.58282
 Alpha  occ. eigenvalues --   -0.56794  -0.56036  -0.54984  -0.53756  -0.52431
 Alpha  occ. eigenvalues --   -0.51415  -0.51037  -0.49955  -0.48609  -0.47608
 Alpha  occ. eigenvalues --   -0.46634  -0.44451  -0.32958  -0.31487
 Alpha virt. eigenvalues --    0.18371   0.19617   0.23538   0.24358   0.26668
 Alpha virt. eigenvalues --    0.27248   0.27499   0.28924   0.29393   0.30253
 Alpha virt. eigenvalues --    0.31530   0.32332   0.32852   0.33364   0.33692
 Alpha virt. eigenvalues --    0.35348   0.36044   0.37534   0.39326   0.39697
 Alpha virt. eigenvalues --    0.40413   0.41963   0.44014   0.45908   0.46475
 Alpha virt. eigenvalues --    0.49414   0.54764   0.61257   0.64784   0.69985
 Alpha virt. eigenvalues --    0.70605   0.72493   0.74235   0.74838   0.76561
 Alpha virt. eigenvalues --    0.78672   0.79580   0.80395   0.81546   0.84077
 Alpha virt. eigenvalues --    0.85357   0.85502   0.88349   0.90460   0.91349
 Alpha virt. eigenvalues --    0.92782   0.94238   0.96294   0.97460   0.98816
 Alpha virt. eigenvalues --    1.01699   1.02109   1.02779   1.03087   1.05810
 Alpha virt. eigenvalues --    1.08319   1.08699   1.10409   1.12159   1.12809
 Alpha virt. eigenvalues --    1.13451   1.14356   1.14446   1.15287   1.15515
 Alpha virt. eigenvalues --    1.16089   1.17684   1.18278   1.18894   1.19875
 Alpha virt. eigenvalues --    1.21119   1.21833   1.23033   1.24657   1.26249
 Alpha virt. eigenvalues --    1.26883   1.34676   1.39803   1.42797   1.45901
 Alpha virt. eigenvalues --    1.48621   1.49660   1.52904   1.56168   1.59684
 Alpha virt. eigenvalues --    1.62364   1.65629   1.68290   1.69169   1.71190
 Alpha virt. eigenvalues --    1.74325   1.78620   1.91606   1.92885   1.96259
 Alpha virt. eigenvalues --    1.98554   2.01000   2.02207   2.05389   2.07575
 Alpha virt. eigenvalues --    2.09332   2.09650   2.10929   2.12311   2.12887
 Alpha virt. eigenvalues --    2.16940   2.18000   2.21482   2.23336   2.26549
 Alpha virt. eigenvalues --    2.30034   2.30360   2.32662   2.35197   2.35358
 Alpha virt. eigenvalues --    2.35953   2.36426   2.38630   2.39960   2.40542
 Alpha virt. eigenvalues --    2.41305   2.42028   2.43472   2.44181   2.45430
 Alpha virt. eigenvalues --    2.47771   2.49549   2.50424   2.51630   2.54083
 Alpha virt. eigenvalues --    2.56514   2.58692   2.59552   2.64125   2.64734
 Alpha virt. eigenvalues --    2.66366   2.67958   2.69400   2.70613   2.74303
 Alpha virt. eigenvalues --    2.75354   2.77818   2.81520   2.85073   2.86736
 Alpha virt. eigenvalues --    2.87840   2.88564   2.89461   2.91284   2.94302
 Alpha virt. eigenvalues --    2.98205   3.00226   3.01352   3.02919   3.04997
 Alpha virt. eigenvalues --    3.05997   3.08309   3.10226   3.13095   3.15019
 Alpha virt. eigenvalues --    3.17364   3.18403   3.20365   3.20733   3.21875
 Alpha virt. eigenvalues --    3.22407   3.24705   3.25743   3.26648   3.36934
 Alpha virt. eigenvalues --    3.39077   3.43811   3.45003   3.55696   3.56637
 Alpha virt. eigenvalues --    3.59970   3.62417   3.64449   3.74242   3.77782
 Alpha virt. eigenvalues --    3.79634   3.80376   3.81313   3.82055   3.82313
 Alpha virt. eigenvalues --    3.83001   3.85644   3.86246   3.90078   3.92285
 Alpha virt. eigenvalues --    3.94939   4.58876   4.62069   4.74370   4.79450
 Alpha virt. eigenvalues --    4.88033   4.90810   4.92869   5.02349   5.09120
 Alpha virt. eigenvalues --    5.17717
          Condensed to atoms (all electrons):
               1          2          3          4          5          6
     1  C    4.953094   0.407977   0.411607   0.363603  -0.052339   0.003133
     2  H    0.407977   0.606346  -0.029451  -0.048025  -0.000006  -0.000027
     3  H    0.411607  -0.029451   0.573722  -0.043804   0.003310  -0.000101
     4  C    0.363603  -0.048025  -0.043804   4.945148   0.334996  -0.038047
     5  C   -0.052339  -0.000006   0.003310   0.334996   4.918684   0.406231
     6  H    0.003133  -0.000027  -0.000101  -0.038047   0.406231   0.568827
     7  H   -0.004543  -0.000414   0.000103  -0.040637   0.407142  -0.031093
     8  H    0.000602   0.001259  -0.000102  -0.040469   0.398138  -0.026008
     9  C   -0.040850  -0.001163  -0.001576   0.697758  -0.051187  -0.003827
    10  H   -0.006193   0.000135   0.002350  -0.036183   0.003332   0.000016
    11  C    0.003108  -0.000109   0.000163  -0.051493  -0.007328  -0.002197
    12  H    0.000112  -0.000003   0.000005  -0.000591  -0.001879  -0.001306
    13  H   -0.000111   0.000017  -0.000008  -0.000199   0.000200  -0.000092
    14  H   -0.000097  -0.000003  -0.000007  -0.000471   0.000314   0.000286
    15  C   -0.000063   0.000000  -0.000013   0.000001   0.000000   0.000000
    16  H   -0.000005   0.000000  -0.000001   0.000000  -0.000000   0.000000
    17  H   -0.000002  -0.000000   0.000000   0.000000  -0.000000   0.000000
    18  H    0.000006   0.000000  -0.000001  -0.000000   0.000000  -0.000000
    19  C    0.001689   0.000054  -0.000042  -0.000083   0.000001   0.000000
    20  C    0.000178  -0.000008   0.000009  -0.000001   0.000000  -0.000000
    21  H    0.000123  -0.000004  -0.000018  -0.000024   0.000001   0.000000
    22  H    0.000003   0.000000  -0.000001  -0.000000   0.000000  -0.000000
    23  H   -0.000033  -0.000000   0.000002   0.000001  -0.000000   0.000000
    24  C   -0.047505  -0.002088  -0.001680   0.004367   0.000087   0.000000
    25  H   -0.004319   0.001801   0.000964  -0.000004   0.000003  -0.000000
    26  C    0.331272  -0.048693  -0.040659  -0.060666  -0.004758   0.000085
    27  H   -0.041406   0.004868  -0.001760   0.000349   0.000640  -0.000081
    28  H   -0.045231  -0.003513   0.004404  -0.001374  -0.002446  -0.000019
               7          8          9         10         11         12
     1  C   -0.004543   0.000602  -0.040850  -0.006193   0.003108   0.000112
     2  H   -0.000414   0.001259  -0.001163   0.000135  -0.000109  -0.000003
     3  H    0.000103  -0.000102  -0.001576   0.002350   0.000163   0.000005
     4  C   -0.040637  -0.040469   0.697758  -0.036183  -0.051493  -0.000591
     5  C    0.407142   0.398138  -0.051187   0.003332  -0.007328  -0.001879
     6  H   -0.031093  -0.026008  -0.003827   0.000016  -0.002197  -0.001306
     7  H    0.583385  -0.031307   0.002922  -0.000101   0.000157   0.000033
     8  H   -0.031307   0.573508  -0.004469  -0.000123   0.000694  -0.000245
     9  C    0.002922  -0.004469   4.945336   0.404423   0.340216  -0.041556
    10  H   -0.000101  -0.000123   0.404423   0.556889  -0.043026   0.003287
    11  C    0.000157   0.000694   0.340216  -0.043026   4.904744   0.408211
    12  H    0.000033  -0.000245  -0.041556   0.003287   0.408211   0.573938
    13  H   -0.000012   0.000193  -0.043424  -0.001562   0.402162  -0.028987
    14  H    0.000011  -0.000074  -0.044188  -0.001120   0.400231  -0.028181
    15  C   -0.000000  -0.000000  -0.000000  -0.000000   0.000000   0.000000
    16  H    0.000000  -0.000000  -0.000000   0.000000   0.000000   0.000000
    17  H    0.000000   0.000000   0.000000  -0.000000  -0.000000  -0.000000
    18  H   -0.000000  -0.000000  -0.000000   0.000000  -0.000000  -0.000000
    19  C    0.000002  -0.000000  -0.000001  -0.000000  -0.000000   0.000000
    20  C   -0.000001  -0.000000  -0.000000   0.000000   0.000000   0.000000
    21  H    0.000000  -0.000000  -0.000005   0.000000   0.000000   0.000000
    22  H   -0.000000  -0.000000  -0.000000   0.000000  -0.000000  -0.000000
    23  H    0.000000   0.000000   0.000000  -0.000000  -0.000000   0.000000
    24  C   -0.000057  -0.000006   0.000018  -0.000008   0.000001   0.000000
    25  H    0.000002   0.000001  -0.000003   0.000000  -0.000000  -0.000000
    26  C   -0.000354  -0.000018  -0.003270   0.000284  -0.000084  -0.000000
    27  H   -0.000137   0.000031   0.001379   0.000074  -0.000048  -0.000001
    28  H   -0.001042   0.000130   0.000234  -0.000002   0.000002   0.000000
              13         14         15         16         17         18
     1  C   -0.000111  -0.000097  -0.000063  -0.000005  -0.000002   0.000006
     2  H    0.000017  -0.000003   0.000000   0.000000  -0.000000   0.000000
     3  H   -0.000008  -0.000007  -0.000013  -0.000001   0.000000  -0.000001
     4  C   -0.000199  -0.000471   0.000001   0.000000   0.000000  -0.000000
     5  C    0.000200   0.000314   0.000000  -0.000000  -0.000000   0.000000
     6  H   -0.000092   0.000286   0.000000   0.000000   0.000000  -0.000000
     7  H   -0.000012   0.000011  -0.000000   0.000000   0.000000  -0.000000
     8  H    0.000193  -0.000074  -0.000000  -0.000000   0.000000  -0.000000
     9  C   -0.043424  -0.044188  -0.000000  -0.000000   0.000000  -0.000000
    10  H   -0.001562  -0.001120  -0.000000   0.000000  -0.000000   0.000000
    11  C    0.402162   0.400231   0.000000   0.000000  -0.000000  -0.000000
    12  H   -0.028987  -0.028181   0.000000   0.000000  -0.000000  -0.000000
    13  H    0.584835  -0.033319   0.000000  -0.000000   0.000000  -0.000000
    14  H   -0.033319   0.587682  -0.000000  -0.000000  -0.000000   0.000000
    15  C    0.000000  -0.000000   4.894793   0.405231   0.400812   0.397161
    16  H   -0.000000  -0.000000   0.405231   0.571760  -0.028085  -0.027421
    17  H    0.000000  -0.000000   0.400812  -0.028085   0.594379  -0.035056
    18  H   -0.000000   0.000000   0.397161  -0.027421  -0.035056   0.593142
    19  C   -0.000000   0.000000   0.352780  -0.041789  -0.047240  -0.042741
    20  C   -0.000000  -0.000000  -0.060270   0.003861  -0.000403  -0.002948
    21  H   -0.000000   0.000000   0.003407  -0.000118  -0.000017  -0.000023
    22  H   -0.000000   0.000000  -0.005414   0.000148  -0.000789   0.002515
    23  H    0.000000  -0.000000   0.000784  -0.000141   0.001370  -0.000157
    24  C    0.000000  -0.000000  -0.043812  -0.002092  -0.001204  -0.000739
    25  H    0.000000  -0.000000  -0.006377   0.002361   0.000113   0.000209
    26  C   -0.000004   0.000020   0.003205   0.000125  -0.000099  -0.000100
    27  H    0.000002  -0.000007   0.000074   0.000004  -0.000012   0.000015
    28  H    0.000000  -0.000000  -0.000153  -0.000007   0.000043  -0.000008
              19         20         21         22         23         24
     1  C    0.001689   0.000178   0.000123   0.000003  -0.000033  -0.047505
     2  H    0.000054  -0.000008  -0.000004   0.000000  -0.000000  -0.002088
     3  H   -0.000042   0.000009  -0.000018  -0.000001   0.000002  -0.001680
     4  C   -0.000083  -0.000001  -0.000024  -0.000000   0.000001   0.004367
     5  C    0.000001   0.000000   0.000001   0.000000  -0.000000   0.000087
     6  H    0.000000  -0.000000   0.000000  -0.000000   0.000000   0.000000
     7  H    0.000002  -0.000001   0.000000  -0.000000   0.000000  -0.000057
     8  H   -0.000000  -0.000000  -0.000000  -0.000000   0.000000  -0.000006
     9  C   -0.000001  -0.000000  -0.000005  -0.000000   0.000000   0.000018
    10  H   -0.000000   0.000000   0.000000   0.000000  -0.000000  -0.000008
    11  C   -0.000000   0.000000   0.000000  -0.000000  -0.000000   0.000001
    12  H    0.000000   0.000000   0.000000  -0.000000   0.000000   0.000000
    13  H   -0.000000  -0.000000  -0.000000  -0.000000   0.000000   0.000000
    14  H    0.000000  -0.000000   0.000000   0.000000  -0.000000  -0.000000
    15  C    0.352780  -0.060270   0.003407  -0.005414   0.000784  -0.043812
    16  H   -0.041789   0.003861  -0.000118   0.000148  -0.000141  -0.002092
    17  H   -0.047240  -0.000403  -0.000017  -0.000789   0.001370  -0.001204
    18  H   -0.042741  -0.002948  -0.000023   0.002515  -0.000157  -0.000739
    19  C    4.934672   0.342473  -0.037145  -0.042987  -0.041074   0.705005
    20  C    0.342473   4.921337   0.404397   0.405333   0.397865  -0.048691
    21  H   -0.037145   0.404397   0.566519  -0.030028  -0.026217  -0.003472
    22  H   -0.042987   0.405333  -0.030028   0.585669  -0.031682   0.002662
    23  H   -0.041074   0.397865  -0.026217  -0.031682   0.575070  -0.004339
    24  C    0.705005  -0.048691  -0.003472   0.002662  -0.004339   4.933361
    25  H   -0.034702   0.003395   0.000016  -0.000096  -0.000127   0.400632
    26  C   -0.052438  -0.009612  -0.001857   0.000193   0.000695   0.348713
    27  H   -0.001166  -0.002042   0.000374   0.000144  -0.000639  -0.041798
    28  H   -0.006888   0.000834  -0.000439  -0.000042   0.000784  -0.046044
              25         26         27         28
     1  C   -0.004319   0.331272  -0.041406  -0.045231
     2  H    0.001801  -0.048693   0.004868  -0.003513
     3  H    0.000964  -0.040659  -0.001760   0.004404
     4  C   -0.000004  -0.060666   0.000349  -0.001374
     5  C    0.000003  -0.004758   0.000640  -0.002446
     6  H   -0.000000   0.000085  -0.000081  -0.000019
     7  H    0.000002  -0.000354  -0.000137  -0.001042
     8  H    0.000001  -0.000018   0.000031   0.000130
     9  C   -0.000003  -0.003270   0.001379   0.000234
    10  H    0.000000   0.000284   0.000074  -0.000002
    11  C   -0.000000  -0.000084  -0.000048   0.000002
    12  H   -0.000000  -0.000000  -0.000001   0.000000
    13  H    0.000000  -0.000004   0.000002   0.000000
    14  H   -0.000000   0.000020  -0.000007  -0.000000
    15  C   -0.006377   0.003205   0.000074  -0.000153
    16  H    0.002361   0.000125   0.000004  -0.000007
    17  H    0.000113  -0.000099  -0.000012   0.000043
    18  H    0.000209  -0.000100   0.000015  -0.000008
    19  C   -0.034702  -0.052438  -0.001166  -0.006888
    20  C    0.003395  -0.009612  -0.002042   0.000834
    21  H    0.000016  -0.001857   0.000374  -0.000439
    22  H   -0.000096   0.000193   0.000144  -0.000042
    23  H   -0.000127   0.000695  -0.000639   0.000784
    24  C    0.400632   0.348713  -0.041798  -0.046044
    25  H    0.554768  -0.042620   0.003147   0.002047
    26  C   -0.042620   5.001098   0.405538   0.409339
    27  H    0.003147   0.405538   0.577170  -0.028816
    28  H    0.002047   0.409339  -0.028816   0.596181
 Mulliken charges:
               1
     1  C   -0.233807
     2  H    0.111049
     3  H    0.122582
     4  C    0.015845
     5  C   -0.353137
     6  H    0.124219
     7  H    0.115940
     8  H    0.128267
     9  C   -0.156767
    10  H    0.117528
    11  C   -0.355403
    12  H    0.117162
    13  H    0.120310
    14  H    0.118925
    15  C   -0.342145
    16  H    0.116169
    17  H    0.116189
    18  H    0.116147
    19  C    0.011621
    20  C   -0.355706
    21  H    0.124532
    22  H    0.114372
    23  H    0.127837
    24  C   -0.151313
    25  H    0.118788
    26  C   -0.235336
    27  H    0.124105
    28  H    0.122026
 Sum of Mulliken charges =  -0.00000
 Mulliken charges with hydrogens summed into heavy atoms:
               1
     1  C   -0.000175
     4  C    0.015845
     5  C    0.015289
     9  C   -0.039239
    11  C    0.000994
    15  C    0.006360
    19  C    0.011621
    20  C    0.011035
    24  C   -0.032525
    26  C    0.010796
 Electronic spatial extent (au):  <R**2>=           2827.7641
 Charge=             -0.0000 electrons
 Dipole moment (field-independent basis, Debye):
    X=             -0.1145    Y=              0.0569    Z=              0.3733  Tot=              0.3946
 Quadrupole moment (field-independent basis, Debye-Ang):
   XX=            -64.0329   YY=            -64.9465   ZZ=            -65.2735
   XY=             -0.2896   XZ=              0.3041   YZ=             -0.1667
 Traceless Quadrupole moment (field-independent basis, Debye-Ang):
   XX=              0.7181   YY=             -0.1956   ZZ=             -0.5225
   XY=             -0.2896   XZ=              0.3041   YZ=             -0.1667
 Octapole moment (field-independent basis, Debye-Ang**2):
  XXX=             -4.2990  YYY=             -0.6380  ZZZ=              0.8934  XYY=             -1.0314
  XXY=              5.0927  XXZ=              2.6594  XZZ=              1.8233  YZZ=              0.6855
  YYZ=             -1.3687  XYZ=             -3.3442
 Hexadecapole moment (field-independent basis, Debye-Ang**3):
 XXXX=          -3268.7128 YYYY=           -356.4003 ZZZZ=           -304.2469 XXXY=             -9.1586
 XXXZ=              1.4135 YYYX=             -0.4562 YYYZ=              1.3158 ZZZX=             -6.0132
 ZZZY=             -2.1608 XXYY=           -606.8985 XXZZ=           -593.5357 YYZZ=           -113.0426
 XXYZ=             -4.0556 YYXZ=              6.0784 ZZXY=              5.4711
 N-N= 5.052188071263D+02 E-N=-1.915119146674D+03  KE= 3.886142568015D+02
 No NMR shielding tensors so no spin-rotation constants.
 Leave Link  601 at Fri Sep 17 20:15:25 2021, MaxMem=   524288000 cpu:               0.3 elap:               0.3
 (Enter /opt/gaussian/g16_legacy/l701.exe)
 ... and contract with generalized density number  2.
 Compute integral first derivatives.
 Leave Link  701 at Fri Sep 17 20:15:25 2021, MaxMem=   524288000 cpu:               0.3 elap:               0.3
 (Enter /opt/gaussian/g16_legacy/l702.exe)
 L702 exits ... SP integral derivatives will be done elsewhere.
 Leave Link  702 at Fri Sep 17 20:15:25 2021, MaxMem=   524288000 cpu:               0.1 elap:               0.1
 (Enter /opt/gaussian/g16_legacy/l703.exe)
 Integral derivatives from FoFJK, PRISM(SPDF).
 Compute integral first derivatives, UseDBF=F ICtDFT=           0.
 Calling FoFJK, ICntrl=  10002127 FMM=F ISym2X=0 I1Cent= 0 IOpClX= 0 NMat=1 NMatS=1 NMatT=0.
 FoFJK:  IHMeth= 1 ICntrl=10002127 DoSepK=F KAlg= 0 I1Cent=           0 FoldK=F
 IRaf=         0 NMat=       1 IRICut=       1 DoRegI=T DoRafI=F ISym2E= 0 IDoP0=0 IntGTp=1.
 FoFCou: FMM=F IPFlag=           0 FMFlag=      100000 FMFlg1=         800
         NFxFlg=           0 DoJE=F BraDBF=F KetDBF=F FulRan=T
         wScrn=  0.000000 ICntrl=  10002127 IOpCl=  0 I1Cent=           0 NGrid=           0
         NMat0=    1 NMatS0=      1 NMatT0=    0 NMatD0=    1 NMtDS0=    0 NMtDT0=    0
 Symmetry not used in FoFCou.
 Leave Link  703 at Fri Sep 17 20:15:58 2021, MaxMem=   524288000 cpu:              33.2 elap:              33.2
 (Enter /opt/gaussian/g16_legacy/l716.exe)
 Dipole        =-5.37592030D-03 3.02432164D-02 1.34485423D-01
 ***** Axes restored to original set *****
 -------------------------------------------------------------------
 Center     Atomic                   Forces (Hartrees/Bohr)
 Number     Number              X              Y              Z
 -------------------------------------------------------------------
      1        6           0.006470651   -0.001097863    0.001711181
      2        1          -0.001711572    0.001875053    0.001822821
      3        1           0.002155165   -0.000174864    0.002520883
      4        6          -0.005850060    0.005913211   -0.005226789
      5        6           0.000150005   -0.000570371    0.003147768
      6        1           0.000663889   -0.002809764   -0.003248457
      7        1           0.000330980   -0.000300991   -0.003929781
      8        1           0.000753291    0.000907532    0.002766522
      9        6          -0.003466302   -0.002773818    0.001445714
     10        1          -0.001976612   -0.002015794    0.001620576
     11        6           0.002176473    0.000212429    0.001540216
     12        1          -0.002623304    0.001618155   -0.002387047
     13        1           0.000474637    0.002324394    0.002203275
     14        1           0.002228363   -0.002240114   -0.001603841
     15        6           0.000312125   -0.002953147   -0.003916432
     16        1           0.002169100    0.002440423    0.002601460
     17        1          -0.000830190    0.002317177   -0.001447812
     18        1          -0.001118560   -0.001791019    0.002898956
     19        6          -0.002949466    0.000036135   -0.004698576
     20        6           0.000002114    0.005142776   -0.000515728
     21        1          -0.000763603   -0.003725916    0.001957727
     22        1           0.000848219   -0.005114821    0.000848162
     23        1           0.001041798    0.002784568   -0.000733571
     24        6           0.001708007    0.000149685    0.000344380
     25        1           0.000033417    0.002233203    0.001535294
     26        6          -0.003023000   -0.001956258   -0.001890291
     27        1          -0.001256460   -0.002201490    0.000317286
     28        1           0.004050897    0.001771490    0.000316106
 -------------------------------------------------------------------
 Cartesian Forces:  Max     0.006470651 RMS     0.002496224
 Leave Link  716 at Fri Sep 17 20:15:58 2021, MaxMem=   524288000 cpu:               0.1 elap:               0.1
 (Enter /opt/gaussian/g16_legacy/l103.exe)

 GradGradGradGradGradGradGradGradGradGradGradGradGradGradGradGradGradGrad
 Berny optimization.
 FormGI is forming the generalized inverse of G from B-inverse, IUseBI=4.
 Internal  Forces:  Max     0.007834239 RMS     0.002096247
 Search for a local minimum.
 Step number   1 out of a maximum of  138
 All quantities printed in internal units (Hartrees-Bohrs-Radians)
 RMS Force = .20962D-02 SwitMx=.10000D-02 MixMth= 1
 Mixed Optimization -- RFO/linear search
 Second derivative matrix not updated -- first step.
 ITU=  0
     Eigenvalues ---    0.00278   0.00461   0.00666   0.00690   0.00691
     Eigenvalues ---    0.00703   0.00810   0.01156   0.01285   0.01582
     Eigenvalues ---    0.01627   0.02756   0.02806   0.03990   0.04046
     Eigenvalues ---    0.05337   0.05398   0.07005   0.07016   0.07054
     Eigenvalues ---    0.07108   0.07146   0.07270   0.07315   0.07488
     Eigenvalues ---    0.09228   0.09516   0.12758   0.12938   0.15965
     Eigenvalues ---    0.15999   0.16000   0.16000   0.16000   0.16000
     Eigenvalues ---    0.16000   0.16000   0.16000   0.16000   0.16000
     Eigenvalues ---    0.16000   0.16000   0.16000   0.21908   0.21985
     Eigenvalues ---    0.22000   0.22010   0.24979   0.24989   0.24998
     Eigenvalues ---    0.24999   0.28794   0.30073   0.31594   0.31783
     Eigenvalues ---    0.31790   0.31884   0.32726   0.33817   0.33972
     Eigenvalues ---    0.34104   0.34196   0.34197   0.34203   0.34268
     Eigenvalues ---    0.34290   0.34294   0.34296   0.34354   0.34400
     Eigenvalues ---    0.34539   0.34543   0.34575   0.34591   0.34735
     Eigenvalues ---    0.34952   0.55118   0.55929
 RFO step:  Lambda=-3.77256346D-03 EMin= 2.77651684D-03
 Linear search not attempted -- first point.
 Iteration  1 RMS(Cart)=  0.12227494 RMS(Int)=  0.00372842
 Iteration  2 RMS(Cart)=  0.00686785 RMS(Int)=  0.00010561
 Iteration  3 RMS(Cart)=  0.00001095 RMS(Int)=  0.00010537
 Iteration  4 RMS(Cart)=  0.00000000 RMS(Int)=  0.00010537
 ITry= 1 IFail=0 DXMaxC= 3.83D-01 DCOld= 1.00D+10 DXMaxT= 3.00D-01 DXLimC= 3.00D+00 Rises=F
 Variable       Old X    -DE/DX   Delta X   Delta X   Delta X     New X
                                 (Linear)    (Quad)   (Total)
    R1        2.07640  -0.00171   0.00000  -0.00501  -0.00501   2.07138
    R2        2.07155  -0.00252   0.00000  -0.00730  -0.00730   2.06425
    R3        2.87817  -0.00783   0.00000  -0.02573  -0.02573   2.85245
    R4        2.90435  -0.00218   0.00000  -0.00746  -0.00746   2.89688
    R5        2.84894   0.00114   0.00000   0.00355   0.00355   2.85249
    R6        2.55027  -0.00513   0.00000  -0.00924  -0.00924   2.54103
    R7        2.06344  -0.00243   0.00000  -0.00695  -0.00695   2.05648
    R8        2.06430  -0.00272   0.00000  -0.00779  -0.00779   2.05652
    R9        2.06736  -0.00150   0.00000  -0.00431  -0.00431   2.06306
   R10        2.05752  -0.00168   0.00000  -0.00477  -0.00477   2.05276
   R11        2.82835   0.00233   0.00000   0.00704   0.00704   2.83539
   R12        2.06423  -0.00359   0.00000  -0.01028  -0.01028   2.05395
   R13        2.06836  -0.00221   0.00000  -0.00638  -0.00638   2.06198
   R14        2.06833  -0.00194   0.00000  -0.00559  -0.00559   2.06274
   R15        2.06998  -0.00392   0.00000  -0.01133  -0.01133   2.05866
   R16        2.06661  -0.00108   0.00000  -0.00310  -0.00310   2.06351
   R17        2.07000  -0.00245   0.00000  -0.00707  -0.00707   2.06293
   R18        2.84542  -0.00055   0.00000  -0.00171  -0.00171   2.84371
   R19        2.84530   0.00067   0.00000   0.00209   0.00209   2.84739
   R20        2.54316  -0.00087   0.00000  -0.00155  -0.00155   2.54160
   R21        2.06371  -0.00229   0.00000  -0.00656  -0.00656   2.05715
   R22        2.07378  -0.00460   0.00000  -0.01339  -0.01339   2.06038
   R23        2.06843  -0.00179   0.00000  -0.00516  -0.00516   2.06327
   R24        2.06107  -0.00254   0.00000  -0.00725  -0.00725   2.05383
   R25        2.84357  -0.00005   0.00000  -0.00016  -0.00016   2.84341
   R26        2.06881  -0.00233   0.00000  -0.00671  -0.00671   2.06210
   R27        2.06989  -0.00063   0.00000  -0.00182  -0.00182   2.06808
    A1        1.85477   0.00164   0.00000   0.00760   0.00759   1.86235
    A2        1.89760  -0.00006   0.00000   0.01558   0.01553   1.91313
    A3        1.92278  -0.00308   0.00000  -0.01164  -0.01203   1.91075
    A4        1.92651  -0.00328   0.00000  -0.02558  -0.02537   1.90113
    A5        1.90573  -0.00165   0.00000  -0.01474  -0.01464   1.89109
    A6        1.95390   0.00616   0.00000   0.02764   0.02759   1.98148
    A7        2.03455   0.00146   0.00000   0.00565   0.00544   2.03998
    A8        2.10277  -0.00253   0.00000  -0.01009  -0.01030   2.09248
    A9        2.14581   0.00106   0.00000   0.00405   0.00383   2.14963
   A10        1.95339   0.00040   0.00000   0.00412   0.00414   1.95753
   A11        1.95623  -0.00282   0.00000  -0.01429  -0.01425   1.94198
   A12        1.92271   0.00313   0.00000   0.01453   0.01456   1.93727
   A13        1.84319   0.00278   0.00000   0.02546   0.02549   1.86868
   A14        1.90701  -0.00287   0.00000  -0.02285  -0.02284   1.88418
   A15        1.87807  -0.00078   0.00000  -0.00785  -0.00780   1.87027
   A16        2.07263  -0.00331   0.00000  -0.01943  -0.01944   2.05320
   A17        2.21891   0.00089   0.00000   0.00401   0.00400   2.22291
   A18        1.99154   0.00242   0.00000   0.01551   0.01550   2.00704
   A19        1.98448  -0.00310   0.00000  -0.01841  -0.01833   1.96615
   A20        1.91306   0.00238   0.00000   0.01383   0.01379   1.92685
   A21        1.91438   0.00365   0.00000   0.02248   0.02247   1.93685
   A22        1.87576   0.00026   0.00000   0.00132   0.00137   1.87714
   A23        1.88523  -0.00019   0.00000   0.00007   0.00016   1.88539
   A24        1.88828  -0.00318   0.00000  -0.02051  -0.02064   1.86764
   A25        1.87999   0.00060   0.00000   0.00633   0.00635   1.88634
   A26        1.88112   0.00078   0.00000   0.00771   0.00774   1.88886
   A27        1.95873  -0.00226   0.00000  -0.01089  -0.01086   1.94787
   A28        1.89423  -0.00297   0.00000  -0.02396  -0.02395   1.87028
   A29        1.92123   0.00198   0.00000   0.01054   0.01056   1.93179
   A30        1.92662   0.00176   0.00000   0.00940   0.00942   1.93604
   A31        2.00110   0.00222   0.00000   0.00874   0.00874   2.00984
   A32        2.11893  -0.00105   0.00000  -0.00415  -0.00415   2.11478
   A33        2.16253  -0.00117   0.00000  -0.00461  -0.00461   2.15792
   A34        1.96833  -0.00101   0.00000  -0.00477  -0.00475   1.96357
   A35        1.93531  -0.00170   0.00000  -0.00729  -0.00727   1.92804
   A36        1.92207   0.00321   0.00000   0.01514   0.01517   1.93724
   A37        1.85161   0.00290   0.00000   0.02598   0.02599   1.87760
   A38        1.90009  -0.00222   0.00000  -0.01905  -0.01902   1.88107
   A39        1.88328  -0.00129   0.00000  -0.01053  -0.01050   1.87278
   A40        2.07222  -0.00315   0.00000  -0.01413  -0.01453   2.05769
   A41        2.18558   0.00447   0.00000   0.02078   0.02039   2.20597
   A42        2.02225  -0.00124   0.00000  -0.00284  -0.00323   2.01902
   A43        1.98385  -0.00549   0.00000  -0.02258  -0.02265   1.96120
   A44        1.88797   0.00199   0.00000  -0.00103  -0.00125   1.88671
   A45        1.91470   0.00007   0.00000   0.00237   0.00251   1.91722
   A46        1.94038   0.00081   0.00000  -0.00570  -0.00592   1.93446
   A47        1.86058   0.00454   0.00000   0.04224   0.04232   1.90289
   A48        1.87331  -0.00179   0.00000  -0.01474  -0.01475   1.85856
    D1       -1.01086   0.00113   0.00000   0.11619   0.11592  -0.89494
    D2        2.11932   0.00057   0.00000   0.07880   0.07865   2.19797
    D3       -3.03894   0.00103   0.00000   0.11232   0.11226  -2.92668
    D4        0.09125   0.00046   0.00000   0.07493   0.07499   0.16624
    D5        1.11745   0.00122   0.00000   0.13020   0.13035   1.24780
    D6       -2.03555   0.00066   0.00000   0.09281   0.09307  -1.94247
    D7       -1.10732  -0.00007   0.00000   0.02191   0.02188  -1.08545
    D8        3.01193   0.00119   0.00000   0.04566   0.04555   3.05748
    D9        0.97367   0.00216   0.00000   0.06256   0.06249   1.03616
   D10        0.92337  -0.00081   0.00000   0.01587   0.01596   0.93934
   D11       -1.24056   0.00046   0.00000   0.03961   0.03963  -1.20093
   D12        3.00436   0.00143   0.00000   0.05652   0.05657   3.06094
   D13        3.06204  -0.00200   0.00000  -0.00840  -0.00835   3.05369
   D14        0.89811  -0.00074   0.00000   0.01534   0.01532   0.91342
   D15       -1.14016   0.00023   0.00000   0.03225   0.03226  -1.10790
[...]
                 (A) (A) (A) (A) (A) (A) (A) (A) (A) (A) (A) (A)
                 (A) (A) (A) (A) (A) (A) (A) (A) (A) (A) (A) (A)
                 (A) (A) (A) (A) (A) (A) (A) (A) (A) (A) (A) (A)
                 (A) (A) (A) (A) (A) (A) (A) (A) (A) (A) (A) (A)
                 (A) (A) (A) (A) (A) (A) (A) (A) (A) (A) (A) (A)
                 (A) (A) (A) (A) (A) (A) (A) (A) (A) (A) (A) (A)
                 (A) (A) (A) (A) (A) (A) (A) (A) (A) (A) (A) (A)
                 (A) (A) (A) (A) (A) (A) (A) (A) (A) (A) (A) (A)
                 (A) (A) (A) (A) (A) (A) (A) (A) (A) (A) (A) (A)
                 (A) (A) (A) (A) (A) (A) (A) (A) (A) (A) (A) (A)
                 (A) (A) (A) (A) (A) (A) (A) (A) (A) (A) (A) (A)
                 (A) (A) (A) (A) (A) (A) (A) (A) (A)
 The electronic state is 1-A.
 Alpha  occ. eigenvalues --  -11.22919 -11.22524 -11.21711 -11.21627 -11.21570
 Alpha  occ. eigenvalues --  -11.21559 -11.21513 -11.21455 -11.21401 -11.21298
 Alpha  occ. eigenvalues --   -1.10712  -1.08439  -1.02116  -0.97412  -0.93715
 Alpha  occ. eigenvalues --   -0.92410  -0.87778  -0.81711  -0.70461  -0.69695
 Alpha  occ. eigenvalues --   -0.64283  -0.63079  -0.59595  -0.58686  -0.58536
 Alpha  occ. eigenvalues --   -0.56929  -0.55095  -0.54874  -0.53177  -0.52751
 Alpha  occ. eigenvalues --   -0.51784  -0.51130  -0.50640  -0.49304  -0.47960
 Alpha  occ. eigenvalues --   -0.46341  -0.44583  -0.33431  -0.31446
 Alpha virt. eigenvalues --    0.18430   0.19806   0.22981   0.24450   0.26534
 Alpha virt. eigenvalues --    0.26924   0.27865   0.28938   0.30370   0.30757
 Alpha virt. eigenvalues --    0.31379   0.32420   0.33234   0.33546   0.34255
 Alpha virt. eigenvalues --    0.35153   0.36556   0.37269   0.39455   0.40453
 Alpha virt. eigenvalues --    0.40963   0.41220   0.43373   0.45137   0.46015
 Alpha virt. eigenvalues --    0.51705   0.53975   0.61425   0.63250   0.69549
 Alpha virt. eigenvalues --    0.70316   0.72642   0.74366   0.75423   0.76004
 Alpha virt. eigenvalues --    0.76705   0.79260   0.79788   0.81054   0.83232
 Alpha virt. eigenvalues --    0.83663   0.86108   0.86956   0.89758   0.91480
 Alpha virt. eigenvalues --    0.92992   0.95842   0.97290   0.98168   0.99163
 Alpha virt. eigenvalues --    1.00335   1.01339   1.02593   1.03561   1.06170
 Alpha virt. eigenvalues --    1.07934   1.08690   1.09875   1.12094   1.12362
 Alpha virt. eigenvalues --    1.12802   1.13720   1.15070   1.15405   1.15905
 Alpha virt. eigenvalues --    1.16702   1.17166   1.18345   1.19117   1.21282
 Alpha virt. eigenvalues --    1.21575   1.22267   1.23291   1.25414   1.26011
 Alpha virt. eigenvalues --    1.27734   1.40330   1.41435   1.45089   1.45473
 Alpha virt. eigenvalues --    1.48275   1.50132   1.55128   1.57544   1.58265
 Alpha virt. eigenvalues --    1.62788   1.65292   1.66671   1.70803   1.71731
 Alpha virt. eigenvalues --    1.74457   1.78825   1.90793   1.91745   1.96722
 Alpha virt. eigenvalues --    1.99420   2.00993   2.02388   2.06231   2.07918
 Alpha virt. eigenvalues --    2.08297   2.09429   2.10015   2.12599   2.14715
 Alpha virt. eigenvalues --    2.15053   2.16244   2.20420   2.23165   2.26758
 Alpha virt. eigenvalues --    2.29405   2.30321   2.31917   2.35425   2.35743
 Alpha virt. eigenvalues --    2.35908   2.36761   2.38592   2.40305   2.41096
 Alpha virt. eigenvalues --    2.42820   2.43841   2.44277   2.44978   2.45974
 Alpha virt. eigenvalues --    2.48190   2.49765   2.50422   2.51450   2.55700
 Alpha virt. eigenvalues --    2.56874   2.59084   2.62405   2.63240   2.65639
 Alpha virt. eigenvalues --    2.66756   2.68854   2.69738   2.70726   2.74861
 Alpha virt. eigenvalues --    2.76040   2.77544   2.80890   2.83061   2.84032
 Alpha virt. eigenvalues --    2.85492   2.89109   2.90664   2.93110   2.96181
 Alpha virt. eigenvalues --    2.97207   3.01024   3.01643   3.03339   3.05318
 Alpha virt. eigenvalues --    3.06668   3.08278   3.11711   3.13083   3.14954
 Alpha virt. eigenvalues --    3.17809   3.19102   3.19614   3.20911   3.22174
 Alpha virt. eigenvalues --    3.23979   3.24524   3.27509   3.28239   3.39541
 Alpha virt. eigenvalues --    3.40255   3.44788   3.45713   3.56211   3.57270
 Alpha virt. eigenvalues --    3.61586   3.63337   3.65748   3.74105   3.78512
 Alpha virt. eigenvalues --    3.79730   3.80787   3.82169   3.83486   3.84031
 Alpha virt. eigenvalues --    3.84540   3.86461   3.88024   3.90708   3.92027
 Alpha virt. eigenvalues --    3.96723   4.58866   4.62029   4.74190   4.83742
 Alpha virt. eigenvalues --    4.89802   4.91254   4.92628   5.05536   5.10469
 Alpha virt. eigenvalues --    5.16508
          Condensed to atoms (all electrons):
               1          2          3          4          5          6
     1  C    4.978137   0.405154   0.412948   0.356504  -0.058480   0.003390
     2  H    0.405154   0.603725  -0.026783  -0.044487  -0.003429  -0.000072
     3  H    0.412948  -0.026783   0.574324  -0.046923   0.003627  -0.000095
     4  C    0.356504  -0.044487  -0.046923   4.939496   0.341396  -0.037456
     5  C   -0.058480  -0.003429   0.003627   0.341396   4.908282   0.407678
     6  H    0.003390  -0.000072  -0.000095  -0.037456   0.407678   0.568009
     7  H   -0.001140  -0.000091  -0.000108  -0.040639   0.401483  -0.027791
     8  H   -0.004026   0.003259   0.000059  -0.044060   0.401452  -0.027666
     9  C   -0.042012   0.000393  -0.002368   0.700347  -0.045093  -0.003039
    10  H   -0.007112   0.000238   0.002237  -0.040165   0.003560   0.000035
    11  C    0.003168  -0.000115   0.000203  -0.047940  -0.007863  -0.002316
    12  H    0.000099   0.000001   0.000005  -0.000136  -0.002093  -0.001267
    13  H   -0.000113   0.000015  -0.000004  -0.001043   0.000314   0.000111
    14  H   -0.000088  -0.000003  -0.000012  -0.000055   0.000213  -0.000066
    15  C   -0.000092   0.000000  -0.000046   0.000002  -0.000000  -0.000000
    16  H   -0.000004   0.000002  -0.000002   0.000000  -0.000000  -0.000000
    17  H   -0.000005   0.000000   0.000002   0.000000  -0.000000   0.000000
    18  H    0.000023  -0.000002  -0.000007  -0.000000   0.000000  -0.000000
    19  C   -0.004105   0.000667   0.001435   0.000043  -0.000001   0.000000
    20  C    0.000567  -0.000024   0.000164  -0.000030   0.000000   0.000000
    21  H   -0.000010  -0.000010   0.000105   0.000001   0.000000   0.000000
    22  H    0.000105  -0.000001  -0.000088  -0.000004   0.000000  -0.000000
    23  H   -0.000038   0.000000   0.000013   0.000001  -0.000000   0.000000
    24  C   -0.060565  -0.001459  -0.001012   0.005612  -0.000200   0.000002
    25  H   -0.000313   0.001115   0.000177  -0.000136   0.000007  -0.000000
    26  C    0.331284  -0.051741  -0.040786  -0.062496  -0.000718   0.000072
    27  H   -0.043828   0.004995  -0.002513   0.001115   0.000074  -0.000024
    28  H   -0.045640  -0.002334   0.004447  -0.002384  -0.000610   0.000039
               7          8          9         10         11         12
     1  C   -0.001140  -0.004026  -0.042012  -0.007112   0.003168   0.000099
     2  H   -0.000091   0.003259   0.000393   0.000238  -0.000115   0.000001
     3  H   -0.000108   0.000059  -0.002368   0.002237   0.000203   0.000005
     4  C   -0.040639  -0.044060   0.700347  -0.040165  -0.047940  -0.000136
     5  C    0.401483   0.401452  -0.045093   0.003560  -0.007863  -0.002093
     6  H   -0.027791  -0.027666  -0.003039   0.000035  -0.002316  -0.001267
     7  H    0.581008  -0.035088  -0.002515  -0.000126   0.000478  -0.000117
     8  H   -0.035088   0.588023   0.001816  -0.000112   0.000170   0.000010
     9  C   -0.002515   0.001816   4.936395   0.405694   0.340186  -0.043567
    10  H   -0.000126  -0.000112   0.405694   0.560693  -0.041919   0.003339
    11  C    0.000478   0.000170   0.340186  -0.041919   4.897836   0.408432
    12  H   -0.000117   0.000010  -0.043567   0.003339   0.408432   0.576150
    13  H   -0.000040   0.000028  -0.042076  -0.000897   0.401090  -0.027826
    14  H    0.000088  -0.000017  -0.042121  -0.001497   0.402080  -0.028781
    15  C    0.000000  -0.000000   0.000000  -0.000000   0.000000   0.000000
    16  H    0.000000  -0.000000  -0.000000  -0.000000   0.000000   0.000000
    17  H    0.000000   0.000000  -0.000000  -0.000000   0.000000  -0.000000
    18  H   -0.000000  -0.000000   0.000000   0.000000  -0.000000  -0.000000
    19  C   -0.000001   0.000001   0.000000  -0.000004  -0.000000  -0.000000
    20  C    0.000000  -0.000000  -0.000004   0.000000   0.000000  -0.000000
    21  H   -0.000001  -0.000000   0.000008   0.000018   0.000000   0.000000
    22  H    0.000000  -0.000000  -0.000000   0.000001  -0.000000  -0.000000
    23  H    0.000000   0.000000   0.000000  -0.000000   0.000000   0.000000
    24  C   -0.000012  -0.000037  -0.000014  -0.000020   0.000001   0.000000
    25  H    0.000006  -0.000003  -0.000001   0.000000  -0.000000  -0.000000
    26  C    0.001060  -0.001036  -0.004810   0.000241  -0.000080  -0.000004
    27  H    0.000046   0.000095   0.001717   0.000087  -0.000046   0.000001
    28  H   -0.001761   0.000466   0.000333  -0.000011   0.000003  -0.000000
              13         14         15         16         17         18
     1  C   -0.000113  -0.000088  -0.000092  -0.000004  -0.000005   0.000023
     2  H    0.000015  -0.000003   0.000000   0.000002   0.000000  -0.000002
     3  H   -0.000004  -0.000012  -0.000046  -0.000002   0.000002  -0.000007
     4  C   -0.001043  -0.000055   0.000002   0.000000   0.000000  -0.000000
     5  C    0.000314   0.000213  -0.000000  -0.000000  -0.000000   0.000000
     6  H    0.000111  -0.000066  -0.000000  -0.000000   0.000000  -0.000000
     7  H   -0.000040   0.000088   0.000000   0.000000   0.000000  -0.000000
     8  H    0.000028  -0.000017  -0.000000  -0.000000   0.000000  -0.000000
     9  C   -0.042076  -0.042121   0.000000  -0.000000  -0.000000   0.000000
    10  H   -0.000897  -0.001497  -0.000000  -0.000000  -0.000000   0.000000
    11  C    0.401090   0.402080   0.000000   0.000000   0.000000  -0.000000
    12  H   -0.027826  -0.028781   0.000000   0.000000  -0.000000  -0.000000
    13  H    0.585756  -0.035773   0.000000  -0.000000   0.000000  -0.000000
    14  H   -0.035773   0.586042  -0.000000  -0.000000  -0.000000   0.000000
    15  C    0.000000  -0.000000   4.901217   0.406135   0.398640   0.398171
    16  H   -0.000000  -0.000000   0.406135   0.566561  -0.026615  -0.026687
    17  H    0.000000  -0.000000   0.398640  -0.026615   0.594382  -0.037891
    18  H   -0.000000   0.000000   0.398171  -0.026687  -0.037891   0.594856
    19  C    0.000000  -0.000000   0.353593  -0.041716  -0.044238  -0.043872
    20  C   -0.000000   0.000000  -0.065285   0.003787  -0.001208  -0.001955
    21  H   -0.000000  -0.000000   0.003740  -0.000114  -0.000031  -0.000068
    22  H   -0.000000   0.000000  -0.002652  -0.000029  -0.000494   0.002801
    23  H    0.000000  -0.000000  -0.002240  -0.000053   0.002781  -0.000461
    24  C    0.000000  -0.000000  -0.044607  -0.002561  -0.001262  -0.000496
    25  H   -0.000000   0.000000  -0.007128   0.002351   0.000189   0.000196
    26  C   -0.000005   0.000021   0.003217   0.000153  -0.000129  -0.000076
    27  H    0.000001  -0.000007   0.000073   0.000007   0.000005  -0.000004
    28  H    0.000000  -0.000000  -0.000098  -0.000010   0.000011  -0.000002
              19         20         21         22         23         24
     1  C   -0.004105   0.000567  -0.000010   0.000105  -0.000038  -0.060565
     2  H    0.000667  -0.000024  -0.000010  -0.000001   0.000000  -0.001459
     3  H    0.001435   0.000164   0.000105  -0.000088   0.000013  -0.001012
     4  C    0.000043  -0.000030   0.000001  -0.000004   0.000001   0.005612
     5  C   -0.000001   0.000000   0.000000   0.000000  -0.000000  -0.000200
     6  H    0.000000   0.000000   0.000000  -0.000000   0.000000   0.000002
     7  H   -0.000001   0.000000  -0.000001   0.000000   0.000000  -0.000012
     8  H    0.000001  -0.000000  -0.000000  -0.000000   0.000000  -0.000037
     9  C    0.000000  -0.000004   0.000008  -0.000000   0.000000  -0.000014
    10  H   -0.000004   0.000000   0.000018   0.000001  -0.000000  -0.000020
    11  C   -0.000000   0.000000   0.000000  -0.000000   0.000000   0.000001
    12  H   -0.000000  -0.000000   0.000000  -0.000000   0.000000   0.000000
    13  H    0.000000  -0.000000  -0.000000  -0.000000   0.000000   0.000000
    14  H   -0.000000   0.000000  -0.000000   0.000000  -0.000000  -0.000000
    15  C    0.353593  -0.065285   0.003740  -0.002652  -0.002240  -0.044607
    16  H   -0.041716   0.003787  -0.000114  -0.000029  -0.000053  -0.002561
    17  H   -0.044238  -0.001208  -0.000031  -0.000494   0.002781  -0.001262
    18  H   -0.043872  -0.001955  -0.000068   0.002801  -0.000461  -0.000496
    19  C    4.911972   0.350278  -0.037744  -0.043582  -0.043793   0.701059
    20  C    0.350278   4.905348   0.407414   0.400856   0.400140  -0.043274
    21  H   -0.037744   0.407414   0.565825  -0.027852  -0.026561  -0.002857
    22  H   -0.043582   0.400856  -0.027852   0.588069  -0.036018  -0.000110
    23  H   -0.043793   0.400140  -0.026561  -0.036018   0.586462  -0.000440
    24  C    0.701059  -0.043274  -0.002857  -0.000110  -0.000440   4.947520
    25  H   -0.038246   0.003553   0.000052  -0.000121  -0.000122   0.402913
    26  C   -0.049108  -0.008323  -0.002641   0.000371   0.000163   0.347390
    27  H    0.000865  -0.002776  -0.001368  -0.000064   0.000056  -0.043933
    28  H    0.001117   0.000195   0.000058  -0.000015   0.000027  -0.041944
              25         26         27         28
     1  C   -0.000313   0.331284  -0.043828  -0.045640
     2  H    0.001115  -0.051741   0.004995  -0.002334
     3  H    0.000177  -0.040786  -0.002513   0.004447
     4  C   -0.000136  -0.062496   0.001115  -0.002384
     5  C    0.000007  -0.000718   0.000074  -0.000610
     6  H   -0.000000   0.000072  -0.000024   0.000039
     7  H    0.000006   0.001060   0.000046  -0.001761
     8  H   -0.000003  -0.001036   0.000095   0.000466
     9  C   -0.000001  -0.004810   0.001717   0.000333
    10  H    0.000000   0.000241   0.000087  -0.000011
    11  C   -0.000000  -0.000080  -0.000046   0.000003
    12  H   -0.000000  -0.000004   0.000001  -0.000000
    13  H   -0.000000  -0.000005   0.000001   0.000000
    14  H    0.000000   0.000021  -0.000007  -0.000000
    15  C   -0.007128   0.003217   0.000073  -0.000098
    16  H    0.002351   0.000153   0.000007  -0.000010
    17  H    0.000189  -0.000129   0.000005   0.000011
    18  H    0.000196  -0.000076  -0.000004  -0.000002
    19  C   -0.038246  -0.049108   0.000865   0.001117
    20  C    0.003553  -0.008323  -0.002776   0.000195
    21  H    0.000052  -0.002641  -0.001368   0.000058
    22  H   -0.000121   0.000371  -0.000064  -0.000015
    23  H   -0.000122   0.000163   0.000056   0.000027
    24  C    0.402913   0.347390  -0.043933  -0.041944
    25  H    0.559710  -0.040138   0.003225  -0.003174
    26  C   -0.040138   4.998757   0.410704   0.411894
    27  H    0.003225   0.410704   0.579039  -0.029245
    28  H   -0.003174   0.411894  -0.029245   0.591371
 Mulliken charges:
               1
     1  C   -0.223809
     2  H    0.110985
     3  H    0.121000
     4  C    0.023436
     5  C   -0.349597
     6  H    0.120456
     7  H    0.125260
     8  H    0.116665
     9  C   -0.159267
    10  H    0.115719
    11  C   -0.353368
    12  H    0.115755
    13  H    0.120461
    14  H    0.119976
    15  C   -0.342640
    16  H    0.118795
    17  H    0.115864
    18  H    0.115475
    19  C    0.025382
    20  C   -0.349423
    21  H    0.122034
    22  H    0.118827
    23  H    0.120083
    24  C   -0.159695
    25  H    0.115889
    26  C   -0.243237
    27  H    0.121704
    28  H    0.117270
 Sum of Mulliken charges =  -0.00000
 Mulliken charges with hydrogens summed into heavy atoms:
               1
     1  C    0.008176
     4  C    0.023436
     5  C    0.012783
     9  C   -0.043547
    11  C    0.002824
    15  C    0.007494
    19  C    0.025382
    20  C    0.011520
    24  C   -0.043805
    26  C   -0.004263
 Electronic spatial extent (au):  <R**2>=           2683.3267
 Charge=             -0.0000 electrons
 Dipole moment (field-independent basis, Debye):
    X=             -0.0903    Y=              0.0783    Z=              0.1306  Tot=              0.1770
 Quadrupole moment (field-independent basis, Debye-Ang):
   XX=            -63.7657   YY=            -63.3647   ZZ=            -67.0590
   XY=             -1.0235   XZ=              1.2573   YZ=              0.0088
 Traceless Quadrupole moment (field-independent basis, Debye-Ang):
   XX=              0.9641   YY=              1.3651   ZZ=             -2.3292
   XY=             -1.0235   XZ=              1.2573   YZ=              0.0088
 Octapole moment (field-independent basis, Debye-Ang**2):
  XXX=             -1.1008  YYY=             -1.1144  ZZZ=              1.6579  XYY=              0.4021
  XXY=              4.0428  XXZ=              1.6932  XZZ=             -0.8935  YZZ=              1.3792
  YYZ=             -2.4835  XYZ=             -3.0363
 Hexadecapole moment (field-independent basis, Debye-Ang**3):
 XXXX=          -3006.9813 YYYY=           -509.1399 ZZZZ=           -197.4177 XXXY=            -12.2035
 XXXZ=              5.1173 YYYX=              7.9565 YYYZ=              1.9948 ZZZX=              2.9019
 ZZZY=             -1.1123 XXYY=           -586.0753 XXZZ=           -546.5330 YYZZ=           -114.4471
 XXYZ=             -0.5426 YYXZ=              3.8689 ZZXY=             -2.9786
 N-N= 5.101683277498D+02 E-N=-1.925081368028D+03  KE= 3.887438516168D+02
 No NMR shielding tensors so no spin-rotation constants.
 Leave Link  601 at Fri Sep 17 22:50:11 2021, MaxMem=   524288000 cpu:               0.3 elap:               0.6
 (Enter /opt/gaussian/g16_legacy/l9999.exe)
 1\1\GINC-TRUENO90\FOpt\RMP2-FC\6-31G(d,p)\C10H18\JRAMOS\17-Sep-2021\0\
 \#p opt mp2/6-31g(d,p)\\Conformer number 009. Energy MM = 27.427 kcal/
 mol\\0,1\C,2.0688261409,1.3616609402,-8.7618298058\H,1.7171719027,0.48
 77054021,-9.3215117976\H,1.8327196972,2.2401609454,-9.3667985077\C,3.5
 58132317,1.2672066305,-8.5518926749\C,4.0385422546,0.0149022302,-7.867
 3266429\H,5.1096559388,-0.1365437763,-7.9750465708\H,3.8107010827,0.03
 18745883,-6.7999343082\H,3.534845156,-0.8574581149,-8.2878438363\C,4.3
 577967986,2.2783615857,-8.9408035754\H,3.8814937074,3.1255555666,-9.42
 69345053\C,5.8444890594,2.3877523637,-8.78864101\H,6.2775704803,1.5339
 277682,-8.2739611615\H,6.3296679106,2.4773498946,-9.7623312249\H,6.105
 3853504,3.2825982192,-8.2207411764\C,-2.4486771402,2.5395140505,-7.961
 7142591\H,-2.7486513296,1.5184030606,-8.1921930844\H,-3.0421726156,2.8
 873953986,-7.1131464333\H,-2.7101496517,3.1737294514,-8.8117890769\C,-
 0.9782082201,2.6290232227,-7.6585518744\C,-0.4900930466,4.0117591228,-
 7.3265086911\H,0.5809634998,4.053227073,-7.1470627165\H,-0.7211680774,
 4.697987837,-8.1440537625\H,-1.0002867605,4.3944363919,-6.4397456015\C
 ,-0.2001481908,1.5307390014,-7.6901979807\H,-0.6747238546,0.5914527354
 ,-7.9638997228\C,1.2769428934,1.4526609406,-7.4445778928\H,1.636204039
 3,2.3155660096,-6.8822959593\H,1.4888706578,0.5727514611,-6.8318661471
 \\Version=EM64L-G16RevA.03\State=1-A\HF=-389.1569438\MP2=-390.5732618\
 RMSD=9.331e-09\RMSF=3.084e-06\Dipole=0.0133951,0.0452039,0.0456843\PG=
 C01 [X(C10H18)]\\@


 ALL MY ATTEMPTS TO ADAPT THE THEORETICAL FOUNDATIONS OF PHYSICS
 TO THESE NEW NOTIONS FAILED COMPLETELY. IT WAS AS IF THE GROUND HAD
 BEEN PULLED OUT FROM UNDER ONE WITH NO FIRM FOUNDATION TO BE SEEN ANYWHERE,
 UPON WHICH ONE COULD HAVE BUILT.  -- A.EINSTEIN
 Job cpu time:       0 days  2 hours 40 minutes 21.8 seconds.
 Elapsed time:       0 days  2 hours 40 minutes 40.0 seconds.
 File lengths (MBytes):  RWF=     37 Int=      0 D2E=      0 Chk=      7 Scr=      1
 Normal termination of Gaussian 16 at Fri Sep 17 22:50:12 2021.
