 Entering Gaussian System, Link 0=/opt/gaussian/g16_legacy/g16
 Input=02-IsoP_000_gaussian.com
 Output=02-IsoP_000_gaussian.log
 Initial command:
 /opt/gaussian/g16_legacy/l1.exe "/scratch-local/jramos/2661499/Gau-21618.inp" -scrdir="/scratch-local/jramos/2661499/"
 Entering Link 1 = /opt/gaussian/g16_legacy/l1.exe PID=     21621.
  
 Copyright (c) 1988,1990,1992,1993,1995,1998,2003,2009,2016,
            Gaussian, Inc.  All Rights Reserved.
  
 This is part of the Gaussian(R) 16 program.  It is based on
 the Gaussian(R) 09 system (copyright 2009, Gaussian, Inc.),
 the Gaussian(R) 03 system (copyright 2003, Gaussian, Inc.),
 the Gaussian(R) 98 system (copyright 1998, Gaussian, Inc.),
 the Gaussian(R) 94 system (copyright 1995, Gaussian, Inc.),
 the Gaussian 92(TM) system (copyright 1992, Gaussian, Inc.),
 the Gaussian 90(TM) system (copyright 1990, Gaussian, Inc.),
 the Gaussian 88(TM) system (copyright 1988, Gaussian, Inc.),
 the Gaussian 86(TM) system (copyright 1986, Carnegie Mellon
 University), and the Gaussian 82(TM) system (copyright 1983,
 Carnegie Mellon University). Gaussian is a federally registered
 trademark of Gaussian, Inc.
  
 This software contains proprietary and confidential information,
 including trade secrets, belonging to Gaussian, Inc.
  
 This software is provided under written license and may be
 used, copied, transmitted, or stored only in accord with that
 written license.
  
 The following legend is applicable only to US Government
 contracts under FAR:
  
                    RESTRICTED RIGHTS LEGEND
  
 Use, reproduction and disclosure by the US Government is
 subject to restrictions as set forth in subparagraphs (a)
 and (c) of the Commercial Computer Software - Restricted
 Rights clause in FAR 52.227-19.
  
 Gaussian, Inc.
 340 Quinnipiac St., Bldg. 40, Wallingford CT 06492
  
  
 ---------------------------------------------------------------
 Warning -- This program may not be used in any manner that
 competes with the business of Gaussian, Inc. or will provide
 assistance to any competitor of Gaussian, Inc.  The licensee
 of this program is prohibited from giving any competitor of
 Gaussian, Inc. access to this program.  By using this program,
 the user acknowledges that Gaussian, Inc. is engaged in the
 business of creating and licensing software in the field of
 computational chemistry and represents and warrants to the
 licensee that it is not a competitor of Gaussian, Inc. and that
 it will not use this program in any manner prohibited above.
 ---------------------------------------------------------------
  

 Cite this work as:
 Gaussian 16, Revision A.03,
 M. J. Frisch, G. W. Trucks, H. B. Schlegel, G. E. Scuseria, 
 M. A. Robb, J. R. Cheeseman, G. Scalmani, V. Barone, 
 G. A. Petersson, H. Nakatsuji, X. Li, M. Caricato, A. V. Marenich, 
 J. Bloino, B. G. Janesko, R. Gomperts, B. Mennucci, H. P. Hratchian, 
 J. V. Ortiz, A. F. Izmaylov, J. L. Sonnenberg, D. Williams-Young, 
 F. Ding, F. Lipparini, F. Egidi, J. Goings, B. Peng, A. Petrone, 
 T. Henderson, D. Ranasinghe, V. G. Zakrzewski, J. Gao, N. Rega, 
 G. Zheng, W. Liang, M. Hada, M. Ehara, K. Toyota, R. Fukuda, 
 J. Hasegawa, M. Ishida, T. Nakajima, Y. Honda, O. Kitao, H. Nakai, 
 T. Vreven, K. Throssell, J. A. Montgomery, Jr., J. E. Peralta, 
 F. Ogliaro, M. J. Bearpark, J. J. Heyd, E. N. Brothers, K. N. Kudin, 
 V. N. Staroverov, T. A. Keith, R. Kobayashi, J. Normand, 
 K. Raghavachari, A. P. Rendell, J. C. Burant, S. S. Iyengar, 
 J. Tomasi, M. Cossi, J. M. Millam, M. Klene, C. Adamo, R. Cammi, 
 J. W. Ochterski, R. L. Martin, K. Morokuma, O. Farkas, 
 J. B. Foresman, and D. J. Fox, Gaussian, Inc., Wallingford CT, 2016.
 
 ******************************************
 Gaussian 16:  EM64L-G16RevA.03 25-Dec-2016
                17-Sep-2021 
 ******************************************
 %chk=02-IsoP_000_gaussian.chk
 %nproc=1
 Will use up to    1 processors via shared memory.
 %mem=4000Mb
 ---------------------
 #p opt mp2/6-31g(d,p)
 ---------------------
 1/18=20,19=15,38=1/1,3;
 2/9=110,12=2,17=6,18=5,40=1/2;
 3/5=1,6=6,7=101,11=9,25=1,30=1,71=1/1,2,3;
 4//1;
 5/5=2,38=5/2;
 8/6=4,10=2/1;
 9/15=2,16=-3/6;
 10/5=1/2;
 6/7=2,8=2,9=2,10=2/1;
 7/12=2/1,2,3,16;
 1/18=20,19=15/3(2);
 2/9=110/2;
 99//99;
 2/9=110/2;
 3/5=1,6=6,7=101,11=9,25=1,30=1,71=1/1,2,3;
 4/5=5,16=3,69=1/1;
 5/5=2,38=5/2;
 8/6=4,10=2/1;
 9/15=2,16=-3/6;
 10/5=1/2;
 7/12=2/1,2,3,16;
 1/18=20,19=15/3(-8);
 2/9=110/2;
 6/7=2,8=2,9=2,10=2/1;
 99//99;
 Leave Link    1 at Fri Sep 17 20:09:25 2021, MaxMem=   524288000 cpu:               0.0 elap:               0.1
 (Enter /opt/gaussian/g16_legacy/l101.exe)
 -------------------------------------------------
 Conformer number 000. Energy MM = 24.913 kcal/mol
 -------------------------------------------------
 Symbolic Z-matrix:
 Charge =  0 Multiplicity = 1
 C                     2.1492    1.2616   -8.9453 
 H                     1.8551    0.2555   -9.2739 
 H                     1.9878    1.9199   -9.8092 
 C                     3.6219    1.2955   -8.5786 
 C                     4.1775    2.6561   -8.2493 
 H                     5.2182    2.7671   -8.5655 
 H                     3.6142    3.4422   -8.7638 
 H                     4.1122    2.8387   -7.1718 
 C                     4.3597    0.1679   -8.5683 
 H                     3.8827   -0.7743   -8.835 
 C                     5.8022    0.04     -8.1917 
 H                     6.2538    0.9819   -7.8715 
 H                     5.9023   -0.6693   -7.3642 
 H                     6.3758   -0.341    -9.0418 
 C                    -2.3876    2.8919   -8.5691 
 H                    -2.7347    1.8801   -8.8036 
 H                    -2.9938    3.2683   -7.7386 
 H                    -2.5708    3.5187   -9.4479 
 C                    -0.9289    2.9238   -8.2006 
 C                    -0.3871    4.2839   -7.8603 
 H                     0.6525    4.405    -8.1799 
 H                    -0.9575    5.0708   -8.3673 
 H                    -0.4515    4.4575   -6.7819 
 C                    -0.1894    1.7953   -8.1819 
 H                    -0.6625    0.8518   -8.4479 
 C                     1.2554    1.6855   -7.7742 
 H                     1.6098    2.6276   -7.3456 
 H                     1.3301    0.946    -6.9679 
 
 ITRead=  0  0  0  0  0  0  0  0  0  0  0  0  0  0  0  0  0  0  0  0
 ITRead=  0  0  0  0  0  0  0  0
 MicOpt= -1 -1 -1 -1 -1 -1 -1 -1 -1 -1 -1 -1 -1 -1 -1 -1 -1 -1 -1 -1
 MicOpt= -1 -1 -1 -1 -1 -1 -1 -1
 NAtoms=     28 NQM=       28 NQMF=       0 NMMI=      0 NMMIF=      0
                NMic=       0 NMicF=      0.
                    Isotopes and Nuclear Properties:
 (Nuclear quadrupole moments (NQMom) in fm**2, nuclear magnetic moments (NMagM)
  in nuclear magnetons)

  Atom         1           2           3           4           5           6           7           8           9          10
 IAtWgt=          12           1           1          12          12           1           1           1          12           1
 AtmWgt=  12.0000000   1.0078250   1.0078250  12.0000000  12.0000000   1.0078250   1.0078250   1.0078250  12.0000000   1.0078250
 NucSpn=           0           1           1           0           0           1           1           1           0           1
 AtZEff=  -0.0000000  -0.0000000  -0.0000000  -0.0000000  -0.0000000  -0.0000000  -0.0000000  -0.0000000  -0.0000000  -0.0000000
 NQMom=    0.0000000   0.0000000   0.0000000   0.0000000   0.0000000   0.0000000   0.0000000   0.0000000   0.0000000   0.0000000
 NMagM=    0.0000000   2.7928460   2.7928460   0.0000000   0.0000000   2.7928460   2.7928460   2.7928460   0.0000000   2.7928460
 AtZNuc=   6.0000000   1.0000000   1.0000000   6.0000000   6.0000000   1.0000000   1.0000000   1.0000000   6.0000000   1.0000000

  Atom        11          12          13          14          15          16          17          18          19          20
 IAtWgt=          12           1           1           1          12           1           1           1          12          12
 AtmWgt=  12.0000000   1.0078250   1.0078250   1.0078250  12.0000000   1.0078250   1.0078250   1.0078250  12.0000000  12.0000000
 NucSpn=           0           1           1           1           0           1           1           1           0           0
 AtZEff=  -0.0000000  -0.0000000  -0.0000000  -0.0000000  -0.0000000  -0.0000000  -0.0000000  -0.0000000  -0.0000000  -0.0000000
 NQMom=    0.0000000   0.0000000   0.0000000   0.0000000   0.0000000   0.0000000   0.0000000   0.0000000   0.0000000   0.0000000
 NMagM=    0.0000000   2.7928460   2.7928460   2.7928460   0.0000000   2.7928460   2.7928460   2.7928460   0.0000000   0.0000000
 AtZNuc=   6.0000000   1.0000000   1.0000000   1.0000000   6.0000000   1.0000000   1.0000000   1.0000000   6.0000000   6.0000000

  Atom        21          22          23          24          25          26          27          28
 IAtWgt=           1           1           1          12           1          12           1           1
 AtmWgt=   1.0078250   1.0078250   1.0078250  12.0000000   1.0078250  12.0000000   1.0078250   1.0078250
 NucSpn=           1           1           1           0           1           0           1           1
 AtZEff=  -0.0000000  -0.0000000  -0.0000000  -0.0000000  -0.0000000  -0.0000000  -0.0000000  -0.0000000
 NQMom=    0.0000000   0.0000000   0.0000000   0.0000000   0.0000000   0.0000000   0.0000000   0.0000000
 NMagM=    2.7928460   2.7928460   2.7928460   0.0000000   2.7928460   0.0000000   2.7928460   2.7928460
 AtZNuc=   1.0000000   1.0000000   1.0000000   6.0000000   1.0000000   6.0000000   1.0000000   1.0000000
 Leave Link  101 at Fri Sep 17 20:09:25 2021, MaxMem=   524288000 cpu:               0.1 elap:               0.1
 (Enter /opt/gaussian/g16_legacy/l103.exe)

 GradGradGradGradGradGradGradGradGradGradGradGradGradGradGradGradGradGrad
 Berny optimization.
 Initialization pass.
                           ----------------------------
                           !    Initial Parameters    !
                           ! (Angstroms and Degrees)  !
 --------------------------                            --------------------------
 ! Name  Definition              Value          Derivative Info.                !
 --------------------------------------------------------------------------------
 ! R1    R(1,2)                  1.0985         estimate D2E/DX2                !
 ! R2    R(1,3)                  1.0981         estimate D2E/DX2                !
 ! R3    R(1,4)                  1.518          estimate D2E/DX2                !
 ! R4    R(1,26)                 1.533          estimate D2E/DX2                !
 ! R5    R(4,5)                  1.5061         estimate D2E/DX2                !
 ! R6    R(4,9)                  1.3476         estimate D2E/DX2                !
 ! R7    R(5,6)                  1.0933         estimate D2E/DX2                !
 ! R8    R(5,7)                  1.0954         estimate D2E/DX2                !
 ! R9    R(5,8)                  1.0948         estimate D2E/DX2                !
 ! R10   R(9,10)                 1.0892         estimate D2E/DX2                !
 ! R11   R(9,11)                 1.4963         estimate D2E/DX2                !
 ! R12   R(11,12)                1.0925         estimate D2E/DX2                !
 ! R13   R(11,13)                1.0945         estimate D2E/DX2                !
 ! R14   R(11,14)                1.094          estimate D2E/DX2                !
 ! R15   R(15,16)                1.0951         estimate D2E/DX2                !
 ! R16   R(15,17)                1.0949         estimate D2E/DX2                !
 ! R17   R(15,18)                1.0949         estimate D2E/DX2                !
 ! R18   R(15,19)                1.5049         estimate D2E/DX2                !
 ! R19   R(19,20)                1.5031         estimate D2E/DX2                !
 ! R20   R(19,24)                1.3493         estimate D2E/DX2                !
 ! R21   R(20,21)                1.0943         estimate D2E/DX2                !
 ! R22   R(20,22)                1.0962         estimate D2E/DX2                !
 ! R23   R(20,23)                1.0942         estimate D2E/DX2                !
 ! R24   R(24,25)                1.0885         estimate D2E/DX2                !
 ! R25   R(24,26)                1.5052         estimate D2E/DX2                !
 ! R26   R(26,27)                1.094          estimate D2E/DX2                !
 ! R27   R(26,28)                1.0966         estimate D2E/DX2                !
 ! A1    A(2,1,3)              105.9254         estimate D2E/DX2                !
 ! A2    A(2,1,4)              110.6368         estimate D2E/DX2                !
 ! A3    A(2,1,26)             109.0068         estimate D2E/DX2                !
 ! A4    A(3,1,4)              108.618          estimate D2E/DX2                !
 ! A5    A(3,1,26)             110.4598         estimate D2E/DX2                !
 ! A6    A(4,1,26)             112.0192         estimate D2E/DX2                !
 ! A7    A(1,4,5)              115.5226         estimate D2E/DX2                !
 ! A8    A(1,4,9)              120.9514         estimate D2E/DX2                !
 ! A9    A(5,4,9)              123.5236         estimate D2E/DX2                !
 ! A10   A(4,5,6)              112.3104         estimate D2E/DX2                !
 ! A11   A(4,5,7)              110.8485         estimate D2E/DX2                !
 ! A12   A(4,5,8)              110.112          estimate D2E/DX2                !
 ! A13   A(6,5,7)              106.307          estimate D2E/DX2                !
 ! A14   A(6,5,8)              108.9339         estimate D2E/DX2                !
 ! A15   A(7,5,8)              108.1732         estimate D2E/DX2                !
 ! A16   A(4,9,10)             118.8281         estimate D2E/DX2                !
 ! A17   A(4,9,11)             126.96           estimate D2E/DX2                !
 ! A18   A(10,9,11)            114.1962         estimate D2E/DX2                !
 ! A19   A(9,11,12)            113.4877         estimate D2E/DX2                !
 ! A20   A(9,11,13)            109.5028         estimate D2E/DX2                !
 ! A21   A(9,11,14)            109.8554         estimate D2E/DX2                !
 ! A22   A(12,11,13)           107.4169         estimate D2E/DX2                !
 ! A23   A(12,11,14)           108.135          estimate D2E/DX2                !
 ! A24   A(13,11,14)           108.2916         estimate D2E/DX2                !
 ! A25   A(16,15,17)           107.7317         estimate D2E/DX2                !
 ! A26   A(16,15,18)           107.7001         estimate D2E/DX2                !
 ! A27   A(16,15,19)           112.2879         estimate D2E/DX2                !
 ! A28   A(17,15,18)           108.6247         estimate D2E/DX2                !
 ! A29   A(17,15,19)           110.0985         estimate D2E/DX2                !
 ! A30   A(18,15,19)           110.2799         estimate D2E/DX2                !
 ! A31   A(15,19,20)           115.089          estimate D2E/DX2                !
 ! A32   A(15,19,24)           121.1244         estimate D2E/DX2                !
 ! A33   A(20,19,24)           123.7862         estimate D2E/DX2                !
 ! A34   A(19,20,21)           112.1137         estimate D2E/DX2                !
 ! A35   A(19,20,22)           110.9339         estimate D2E/DX2                !
 ! A36   A(19,20,23)           110.2116         estimate D2E/DX2                !
 ! A37   A(21,20,22)           106.2488         estimate D2E/DX2                !
 ! A38   A(21,20,23)           109.0378         estimate D2E/DX2                !
 ! A39   A(22,20,23)           108.1391         estimate D2E/DX2                !
 ! A40   A(19,24,25)           118.9045         estimate D2E/DX2                !
 ! A41   A(19,24,26)           126.214          estimate D2E/DX2                !
 ! A42   A(25,24,26)           114.8445         estimate D2E/DX2                !
 ! A43   A(1,26,24)            111.8941         estimate D2E/DX2                !
 ! A44   A(1,26,27)            110.3977         estimate D2E/DX2                !
 ! A45   A(1,26,28)            109.6033         estimate D2E/DX2                !
 ! A46   A(24,26,27)           110.7467         estimate D2E/DX2                !
 ! A47   A(24,26,28)           108.2839         estimate D2E/DX2                !
 ! A48   A(27,26,28)           105.6995         estimate D2E/DX2                !
 ! D1    D(2,1,4,5)            173.8874         estimate D2E/DX2                !
 ! D2    D(2,1,4,9)             -5.5762         estimate D2E/DX2                !
 ! D3    D(3,1,4,5)             58.0216         estimate D2E/DX2                !
 ! D4    D(3,1,4,9)           -121.442          estimate D2E/DX2                !
 ! D5    D(26,1,4,5)           -64.2625         estimate D2E/DX2                !
 ! D6    D(26,1,4,9)           116.274          estimate D2E/DX2                !
 ! D7    D(2,1,26,24)          -63.413          estimate D2E/DX2                !
 ! D8    D(2,1,26,27)          172.7555         estimate D2E/DX2                !
 ! D9    D(2,1,26,28)           56.7223         estimate D2E/DX2                !
 ! D10   D(3,1,26,24)           52.58           estimate D2E/DX2                !
 ! D11   D(3,1,26,27)          -71.2515         estimate D2E/DX2                !
 ! D12   D(3,1,26,28)          172.7153         estimate D2E/DX2                !
 ! D13   D(4,1,26,24)          173.808          estimate D2E/DX2                !
 ! D14   D(4,1,26,27)           49.9765         estimate D2E/DX2                !
 ! D15   D(4,1,26,28)          -66.0567         estimate D2E/DX2                !
 ! D16   D(1,4,5,6)           -146.0172         estimate D2E/DX2                !
 ! D17   D(1,4,5,7)            -27.2639         estimate D2E/DX2                !
 ! D18   D(1,4,5,8)             92.3973         estimate D2E/DX2                !
 ! D19   D(9,4,5,6)             33.4309         estimate D2E/DX2                !
 ! D20   D(9,4,5,7)            152.1843         estimate D2E/DX2                !
 ! D21   D(9,4,5,8)            -88.1545         estimate D2E/DX2                !
 ! D22   D(1,4,9,10)             0.3948         estimate D2E/DX2                !
 ! D23   D(1,4,9,11)          -178.0738         estimate D2E/DX2                !
 ! D24   D(5,4,9,10)          -179.0245         estimate D2E/DX2                !
 ! D25   D(5,4,9,11)             2.507          estimate D2E/DX2                !
 ! D26   D(4,9,11,12)            1.8356         estimate D2E/DX2                !
 ! D27   D(4,9,11,13)          121.8446         estimate D2E/DX2                !
 ! D28   D(4,9,11,14)         -119.3459         estimate D2E/DX2                !
 ! D29   D(10,9,11,12)        -176.6935         estimate D2E/DX2                !
 ! D30   D(10,9,11,13)         -56.6845         estimate D2E/DX2                !
 ! D31   D(10,9,11,14)          62.125          estimate D2E/DX2                !
 ! D32   D(16,15,19,20)       -179.7446         estimate D2E/DX2                !
 ! D33   D(16,15,19,24)          0.0364         estimate D2E/DX2                !
 ! D34   D(17,15,19,20)        -59.7129         estimate D2E/DX2                !
 ! D35   D(17,15,19,24)        120.0681         estimate D2E/DX2                !
 ! D36   D(18,15,19,20)         60.1391         estimate D2E/DX2                !
 ! D37   D(18,15,19,24)       -120.0798         estimate D2E/DX2                !
 ! D38   D(15,19,20,21)       -145.57           estimate D2E/DX2                !
 ! D39   D(15,19,20,22)        -26.9622         estimate D2E/DX2                !
 ! D40   D(15,19,20,23)         92.7757         estimate D2E/DX2                !
 ! D41   D(24,19,20,21)         34.6555         estimate D2E/DX2                !
 ! D42   D(24,19,20,22)        153.2633         estimate D2E/DX2                !
 ! D43   D(24,19,20,23)        -86.9987         estimate D2E/DX2                !
 ! D44   D(15,19,24,25)          0.545          estimate D2E/DX2                !
 ! D45   D(15,19,24,26)       -177.1221         estimate D2E/DX2                !
 ! D46   D(20,19,24,25)       -179.6936         estimate D2E/DX2                !
 ! D47   D(20,19,24,26)          2.6393         estimate D2E/DX2                !
 ! D48   D(19,24,26,1)        -115.2978         estimate D2E/DX2                !
 ! D49   D(19,24,26,27)          8.3376         estimate D2E/DX2                !
 ! D50   D(19,24,26,28)        123.7986         estimate D2E/DX2                !
 ! D51   D(25,24,26,1)          66.9528         estimate D2E/DX2                !
 ! D52   D(25,24,26,27)       -169.4119         estimate D2E/DX2                !
 ! D53   D(25,24,26,28)        -53.9508         estimate D2E/DX2                !
 --------------------------------------------------------------------------------
 Trust Radius=3.00D-01 FncErr=1.00D-07 GrdErr=1.00D-07 EigMax=2.50D+02 EigMin=1.00D-04
 Number of steps in this run=    138 maximum allowed number of steps=    168.
 GradGradGradGradGradGradGradGradGradGradGradGradGradGradGradGradGradGrad

 Leave Link  103 at Fri Sep 17 20:09:25 2021, MaxMem=   524288000 cpu:               0.0 elap:               0.1
 (Enter /opt/gaussian/g16_legacy/l202.exe)
                          Input orientation:                          
 ---------------------------------------------------------------------
 Center     Atomic      Atomic             Coordinates (Angstroms)
 Number     Number       Type             X           Y           Z
 ---------------------------------------------------------------------
      1          6           0        2.149200    1.261600   -8.945300
      2          1           0        1.855100    0.255500   -9.273900
      3          1           0        1.987800    1.919900   -9.809200
      4          6           0        3.621900    1.295500   -8.578600
      5          6           0        4.177500    2.656100   -8.249300
      6          1           0        5.218200    2.767100   -8.565500
      7          1           0        3.614200    3.442200   -8.763800
      8          1           0        4.112200    2.838700   -7.171800
      9          6           0        4.359700    0.167900   -8.568300
     10          1           0        3.882700   -0.774300   -8.835000
     11          6           0        5.802200    0.040000   -8.191700
     12          1           0        6.253800    0.981900   -7.871500
     13          1           0        5.902300   -0.669300   -7.364200
     14          1           0        6.375800   -0.341000   -9.041800
     15          6           0       -2.387600    2.891900   -8.569100
     16          1           0       -2.734700    1.880100   -8.803600
     17          1           0       -2.993800    3.268300   -7.738600
     18          1           0       -2.570800    3.518700   -9.447900
     19          6           0       -0.928900    2.923800   -8.200600
     20          6           0       -0.387100    4.283900   -7.860300
     21          1           0        0.652500    4.405000   -8.179900
     22          1           0       -0.957500    5.070800   -8.367300
     23          1           0       -0.451500    4.457500   -6.781900
     24          6           0       -0.189400    1.795300   -8.181900
     25          1           0       -0.662500    0.851800   -8.447900
     26          6           0        1.255400    1.685500   -7.774200
     27          1           0        1.609800    2.627600   -7.345600
     28          1           0        1.330100    0.946000   -6.967900
 ---------------------------------------------------------------------
                    Distance matrix (angstroms):
                    1          2          3          4          5
     1  C    0.000000
     2  H    1.098504   0.000000
     3  H    1.098058   1.753392   0.000000
     4  C    1.518046   2.164861   2.138816   0.000000
     5  C    2.557938   3.493741   2.787484   1.506108   0.000000
     6  H    3.439410   4.256807   3.563709   2.171164   1.093325
     7  H    2.633284   3.675553   2.460779   2.154688   1.095432
     8  H    3.079921   4.023214   3.509009   2.144982   1.094812
     9  C    2.494919   2.603568   3.199257   1.347567   2.515173
    10  H    2.676206   2.316092   3.434884   2.101863   3.492506
    11  C    3.924873   4.098438   4.549723   2.545522   3.080089
    12  H    4.251943   4.673644   4.778418   2.743216   2.693826
    13  H    4.507107   4.569687   5.292003   3.245833   3.849237
    14  H    4.521259   4.565787   4.995510   3.236766   3.800419
    15  C    4.835490   5.044586   4.650458   6.217932   6.577113
    16  H    4.924947   4.891500   4.828542   6.387390   6.977674
    17  H    5.650966   5.911509   5.560747   6.954497   7.215480
    18  H    5.255997   5.501576   4.844330   6.636854   6.907986
    19  C    3.576617   4.002806   3.478872   4.848095   5.113644
    20  C    4.091985   4.822212   3.876449   5.051591   4.861751
    21  H    3.564676   4.456617   3.257816   4.318019   3.935618
    22  H    4.949310   5.649757   4.547751   5.938724   5.675643
    23  H    4.653785   5.402525   4.642644   5.460674   5.179377
    24  C    2.517273   2.782702   2.720998   3.864347   4.451442
    25  H    2.884614   2.715909   3.165133   4.309296   5.169191
    26  C    1.532986   2.157230   2.175449   2.529720   3.115518
    27  H    2.171623   3.066818   2.590955   2.709857   2.722236
    28  H    2.163478   2.463747   3.074742   2.822916   3.560072
                    6          7          8          9         10
     6  H    0.000000
     7  H    1.751542   0.000000
     8  H    1.780663   1.773888   0.000000
     9  C    2.737311   3.363782   3.024011   0.000000
    10  H    3.794431   4.225640   3.984052   1.089219   0.000000
    11  C    2.813869   4.085292   3.424765   1.496326   2.182063
    12  H    2.177393   3.717091   2.919544   2.176176   3.103979
    13  H    3.704046   4.909044   3.943037   2.128468   2.500612
    14  H    3.350699   4.692155   4.327965   2.132567   2.538910
    15  C    7.606825   6.030120   6.648509   7.276416   7.268314
    16  H    8.005753   6.538369   7.103642   7.301884   7.129994
    17  H    8.268731   6.689315   7.141502   8.023394   8.051768
    18  H    7.874773   6.223188   7.092638   7.748122   7.775163
    19  C    6.159914   4.607135   5.145713   5.974904   6.101631
    20  C    5.849562   4.187502   4.775598   6.322565   6.690786
    21  H    4.865904   3.168531   3.929260   5.643333   6.139096
    22  H    6.594360   4.869291   5.666864   7.235430   7.603386
    23  H    6.179335   4.635588   4.857972   6.688762   7.097340
    24  C    5.507602   4.185482   4.540126   4.846859   4.859154
    25  H    6.185858   5.010003   5.326722   5.069981   4.842818
    26  C    4.183276   3.103102   3.139118   3.545474   3.752148
    27  H    3.811583   2.586984   2.517295   3.886781   4.353999
    28  H    4.581054   3.830585   3.371049   3.513573   3.600175
                   11         12         13         14         15
    11  C    0.000000
    12  H    1.092541   0.000000
    13  H    1.094478   1.762773   0.000000
    14  H    1.094005   1.770466   1.773788   0.000000
    15  C    8.680356   8.877417   9.102548   9.352661   0.000000
    16  H    8.754373   9.081228   9.119708   9.380364   1.095084
    17  H    9.380663   9.526982   9.735783  10.124958   1.094936
    18  H    9.153498   9.316327   9.678563   9.752120   1.094865
    19  C    7.322847   7.447849   7.763712   8.045196   1.504864
    20  C    7.511854   7.416528   8.021026   8.277829   2.538122
    21  H    6.750761   6.571703   7.346719   7.484888   3.418063
    22  H    8.428127   8.304684   9.000656   9.138918   2.614099
    23  H    7.785281   7.630732   8.184982   8.645506   3.064910
    24  C    6.243432   6.501753   6.622061   6.957374   2.486873
    25  H    6.520506   6.941496   6.825302   7.163320   2.674447
    26  C    4.853387   5.048616   5.225597   5.650841   3.919020
    27  H    4.998778   4.954961   5.412527   5.865530   4.188796
    28  H    4.724214   5.006057   4.865312   5.605044   4.491287
                   16         17         18         19         20
    16  H    0.000000
    17  H    1.768744   0.000000
    18  H    1.768331   1.778577   0.000000
    19  C    2.171136   2.143813   2.146043   0.000000
    20  C    3.489885   2.800203   2.806163   1.503071   0.000000
    21  H    4.270509   3.844780   3.575334   2.166843   1.094339
    22  H    3.678228   2.791198   2.485849   2.153652   1.096183
    23  H    3.992902   2.965259   3.532752   2.143095   1.094180
    24  C    2.621498   3.198578   3.200614   1.349341   2.517070
    25  H    2.340499   3.431842   3.428406   2.103642   3.492911
    26  C    4.125340   4.534559   4.560888   2.546835   3.075208
    27  H    4.643189   4.664556   4.763522   2.695136   2.644968
    28  H    4.556856   4.968216   5.290199   3.245662   3.858333
                   21         22         23         24         25
    21  H    0.000000
    22  H    1.752287   0.000000
    23  H    1.782127   1.773603   0.000000
    24  C    2.742140   3.369459   3.019272   0.000000
    25  H    3.798194   4.230069   3.977581   1.088472   0.000000
    26  C    2.814918   4.087658   3.403256   1.505232   2.197104
    27  H    2.184406   3.688377   2.813405   2.151567   3.087374
    28  H    3.727300   4.919899   3.941995   2.122260   2.483894
                   26         27         28
    26  C    0.000000
    27  H    1.094006   0.000000
    28  H    1.096613   1.746044   0.000000
 Stoichiometry    C10H18
 Framework group  C1[X(C10H18)]
 Deg. of freedom    78
 Full point group                 C1      NOp   1
 Largest Abelian subgroup         C1      NOp   1
 Largest concise Abelian subgroup C1      NOp   1
                         Standard orientation:                         
 ---------------------------------------------------------------------
 Center     Atomic      Atomic             Coordinates (Angstroms)
 Number     Number       Type             X           Y           Z
 ---------------------------------------------------------------------
      1          6           0        0.622747   -0.601625   -0.528545
      2          1           0        0.722739   -1.688593   -0.651878
      3          1           0        0.247698   -0.222716   -1.488492
      4          6           0        1.974230    0.032032   -0.252075
      5          6           0        1.988027    1.537390   -0.206560
      6          1           0        2.921744    1.955744   -0.591934
      7          1           0        1.185876    1.953518   -0.825721
      8          1           0        1.840878    1.884304    0.821356
      9          6           0        3.072779   -0.728007   -0.074687
     10          1           0        2.978075   -1.811174   -0.139319
     11          6           0        4.455110   -0.251090    0.242650
     12          1           0        4.525311    0.832730    0.361195
     13          1           0        4.792413   -0.705634    1.179399
     14          1           0        5.143670   -0.551978   -0.552459
     15          6           0       -4.202085   -0.685396   -0.218800
     16          1           0       -4.151049   -1.778953   -0.245925
     17          1           0       -4.918945   -0.404220    0.559620
     18          1           0       -4.585638   -0.345951   -1.186475
     19          6           0       -2.862933   -0.058294    0.060538
     20          6           0       -2.861996    1.443691    0.117668
     21          1           0       -1.932932    1.870222   -0.272831
     22          1           0       -3.671184    1.859398   -0.493903
     23          1           0       -3.005035    1.782888    1.148065
     24          6           0       -1.762625   -0.816949    0.246247
     25          1           0       -1.853238   -1.899758    0.182335
     26          6           0       -0.385336   -0.316793    0.590690
     27          1           0       -0.407643    0.752522    0.820727
     28          1           0       -0.060247   -0.812112    1.513477
 ---------------------------------------------------------------------
 Rotational constants (GHZ):           3.5828227           0.4560453           0.4205699
 Leave Link  202 at Fri Sep 17 20:09:25 2021, MaxMem=   524288000 cpu:               0.0 elap:               0.2
 (Enter /opt/gaussian/g16_legacy/l301.exe)
 Standard basis: 6-31G(d,p) (6D, 7F)
 Ernie: Thresh=  0.10000D-02 Tol=  0.10000D-05 Strict=F.
 There are   240 symmetry adapted cartesian basis functions of A   symmetry.
 There are   240 symmetry adapted basis functions of A   symmetry.
   240 basis functions,   406 primitive gaussians,   240 cartesian basis functions
    39 alpha electrons       39 beta electrons
       nuclear repulsion energy       509.3158758100 Hartrees.
 IExCor=    0 DFT=F Ex=HF Corr=None ExCW=0 ScaHFX=  1.000000
 ScaDFX=  1.000000  1.000000  1.000000  1.000000 ScalE2=  1.000000  1.000000
 IRadAn=      5 IRanWt=     -1 IRanGd=            0 ICorTp=0 IEmpDi=  4
 NAtoms=   28 NActive=   28 NUniq=   28 SFac= 1.00D+00 NAtFMM=   60 NAOKFM=F Big=F
 Integral buffers will be    131072 words long.
 Raffenetti 1 integral format.
 Two-electron integral symmetry is turned on.
 Leave Link  301 at Fri Sep 17 20:09:26 2021, MaxMem=   524288000 cpu:               0.0 elap:               0.1
 (Enter /opt/gaussian/g16_legacy/l302.exe)
 NPDir=0 NMtPBC=     1 NCelOv=     1 NCel=       1 NClECP=     1 NCelD=      1
         NCelK=      1 NCelE2=     1 NClLst=     1 CellRange=     0.0.
 One-electron integrals computed using PRISM.
 One-electron integral symmetry used in STVInt
 NBasis=   240 RedAO= T EigKep=  2.34D-03  NBF=   240
 NBsUse=   240 1.00D-06 EigRej= -1.00D+00 NBFU=   240
 Leave Link  302 at Fri Sep 17 20:09:26 2021, MaxMem=   524288000 cpu:               0.2 elap:               0.4
 (Enter /opt/gaussian/g16_legacy/l303.exe)
 DipDrv:  MaxL=1.
 Leave Link  303 at Fri Sep 17 20:09:26 2021, MaxMem=   524288000 cpu:               0.0 elap:               0.2
 (Enter /opt/gaussian/g16_legacy/l401.exe)
 ExpMin= 1.61D-01 ExpMax= 3.05D+03 ExpMxC= 4.57D+02 IAcc=3 IRadAn=         5 AccDes= 0.00D+00
 Harris functional with IExCor=  205 and IRadAn=       5 diagonalized for initial guess.
 HarFok:  IExCor=  205 AccDes= 0.00D+00 IRadAn=         5 IDoV= 1 UseB2=F ITyADJ=14
 ICtDFT=  3500011 ScaDFX=  1.000000  1.000000  1.000000  1.000000
 FoFCou: FMM=F IPFlag=           0 FMFlag=      100000 FMFlg1=           0
         NFxFlg=           0 DoJE=T BraDBF=F KetDBF=T FulRan=T
         wScrn=  0.000000 ICntrl=       500 IOpCl=  0 I1Cent=   200000004 NGrid=           0
         NMat0=    1 NMatS0=      1 NMatT0=    0 NMatD0=    1 NMtDS0=    0 NMtDT0=    0
 Petite list used in FoFCou.
 Harris En= -390.109628386022    
 JPrj=0 DoOrth=F DoCkMO=F.
 Leave Link  401 at Fri Sep 17 20:09:33 2021, MaxMem=   524288000 cpu:               6.1 elap:               6.3
 (Enter /opt/gaussian/g16_legacy/l502.exe)
 Keep R1 ints in memory in canonical form, NReq=425198025.
 FoFCou: FMM=F IPFlag=           0 FMFlag=           0 FMFlg1=           0
         NFxFlg=           0 DoJE=F BraDBF=F KetDBF=F FulRan=T
         wScrn=  0.000000 ICntrl=       600 IOpCl=  0 I1Cent=           0 NGrid=           0
         NMat0=    1 NMatS0=  28920 NMatT0=    0 NMatD0=    1 NMtDS0=    0 NMtDT0=    0
 Symmetry not used in FoFCou.
 Two-electron integral symmetry not used.
 Closed shell SCF:
 Using DIIS extrapolation, IDIIS=  1040.
 NGot=   524288000 LenX=   105970886 LenY=   105912845
 Requested convergence on RMS density matrix=1.00D-08 within 128 cycles.
 Requested convergence on MAX density matrix=1.00D-06.
 Requested convergence on             energy=1.00D-06.
 No special actions if energy rises.

 Cycle   1  Pass 1  IDiag  1:
 E= -388.530465280996    
 DIIS: error= 6.29D-02 at cycle   1 NSaved=   1.
 NSaved= 1 IEnMin= 1 EnMin= -388.530465280996     IErMin= 1 ErrMin= 6.29D-02
 ErrMax= 6.29D-02  0.00D+00 EMaxC= 1.00D-01 BMatC= 8.08D-01 BMatP= 8.08D-01
 IDIUse=3 WtCom= 3.71D-01 WtEn= 6.29D-01
 Coeff-Com:  0.100D+01
 Coeff-En:   0.100D+01
 Coeff:      0.100D+01
 Gap=     0.511 Goal=   None    Shift=    0.000
 GapD=    0.511 DampG=2.000 DampE=0.500 DampFc=1.0000 IDamp=-1.
 RMSDP=4.00D-03 MaxDP=1.14D-01              OVMax= 1.39D-01

 Cycle   2  Pass 1  IDiag  1:
 E= -389.072426286481     Delta-E=       -0.541961005486 Rises=F Damp=F
 DIIS: error= 1.28D-02 at cycle   2 NSaved=   2.
 NSaved= 2 IEnMin= 2 EnMin= -389.072426286481     IErMin= 2 ErrMin= 1.28D-02
 ErrMax= 1.28D-02  0.00D+00 EMaxC= 1.00D-01 BMatC= 8.63D-02 BMatP= 8.08D-01
 IDIUse=3 WtCom= 8.72D-01 WtEn= 1.28D-01
 Coeff-Com:  0.183D+00 0.817D+00
 Coeff-En:   0.000D+00 0.100D+01
 Coeff:      0.159D+00 0.841D+00
 Gap=     0.547 Goal=   None    Shift=    0.000
 RMSDP=1.61D-03 MaxDP=3.02D-02 DE=-5.42D-01 OVMax= 4.43D-02

 Cycle   3  Pass 1  IDiag  1:
 E= -389.149687661238     Delta-E=       -0.077261374756 Rises=F Damp=F
 DIIS: error= 2.79D-03 at cycle   3 NSaved=   3.
 NSaved= 3 IEnMin= 3 EnMin= -389.149687661238     IErMin= 3 ErrMin= 2.79D-03
 ErrMax= 2.79D-03  0.00D+00 EMaxC= 1.00D-01 BMatC= 2.93D-03 BMatP= 8.63D-02
 IDIUse=3 WtCom= 9.72D-01 WtEn= 2.79D-02
 Coeff-Com: -0.243D-01 0.998D-01 0.924D+00
 Coeff-En:   0.000D+00 0.000D+00 0.100D+01
 Coeff:     -0.236D-01 0.970D-01 0.927D+00
 Gap=     0.502 Goal=   None    Shift=    0.000
 RMSDP=2.51D-04 MaxDP=6.38D-03 DE=-7.73D-02 OVMax= 1.01D-02

 Cycle   4  Pass 1  IDiag  1:
 E= -389.153073267865     Delta-E=       -0.003385606627 Rises=F Damp=F
 DIIS: error= 4.18D-04 at cycle   4 NSaved=   4.
 NSaved= 4 IEnMin= 4 EnMin= -389.153073267865     IErMin= 4 ErrMin= 4.18D-04
 ErrMax= 4.18D-04  0.00D+00 EMaxC= 1.00D-01 BMatC= 9.97D-05 BMatP= 2.93D-03
 IDIUse=3 WtCom= 9.96D-01 WtEn= 4.18D-03
 Coeff-Com: -0.459D-02-0.734D-03 0.110D+00 0.896D+00
 Coeff-En:   0.000D+00 0.000D+00 0.000D+00 0.100D+01
 Coeff:     -0.457D-02-0.731D-03 0.109D+00 0.896D+00
 Gap=     0.502 Goal=   None    Shift=    0.000
 RMSDP=7.31D-05 MaxDP=1.82D-03 DE=-3.39D-03 OVMax= 3.57D-03

 Cycle   5  Pass 1  IDiag  1:
 E= -389.153200987347     Delta-E=       -0.000127719482 Rises=F Damp=F
 DIIS: error= 1.76D-04 at cycle   5 NSaved=   5.
 NSaved= 5 IEnMin= 5 EnMin= -389.153200987347     IErMin= 5 ErrMin= 1.76D-04
 ErrMax= 1.76D-04  0.00D+00 EMaxC= 1.00D-01 BMatC= 1.90D-05 BMatP= 9.97D-05
 IDIUse=3 WtCom= 9.98D-01 WtEn= 1.76D-03
 Coeff-Com:  0.231D-02-0.148D-01-0.101D+00 0.201D+00 0.913D+00
 Coeff-En:   0.000D+00 0.000D+00 0.000D+00 0.000D+00 0.100D+01
 Coeff:      0.231D-02-0.148D-01-0.101D+00 0.201D+00 0.913D+00
 Gap=     0.502 Goal=   None    Shift=    0.000
 RMSDP=3.10D-05 MaxDP=7.37D-04 DE=-1.28D-04 OVMax= 9.45D-04

 Cycle   6  Pass 1  IDiag  1:
 E= -389.153225573674     Delta-E=       -0.000024586327 Rises=F Damp=F
 DIIS: error= 3.15D-05 at cycle   6 NSaved=   6.
 NSaved= 6 IEnMin= 6 EnMin= -389.153225573674     IErMin= 6 ErrMin= 3.15D-05
 ErrMax= 3.15D-05  0.00D+00 EMaxC= 1.00D-01 BMatC= 5.63D-07 BMatP= 1.90D-05
 IDIUse=1 WtCom= 1.00D+00 WtEn= 0.00D+00
 Coeff-Com:  0.703D-03-0.304D-02-0.254D-01-0.922D-02 0.147D+00 0.890D+00
 Coeff:      0.703D-03-0.304D-02-0.254D-01-0.922D-02 0.147D+00 0.890D+00
 Gap=     0.502 Goal=   None    Shift=    0.000
 RMSDP=5.93D-06 MaxDP=1.60D-04 DE=-2.46D-05 OVMax= 3.17D-04

 Cycle   7  Pass 1  IDiag  1:
 E= -389.153226515929     Delta-E=       -0.000000942256 Rises=F Damp=F
 DIIS: error= 7.12D-06 at cycle   7 NSaved=   7.
 NSaved= 7 IEnMin= 7 EnMin= -389.153226515929     IErMin= 7 ErrMin= 7.12D-06
 ErrMax= 7.12D-06  0.00D+00 EMaxC= 1.00D-01 BMatC= 4.56D-08 BMatP= 5.63D-07
 IDIUse=1 WtCom= 1.00D+00 WtEn= 0.00D+00
 Coeff-Com: -0.474D-04 0.410D-03 0.289D-02-0.795D-02-0.444D-01 0.913D-01
 Coeff-Com:  0.958D+00
 Coeff:     -0.474D-04 0.410D-03 0.289D-02-0.795D-02-0.444D-01 0.913D-01
 Coeff:      0.958D+00
 Gap=     0.502 Goal=   None    Shift=    0.000
 RMSDP=1.67D-06 MaxDP=4.69D-05 DE=-9.42D-07 OVMax= 8.43D-05

 Cycle   8  Pass 1  IDiag  1:
 E= -389.153226599672     Delta-E=       -0.000000083742 Rises=F Damp=F
 DIIS: error= 3.96D-06 at cycle   8 NSaved=   8.
 NSaved= 8 IEnMin= 8 EnMin= -389.153226599672     IErMin= 8 ErrMin= 3.96D-06
 ErrMax= 3.96D-06  0.00D+00 EMaxC= 1.00D-01 BMatC= 5.98D-09 BMatP= 4.56D-08
 IDIUse=1 WtCom= 1.00D+00 WtEn= 0.00D+00
 Coeff-Com: -0.681D-04 0.279D-03 0.247D-02 0.348D-02-0.191D-01-0.875D-01
 Coeff-Com: -0.738D-01 0.117D+01
 Coeff:     -0.681D-04 0.279D-03 0.247D-02 0.348D-02-0.191D-01-0.875D-01
 Coeff:     -0.738D-01 0.117D+01
 Gap=     0.502 Goal=   None    Shift=    0.000
 RMSDP=7.94D-07 MaxDP=2.69D-05 DE=-8.37D-08 OVMax= 5.93D-05

 Cycle   9  Pass 1  IDiag  1:
 E= -389.153226616766     Delta-E=       -0.000000017094 Rises=F Damp=F
 DIIS: error= 1.40D-06 at cycle   9 NSaved=   9.
 NSaved= 9 IEnMin= 9 EnMin= -389.153226616766     IErMin= 9 ErrMin= 1.40D-06
 ErrMax= 1.40D-06  0.00D+00 EMaxC= 1.00D-01 BMatC= 8.21D-10 BMatP= 5.98D-09
 IDIUse=1 WtCom= 1.00D+00 WtEn= 0.00D+00
 Coeff-Com:  0.149D-04-0.881D-04-0.695D-03 0.117D-02 0.483D-02 0.106D-01
 Coeff-Com: -0.886D-01-0.227D+00 0.130D+01
 Coeff:      0.149D-04-0.881D-04-0.695D-03 0.117D-02 0.483D-02 0.106D-01
 Coeff:     -0.886D-01-0.227D+00 0.130D+01
 Gap=     0.502 Goal=   None    Shift=    0.000
 RMSDP=3.44D-07 MaxDP=1.36D-05 DE=-1.71D-08 OVMax= 3.00D-05

 Cycle  10  Pass 1  IDiag  1:
 E= -389.153226619501     Delta-E=       -0.000000002735 Rises=F Damp=F
 DIIS: error= 3.61D-07 at cycle  10 NSaved=  10.
 NSaved=10 IEnMin=10 EnMin= -389.153226619501     IErMin=10 ErrMin= 3.61D-07
 ErrMax= 3.61D-07  0.00D+00 EMaxC= 1.00D-01 BMatC= 9.66D-11 BMatP= 8.21D-10
 IDIUse=1 WtCom= 1.00D+00 WtEn= 0.00D+00
 Coeff-Com:  0.927D-05-0.422D-04-0.360D-03-0.140D-03 0.206D-02 0.130D-01
 Coeff-Com:  0.176D-02-0.180D+00 0.133D+00 0.103D+01
 Coeff:      0.927D-05-0.422D-04-0.360D-03-0.140D-03 0.206D-02 0.130D-01
 Coeff:      0.176D-02-0.180D+00 0.133D+00 0.103D+01
 Gap=     0.502 Goal=   None    Shift=    0.000
 RMSDP=1.09D-07 MaxDP=3.13D-06 DE=-2.73D-09 OVMax= 8.46D-06

 Cycle  11  Pass 1  IDiag  1:
 E= -389.153226619762     Delta-E=       -0.000000000260 Rises=F Damp=F
 DIIS: error= 1.65D-07 at cycle  11 NSaved=  11.
 NSaved=11 IEnMin=11 EnMin= -389.153226619762     IErMin=11 ErrMin= 1.65D-07
 ErrMax= 1.65D-07  0.00D+00 EMaxC= 1.00D-01 BMatC= 7.78D-12 BMatP= 9.66D-11
 IDIUse=1 WtCom= 1.00D+00 WtEn= 0.00D+00
 Coeff-Com: -0.235D-06 0.338D-05 0.242D-04-0.117D-03-0.417D-03 0.116D-02
 Coeff-Com:  0.112D-01-0.151D-02-0.117D+00 0.155D+00 0.952D+00
 Coeff:     -0.235D-06 0.338D-05 0.242D-04-0.117D-03-0.417D-03 0.116D-02
 Coeff:      0.112D-01-0.151D-02-0.117D+00 0.155D+00 0.952D+00
 Gap=     0.502 Goal=   None    Shift=    0.000
 RMSDP=2.50D-08 MaxDP=1.17D-06 DE=-2.60D-10 OVMax= 2.23D-06

 Cycle  12  Pass 1  IDiag  1:
 E= -389.153226619769     Delta-E=       -0.000000000008 Rises=F Damp=F
 DIIS: error= 3.75D-08 at cycle  12 NSaved=  12.
 NSaved=12 IEnMin=12 EnMin= -389.153226619769     IErMin=12 ErrMin= 3.75D-08
 ErrMax= 3.75D-08  0.00D+00 EMaxC= 1.00D-01 BMatC= 9.00D-13 BMatP= 7.78D-12
 IDIUse=1 WtCom= 1.00D+00 WtEn= 0.00D+00
 Coeff-Com: -0.978D-06 0.499D-05 0.416D-04 0.704D-06-0.307D-03-0.117D-02
 Coeff-Com:  0.150D-02 0.178D-01-0.339D-01-0.942D-01 0.142D+00 0.968D+00
 Coeff:     -0.978D-06 0.499D-05 0.416D-04 0.704D-06-0.307D-03-0.117D-02
 Coeff:      0.150D-02 0.178D-01-0.339D-01-0.942D-01 0.142D+00 0.968D+00
 Gap=     0.502 Goal=   None    Shift=    0.000
 RMSDP=9.57D-09 MaxDP=2.75D-07 DE=-7.84D-12 OVMax= 6.17D-07

 SCF Done:  E(RHF) =  -389.153226620     A.U. after   12 cycles
            NFock= 12  Conv=0.96D-08     -V/T= 2.0013
 KE= 3.886291605246D+02 PE=-1.923317277615D+03 EE= 6.362190146610D+02
 Leave Link  502 at Fri Sep 17 20:09:50 2021, MaxMem=   524288000 cpu:              17.2 elap:              17.4
 (Enter /opt/gaussian/g16_legacy/l801.exe)
 ExpMin= 1.61D-01 ExpMax= 3.05D+03 ExpMxC= 4.57D+02 IAcc=3 IRadAn=         5 AccDes= 0.00D+00
 HarFok:  IExCor=  205 AccDes= 0.00D+00 IRadAn=         5 IDoV=-2 UseB2=F ITyADJ=14
 ICtDFT= 12500011 ScaDFX=  1.000000  1.000000  1.000000  1.000000
 Largest valence mixing into a core orbital is  1.97D-04
 Largest core mixing into a valence orbital is  3.51D-05
 Range of M.O.s used for correlation:    11   240
 NBasis=   240 NAE=    39 NBE=    39 NFC=    10 NFV=     0
 NROrb=    230 NOA=    29 NOB=    29 NVA=   201 NVB=   201
 Leave Link  801 at Fri Sep 17 20:09:51 2021, MaxMem=   524288000 cpu:               1.0 elap:               1.1
 (Enter /opt/gaussian/g16_legacy/l906.exe)
 Frozen-core derivative calculation, NFC=  10 NFV=   0.
 FulOut=F Deriv=T AODrv=T NAtomX=    28
   MMem=          91  MDisk=          29 MDiskD=          29
  W3Min=     2246400 MinDsk=     2795480 NBas6D=         240
 NBas2D=       29244    NTT=       28920    LW2=     2040000
    MDV=   523634206 MDiskM=       30187 NBas2p=       23583
 Fully direct method using O(ONN) memory.
 IMap=   1   2   3   4   5   6   7   8   9  10  11  12  13  14  15  16  17  18  19  20
 IMap=  21  22  23  24  25  26  27  28  29  30  31  32  33  34  35  36  37  38  39
 JobTyp=1 Pass  1:  I=  11 to  39 NPSUse=  1 ParTrn=F ParDer=F DoDerP=T.
 Spin components of T(2) and E(2):
     alpha-alpha T2 =       0.5710258369D-01 E2=     -0.1637807728D+00
     alpha-beta  T2 =       0.3618649784D+00 E2=     -0.1089523441D+01
     beta-beta   T2 =       0.5710258369D-01 E2=     -0.1637807728D+00
 The integrals were generated   1 times.
 ANorm=    0.1214936272D+01
 E2 =    -0.1417084987D+01 EUMP2 =    -0.39057031160627D+03
 Leave Link  906 at Fri Sep 17 20:12:04 2021, MaxMem=   524288000 cpu:             132.4 elap:             132.6
 (Enter /opt/gaussian/g16_legacy/l1002.exe)
 Minotr:  Closed shell wavefunction.
          Computing MP2/KS-MP2 derivatives.
          Using Z-Vector for PSCF gradient.
          Skipping F1 and S1 gradient terms here.
          IDoAtm=1111111111111111111111111111
          Frozen-core window.
          Direct CPHF calculation.
          Differentiating once with respect to electric field.
                with respect to dipole field.
          Differentiating once with respect to nuclear coordinates.
          Requested convergence is 1.0D-10 RMS, and 1.0D-09 maximum.
          NewPWx=F KeepS1=T KeepF1=T KeepIn=T MapXYZ=F SortEE=F KeepMc=T.
 Keep R1 ints in memory in canonical form, NReq=425201067.
 FoFCou: FMM=F IPFlag=           0 FMFlag=           0 FMFlg1=           0
         NFxFlg=           0 DoJE=F BraDBF=F KetDBF=F FulRan=T
         wScrn=  0.000000 ICntrl=       600 IOpCl=  0 I1Cent=           0 NGrid=           0
         NMat0=    1 NMatS0=  28920 NMatT0=    0 NMatD0=    1 NMtDS0=    0 NMtDT0=    0
 Symmetry not used in FoFCou.
 Two-electron integral symmetry not used.
          MDV=     524288000 using IRadAn=       5.
          Solving linear equations separately, MaxMat=       0.
          There are     1 degrees of freedom in the 1st order CPHF.  IDoFFX=0 NUNeed=     1.
 LinEq1:  Iter=  0 NonCon=     1 RMS=2.55D-03 Max=3.86D-02 NDo=     1
 AX will form     1 AO Fock derivatives at one time.
 LinEq1:  Iter=  1 NonCon=     1 RMS=6.89D-04 Max=1.03D-02 NDo=     1
 LinEq1:  Iter=  2 NonCon=     1 RMS=1.63D-04 Max=4.47D-03 NDo=     1
 LinEq1:  Iter=  3 NonCon=     1 RMS=4.62D-05 Max=5.11D-04 NDo=     1
 LinEq1:  Iter=  4 NonCon=     1 RMS=2.08D-05 Max=8.60D-04 NDo=     1
 LinEq1:  Iter=  5 NonCon=     1 RMS=4.96D-06 Max=8.01D-05 NDo=     1
 LinEq1:  Iter=  6 NonCon=     1 RMS=1.43D-06 Max=2.14D-05 NDo=     1
 LinEq1:  Iter=  7 NonCon=     1 RMS=3.79D-07 Max=3.45D-06 NDo=     1
 LinEq1:  Iter=  8 NonCon=     1 RMS=9.06D-08 Max=1.51D-06 NDo=     1
 LinEq1:  Iter=  9 NonCon=     1 RMS=2.18D-08 Max=5.43D-07 NDo=     1
 LinEq1:  Iter= 10 NonCon=     1 RMS=7.46D-09 Max=1.86D-07 NDo=     1
 LinEq1:  Iter= 11 NonCon=     1 RMS=2.61D-09 Max=8.23D-08 NDo=     1
 LinEq1:  Iter= 12 NonCon=     1 RMS=8.92D-10 Max=1.38D-08 NDo=     1
 LinEq1:  Iter= 13 NonCon=     1 RMS=2.55D-10 Max=4.85D-09 NDo=     1
 LinEq1:  Iter= 14 NonCon=     0 RMS=5.82D-11 Max=5.82D-10 NDo=     1
 Linear equations converged to 1.000D-10 1.000D-09 after    14 iterations.
 End of Minotr F.D. properties file   721 does not exist.
 End of Minotr F.D. properties file   722 does not exist.
 End of Minotr F.D. properties file   788 does not exist.
 Leave Link 1002 at Fri Sep 17 20:12:24 2021, MaxMem=   524288000 cpu:              19.6 elap:              19.7
 (Enter /opt/gaussian/g16_legacy/l601.exe)
 Copying SCF densities to generalized density rwf, IOpCl= 0 IROHF=0.

 **********************************************************************

            Population analysis using the SCF density.

 **********************************************************************

 Orbital symmetries:
       Occupied  (A) (A) (A) (A) (A) (A) (A) (A) (A) (A) (A) (A)
                 (A) (A) (A) (A) (A) (A) (A) (A) (A) (A) (A) (A)
                 (A) (A) (A) (A) (A) (A) (A) (A) (A) (A) (A) (A)
                 (A) (A) (A)
       Virtual   (A) (A) (A) (A) (A) (A) (A) (A) (A) (A) (A) (A)
                 (A) (A) (A) (A) (A) (A) (A) (A) (A) (A) (A) (A)
                 (A) (A) (A) (A) (A) (A) (A) (A) (A) (A) (A) (A)
                 (A) (A) (A) (A) (A) (A) (A) (A) (A) (A) (A) (A)
                 (A) (A) (A) (A) (A) (A) (A) (A) (A) (A) (A) (A)
                 (A) (A) (A) (A) (A) (A) (A) (A) (A) (A) (A) (A)
                 (A) (A) (A) (A) (A) (A) (A) (A) (A) (A) (A) (A)
                 (A) (A) (A) (A) (A) (A) (A) (A) (A) (A) (A) (A)
                 (A) (A) (A) (A) (A) (A) (A) (A) (A) (A) (A) (A)
                 (A) (A) (A) (A) (A) (A) (A) (A) (A) (A) (A) (A)
                 (A) (A) (A) (A) (A) (A) (A) (A) (A) (A) (A) (A)
                 (A) (A) (A) (A) (A) (A) (A) (A) (A) (A) (A) (A)
                 (A) (A) (A) (A) (A) (A) (A) (A) (A) (A) (A) (A)
                 (A) (A) (A) (A) (A) (A) (A) (A) (A) (A) (A) (A)
                 (A) (A) (A) (A) (A) (A) (A) (A) (A) (A) (A) (A)
                 (A) (A) (A) (A) (A) (A) (A) (A) (A) (A) (A) (A)
                 (A) (A) (A) (A) (A) (A) (A) (A) (A)
 The electronic state is 1-A.
 Alpha  occ. eigenvalues --  -11.22894 -11.22516 -11.21813 -11.21797 -11.21706
 Alpha  occ. eigenvalues --  -11.21692 -11.21600 -11.21453 -11.21382 -11.21218
 Alpha  occ. eigenvalues --   -1.10524  -1.08304  -1.02070  -0.97254  -0.93618
 Alpha  occ. eigenvalues --   -0.92174  -0.87482  -0.81438  -0.70741  -0.69306
 Alpha  occ. eigenvalues --   -0.63976  -0.62340  -0.59964  -0.58838  -0.57963
 Alpha  occ. eigenvalues --   -0.57232  -0.55185  -0.54340  -0.53906  -0.52530
 Alpha  occ. eigenvalues --   -0.51526  -0.51042  -0.50812  -0.49713  -0.47023
 Alpha  occ. eigenvalues --   -0.46368  -0.44267  -0.32916  -0.31580
 Alpha virt. eigenvalues --    0.18661   0.19184   0.22301   0.24694   0.26171
 Alpha virt. eigenvalues --    0.26936   0.28035   0.29260   0.30209   0.30812
 Alpha virt. eigenvalues --    0.31691   0.32400   0.32693   0.33080   0.33381
 Alpha virt. eigenvalues --    0.34415   0.35940   0.37251   0.38339   0.39947
 Alpha virt. eigenvalues --    0.40419   0.41283   0.42869   0.44809   0.46259
 Alpha virt. eigenvalues --    0.51506   0.53692   0.61419   0.61983   0.70010
 Alpha virt. eigenvalues --    0.71299   0.71890   0.74496   0.76002   0.76409
 Alpha virt. eigenvalues --    0.77146   0.79218   0.80142   0.81675   0.82850
 Alpha virt. eigenvalues --    0.85193   0.87191   0.88105   0.90917   0.91857
 Alpha virt. eigenvalues --    0.93312   0.94777   0.96136   0.97907   0.99347
 Alpha virt. eigenvalues --    1.00272   1.02035   1.02924   1.04050   1.05736
 Alpha virt. eigenvalues --    1.07407   1.08052   1.08786   1.10804   1.12299
 Alpha virt. eigenvalues --    1.12462   1.13231   1.14112   1.14708   1.15200
 Alpha virt. eigenvalues --    1.15718   1.16751   1.17108   1.18006   1.19632
 Alpha virt. eigenvalues --    1.20992   1.22085   1.23386   1.26718   1.27529
 Alpha virt. eigenvalues --    1.29609   1.39072   1.40330   1.42816   1.47404
 Alpha virt. eigenvalues --    1.47611   1.54542   1.54899   1.56350   1.58018
 Alpha virt. eigenvalues --    1.61841   1.66156   1.67739   1.68138   1.70912
 Alpha virt. eigenvalues --    1.73209   1.81563   1.89270   1.92100   1.95650
 Alpha virt. eigenvalues --    1.99213   1.99663   2.02112   2.04769   2.07792
 Alpha virt. eigenvalues --    2.08973   2.10094   2.11038   2.13921   2.14661
 Alpha virt. eigenvalues --    2.15271   2.17353   2.20937   2.24551   2.26951
 Alpha virt. eigenvalues --    2.29199   2.30558   2.32011   2.35271   2.35673
 Alpha virt. eigenvalues --    2.36020   2.36617   2.39330   2.40218   2.40586
 Alpha virt. eigenvalues --    2.40761   2.41870   2.43819   2.44872   2.45769
 Alpha virt. eigenvalues --    2.46332   2.49331   2.49763   2.50410   2.55246
 Alpha virt. eigenvalues --    2.57288   2.58693   2.60156   2.63557   2.64947
 Alpha virt. eigenvalues --    2.66397   2.67396   2.70201   2.71296   2.73540
 Alpha virt. eigenvalues --    2.76245   2.77604   2.79175   2.84383   2.86475
 Alpha virt. eigenvalues --    2.87413   2.88479   2.89499   2.91353   2.93917
 Alpha virt. eigenvalues --    2.96638   3.00807   3.01684   3.02629   3.04247
 Alpha virt. eigenvalues --    3.06967   3.08298   3.09662   3.11569   3.13597
 Alpha virt. eigenvalues --    3.16923   3.18499   3.20039   3.21002   3.21830
 Alpha virt. eigenvalues --    3.22468   3.23943   3.26420   3.26951   3.37679
 Alpha virt. eigenvalues --    3.38551   3.43537   3.45455   3.55350   3.56326
 Alpha virt. eigenvalues --    3.60078   3.62281   3.65473   3.73527   3.77361
 Alpha virt. eigenvalues --    3.79120   3.79995   3.80991   3.81757   3.82512
 Alpha virt. eigenvalues --    3.82989   3.85674   3.86125   3.91752   3.92560
 Alpha virt. eigenvalues --    3.95005   4.59052   4.62245   4.74305   4.82265
 Alpha virt. eigenvalues --    4.89611   4.91249   4.91962   5.04847   5.09760
 Alpha virt. eigenvalues --    5.15790
          Condensed to atoms (all electrons):
               1          2          3          4          5          6
     1  C    4.966091   0.411797   0.405642   0.359876  -0.053190   0.002797
     2  H    0.411797   0.583172  -0.028518  -0.044632   0.003648  -0.000096
     3  H    0.405642  -0.028518   0.595370  -0.045614  -0.002884  -0.000018
     4  C    0.359876  -0.044632  -0.045614   4.952876   0.332750  -0.036457
     5  C   -0.053190   0.003648  -0.002884   0.332750   4.925419   0.406929
     6  H    0.002797  -0.000096  -0.000018  -0.036457   0.406929   0.563533
     7  H   -0.003870   0.000143   0.002091  -0.043513   0.405246  -0.029202
     8  H    0.000537  -0.000142  -0.000013  -0.041345   0.399748  -0.026628
     9  C   -0.040884  -0.001933  -0.000350   0.696785  -0.051485  -0.003520
    10  H   -0.006197   0.002366   0.000212  -0.036414   0.003337   0.000027
    11  C    0.003124   0.000152  -0.000117  -0.051358  -0.007169  -0.002040
    12  H    0.000120   0.000004   0.000000  -0.000648  -0.001772  -0.001215
    13  H   -0.000085  -0.000009  -0.000003  -0.000030   0.000179  -0.000092
    14  H   -0.000125  -0.000005   0.000017  -0.000726   0.000333   0.000299
    15  C   -0.000094   0.000001  -0.000033   0.000002  -0.000000   0.000000
    16  H   -0.000003   0.000001  -0.000002   0.000000  -0.000000   0.000000
    17  H   -0.000004   0.000000   0.000001   0.000000   0.000000   0.000000
    18  H    0.000017  -0.000000  -0.000004  -0.000000   0.000000  -0.000000
    19  C   -0.002007   0.000317   0.000767  -0.000063   0.000024  -0.000000
    20  C    0.000469  -0.000009  -0.000019  -0.000012  -0.000057   0.000001
    21  H    0.000573  -0.000012   0.000101  -0.000072   0.000124  -0.000003
    22  H    0.000009   0.000000  -0.000011  -0.000000   0.000000  -0.000000
    23  H   -0.000072   0.000000   0.000011   0.000003   0.000000  -0.000000
    24  C   -0.060512  -0.001962  -0.000249   0.005400  -0.000154   0.000001
    25  H   -0.001118   0.001340   0.000366  -0.000095  -0.000002   0.000000
    26  C    0.327176  -0.040554  -0.048078  -0.061180  -0.003041   0.000131
    27  H   -0.041136   0.004052  -0.001417  -0.003676  -0.000742   0.000068
    28  H   -0.045014  -0.003366   0.004729   0.000760   0.000111  -0.000011
               7          8          9         10         11         12
     1  C   -0.003870   0.000537  -0.040884  -0.006197   0.003124   0.000120
     2  H    0.000143  -0.000142  -0.001933   0.002366   0.000152   0.000004
     3  H    0.002091  -0.000013  -0.000350   0.000212  -0.000117   0.000000
     4  C   -0.043513  -0.041345   0.696785  -0.036414  -0.051358  -0.000648
     5  C    0.405246   0.399748  -0.051485   0.003337  -0.007169  -0.001772
     6  H   -0.029202  -0.026628  -0.003520   0.000027  -0.002040  -0.001215
     7  H    0.582885  -0.031401   0.002818  -0.000099   0.000150   0.000033
     8  H   -0.031401   0.575536  -0.004145  -0.000130   0.000663  -0.000230
     9  C    0.002818  -0.004145   4.943593   0.404723   0.339810  -0.041909
    10  H   -0.000099  -0.000130   0.404723   0.557809  -0.043204   0.003303
    11  C    0.000150   0.000663   0.339810  -0.043204   4.904917   0.408200
    12  H    0.000033  -0.000230  -0.041909   0.003303   0.408200   0.574796
    13  H   -0.000012   0.000168  -0.043312  -0.001835   0.402308  -0.029121
    14  H    0.000013  -0.000073  -0.044097  -0.000806   0.399999  -0.028055
    15  C    0.000000  -0.000000   0.000000  -0.000000   0.000000   0.000000
    16  H   -0.000000  -0.000000   0.000000   0.000000   0.000000   0.000000
    17  H   -0.000000   0.000000  -0.000000  -0.000000   0.000000  -0.000000
    18  H    0.000000  -0.000000   0.000000   0.000000  -0.000000  -0.000000
    19  C   -0.000009   0.000001  -0.000001  -0.000000   0.000000  -0.000000
    20  C   -0.000040  -0.000000  -0.000000   0.000000  -0.000000  -0.000000
    21  H    0.000512   0.000004   0.000000  -0.000000  -0.000000   0.000000
    22  H    0.000000  -0.000000   0.000000   0.000000  -0.000000   0.000000
    23  H   -0.000003   0.000001  -0.000000  -0.000000   0.000000   0.000000
    24  C   -0.000077  -0.000004  -0.000038  -0.000007   0.000001   0.000000
    25  H   -0.000000  -0.000001   0.000002   0.000000  -0.000000  -0.000000
    26  C   -0.001708   0.000554  -0.002874   0.000148  -0.000087  -0.000003
    27  H    0.000095  -0.001301   0.000415  -0.000002   0.000001  -0.000000
    28  H    0.000070   0.000073   0.000971   0.000052  -0.000029   0.000000
              13         14         15         16         17         18
     1  C   -0.000085  -0.000125  -0.000094  -0.000003  -0.000004   0.000017
     2  H   -0.000009  -0.000005   0.000001   0.000001   0.000000  -0.000000
     3  H   -0.000003   0.000017  -0.000033  -0.000002   0.000001  -0.000004
     4  C   -0.000030  -0.000726   0.000002   0.000000   0.000000  -0.000000
     5  C    0.000179   0.000333  -0.000000  -0.000000   0.000000   0.000000
     6  H   -0.000092   0.000299   0.000000   0.000000   0.000000  -0.000000
     7  H   -0.000012   0.000013   0.000000  -0.000000  -0.000000   0.000000
     8  H    0.000168  -0.000073  -0.000000  -0.000000   0.000000  -0.000000
     9  C   -0.043312  -0.044097   0.000000   0.000000  -0.000000   0.000000
    10  H   -0.001835  -0.000806  -0.000000   0.000000  -0.000000   0.000000
    11  C    0.402308   0.399999   0.000000   0.000000   0.000000  -0.000000
    12  H   -0.029121  -0.028055   0.000000   0.000000  -0.000000  -0.000000
    13  H    0.585281  -0.033215  -0.000000  -0.000000  -0.000000   0.000000
    14  H   -0.033215   0.587057   0.000000  -0.000000  -0.000000  -0.000000
    15  C   -0.000000   0.000000   4.895086   0.405659   0.400834   0.397100
    16  H   -0.000000  -0.000000   0.405659   0.570471  -0.027856  -0.027689
    17  H   -0.000000  -0.000000   0.400834  -0.027856   0.592950  -0.034671
    18  H    0.000000  -0.000000   0.397100  -0.027689  -0.034671   0.593790
    19  C    0.000000  -0.000000   0.352192  -0.041749  -0.047231  -0.043150
    20  C    0.000000  -0.000000  -0.059054   0.003850  -0.000018  -0.003035
    21  H   -0.000000   0.000000   0.003275  -0.000122  -0.000009  -0.000024
    22  H    0.000000   0.000000  -0.005330   0.000156  -0.000548   0.002175
    23  H   -0.000000   0.000000   0.001017  -0.000141   0.001140  -0.000129
    24  C   -0.000000   0.000000  -0.044729  -0.002250  -0.001465  -0.000280
    25  H    0.000000   0.000000  -0.006134   0.002310   0.000106   0.000216
    26  C    0.000018  -0.000004   0.003208   0.000132  -0.000122  -0.000092
    27  H    0.000000   0.000000   0.000139   0.000005  -0.000003  -0.000001
    28  H   -0.000005   0.000001  -0.000107  -0.000009   0.000017  -0.000003
              19         20         21         22         23         24
     1  C   -0.002007   0.000469   0.000573   0.000009  -0.000072  -0.060512
     2  H    0.000317  -0.000009  -0.000012   0.000000   0.000000  -0.001962
     3  H    0.000767  -0.000019   0.000101  -0.000011   0.000011  -0.000249
     4  C   -0.000063  -0.000012  -0.000072  -0.000000   0.000003   0.005400
     5  C    0.000024  -0.000057   0.000124   0.000000   0.000000  -0.000154
     6  H   -0.000000   0.000001  -0.000003  -0.000000  -0.000000   0.000001
     7  H   -0.000009  -0.000040   0.000512   0.000000  -0.000003  -0.000077
     8  H    0.000001  -0.000000   0.000004  -0.000000   0.000001  -0.000004
     9  C   -0.000001  -0.000000   0.000000   0.000000  -0.000000  -0.000038
    10  H   -0.000000   0.000000  -0.000000   0.000000  -0.000000  -0.000007
    11  C    0.000000  -0.000000  -0.000000  -0.000000   0.000000   0.000001
    12  H   -0.000000  -0.000000   0.000000   0.000000   0.000000   0.000000
    13  H    0.000000   0.000000  -0.000000   0.000000  -0.000000  -0.000000
    14  H   -0.000000  -0.000000   0.000000   0.000000   0.000000   0.000000
    15  C    0.352192  -0.059054   0.003275  -0.005330   0.001017  -0.044729
    16  H   -0.041749   0.003850  -0.000122   0.000156  -0.000141  -0.002250
    17  H   -0.047231  -0.000018  -0.000009  -0.000548   0.001140  -0.001465
    18  H   -0.043150  -0.003035  -0.000024   0.002175  -0.000129  -0.000280
    19  C    4.936787   0.337585  -0.037301  -0.042540  -0.041379   0.696634
    20  C    0.337585   4.924648   0.405452   0.406729   0.398088  -0.051074
    21  H   -0.037301   0.405452   0.569216  -0.030435  -0.026098  -0.003695
    22  H   -0.042540   0.406729  -0.030435   0.580739  -0.030259   0.002759
    23  H   -0.041379   0.398088  -0.026098  -0.030259   0.571967  -0.003677
    24  C    0.696634  -0.051074  -0.003695   0.002759  -0.003677   4.952339
    25  H   -0.034057   0.003275   0.000013  -0.000097  -0.000126   0.401063
    26  C   -0.049640  -0.007224  -0.002738   0.000209   0.000344   0.349174
    27  H    0.000009  -0.002273  -0.002184   0.000075  -0.000221  -0.045773
    28  H   -0.000101   0.000154  -0.000014  -0.000010   0.000153  -0.042018
              25         26         27         28
     1  C   -0.001118   0.327176  -0.041136  -0.045014
     2  H    0.001340  -0.040554   0.004052  -0.003366
     3  H    0.000366  -0.048078  -0.001417   0.004729
     4  C   -0.000095  -0.061180  -0.003676   0.000760
     5  C   -0.000002  -0.003041  -0.000742   0.000111
     6  H    0.000000   0.000131   0.000068  -0.000011
     7  H   -0.000000  -0.001708   0.000095   0.000070
     8  H   -0.000001   0.000554  -0.001301   0.000073
     9  C    0.000002  -0.002874   0.000415   0.000971
    10  H    0.000000   0.000148  -0.000002   0.000052
    11  C   -0.000000  -0.000087   0.000001  -0.000029
    12  H   -0.000000  -0.000003  -0.000000   0.000000
    13  H    0.000000   0.000018   0.000000  -0.000005
    14  H    0.000000  -0.000004   0.000000   0.000001
    15  C   -0.006134   0.003208   0.000139  -0.000107
    16  H    0.002310   0.000132   0.000005  -0.000009
    17  H    0.000106  -0.000122  -0.000003   0.000017
    18  H    0.000216  -0.000092  -0.000001  -0.000003
    19  C   -0.034057  -0.049640   0.000009  -0.000101
    20  C    0.003275  -0.007224  -0.002273   0.000154
    21  H    0.000013  -0.002738  -0.002184  -0.000014
    22  H   -0.000097   0.000209   0.000075  -0.000010
    23  H   -0.000126   0.000344  -0.000221   0.000153
    24  C    0.401063   0.349174  -0.045773  -0.042018
    25  H    0.554824  -0.041229   0.003312  -0.001968
    26  C   -0.041229   4.996420   0.418099   0.408155
    27  H    0.003312   0.418099   0.584009  -0.030272
    28  H   -0.001968   0.408155  -0.030272   0.583702
 Mulliken charges:
               1
     1  C   -0.223918
     2  H    0.114244
     3  H    0.118024
     4  C    0.017384
     5  C   -0.357353
     6  H    0.125497
     7  H    0.115878
     8  H    0.128128
     9  C   -0.154570
    10  H    0.116718
    11  C   -0.355320
    12  H    0.116497
    13  H    0.119763
    14  H    0.119388
    15  C   -0.343033
    16  H    0.117237
    17  H    0.116880
    18  H    0.115780
    19  C    0.014912
    20  C   -0.357436
    21  H    0.123440
    22  H    0.116380
    23  H    0.129382
    24  C   -0.149407
    25  H    0.117998
    26  C   -0.245193
    27  H    0.118720
    28  H    0.123982
 Sum of Mulliken charges =  -0.00000
 Mulliken charges with hydrogens summed into heavy atoms:
               1
     1  C    0.008350
     4  C    0.017384
     5  C    0.012151
     9  C   -0.037852
    11  C    0.000328
    15  C    0.006864
    19  C    0.014912
    20  C    0.011765
    24  C   -0.031410
    26  C   -0.002491
 Electronic spatial extent (au):  <R**2>=           2748.9105
 Charge=              0.0000 electrons
 Dipole moment (field-independent basis, Debye):
    X=             -0.2017    Y=              0.4131    Z=              0.0726  Tot=              0.4654
 Quadrupole moment (field-independent basis, Debye-Ang):
   XX=            -63.8980   YY=            -63.3921   ZZ=            -67.2517
   XY=             -0.5577   XZ=              0.7626   YZ=             -0.1277
 Traceless Quadrupole moment (field-independent basis, Debye-Ang):
   XX=              0.9493   YY=              1.4551   ZZ=             -2.4044
   XY=             -0.5577   XZ=              0.7626   YZ=             -0.1277
 Octapole moment (field-independent basis, Debye-Ang**2):
  XXX=             -3.1545  YYY=             -4.6952  ZZZ=              1.0642  XYY=              1.4185
  XXY=              2.9721  XXZ=             -0.1659  XZZ=             -1.1044  YZZ=              2.5748
  YYZ=             -0.0821  XYZ=             -0.7212
 Hexadecapole moment (field-independent basis, Debye-Ang**3):
 XXXX=          -3216.9811 YYYY=           -441.4113 ZZZZ=           -155.7608 XXXY=            -14.2151
 XXXZ=              2.3946 YYYX=              4.0970 YYYZ=              0.1476 ZZZX=              5.4768
 ZZZY=             -0.1731 XXYY=           -603.0238 XXZZ=           -572.1700 YYZZ=           -100.5144
 XXYZ=             -1.6252 YYXZ=              0.5058 ZZXY=             -4.6386
 N-N= 5.093158758100D+02 E-N=-1.923317276750D+03  KE= 3.886291605246D+02
 No NMR shielding tensors so no spin-rotation constants.
 Leave Link  601 at Fri Sep 17 20:12:24 2021, MaxMem=   524288000 cpu:               0.2 elap:               0.2
 (Enter /opt/gaussian/g16_legacy/l701.exe)
 ... and contract with generalized density number  2.
 Compute integral first derivatives.
 Leave Link  701 at Fri Sep 17 20:12:24 2021, MaxMem=   524288000 cpu:               0.2 elap:               0.2
 (Enter /opt/gaussian/g16_legacy/l702.exe)
 L702 exits ... SP integral derivatives will be done elsewhere.
 Leave Link  702 at Fri Sep 17 20:12:24 2021, MaxMem=   524288000 cpu:               0.0 elap:               0.0
 (Enter /opt/gaussian/g16_legacy/l703.exe)
 Integral derivatives from FoFJK, PRISM(SPDF).
 Compute integral first derivatives, UseDBF=F ICtDFT=           0.
 Calling FoFJK, ICntrl=  10002127 FMM=F ISym2X=0 I1Cent= 0 IOpClX= 0 NMat=1 NMatS=1 NMatT=0.
 FoFJK:  IHMeth= 1 ICntrl=10002127 DoSepK=F KAlg= 0 I1Cent=           0 FoldK=F
 IRaf=         0 NMat=       1 IRICut=       1 DoRegI=T DoRafI=F ISym2E= 0 IDoP0=0 IntGTp=1.
 FoFCou: FMM=F IPFlag=           0 FMFlag=      100000 FMFlg1=         800
         NFxFlg=           0 DoJE=F BraDBF=F KetDBF=F FulRan=T
         wScrn=  0.000000 ICntrl=  10002127 IOpCl=  0 I1Cent=           0 NGrid=           0
         NMat0=    1 NMatS0=      1 NMatT0=    0 NMatD0=    1 NMtDS0=    0 NMtDT0=    0
 Symmetry not used in FoFCou.
 Leave Link  703 at Fri Sep 17 20:12:42 2021, MaxMem=   524288000 cpu:              18.1 elap:              18.1
 (Enter /opt/gaussian/g16_legacy/l716.exe)
 Dipole        =-3.11299170D-02 1.45191008D-01 3.75162404D-02
 ***** Axes restored to original set *****
 -------------------------------------------------------------------
 Center     Atomic                   Forces (Hartrees/Bohr)
 Number     Number              X              Y              Z
 -------------------------------------------------------------------
      1        6           0.008308884   -0.004509767   -0.000662679
      2        1           0.002329229    0.002479525    0.001660696
      3        1          -0.002004994    0.001268014    0.003890878
      4        6          -0.004352628   -0.006084493   -0.008147036
      5        6           0.001251055    0.002669939    0.000528124
      6        1          -0.002421247   -0.001524688    0.003376130
      7        1          -0.000162690   -0.002868748    0.002679304
      8        1           0.001814954    0.003061311   -0.002733307
      9        6          -0.002691829    0.001523217    0.001987470
     10        1          -0.001567610    0.003051197    0.000168850
     11        6           0.002387989    0.001056429    0.000526540
     12        1          -0.002576223   -0.002421190   -0.001507073
     13        1           0.001976171    0.000514208   -0.002712333
     14        1           0.001073307   -0.000715404    0.003151675
     15        6          -0.000918734   -0.003858482   -0.001050408
     16        1           0.002559229    0.002902184    0.001437508
     17        1          -0.000136264    0.001243257   -0.003166528
     18        1          -0.001570060    0.000311510    0.003156493
     19        6          -0.000482090   -0.007861133   -0.006219224
     20        6           0.003298896    0.004338758   -0.001278115
     21        1          -0.002562091   -0.001245838    0.003991061
     22        1           0.000290286   -0.003620912    0.003067758
     23        1           0.001228320    0.002710553   -0.001992476
     24        6           0.001029062    0.003198690    0.005087747
     25        1          -0.001149030    0.001845366   -0.000364676
     26        6          -0.006339392    0.004154045    0.000034944
     27        1          -0.001232696   -0.001298960   -0.002334505
     28        1           0.002620196   -0.000318587   -0.002576820
 -------------------------------------------------------------------
 Cartesian Forces:  Max     0.008308884 RMS     0.002993933
 Leave Link  716 at Fri Sep 17 20:12:42 2021, MaxMem=   524288000 cpu:               0.0 elap:               0.0
 (Enter /opt/gaussian/g16_legacy/l103.exe)

 GradGradGradGradGradGradGradGradGradGradGradGradGradGradGradGradGradGrad
 Berny optimization.
 FormGI is forming the generalized inverse of G from B-inverse, IUseBI=4.
 Internal  Forces:  Max     0.005797965 RMS     0.002019456
 Search for a local minimum.
 Step number   1 out of a maximum of  138
 All quantities printed in internal units (Hartrees-Bohrs-Radians)
 RMS Force = .20195D-02 SwitMx=.10000D-02 MixMth= 1
 Mixed Optimization -- RFO/linear search
 Second derivative matrix not updated -- first step.
 ITU=  0
     Eigenvalues ---    0.00330   0.00527   0.00685   0.00697   0.00702
     Eigenvalues ---    0.00725   0.00815   0.01207   0.01281   0.01560
     Eigenvalues ---    0.01641   0.02759   0.02782   0.04068   0.04103
     Eigenvalues ---    0.05365   0.05391   0.07045   0.07069   0.07107
     Eigenvalues ---    0.07115   0.07271   0.07281   0.07325   0.07488
     Eigenvalues ---    0.09276   0.09338   0.12786   0.12810   0.15993
     Eigenvalues ---    0.15997   0.16000   0.16000   0.16000   0.16000
     Eigenvalues ---    0.16000   0.16000   0.16000   0.16000   0.16000
     Eigenvalues ---    0.16000   0.16000   0.16000   0.21886   0.21895
     Eigenvalues ---    0.22001   0.22002   0.24999   0.24999   0.25000
     Eigenvalues ---    0.25000   0.29149   0.30556   0.31745   0.31835
     Eigenvalues ---    0.31872   0.32057   0.32766   0.33848   0.33898
     Eigenvalues ---    0.34059   0.34108   0.34192   0.34232   0.34248
     Eigenvalues ---    0.34256   0.34262   0.34300   0.34316   0.34334
     Eigenvalues ---    0.34354   0.34354   0.34431   0.34521   0.34903
     Eigenvalues ---    0.34990   0.55162   0.55542
 RFO step:  Lambda=-3.26045873D-03 EMin= 3.29611231D-03
 Linear search not attempted -- first point.
 Iteration  1 RMS(Cart)=  0.06821362 RMS(Int)=  0.00106740
 Iteration  2 RMS(Cart)=  0.00190210 RMS(Int)=  0.00010224
 Iteration  3 RMS(Cart)=  0.00000149 RMS(Int)=  0.00010224
 Iteration  4 RMS(Cart)=  0.00000000 RMS(Int)=  0.00010224
 ITry= 1 IFail=0 DXMaxC= 2.03D-01 DCOld= 1.00D+10 DXMaxT= 3.00D-01 DXLimC= 3.00D+00 Rises=F
 Variable       Old X    -DE/DX   Delta X   Delta X   Delta X     New X
                                 (Linear)    (Quad)   (Total)
    R1        2.07587  -0.00339   0.00000  -0.00992  -0.00992   2.06595
    R2        2.07503  -0.00201   0.00000  -0.00586  -0.00586   2.06917
    R3        2.86869  -0.00580   0.00000  -0.01877  -0.01877   2.84992
    R4        2.89692   0.00097   0.00000   0.00328   0.00328   2.90020
    R5        2.84613   0.00223   0.00000   0.00695   0.00695   2.85308
    R6        2.54653  -0.00327   0.00000  -0.00585  -0.00585   2.54068
    R7        2.06609  -0.00344   0.00000  -0.00989  -0.00989   2.05620
    R8        2.07007  -0.00323   0.00000  -0.00937  -0.00937   2.06070
    R9        2.06889  -0.00229   0.00000  -0.00661  -0.00661   2.06228
   R10        2.05833  -0.00199   0.00000  -0.00566  -0.00566   2.05267
   R11        2.82765   0.00276   0.00000   0.00833   0.00833   2.83598
   R12        2.06460  -0.00359   0.00000  -0.01031  -0.01031   2.05429
   R13        2.06826  -0.00220   0.00000  -0.00636  -0.00636   2.06190
   R14        2.06737  -0.00164   0.00000  -0.00472  -0.00472   2.06265
   R15        2.06941  -0.00380   0.00000  -0.01100  -0.01100   2.05841
   R16        2.06913  -0.00190   0.00000  -0.00549  -0.00549   2.06364
   R17        2.06900  -0.00209   0.00000  -0.00605  -0.00605   2.06294
   R18        2.84378  -0.00004   0.00000  -0.00013  -0.00013   2.84365
   R19        2.84039   0.00365   0.00000   0.01126   0.01126   2.85165
   R20        2.54989  -0.00516   0.00000  -0.00929  -0.00929   2.54059
   R21        2.06800  -0.00374   0.00000  -0.01079  -0.01079   2.05721
   R22        2.07149  -0.00417   0.00000  -0.01211  -0.01211   2.05938
   R23        2.06770  -0.00161   0.00000  -0.00463  -0.00463   2.06307
   R24        2.05691  -0.00101   0.00000  -0.00286  -0.00286   2.05405
   R25        2.84448  -0.00225   0.00000  -0.00699  -0.00699   2.83748
   R26        2.06737  -0.00243   0.00000  -0.00701  -0.00701   2.06036
   R27        2.07230  -0.00150   0.00000  -0.00437  -0.00437   2.06793
    A1        1.84875   0.00169   0.00000   0.01481   0.01484   1.86359
    A2        1.93098  -0.00293   0.00000  -0.01832  -0.01830   1.91267
    A3        1.90253   0.00032   0.00000   0.00319   0.00322   1.90575
    A4        1.89574   0.00151   0.00000   0.01746   0.01762   1.91336
    A5        1.92789  -0.00453   0.00000  -0.03263  -0.03266   1.89523
    A6        1.95510   0.00375   0.00000   0.01498   0.01503   1.97013
    A7        2.01625   0.00088   0.00000   0.00356   0.00330   2.01955
    A8        2.11100  -0.00141   0.00000  -0.00543  -0.00569   2.10531
    A9        2.15589   0.00053   0.00000   0.00223   0.00197   2.15786
   A10        1.96019  -0.00088   0.00000  -0.00448  -0.00446   1.95573
   A11        1.93467  -0.00193   0.00000  -0.01059  -0.01055   1.92412
   A12        1.92182   0.00532   0.00000   0.03042   0.03048   1.95229
   A13        1.85541   0.00220   0.00000   0.01750   0.01751   1.87291
   A14        1.90126  -0.00285   0.00000  -0.01963  -0.01960   1.88166
   A15        1.88798  -0.00210   0.00000  -0.01470  -0.01463   1.87335
   A16        2.07394  -0.00335   0.00000  -0.01964  -0.01967   2.05428
   A17        2.21587   0.00094   0.00000   0.00426   0.00424   2.22011
   A18        1.99310   0.00242   0.00000   0.01565   0.01563   2.00873
   A19        1.98073  -0.00286   0.00000  -0.01678  -0.01671   1.96402
   A20        1.91118   0.00264   0.00000   0.01585   0.01582   1.92700
   A21        1.91734   0.00353   0.00000   0.02125   0.02123   1.93857
   A22        1.87478   0.00016   0.00000   0.00178   0.00184   1.87662
   A23        1.88731  -0.00036   0.00000  -0.00157  -0.00149   1.88582
   A24        1.89005  -0.00333   0.00000  -0.02187  -0.02200   1.86805
   A25        1.88027   0.00058   0.00000   0.00562   0.00566   1.88593
   A26        1.87972   0.00088   0.00000   0.00931   0.00934   1.88906
   A27        1.95979  -0.00249   0.00000  -0.01209  -0.01206   1.94773
   A28        1.89586  -0.00322   0.00000  -0.02590  -0.02590   1.86996
   A29        1.92158   0.00204   0.00000   0.01046   0.01048   1.93206
   A30        1.92475   0.00207   0.00000   0.01164   0.01166   1.93641
   A31        2.00868   0.00157   0.00000   0.00619   0.00610   2.01478
   A32        2.11402  -0.00024   0.00000  -0.00099  -0.00108   2.11294
   A33        2.16048  -0.00133   0.00000  -0.00528  -0.00537   2.15510
   A34        1.95675   0.00019   0.00000   0.00323   0.00323   1.95999
   A35        1.93616  -0.00201   0.00000  -0.01088  -0.01084   1.92533
   A36        1.92356   0.00411   0.00000   0.02168   0.02171   1.94527
   A37        1.85439   0.00213   0.00000   0.01958   0.01959   1.87398
   A38        1.90307  -0.00280   0.00000  -0.01964  -0.01965   1.88342
   A39        1.88738  -0.00184   0.00000  -0.01528  -0.01521   1.87217
   A40        2.07528  -0.00265   0.00000  -0.01446  -0.01487   2.06040
   A41        2.20285   0.00131   0.00000   0.00625   0.00583   2.20868
   A42        2.00441   0.00137   0.00000   0.01001   0.00959   2.01400
   A43        1.95292   0.00212   0.00000   0.00828   0.00832   1.96124
   A44        1.92680  -0.00050   0.00000  -0.00444  -0.00447   1.92233
   A45        1.91294  -0.00324   0.00000  -0.02627  -0.02630   1.88664
   A46        1.93290  -0.00102   0.00000  -0.00280  -0.00280   1.93010
   A47        1.88991   0.00135   0.00000   0.01469   0.01474   1.90465
   A48        1.84480   0.00122   0.00000   0.01055   0.01041   1.85522
    D1        3.03491   0.00032   0.00000   0.01347   0.01344   3.04835
    D2       -0.09732  -0.00031   0.00000  -0.02761  -0.02757  -0.12489
    D3        1.01267  -0.00096   0.00000  -0.00434  -0.00430   1.00837
    D4       -2.11956  -0.00159   0.00000  -0.04541  -0.04531  -2.16487
    D5       -1.12159   0.00126   0.00000   0.01495   0.01484  -1.10676
    D6        2.02936   0.00063   0.00000  -0.02612  -0.02617   2.00320
    D7       -1.10677  -0.00015   0.00000   0.05671   0.05674  -1.05003
    D8        3.01515   0.00001   0.00000   0.05766   0.05770   3.07285
    D9        0.98999   0.00073   0.00000   0.06286   0.06281   1.05280
   D10        0.91769  -0.00049   0.00000   0.05802   0.05810   0.97580
   D11       -1.24357  -0.00032   0.00000   0.05897   0.05906  -1.18451
   D12        3.01445   0.00040   0.00000   0.06417   0.06418   3.07863
   D13        3.03352   0.00083   0.00000   0.06770   0.06766   3.10118
   D14        0.87225   0.00100   0.00000   0.06865   0.06862   0.94087
   D15       -1.15291   0.00171   0.00000   0.07385   0.07373  -1.07917
[...]
                 (A) (A) (A) (A) (A) (A) (A) (A) (A) (A) (A) (A)
                 (A) (A) (A) (A) (A) (A) (A) (A) (A) (A) (A) (A)
                 (A) (A) (A) (A) (A) (A) (A) (A) (A) (A) (A) (A)
                 (A) (A) (A) (A) (A) (A) (A) (A) (A) (A) (A) (A)
                 (A) (A) (A) (A) (A) (A) (A) (A) (A) (A) (A) (A)
                 (A) (A) (A) (A) (A) (A) (A) (A) (A) (A) (A) (A)
                 (A) (A) (A) (A) (A) (A) (A) (A) (A) (A) (A) (A)
                 (A) (A) (A) (A) (A) (A) (A) (A) (A) (A) (A) (A)
                 (A) (A) (A) (A) (A) (A) (A) (A) (A) (A) (A) (A)
                 (A) (A) (A) (A) (A) (A) (A) (A) (A)
 The electronic state is 1-A.
 Alpha  occ. eigenvalues --  -11.22942 -11.22511 -11.21700 -11.21672 -11.21623
 Alpha  occ. eigenvalues --  -11.21559 -11.21548 -11.21481 -11.21394 -11.21303
 Alpha  occ. eigenvalues --   -1.10736  -1.08460  -1.02106  -0.97425  -0.93781
 Alpha  occ. eigenvalues --   -0.92410  -0.87797  -0.81730  -0.70596  -0.69538
 Alpha  occ. eigenvalues --   -0.64148  -0.63199  -0.59865  -0.58878  -0.58400
 Alpha  occ. eigenvalues --   -0.56978  -0.55031  -0.54496  -0.53241  -0.52889
 Alpha  occ. eigenvalues --   -0.51756  -0.51256  -0.50605  -0.49958  -0.47402
 Alpha  occ. eigenvalues --   -0.46411  -0.44635  -0.33302  -0.31579
 Alpha virt. eigenvalues --    0.18278   0.19823   0.22639   0.24479   0.26351
 Alpha virt. eigenvalues --    0.26980   0.28134   0.29581   0.30259   0.30763
 Alpha virt. eigenvalues --    0.31180   0.32648   0.32688   0.33225   0.34298
 Alpha virt. eigenvalues --    0.34579   0.36343   0.37293   0.39457   0.40230
 Alpha virt. eigenvalues --    0.41257   0.41632   0.43426   0.45036   0.46638
 Alpha virt. eigenvalues --    0.51538   0.53909   0.61381   0.63254   0.69965
 Alpha virt. eigenvalues --    0.70398   0.71527   0.74747   0.75481   0.75901
 Alpha virt. eigenvalues --    0.76553   0.78916   0.80388   0.80901   0.83219
 Alpha virt. eigenvalues --    0.84037   0.86129   0.87566   0.89579   0.91237
 Alpha virt. eigenvalues --    0.93289   0.95752   0.97232   0.97974   0.98237
 Alpha virt. eigenvalues --    0.99464   1.01633   1.02736   1.04985   1.05899
 Alpha virt. eigenvalues --    1.08076   1.08414   1.09417   1.11454   1.12053
 Alpha virt. eigenvalues --    1.12714   1.13742   1.14423   1.15189   1.15535
 Alpha virt. eigenvalues --    1.16795   1.17228   1.17578   1.19004   1.20866
 Alpha virt. eigenvalues --    1.21679   1.22377   1.23487   1.25520   1.26421
 Alpha virt. eigenvalues --    1.30164   1.39976   1.41609   1.44047   1.46079
 Alpha virt. eigenvalues --    1.47726   1.54490   1.55573   1.57708   1.58591
 Alpha virt. eigenvalues --    1.61707   1.62690   1.67736   1.69148   1.73210
 Alpha virt. eigenvalues --    1.73874   1.81021   1.88669   1.92059   1.95535
 Alpha virt. eigenvalues --    1.99493   2.01378   2.03410   2.06001   2.07269
 Alpha virt. eigenvalues --    2.08179   2.09789   2.10260   2.12903   2.14761
 Alpha virt. eigenvalues --    2.15553   2.16168   2.20233   2.23288   2.27082
 Alpha virt. eigenvalues --    2.29523   2.30283   2.31625   2.35380   2.35718
 Alpha virt. eigenvalues --    2.35904   2.36890   2.38609   2.40274   2.41122
 Alpha virt. eigenvalues --    2.43218   2.43386   2.43970   2.45254   2.46006
 Alpha virt. eigenvalues --    2.47480   2.49675   2.50501   2.50938   2.55814
 Alpha virt. eigenvalues --    2.57211   2.59139   2.62381   2.64177   2.65552
 Alpha virt. eigenvalues --    2.65955   2.68916   2.69921   2.72159   2.74351
 Alpha virt. eigenvalues --    2.75378   2.78665   2.79432   2.82556   2.85257
 Alpha virt. eigenvalues --    2.86770   2.89129   2.90666   2.93366   2.95194
 Alpha virt. eigenvalues --    2.96789   3.01064   3.01747   3.02841   3.05840
 Alpha virt. eigenvalues --    3.06822   3.08230   3.11046   3.13060   3.15035
 Alpha virt. eigenvalues --    3.17645   3.18677   3.19606   3.21228   3.22104
 Alpha virt. eigenvalues --    3.23523   3.25547   3.27096   3.28314   3.39606
 Alpha virt. eigenvalues --    3.40342   3.43965   3.46564   3.56151   3.57285
 Alpha virt. eigenvalues --    3.61440   3.63308   3.66168   3.73762   3.78522
 Alpha virt. eigenvalues --    3.79893   3.80627   3.82069   3.83585   3.84048
 Alpha virt. eigenvalues --    3.84434   3.86377   3.88485   3.90968   3.91574
 Alpha virt. eigenvalues --    3.96731   4.58902   4.61965   4.74169   4.83818
 Alpha virt. eigenvalues --    4.89946   4.91396   4.92473   5.05970   5.10293
 Alpha virt. eigenvalues --    5.16504
          Condensed to atoms (all electrons):
               1          2          3          4          5          6
     1  C    4.974967   0.415409   0.403415   0.356029  -0.058948   0.003373
     2  H    0.415409   0.578834  -0.026797  -0.048070   0.003759  -0.000099
     3  H    0.403415  -0.026797   0.599712  -0.043343  -0.003342  -0.000063
     4  C    0.356029  -0.048070  -0.043343   4.938974   0.341770  -0.037390
     5  C   -0.058948   0.003759  -0.003342   0.341770   4.910375   0.407890
     6  H    0.003373  -0.000099  -0.000063  -0.037390   0.407890   0.566820
     7  H   -0.003551   0.000063   0.003111  -0.044719   0.401598  -0.027468
     8  H   -0.001317  -0.000113  -0.000069  -0.040624   0.401346  -0.027796
     9  C   -0.041254  -0.002476   0.000138   0.699886  -0.045217  -0.002940
    10  H   -0.007286   0.002363   0.000242  -0.040057   0.003549   0.000036
    11  C    0.003156   0.000190  -0.000112  -0.047775  -0.007872  -0.002285
    12  H    0.000099   0.000005   0.000001  -0.000146  -0.002067  -0.001240
    13  H   -0.000088  -0.000011  -0.000003  -0.000137   0.000209  -0.000070
    14  H   -0.000112  -0.000005   0.000015  -0.000987   0.000313   0.000113
    15  C   -0.000099  -0.000005  -0.000035   0.000001  -0.000000   0.000000
    16  H   -0.000003   0.000002  -0.000002   0.000000  -0.000000   0.000000
    17  H   -0.000005   0.000000   0.000002   0.000000  -0.000000   0.000000
    18  H    0.000023  -0.000002  -0.000008  -0.000000   0.000000  -0.000000
    19  C   -0.003674   0.000704   0.001311   0.000010   0.000012  -0.000000
    20  C    0.000497  -0.000013   0.000103  -0.000023  -0.000025   0.000000
    21  H   -0.000098  -0.000010   0.000163  -0.000028   0.000104  -0.000001
    22  H    0.000111  -0.000001  -0.000102  -0.000003   0.000000  -0.000000
    23  H   -0.000038   0.000000   0.000019   0.000001  -0.000000   0.000000
    24  C   -0.059424  -0.002418  -0.000848   0.005534  -0.000113   0.000001
    25  H   -0.000249   0.001227   0.000104  -0.000121  -0.000001   0.000000
    26  C    0.330778  -0.041632  -0.050608  -0.062313  -0.001253   0.000071
    27  H   -0.040258   0.004187  -0.002991  -0.002734  -0.000623   0.000052
    28  H   -0.048600  -0.001949   0.005194   0.001692   0.000081  -0.000024
               7          8          9         10         11         12
     1  C   -0.003551  -0.001317  -0.041254  -0.007286   0.003156   0.000099
     2  H    0.000063  -0.000113  -0.002476   0.002363   0.000190   0.000005
     3  H    0.003111  -0.000069   0.000138   0.000242  -0.000112   0.000001
     4  C   -0.044719  -0.040624   0.699886  -0.040057  -0.047775  -0.000146
     5  C    0.401598   0.401346  -0.045217   0.003549  -0.007872  -0.002067
     6  H   -0.027468  -0.027796  -0.002940   0.000036  -0.002285  -0.001240
     7  H    0.588689  -0.035107   0.001785  -0.000112   0.000170   0.000009
     8  H   -0.035107   0.581345  -0.002538  -0.000126   0.000483  -0.000121
     9  C    0.001785  -0.002538   4.935719   0.405807   0.340027  -0.043590
    10  H   -0.000112  -0.000126   0.405807   0.560473  -0.041926   0.003343
    11  C    0.000170   0.000483   0.340027  -0.041926   4.898096   0.408373
    12  H    0.000009  -0.000121  -0.043590   0.003343   0.408373   0.576338
    13  H   -0.000017   0.000090  -0.042037  -0.001472   0.402088  -0.028755
    14  H    0.000028  -0.000040  -0.042070  -0.000930   0.401061  -0.027840
    15  C    0.000000  -0.000000   0.000000  -0.000000   0.000000   0.000000
    16  H   -0.000000  -0.000000   0.000000  -0.000000   0.000000   0.000000
    17  H   -0.000000   0.000000  -0.000000  -0.000000   0.000000  -0.000000
    18  H    0.000000  -0.000000   0.000000   0.000000  -0.000000  -0.000000
    19  C    0.000000   0.000006  -0.000003  -0.000000   0.000000  -0.000000
    20  C   -0.000017  -0.000003  -0.000000   0.000000  -0.000000  -0.000000
    21  H    0.000182   0.000018  -0.000000  -0.000000   0.000000  -0.000000
    22  H    0.000001  -0.000000   0.000000   0.000000  -0.000000  -0.000000
    23  H   -0.000000   0.000000  -0.000000  -0.000000   0.000000   0.000000
    24  C   -0.000056   0.000014  -0.000063  -0.000017   0.000001   0.000000
    25  H   -0.000000  -0.000001   0.000001   0.000001  -0.000000  -0.000000
    26  C   -0.001206   0.001289  -0.004331   0.000243  -0.000085  -0.000004
    27  H    0.000260  -0.001924   0.000274  -0.000007   0.000003  -0.000000
    28  H    0.000102   0.000076   0.001492   0.000113  -0.000046   0.000001
              13         14         15         16         17         18
     1  C   -0.000088  -0.000112  -0.000099  -0.000003  -0.000005   0.000023
     2  H   -0.000011  -0.000005  -0.000005   0.000002   0.000000  -0.000002
     3  H   -0.000003   0.000015  -0.000035  -0.000002   0.000002  -0.000008
     4  C   -0.000137  -0.000987   0.000001   0.000000   0.000000  -0.000000
     5  C    0.000209   0.000313  -0.000000  -0.000000  -0.000000   0.000000
     6  H   -0.000070   0.000113   0.000000   0.000000   0.000000  -0.000000
     7  H   -0.000017   0.000028   0.000000  -0.000000  -0.000000   0.000000
     8  H    0.000090  -0.000040  -0.000000  -0.000000   0.000000  -0.000000
     9  C   -0.042037  -0.042070   0.000000   0.000000  -0.000000   0.000000
    10  H   -0.001472  -0.000930  -0.000000  -0.000000  -0.000000   0.000000
    11  C    0.402088   0.401061   0.000000   0.000000   0.000000  -0.000000
    12  H   -0.028755  -0.027840   0.000000   0.000000  -0.000000  -0.000000
    13  H    0.585552  -0.035752  -0.000000  -0.000000  -0.000000   0.000000
    14  H   -0.035752   0.585848   0.000000  -0.000000   0.000000  -0.000000
    15  C   -0.000000   0.000000   4.900365   0.406155   0.398838   0.398133
    16  H   -0.000000  -0.000000   0.406155   0.566016  -0.026583  -0.026658
    17  H   -0.000000   0.000000   0.398838  -0.026583   0.594296  -0.037889
    18  H    0.000000  -0.000000   0.398133  -0.026658  -0.037889   0.594725
    19  C    0.000000  -0.000000   0.353360  -0.041652  -0.044442  -0.043742
    20  C    0.000000  -0.000000  -0.065129   0.003792  -0.001180  -0.001979
    21  H   -0.000000   0.000000   0.003755  -0.000115  -0.000029  -0.000071
    22  H    0.000000  -0.000000  -0.002661  -0.000028  -0.000489   0.002769
    23  H   -0.000000   0.000000  -0.002178  -0.000056   0.002764  -0.000452
    24  C   -0.000000   0.000000  -0.044088  -0.002558  -0.001245  -0.000520
    25  H    0.000000   0.000000  -0.006999   0.002365   0.000191   0.000179
    26  C    0.000020  -0.000004   0.003163   0.000146  -0.000128  -0.000073
    27  H   -0.000000   0.000000   0.000055   0.000007   0.000006  -0.000004
    28  H   -0.000007   0.000001  -0.000090  -0.000009   0.000009  -0.000002
              19         20         21         22         23         24
     1  C   -0.003674   0.000497  -0.000098   0.000111  -0.000038  -0.059424
     2  H    0.000704  -0.000013  -0.000010  -0.000001   0.000000  -0.002418
     3  H    0.001311   0.000103   0.000163  -0.000102   0.000019  -0.000848
     4  C    0.000010  -0.000023  -0.000028  -0.000003   0.000001   0.005534
     5  C    0.000012  -0.000025   0.000104   0.000000  -0.000000  -0.000113
     6  H   -0.000000   0.000000  -0.000001  -0.000000   0.000000   0.000001
     7  H    0.000000  -0.000017   0.000182   0.000001  -0.000000  -0.000056
     8  H    0.000006  -0.000003   0.000018  -0.000000   0.000000   0.000014
     9  C   -0.000003  -0.000000  -0.000000   0.000000  -0.000000  -0.000063
    10  H   -0.000000   0.000000  -0.000000   0.000000  -0.000000  -0.000017
    11  C    0.000000  -0.000000   0.000000  -0.000000   0.000000   0.000001
    12  H   -0.000000  -0.000000  -0.000000  -0.000000   0.000000   0.000000
    13  H    0.000000   0.000000  -0.000000   0.000000  -0.000000  -0.000000
    14  H   -0.000000  -0.000000   0.000000  -0.000000   0.000000   0.000000
    15  C    0.353360  -0.065129   0.003755  -0.002661  -0.002178  -0.044088
    16  H   -0.041652   0.003792  -0.000115  -0.000028  -0.000056  -0.002558
    17  H   -0.044442  -0.001180  -0.000029  -0.000489   0.002764  -0.001245
    18  H   -0.043742  -0.001979  -0.000071   0.002769  -0.000452  -0.000520
    19  C    4.916358   0.350753  -0.037864  -0.043350  -0.043663   0.697006
    20  C    0.350753   4.904912   0.406940   0.401136   0.400033  -0.044222
    21  H   -0.037864   0.406940   0.570757  -0.028140  -0.026744  -0.002948
    22  H   -0.043350   0.401136  -0.028140   0.587011  -0.035835  -0.000062
    23  H   -0.043663   0.400033  -0.026744  -0.035835   0.585908  -0.000385
    24  C    0.697006  -0.044222  -0.002948  -0.000062  -0.000385   4.948629
    25  H   -0.038548   0.003539   0.000052  -0.000122  -0.000119   0.404399
    26  C   -0.050685  -0.007900  -0.002865   0.000350   0.000161   0.349898
    27  H    0.000119  -0.002489  -0.001919  -0.000062   0.000078  -0.043965
    28  H    0.001494   0.000164   0.000074  -0.000014   0.000024  -0.040490
              25         26         27         28
     1  C   -0.000249   0.330778  -0.040258  -0.048600
     2  H    0.001227  -0.041632   0.004187  -0.001949
     3  H    0.000104  -0.050608  -0.002991   0.005194
     4  C   -0.000121  -0.062313  -0.002734   0.001692
     5  C   -0.000001  -0.001253  -0.000623   0.000081
     6  H    0.000000   0.000071   0.000052  -0.000024
     7  H   -0.000000  -0.001206   0.000260   0.000102
     8  H   -0.000001   0.001289  -0.001924   0.000076
     9  C    0.000001  -0.004331   0.000274   0.001492
    10  H    0.000001   0.000243  -0.000007   0.000113
    11  C   -0.000000  -0.000085   0.000003  -0.000046
    12  H   -0.000000  -0.000004  -0.000000   0.000001
    13  H    0.000000   0.000020  -0.000000  -0.000007
    14  H    0.000000  -0.000004   0.000000   0.000001
    15  C   -0.006999   0.003163   0.000055  -0.000090
    16  H    0.002365   0.000146   0.000007  -0.000009
    17  H    0.000191  -0.000128   0.000006   0.000009
    18  H    0.000179  -0.000073  -0.000004  -0.000002
    19  C   -0.038548  -0.050685   0.000119   0.001494
    20  C    0.003539  -0.007900  -0.002489   0.000164
    21  H    0.000052  -0.002865  -0.001919   0.000074
    22  H   -0.000122   0.000350  -0.000062  -0.000014
    23  H   -0.000119   0.000161   0.000078   0.000024
    24  C    0.404399   0.349898  -0.043965  -0.040490
    25  H    0.557190  -0.040251   0.003321  -0.003449
    26  C   -0.040251   4.996605   0.414836   0.408555
    27  H    0.003321   0.414836   0.586452  -0.029527
    28  H   -0.003449   0.408555  -0.029527   0.583062
 Mulliken charges:
               1
     1  C   -0.222853
     2  H    0.116855
     3  H    0.114794
     4  C    0.024574
     5  C   -0.351544
     6  H    0.121022
     7  H    0.116255
     8  H    0.125112
     9  C   -0.158612
    10  H    0.115763
    11  C   -0.353548
    12  H    0.115594
    13  H    0.120389
    14  H    0.120362
    15  C   -0.342540
    16  H    0.119179
    17  H    0.115884
    18  H    0.115571
    19  C    0.026488
    20  C   -0.348888
    21  H    0.118788
    22  H    0.119490
    23  H    0.120480
    24  C   -0.162061
    25  H    0.117294
    26  C   -0.242776
    27  H    0.116857
    28  H    0.122071
 Sum of Mulliken charges =  -0.00000
 Mulliken charges with hydrogens summed into heavy atoms:
               1
     1  C    0.008796
     4  C    0.024574
     5  C    0.010844
     9  C   -0.042849
    11  C    0.002797
    15  C    0.008094
    19  C    0.026488
    20  C    0.009871
    24  C   -0.044767
    26  C   -0.003847
 Electronic spatial extent (au):  <R**2>=           2732.7833
 Charge=             -0.0000 electrons
 Dipole moment (field-independent basis, Debye):
    X=             -0.1804    Y=              0.3344    Z=             -0.0136  Tot=              0.3802
 Quadrupole moment (field-independent basis, Debye-Ang):
   XX=            -63.3697   YY=            -63.3486   ZZ=            -67.5456
   XY=             -0.5272   XZ=              1.2952   YZ=              0.0442
 Traceless Quadrupole moment (field-independent basis, Debye-Ang):
   XX=              1.3850   YY=              1.4060   ZZ=             -2.7910
   XY=             -0.5272   XZ=              1.2952   YZ=              0.0442
 Octapole moment (field-independent basis, Debye-Ang**2):
  XXX=             -1.8548  YYY=             -4.2585  ZZZ=             -0.6173  XYY=              1.3379
  XXY=              2.1918  XXZ=             -1.0232  XZZ=             -1.0342  YZZ=              1.6473
  YYZ=              0.5213  XYZ=              0.7907
 Hexadecapole moment (field-independent basis, Debye-Ang**3):
 XXXX=          -3157.6206 YYYY=           -445.8804 ZZZZ=           -164.8245 XXXY=            -13.1548
 XXXZ=              3.4633 YYYX=              3.8044 YYYZ=              0.1971 ZZZX=             10.6128
 ZZZY=             -1.0563 XXYY=           -598.7278 XXZZ=           -570.2276 YYZZ=           -101.8203
 XXYZ=              3.4448 YYXZ=             -2.1867 ZZXY=             -5.1635
 N-N= 5.102678342387D+02 E-N=-1.925266818590D+03  KE= 3.887443679071D+02
 No NMR shielding tensors so no spin-rotation constants.
 Leave Link  601 at Fri Sep 17 21:01:37 2021, MaxMem=   524288000 cpu:               0.2 elap:               0.2
 (Enter /opt/gaussian/g16_legacy/l9999.exe)
 1\1\GINC-TRUENO95\FOpt\RMP2-FC\6-31G(d,p)\C10H18\JRAMOS\17-Sep-2021\0\
 \#p opt mp2/6-31g(d,p)\\Conformer number 000. Energy MM = 24.913 kcal/
 mol\\0,1\C,2.1708964294,1.5000266526,-8.8506378562\H,1.8192432397,0.57
 38280494,-9.3121598859\H,1.9974653252,2.3010140888,-9.5774905583\C,3.6
 424157434,1.3915707372,-8.5457544538\C,4.2882060401,2.6504490012,-8.02
 97882955\H,5.3735027821,2.6173156022,-8.0837178002\H,3.9518311022,3.50
 91564069,-8.614073438\H,4.0123984124,2.8422623393,-6.9911009257\C,4.28
 2759002,0.2188938932,-8.7118410116\H,3.6979063532,-0.6134608285,-9.093
 8890304\C,5.7218068575,-0.0919980345,-8.4328817955\H,6.2646550084,0.75
 95246531,-8.0307546572\H,5.8035500201,-0.9064747325,-7.7108958541\H,6.
 2317871038,-0.4201779333,-9.3404484996\C,-2.3800476985,2.7102208101,-8
 .5205286114\H,-2.6729839324,1.6615900534,-8.5381134418\H,-3.0126190789
 ,3.230306114,-7.7975544518\H,-2.5968106455,3.1431304277,-9.4997160744\
 C,-0.9258895045,2.871932691,-8.172669674\C,-0.4471885978,4.2964135678,
 -8.1216956336\H,0.6153328336,4.3803310017,-7.9080207718\H,-0.637586653
 5,4.791130737,-9.0764916078\H,-0.9942963203,4.8575169926,-7.3607935152
 \C,-0.1503966781,1.7986567638,-7.9293269195\H,-0.6115335437,0.81827525
 79,-8.0196344214\C,1.314061096,1.7929443866,-7.6053982422\H,1.61875724
 92,2.7417757649,-7.1635076317\H,1.5193780549,1.0218455365,-6.857714941
 2\\Version=EM64L-G16RevA.03\State=1-A\HF=-389.156822\MP2=-390.5733484\
 RMSD=3.775e-09\RMSF=1.880e-06\Dipole=0.0123686,0.1159615,0.0191883\PG=
 C01 [X(C10H18)]\\@


 THE MORE PROGRESS PHYSICAL SCIENCES MAKE, THE MORE THEY TEND TO ENTER
 THE DOMAIN OF MATHEMATICS, WHICH IS A KIND OF CENTRE TO WHICH THEY ALL
 CONVERGE.  WE MAY EVEN JUDGE THE DEGREE OF PERFECTION TO WHICH A 
 SCIENCE HAS ARRIVED BY THE FACILITY WITH WHICH IT MAY BE SUBMITTED
 TO CALCULATION.

                               -- ADOLPHE QUETELET, 1796-1874
 Job cpu time:       0 days  0 hours 52 minutes  8.6 seconds.
 Elapsed time:       0 days  0 hours 52 minutes  8.7 seconds.
 File lengths (MBytes):  RWF=     32 Int=      0 D2E=      0 Chk=      7 Scr=      1
 Normal termination of Gaussian 16 at Fri Sep 17 21:01:37 2021.
