 Entering Gaussian System, Link 0=/opt/gaussian/g16_legacy/g16
 Input=02-IsoP_027_gaussian.com
 Output=02-IsoP_027_gaussian.log
 Initial command:
 /opt/gaussian/g16_legacy/l1.exe "/scratch-local/jramos/2661519/Gau-7226.inp" -scrdir="/scratch-local/jramos/2661519/"
 Entering Link 1 = /opt/gaussian/g16_legacy/l1.exe PID=      7235.
  
 Copyright (c) 1988,1990,1992,1993,1995,1998,2003,2009,2016,
            Gaussian, Inc.  All Rights Reserved.
  
 This is part of the Gaussian(R) 16 program.  It is based on
 the Gaussian(R) 09 system (copyright 2009, Gaussian, Inc.),
 the Gaussian(R) 03 system (copyright 2003, Gaussian, Inc.),
 the Gaussian(R) 98 system (copyright 1998, Gaussian, Inc.),
 the Gaussian(R) 94 system (copyright 1995, Gaussian, Inc.),
 the Gaussian 92(TM) system (copyright 1992, Gaussian, Inc.),
 the Gaussian 90(TM) system (copyright 1990, Gaussian, Inc.),
 the Gaussian 88(TM) system (copyright 1988, Gaussian, Inc.),
 the Gaussian 86(TM) system (copyright 1986, Carnegie Mellon
 University), and the Gaussian 82(TM) system (copyright 1983,
 Carnegie Mellon University). Gaussian is a federally registered
 trademark of Gaussian, Inc.
  
 This software contains proprietary and confidential information,
 including trade secrets, belonging to Gaussian, Inc.
  
 This software is provided under written license and may be
 used, copied, transmitted, or stored only in accord with that
 written license.
  
 The following legend is applicable only to US Government
 contracts under FAR:
  
                    RESTRICTED RIGHTS LEGEND
  
 Use, reproduction and disclosure by the US Government is
 subject to restrictions as set forth in subparagraphs (a)
 and (c) of the Commercial Computer Software - Restricted
 Rights clause in FAR 52.227-19.
  
 Gaussian, Inc.
 340 Quinnipiac St., Bldg. 40, Wallingford CT 06492
  
  
 ---------------------------------------------------------------
 Warning -- This program may not be used in any manner that
 competes with the business of Gaussian, Inc. or will provide
 assistance to any competitor of Gaussian, Inc.  The licensee
 of this program is prohibited from giving any competitor of
 Gaussian, Inc. access to this program.  By using this program,
 the user acknowledges that Gaussian, Inc. is engaged in the
 business of creating and licensing software in the field of
 computational chemistry and represents and warrants to the
 licensee that it is not a competitor of Gaussian, Inc. and that
 it will not use this program in any manner prohibited above.
 ---------------------------------------------------------------
  

 Cite this work as:
 Gaussian 16, Revision A.03,
 M. J. Frisch, G. W. Trucks, H. B. Schlegel, G. E. Scuseria, 
 M. A. Robb, J. R. Cheeseman, G. Scalmani, V. Barone, 
 G. A. Petersson, H. Nakatsuji, X. Li, M. Caricato, A. V. Marenich, 
 J. Bloino, B. G. Janesko, R. Gomperts, B. Mennucci, H. P. Hratchian, 
 J. V. Ortiz, A. F. Izmaylov, J. L. Sonnenberg, D. Williams-Young, 
 F. Ding, F. Lipparini, F. Egidi, J. Goings, B. Peng, A. Petrone, 
 T. Henderson, D. Ranasinghe, V. G. Zakrzewski, J. Gao, N. Rega, 
 G. Zheng, W. Liang, M. Hada, M. Ehara, K. Toyota, R. Fukuda, 
 J. Hasegawa, M. Ishida, T. Nakajima, Y. Honda, O. Kitao, H. Nakai, 
 T. Vreven, K. Throssell, J. A. Montgomery, Jr., J. E. Peralta, 
 F. Ogliaro, M. J. Bearpark, J. J. Heyd, E. N. Brothers, K. N. Kudin, 
 V. N. Staroverov, T. A. Keith, R. Kobayashi, J. Normand, 
 K. Raghavachari, A. P. Rendell, J. C. Burant, S. S. Iyengar, 
 J. Tomasi, M. Cossi, J. M. Millam, M. Klene, C. Adamo, R. Cammi, 
 J. W. Ochterski, R. L. Martin, K. Morokuma, O. Farkas, 
 J. B. Foresman, and D. J. Fox, Gaussian, Inc., Wallingford CT, 2016.
 
 ******************************************
 Gaussian 16:  EM64L-G16RevA.03 25-Dec-2016
                17-Sep-2021 
 ******************************************
 %chk=02-IsoP_027_gaussian.chk
 %nproc=1
 Will use up to    1 processors via shared memory.
 %mem=4000Mb
 ---------------------
 #p opt mp2/6-31g(d,p)
 ---------------------
 1/18=20,19=15,38=1/1,3;
 2/9=110,12=2,17=6,18=5,40=1/2;
 3/5=1,6=6,7=101,11=9,25=1,30=1,71=1/1,2,3;
 4//1;
 5/5=2,38=5/2;
 8/6=4,10=2/1;
 9/15=2,16=-3/6;
 10/5=1/2;
 6/7=2,8=2,9=2,10=2/1;
 7/12=2/1,2,3,16;
 1/18=20,19=15/3(2);
 2/9=110/2;
 99//99;
 2/9=110/2;
 3/5=1,6=6,7=101,11=9,25=1,30=1,71=1/1,2,3;
 4/5=5,16=3,69=1/1;
 5/5=2,38=5/2;
 8/6=4,10=2/1;
 9/15=2,16=-3/6;
 10/5=1/2;
 7/12=2/1,2,3,16;
 1/18=20,19=15/3(-8);
 2/9=110/2;
 6/7=2,8=2,9=2,10=2/1;
 99//99;
 Leave Link    1 at Fri Sep 17 20:09:27 2021, MaxMem=   524288000 cpu:               0.0 elap:               0.1
 (Enter /opt/gaussian/g16_legacy/l101.exe)
 -------------------------------------------------
 Conformer number 027. Energy MM = 27.110 kcal/mol
 -------------------------------------------------
 Symbolic Z-matrix:
 Charge =  0 Multiplicity = 1
 C                     2.1921    1.2043   -8.8775 
 H                     1.8989    0.1765   -9.1283 
 H                     2.0432    1.7921   -9.7942 
 C                     3.6796    1.1962   -8.5452 
 C                     4.5722    1.4137   -9.7384 
 H                     5.5622    0.9668   -9.6141 
 H                     4.1394    0.9517   -10.6327 
 H                     4.6887    2.4857   -9.9292 
 C                     4.1468    1.0095   -7.2932 
 H                     3.4409    0.828    -6.4853 
 C                     5.57      1.0441   -6.8331 
 H                     6.2809    1.2994   -7.6214 
 H                     5.6765    1.7947   -6.0421 
 H                     5.8503    0.0715   -6.418 
 C                     1.3587    5.6729   -7.7323 
 H                     2.158     5.673    -6.9833 
 H                     1.7372    6.1907   -8.6201 
 H                     0.5199    6.2452   -7.3245 
 C                     0.916     4.2798   -8.0942 
 C                    -0.1411    4.209    -9.162 
 H                    -0.7584    3.3111   -9.0836 
 H                    -0.8236    5.0622   -9.0858 
 H                     0.324     4.2301   -10.1526 
 C                     1.4812    3.2061   -7.5137 
 H                     2.2565    3.3688   -6.7626 
 C                     1.2173    1.7555   -7.8223 
 H                     1.2707    1.1758   -6.8939 
 H                     0.1939    1.6148   -8.1848 
 
 ITRead=  0  0  0  0  0  0  0  0  0  0  0  0  0  0  0  0  0  0  0  0
 ITRead=  0  0  0  0  0  0  0  0
 MicOpt= -1 -1 -1 -1 -1 -1 -1 -1 -1 -1 -1 -1 -1 -1 -1 -1 -1 -1 -1 -1
 MicOpt= -1 -1 -1 -1 -1 -1 -1 -1
 NAtoms=     28 NQM=       28 NQMF=       0 NMMI=      0 NMMIF=      0
                NMic=       0 NMicF=      0.
                    Isotopes and Nuclear Properties:
 (Nuclear quadrupole moments (NQMom) in fm**2, nuclear magnetic moments (NMagM)
  in nuclear magnetons)

  Atom         1           2           3           4           5           6           7           8           9          10
 IAtWgt=          12           1           1          12          12           1           1           1          12           1
 AtmWgt=  12.0000000   1.0078250   1.0078250  12.0000000  12.0000000   1.0078250   1.0078250   1.0078250  12.0000000   1.0078250
 NucSpn=           0           1           1           0           0           1           1           1           0           1
 AtZEff=  -0.0000000  -0.0000000  -0.0000000  -0.0000000  -0.0000000  -0.0000000  -0.0000000  -0.0000000  -0.0000000  -0.0000000
 NQMom=    0.0000000   0.0000000   0.0000000   0.0000000   0.0000000   0.0000000   0.0000000   0.0000000   0.0000000   0.0000000
 NMagM=    0.0000000   2.7928460   2.7928460   0.0000000   0.0000000   2.7928460   2.7928460   2.7928460   0.0000000   2.7928460
 AtZNuc=   6.0000000   1.0000000   1.0000000   6.0000000   6.0000000   1.0000000   1.0000000   1.0000000   6.0000000   1.0000000

  Atom        11          12          13          14          15          16          17          18          19          20
 IAtWgt=          12           1           1           1          12           1           1           1          12          12
 AtmWgt=  12.0000000   1.0078250   1.0078250   1.0078250  12.0000000   1.0078250   1.0078250   1.0078250  12.0000000  12.0000000
 NucSpn=           0           1           1           1           0           1           1           1           0           0
 AtZEff=  -0.0000000  -0.0000000  -0.0000000  -0.0000000  -0.0000000  -0.0000000  -0.0000000  -0.0000000  -0.0000000  -0.0000000
 NQMom=    0.0000000   0.0000000   0.0000000   0.0000000   0.0000000   0.0000000   0.0000000   0.0000000   0.0000000   0.0000000
 NMagM=    0.0000000   2.7928460   2.7928460   2.7928460   0.0000000   2.7928460   2.7928460   2.7928460   0.0000000   0.0000000
 AtZNuc=   6.0000000   1.0000000   1.0000000   1.0000000   6.0000000   1.0000000   1.0000000   1.0000000   6.0000000   6.0000000

  Atom        21          22          23          24          25          26          27          28
 IAtWgt=           1           1           1          12           1          12           1           1
 AtmWgt=   1.0078250   1.0078250   1.0078250  12.0000000   1.0078250  12.0000000   1.0078250   1.0078250
 NucSpn=           1           1           1           0           1           0           1           1
 AtZEff=  -0.0000000  -0.0000000  -0.0000000  -0.0000000  -0.0000000  -0.0000000  -0.0000000  -0.0000000
 NQMom=    0.0000000   0.0000000   0.0000000   0.0000000   0.0000000   0.0000000   0.0000000   0.0000000
 NMagM=    2.7928460   2.7928460   2.7928460   0.0000000   2.7928460   0.0000000   2.7928460   2.7928460
 AtZNuc=   1.0000000   1.0000000   1.0000000   6.0000000   1.0000000   6.0000000   1.0000000   1.0000000
 Leave Link  101 at Fri Sep 17 20:09:27 2021, MaxMem=   524288000 cpu:               0.3 elap:               0.3
 (Enter /opt/gaussian/g16_legacy/l103.exe)

 GradGradGradGradGradGradGradGradGradGradGradGradGradGradGradGradGradGrad
 Berny optimization.
 Initialization pass.
                           ----------------------------
                           !    Initial Parameters    !
                           ! (Angstroms and Degrees)  !
 --------------------------                            --------------------------
 ! Name  Definition              Value          Derivative Info.                !
 --------------------------------------------------------------------------------
 ! R1    R(1,2)                  1.0978         estimate D2E/DX2                !
 ! R2    R(1,3)                  1.0991         estimate D2E/DX2                !
 ! R3    R(1,4)                  1.5242         estimate D2E/DX2                !
 ! R4    R(1,26)                 1.5387         estimate D2E/DX2                !
 ! R5    R(4,5)                  1.5059         estimate D2E/DX2                !
 ! R6    R(4,9)                  1.3493         estimate D2E/DX2                !
 ! R7    R(5,6)                  1.0933         estimate D2E/DX2                !
 ! R8    R(5,7)                  1.0957         estimate D2E/DX2                !
 ! R9    R(5,8)                  1.0951         estimate D2E/DX2                !
 ! R10   R(9,10)                 1.0881         estimate D2E/DX2                !
 ! R11   R(9,11)                 1.4961         estimate D2E/DX2                !
 ! R12   R(11,12)                1.0918         estimate D2E/DX2                !
 ! R13   R(11,13)                1.0956         estimate D2E/DX2                !
 ! R14   R(11,14)                1.094          estimate D2E/DX2                !
 ! R15   R(15,16)                1.0954         estimate D2E/DX2                !
 ! R16   R(15,17)                1.0952         estimate D2E/DX2                !
 ! R17   R(15,18)                1.0943         estimate D2E/DX2                !
 ! R18   R(15,19)                1.5059         estimate D2E/DX2                !
 ! R19   R(19,20)                1.5042         estimate D2E/DX2                !
 ! R20   R(19,24)                1.3451         estimate D2E/DX2                !
 ! R21   R(20,21)                1.0924         estimate D2E/DX2                !
 ! R22   R(20,22)                1.0952         estimate D2E/DX2                !
 ! R23   R(20,23)                1.0946         estimate D2E/DX2                !
 ! R24   R(24,25)                1.0917         estimate D2E/DX2                !
 ! R25   R(24,26)                1.5064         estimate D2E/DX2                !
 ! R26   R(26,27)                1.0958         estimate D2E/DX2                !
 ! R27   R(26,28)                1.0948         estimate D2E/DX2                !
 ! A1    A(2,1,3)              105.9004         estimate D2E/DX2                !
 ! A2    A(2,1,4)              107.7867         estimate D2E/DX2                !
 ! A3    A(2,1,26)             108.8353         estimate D2E/DX2                !
 ! A4    A(3,1,4)              108.4751         estimate D2E/DX2                !
 ! A5    A(3,1,26)             107.1316         estimate D2E/DX2                !
 ! A6    A(4,1,26)             118.0781         estimate D2E/DX2                !
 ! A7    A(1,4,5)              113.8881         estimate D2E/DX2                !
 ! A8    A(1,4,9)              122.7481         estimate D2E/DX2                !
 ! A9    A(5,4,9)              123.3638         estimate D2E/DX2                !
 ! A10   A(4,5,6)              112.8059         estimate D2E/DX2                !
 ! A11   A(4,5,7)              110.5902         estimate D2E/DX2                !
 ! A12   A(4,5,8)              110.0295         estimate D2E/DX2                !
 ! A13   A(6,5,7)              106.1483         estimate D2E/DX2                !
 ! A14   A(6,5,8)              108.8828         estimate D2E/DX2                !
 ! A15   A(7,5,8)              108.215          estimate D2E/DX2                !
 ! A16   A(4,9,10)             119.1696         estimate D2E/DX2                !
 ! A17   A(4,9,11)             127.6998         estimate D2E/DX2                !
 ! A18   A(10,9,11)            113.1195         estimate D2E/DX2                !
 ! A19   A(9,11,12)            113.7512         estimate D2E/DX2                !
 ! A20   A(9,11,13)            109.2888         estimate D2E/DX2                !
 ! A21   A(9,11,14)            109.868          estimate D2E/DX2                !
 ! A22   A(12,11,13)           107.3245         estimate D2E/DX2                !
 ! A23   A(12,11,14)           108.3622         estimate D2E/DX2                !
 ! A24   A(13,11,14)           108.0725         estimate D2E/DX2                !
 ! A25   A(16,15,17)           107.5807         estimate D2E/DX2                !
 ! A26   A(16,15,18)           107.7264         estimate D2E/DX2                !
 ! A27   A(16,15,19)           112.2673         estimate D2E/DX2                !
 ! A28   A(17,15,18)           108.6466         estimate D2E/DX2                !
 ! A29   A(17,15,19)           110.13           estimate D2E/DX2                !
 ! A30   A(18,15,19)           110.3677         estimate D2E/DX2                !
 ! A31   A(15,19,20)           114.8812         estimate D2E/DX2                !
 ! A32   A(15,19,24)           120.7443         estimate D2E/DX2                !
 ! A33   A(20,19,24)           124.3387         estimate D2E/DX2                !
 ! A34   A(19,20,21)           112.6341         estimate D2E/DX2                !
 ! A35   A(19,20,22)           110.6016         estimate D2E/DX2                !
 ! A36   A(19,20,23)           110.0553         estimate D2E/DX2                !
 ! A37   A(21,20,22)           106.4493         estimate D2E/DX2                !
 ! A38   A(21,20,23)           108.7175         estimate D2E/DX2                !
 ! A39   A(22,20,23)           108.2243         estimate D2E/DX2                !
 ! A40   A(19,24,25)           118.45           estimate D2E/DX2                !
 ! A41   A(19,24,26)           127.3486         estimate D2E/DX2                !
 ! A42   A(25,24,26)           114.1357         estimate D2E/DX2                !
 ! A43   A(1,26,24)            111.9919         estimate D2E/DX2                !
 ! A44   A(1,26,27)            111.1389         estimate D2E/DX2                !
 ! A45   A(1,26,28)            108.6092         estimate D2E/DX2                !
 ! A46   A(24,26,27)           109.1065         estimate D2E/DX2                !
 ! A47   A(24,26,28)           110.8157         estimate D2E/DX2                !
 ! A48   A(27,26,28)           104.9569         estimate D2E/DX2                !
 ! D1    D(2,1,4,5)             89.2633         estimate D2E/DX2                !
 ! D2    D(2,1,4,9)            -90.6913         estimate D2E/DX2                !
 ! D3    D(3,1,4,5)            -24.9754         estimate D2E/DX2                !
 ! D4    D(3,1,4,9)            155.07           estimate D2E/DX2                !
 ! D5    D(26,1,4,5)          -146.997          estimate D2E/DX2                !
 ! D6    D(26,1,4,9)            33.0484         estimate D2E/DX2                !
 ! D7    D(2,1,26,24)         -174.9993         estimate D2E/DX2                !
 ! D8    D(2,1,26,27)           62.6817         estimate D2E/DX2                !
 ! D9    D(2,1,26,28)          -52.2899         estimate D2E/DX2                !
 ! D10   D(3,1,26,24)          -60.9167         estimate D2E/DX2                !
 ! D11   D(3,1,26,27)          176.7643         estimate D2E/DX2                !
 ! D12   D(3,1,26,28)           61.7927         estimate D2E/DX2                !
 ! D13   D(4,1,26,24)           61.7857         estimate D2E/DX2                !
 ! D14   D(4,1,26,27)          -60.5332         estimate D2E/DX2                !
 ! D15   D(4,1,26,28)         -175.5048         estimate D2E/DX2                !
 ! D16   D(1,4,5,6)           -153.4127         estimate D2E/DX2                !
 ! D17   D(1,4,5,7)            -34.7098         estimate D2E/DX2                !
 ! D18   D(1,4,5,8)             84.7864         estimate D2E/DX2                !
 ! D19   D(9,4,5,6)             26.5416         estimate D2E/DX2                !
 ! D20   D(9,4,5,7)            145.2445         estimate D2E/DX2                !
 ! D21   D(9,4,5,8)            -95.2593         estimate D2E/DX2                !
 ! D22   D(1,4,9,10)             1.8095         estimate D2E/DX2                !
 ! D23   D(1,4,9,11)          -176.8858         estimate D2E/DX2                !
 ! D24   D(5,4,9,10)          -178.1408         estimate D2E/DX2                !
 ! D25   D(5,4,9,11)             3.1639         estimate D2E/DX2                !
 ! D26   D(4,9,11,12)            3.0871         estimate D2E/DX2                !
 ! D27   D(4,9,11,13)          123.0004         estimate D2E/DX2                !
 ! D28   D(4,9,11,14)         -118.579          estimate D2E/DX2                !
 ! D29   D(10,9,11,12)        -175.6742         estimate D2E/DX2                !
 ! D30   D(10,9,11,13)         -55.7608         estimate D2E/DX2                !
 ! D31   D(10,9,11,14)          62.6597         estimate D2E/DX2                !
 ! D32   D(16,15,19,20)       -177.552          estimate D2E/DX2                !
 ! D33   D(16,15,19,24)          0.3637         estimate D2E/DX2                !
 ! D34   D(17,15,19,20)        -57.7034         estimate D2E/DX2                !
 ! D35   D(17,15,19,24)        120.2123         estimate D2E/DX2                !
 ! D36   D(18,15,19,20)         62.2518         estimate D2E/DX2                !
 ! D37   D(18,15,19,24)       -119.8325         estimate D2E/DX2                !
 ! D38   D(15,19,20,21)       -153.1911         estimate D2E/DX2                !
 ! D39   D(15,19,20,22)        -34.2118         estimate D2E/DX2                !
 ! D40   D(15,19,20,23)         85.3196         estimate D2E/DX2                !
 ! D41   D(24,19,20,21)         28.9784         estimate D2E/DX2                !
 ! D42   D(24,19,20,22)        147.9577         estimate D2E/DX2                !
 ! D43   D(24,19,20,23)        -92.5109         estimate D2E/DX2                !
 ! D44   D(15,19,24,25)          0.9845         estimate D2E/DX2                !
 ! D45   D(15,19,24,26)       -175.8797         estimate D2E/DX2                !
 ! D46   D(20,19,24,25)        178.6945         estimate D2E/DX2                !
 ! D47   D(20,19,24,26)          1.8302         estimate D2E/DX2                !
 ! D48   D(19,24,26,1)          92.256          estimate D2E/DX2                !
 ! D49   D(19,24,26,27)       -144.2736         estimate D2E/DX2                !
 ! D50   D(19,24,26,28)        -29.192          estimate D2E/DX2                !
 ! D51   D(25,24,26,1)         -84.723          estimate D2E/DX2                !
 ! D52   D(25,24,26,27)         38.7474         estimate D2E/DX2                !
 ! D53   D(25,24,26,28)        153.829          estimate D2E/DX2                !
 --------------------------------------------------------------------------------
 Trust Radius=3.00D-01 FncErr=1.00D-07 GrdErr=1.00D-07 EigMax=2.50D+02 EigMin=1.00D-04
 Number of steps in this run=    138 maximum allowed number of steps=    168.
 GradGradGradGradGradGradGradGradGradGradGradGradGradGradGradGradGradGrad

 Leave Link  103 at Fri Sep 17 20:09:27 2021, MaxMem=   524288000 cpu:               0.0 elap:               0.0
 (Enter /opt/gaussian/g16_legacy/l202.exe)
                          Input orientation:                          
 ---------------------------------------------------------------------
 Center     Atomic      Atomic             Coordinates (Angstroms)
 Number     Number       Type             X           Y           Z
 ---------------------------------------------------------------------
      1          6           0        2.192100    1.204300   -8.877500
      2          1           0        1.898900    0.176500   -9.128300
      3          1           0        2.043200    1.792100   -9.794200
      4          6           0        3.679600    1.196200   -8.545200
      5          6           0        4.572200    1.413700   -9.738400
      6          1           0        5.562200    0.966800   -9.614100
      7          1           0        4.139400    0.951700  -10.632700
      8          1           0        4.688700    2.485700   -9.929200
      9          6           0        4.146800    1.009500   -7.293200
     10          1           0        3.440900    0.828000   -6.485300
     11          6           0        5.570000    1.044100   -6.833100
     12          1           0        6.280900    1.299400   -7.621400
     13          1           0        5.676500    1.794700   -6.042100
     14          1           0        5.850300    0.071500   -6.418000
     15          6           0        1.358700    5.672900   -7.732300
     16          1           0        2.158000    5.673000   -6.983300
     17          1           0        1.737200    6.190700   -8.620100
     18          1           0        0.519900    6.245200   -7.324500
     19          6           0        0.916000    4.279800   -8.094200
     20          6           0       -0.141100    4.209000   -9.162000
     21          1           0       -0.758400    3.311100   -9.083600
     22          1           0       -0.823600    5.062200   -9.085800
     23          1           0        0.324000    4.230100  -10.152600
     24          6           0        1.481200    3.206100   -7.513700
     25          1           0        2.256500    3.368800   -6.762600
     26          6           0        1.217300    1.755500   -7.822300
     27          1           0        1.270700    1.175800   -6.893900
     28          1           0        0.193900    1.614800   -8.184800
 ---------------------------------------------------------------------
                    Distance matrix (angstroms):
                    1          2          3          4          5
     1  C    0.000000
     2  H    1.097834   0.000000
     3  H    1.099099   1.753399   0.000000
     4  C    1.524187   2.133234   2.143106   0.000000
     5  C    2.539660   3.008225   2.557761   1.505911   0.000000
     6  H    3.457826   3.778934   3.618966   2.177006   1.093284
     7  H    2.633726   2.807845   2.409027   2.151477   1.095688
     8  H    2.996843   3.709020   2.738243   2.143956   1.095062
     9  C    2.523649   3.019029   3.360446   1.349310   2.514626
    10  H    2.724651   3.128524   3.719123   2.106119   3.493643
    11  C    3.951638   4.415614   4.665398   2.555002   3.094023
    12  H    4.278448   4.767974   4.787684   2.762394   2.722941
    13  H    4.530906   5.139403   5.222943   3.257502   3.876503
    14  H    4.551352   4.792735   5.371518   3.240659   3.802643
    15  C    4.687689   5.696582   4.447536   5.107663   5.700158
    16  H    4.853703   5.905901   4.793300   4.979612   5.617880
    17  H    5.013719   6.037799   4.562875   5.359436   5.666352
    18  H    5.533420   6.479541   5.315069   6.079985   6.752143
    19  C    3.420627   4.344252   3.217022   4.165270   4.928055
    20  C    3.814837   4.519269   3.318471   4.904605   5.510094
    21  H    3.631327   4.109618   3.265161   4.945556   5.695980
    22  H    4.901146   5.593199   4.406124   5.959615   6.546151
    23  H    3.777717   4.467793   3.004654   4.800868   5.113793
    24  C    2.524388   3.458306   2.741518   3.152246   4.209070
    25  H    3.026881   3.989385   3.423752   3.150090   4.247384
    26  C    1.538669   2.159504   2.138186   2.626466   3.878611
    27  H    2.187341   2.527010   3.064037   2.920618   4.364365
    28  H    2.154332   2.421967   2.457949   3.529195   4.650121
                    6          7          8          9         10
     6  H    0.000000
     7  H    1.749895   0.000000
     8  H    1.780266   1.774767   0.000000
     9  C    2.718779   3.340008   3.069417   0.000000
    10  H    3.782667   4.207628   4.020624   1.088090   0.000000
    11  C    2.782085   4.061048   3.527143   1.496124   2.168117
    12  H    2.144296   3.711448   3.044396   2.178564   3.094922
    13  H    3.668469   4.913953   4.069739   2.126446   2.475650
    14  H    3.331609   4.633101   4.416583   2.132541   2.526268
    15  C    6.584676   6.199544   5.106223   5.451019   5.418821
    16  H    6.376363   6.287666   5.024107   5.079330   5.036652
    17  H    6.550404   6.104772   4.914481   5.866146   6.018182
    18  H    7.650396   7.215685   6.188473   6.369296   6.211486
    19  C    5.905357   5.283043   4.562815   4.666319   4.569311
    20  C    6.576008   5.576347   5.185106   5.667036   5.605944
    21  H    6.762186   5.652869   5.573798   5.706477   5.527302
    22  H    7.604594   6.627253   6.142892   6.659029   6.548054
    23  H    6.194986   5.053284   4.705682   5.758666   5.893932
    24  C    5.106927   4.677233   4.079421   3.461083   3.248598
    25  H    4.982801   4.936128   4.089354   3.069376   2.816978
    26  C    4.765580   4.133172   4.125874   3.068947   2.755399
    27  H    5.085287   4.717869   4.755166   2.908444   2.235551
    28  H    5.592982   4.690297   4.899452   4.097165   3.748381
                   11         12         13         14         15
    11  C    0.000000
    12  H    1.091776   0.000000
    13  H    1.095638   1.762047   0.000000
    14  H    1.093996   1.772379   1.772266   0.000000
    15  C    6.322136   6.585427   6.044883   7.299146   0.000000
    16  H    5.752479   6.044324   5.320424   6.732715   1.095391
    17  H    6.661172   6.750365   6.441194   7.694897   1.095248
    18  H    7.266115   7.598566   6.931235   8.206673   1.094264
    19  C    5.806879   6.155362   5.748843   6.698265   1.505883
    20  C    6.932318   7.216738   7.029018   7.781087   2.537015
    21  H    7.088913   7.465702   7.277234   7.827857   3.447640
    22  H    7.880222   8.171723   7.886188   8.750153   2.639574
    23  H    6.977836   7.104972   7.174722   7.860101   3.001688
    24  C    4.675013   5.165678   4.664568   5.487742   2.479495
    25  H    4.048269   4.606056   3.833185   4.889410   2.656170
    26  C    4.520023   5.088068   4.801574   5.125681   3.920984
    27  H    4.301746   5.064251   4.529865   4.734838   4.575431
    28  H    5.572723   6.121149   5.889179   6.123579   4.246138
                   16         17         18         19         20
    16  H    0.000000
    17  H    1.767541   0.000000
    18  H    1.768390   1.778586   0.000000
    19  C    2.172020   2.145339   2.147587   0.000000
    20  C    3.489397   2.783667   2.821248   1.504217   0.000000
    21  H    4.300607   3.838613   3.652044   2.172765   1.092442
    22  H    3.699124   2.836915   2.511306   2.149797   1.095246
    23  H    3.935731   2.861755   3.478096   2.142416   1.094555
    24  C    2.612466   3.193352   3.193121   1.345088   2.520825
    25  H    2.316840   3.418055   3.406639   2.097622   3.494502
    26  C    4.115294   4.536274   4.570731   2.556717   3.108007
    27  H    4.584768   5.324154   5.142755   3.346842   4.041999
    28  H    4.665863   4.848724   4.720911   2.762582   2.792314
                   21         22         23         24         25
    21  H    0.000000
    22  H    1.752315   0.000000
    23  H    1.777333   1.774102   0.000000
    24  C    2.737046   3.350927   3.058019   0.000000
    25  H    3.805259   4.213298   3.996060   1.091656   0.000000
    26  C    2.813212   4.086070   3.514531   1.506359   2.192176
    27  H    3.670360   4.928958   4.565536   2.133209   2.407964
    28  H    2.142930   3.705627   3.275509   2.154008   3.058347
                   26         27         28
    26  C    0.000000
    27  H    1.095824   0.000000
    28  H    1.094783   1.737424   0.000000
 Stoichiometry    C10H18
 Framework group  C1[X(C10H18)]
 Deg. of freedom    78
 Full point group                 C1      NOp   1
 Largest Abelian subgroup         C1      NOp   1
 Largest concise Abelian subgroup C1      NOp   1
                         Standard orientation:                         
 ---------------------------------------------------------------------
 Center     Atomic      Atomic             Coordinates (Angstroms)
 Number     Number       Type             X           Y           Z
 ---------------------------------------------------------------------
      1          6           0       -0.563732   -1.388221   -0.305219
      2          1           0       -0.990870   -2.286720   -0.769431
      3          1           0       -0.006435   -1.739736    0.574483
      4          6           0       -1.719378   -0.516392    0.171793
      5          6           0       -2.172651   -0.819170    1.575587
      6          1           0       -3.221488   -0.562517    1.746879
      7          1           0       -2.082638   -1.890505    1.786944
      8          1           0       -1.552477   -0.274944    2.295563
      9          6           0       -2.280880    0.437548   -0.599796
     10          1           0       -1.919221    0.578348   -1.616318
     11          6           0       -3.368899    1.393891   -0.225615
     12          1           0       -3.687830    1.311699    0.815298
     13          1           0       -3.017270    2.420165   -0.379048
     14          1           0       -4.240821    1.234452   -0.866831
     15          6           0        2.887515    1.636628    0.650609
     16          1           0        2.230114    2.499062    0.495966
     17          1           0        2.997658    1.494123    1.730946
     18          1           0        3.866416    1.883997    0.228739
     19          6           0        2.344406    0.383972    0.015340
     20          6           0        3.173324   -0.850762    0.241163
     21          1           0        3.053419   -1.589060   -0.555059
     22          1           0        4.238804   -0.599153    0.272922
     23          1           0        2.902736   -1.315317    1.194590
     24          6           0        1.179561    0.403348   -0.656988
     25          1           0        0.645674    1.351456   -0.745123
     26          6           0        0.459957   -0.768270   -1.272290
     27          1           0       -0.020505   -0.445649   -2.202829
     28          1           0        1.169390   -1.545129   -1.575186
 ---------------------------------------------------------------------
 Rotational constants (GHZ):           2.0135244           0.6111435           0.5709174
 Leave Link  202 at Fri Sep 17 20:09:27 2021, MaxMem=   524288000 cpu:               0.0 elap:               0.0
 (Enter /opt/gaussian/g16_legacy/l301.exe)
 Standard basis: 6-31G(d,p) (6D, 7F)
 Ernie: Thresh=  0.10000D-02 Tol=  0.10000D-05 Strict=F.
 There are   240 symmetry adapted cartesian basis functions of A   symmetry.
 There are   240 symmetry adapted basis functions of A   symmetry.
   240 basis functions,   406 primitive gaussians,   240 cartesian basis functions
    39 alpha electrons       39 beta electrons
       nuclear repulsion energy       522.1134115510 Hartrees.
 IExCor=    0 DFT=F Ex=HF Corr=None ExCW=0 ScaHFX=  1.000000
 ScaDFX=  1.000000  1.000000  1.000000  1.000000 ScalE2=  1.000000  1.000000
 IRadAn=      5 IRanWt=     -1 IRanGd=            0 ICorTp=0 IEmpDi=  4
 NAtoms=   28 NActive=   28 NUniq=   28 SFac= 1.00D+00 NAtFMM=   60 NAOKFM=F Big=F
 Integral buffers will be    131072 words long.
 Raffenetti 1 integral format.
 Two-electron integral symmetry is turned on.
 Leave Link  301 at Fri Sep 17 20:09:27 2021, MaxMem=   524288000 cpu:               0.1 elap:               0.1
 (Enter /opt/gaussian/g16_legacy/l302.exe)
 NPDir=0 NMtPBC=     1 NCelOv=     1 NCel=       1 NClECP=     1 NCelD=      1
         NCelK=      1 NCelE2=     1 NClLst=     1 CellRange=     0.0.
 One-electron integrals computed using PRISM.
 One-electron integral symmetry used in STVInt
 NBasis=   240 RedAO= T EigKep=  2.18D-03  NBF=   240
 NBsUse=   240 1.00D-06 EigRej= -1.00D+00 NBFU=   240
 Leave Link  302 at Fri Sep 17 20:09:28 2021, MaxMem=   524288000 cpu:               0.3 elap:               0.3
 (Enter /opt/gaussian/g16_legacy/l303.exe)
 DipDrv:  MaxL=1.
 Leave Link  303 at Fri Sep 17 20:09:28 2021, MaxMem=   524288000 cpu:               0.1 elap:               0.1
 (Enter /opt/gaussian/g16_legacy/l401.exe)
 ExpMin= 1.61D-01 ExpMax= 3.05D+03 ExpMxC= 4.57D+02 IAcc=3 IRadAn=         5 AccDes= 0.00D+00
 Harris functional with IExCor=  205 and IRadAn=       5 diagonalized for initial guess.
 HarFok:  IExCor=  205 AccDes= 0.00D+00 IRadAn=         5 IDoV= 1 UseB2=F ITyADJ=14
 ICtDFT=  3500011 ScaDFX=  1.000000  1.000000  1.000000  1.000000
 FoFCou: FMM=F IPFlag=           0 FMFlag=      100000 FMFlg1=           0
         NFxFlg=           0 DoJE=T BraDBF=F KetDBF=T FulRan=T
         wScrn=  0.000000 ICntrl=       500 IOpCl=  0 I1Cent=   200000004 NGrid=           0
         NMat0=    1 NMatS0=      1 NMatT0=    0 NMatD0=    1 NMtDS0=    0 NMtDT0=    0
 Petite list used in FoFCou.
 Harris En= -390.106465057871    
 JPrj=0 DoOrth=F DoCkMO=F.
 Leave Link  401 at Fri Sep 17 20:09:39 2021, MaxMem=   524288000 cpu:              11.2 elap:              11.2
 (Enter /opt/gaussian/g16_legacy/l502.exe)
 Keep R1 ints in memory in canonical form, NReq=425198025.
 FoFCou: FMM=F IPFlag=           0 FMFlag=           0 FMFlg1=           0
         NFxFlg=           0 DoJE=F BraDBF=F KetDBF=F FulRan=T
         wScrn=  0.000000 ICntrl=       600 IOpCl=  0 I1Cent=           0 NGrid=           0
         NMat0=    1 NMatS0=  28920 NMatT0=    0 NMatD0=    1 NMtDS0=    0 NMtDT0=    0
 Symmetry not used in FoFCou.
 Two-electron integral symmetry not used.
 Closed shell SCF:
 Using DIIS extrapolation, IDIIS=  1040.
 NGot=   524288000 LenX=   105970886 LenY=   105912845
 Requested convergence on RMS density matrix=1.00D-08 within 128 cycles.
 Requested convergence on MAX density matrix=1.00D-06.
 Requested convergence on             energy=1.00D-06.
 No special actions if energy rises.

 Cycle   1  Pass 1  IDiag  1:
 E= -388.524602774433    
 DIIS: error= 5.29D-02 at cycle   1 NSaved=   1.
 NSaved= 1 IEnMin= 1 EnMin= -388.524602774433     IErMin= 1 ErrMin= 5.29D-02
 ErrMax= 5.29D-02  0.00D+00 EMaxC= 1.00D-01 BMatC= 8.10D-01 BMatP= 8.10D-01
 IDIUse=3 WtCom= 4.71D-01 WtEn= 5.29D-01
 Coeff-Com:  0.100D+01
 Coeff-En:   0.100D+01
 Coeff:      0.100D+01
 Gap=     0.524 Goal=   None    Shift=    0.000
 GapD=    0.524 DampG=2.000 DampE=0.500 DampFc=1.0000 IDamp=-1.
 RMSDP=4.06D-03 MaxDP=1.14D-01              OVMax= 1.39D-01

 Cycle   2  Pass 1  IDiag  1:
 E= -389.064031884346     Delta-E=       -0.539429109913 Rises=F Damp=F
 DIIS: error= 1.56D-02 at cycle   2 NSaved=   2.
 NSaved= 2 IEnMin= 2 EnMin= -389.064031884346     IErMin= 2 ErrMin= 1.56D-02
 ErrMax= 1.56D-02  0.00D+00 EMaxC= 1.00D-01 BMatC= 9.06D-02 BMatP= 8.10D-01
 IDIUse=3 WtCom= 8.44D-01 WtEn= 1.56D-01
 Coeff-Com:  0.188D+00 0.812D+00
 Coeff-En:   0.000D+00 0.100D+01
 Coeff:      0.158D+00 0.842D+00
 Gap=     0.562 Goal=   None    Shift=    0.000
 RMSDP=1.75D-03 MaxDP=3.06D-02 DE=-5.39D-01 OVMax= 4.56D-02

 Cycle   3  Pass 1  IDiag  1:
 E= -389.145509648038     Delta-E=       -0.081477763692 Rises=F Damp=F
 DIIS: error= 2.42D-03 at cycle   3 NSaved=   3.
 NSaved= 3 IEnMin= 3 EnMin= -389.145509648038     IErMin= 3 ErrMin= 2.42D-03
 ErrMax= 2.42D-03  0.00D+00 EMaxC= 1.00D-01 BMatC= 3.40D-03 BMatP= 9.06D-02
 IDIUse=3 WtCom= 9.76D-01 WtEn= 2.42D-02
 Coeff-Com: -0.245D-01 0.110D+00 0.915D+00
 Coeff-En:   0.000D+00 0.000D+00 0.100D+01
 Coeff:     -0.239D-01 0.107D+00 0.917D+00
 Gap=     0.506 Goal=   None    Shift=    0.000
 RMSDP=2.73D-04 MaxDP=5.75D-03 DE=-8.15D-02 OVMax= 1.08D-02

 Cycle   4  Pass 1  IDiag  1:
 E= -389.149445656420     Delta-E=       -0.003936008382 Rises=F Damp=F
 DIIS: error= 4.12D-04 at cycle   4 NSaved=   4.
 NSaved= 4 IEnMin= 4 EnMin= -389.149445656420     IErMin= 4 ErrMin= 4.12D-04
 ErrMax= 4.12D-04  0.00D+00 EMaxC= 1.00D-01 BMatC= 8.26D-05 BMatP= 3.40D-03
 IDIUse=3 WtCom= 9.96D-01 WtEn= 4.12D-03
 Coeff-Com: -0.352D-02-0.532D-02 0.625D-01 0.946D+00
 Coeff-En:   0.000D+00 0.000D+00 0.000D+00 0.100D+01
 Coeff:     -0.350D-02-0.529D-02 0.622D-01 0.947D+00
 Gap=     0.506 Goal=   None    Shift=    0.000
 RMSDP=8.20D-05 MaxDP=1.90D-03 DE=-3.94D-03 OVMax= 3.21D-03

 Cycle   5  Pass 1  IDiag  1:
 E= -389.149564273948     Delta-E=       -0.000118617528 Rises=F Damp=F
 DIIS: error= 1.53D-04 at cycle   5 NSaved=   5.
 NSaved= 5 IEnMin= 5 EnMin= -389.149564273948     IErMin= 5 ErrMin= 1.53D-04
 ErrMax= 1.53D-04  0.00D+00 EMaxC= 1.00D-01 BMatC= 1.38D-05 BMatP= 8.26D-05
 IDIUse=3 WtCom= 9.98D-01 WtEn= 1.53D-03
 Coeff-Com:  0.208D-02-0.139D-01-0.881D-01 0.169D+00 0.931D+00
 Coeff-En:   0.000D+00 0.000D+00 0.000D+00 0.000D+00 0.100D+01
 Coeff:      0.207D-02-0.139D-01-0.879D-01 0.169D+00 0.931D+00
 Gap=     0.506 Goal=   None    Shift=    0.000
 RMSDP=2.81D-05 MaxDP=6.15D-04 DE=-1.19D-04 OVMax= 1.05D-03

 Cycle   6  Pass 1  IDiag  1:
 E= -389.149583440051     Delta-E=       -0.000019166103 Rises=F Damp=F
 DIIS: error= 4.78D-05 at cycle   6 NSaved=   6.
 NSaved= 6 IEnMin= 6 EnMin= -389.149583440051     IErMin= 6 ErrMin= 4.78D-05
 ErrMax= 4.78D-05  0.00D+00 EMaxC= 1.00D-01 BMatC= 8.59D-07 BMatP= 1.38D-05
 IDIUse=1 WtCom= 1.00D+00 WtEn= 0.00D+00
 Coeff-Com:  0.765D-03-0.350D-02-0.268D-01-0.177D-01 0.223D+00 0.824D+00
 Coeff:      0.765D-03-0.350D-02-0.268D-01-0.177D-01 0.223D+00 0.824D+00
 Gap=     0.506 Goal=   None    Shift=    0.000
 RMSDP=6.25D-06 MaxDP=1.41D-04 DE=-1.92D-05 OVMax= 4.54D-04

 Cycle   7  Pass 1  IDiag  1:
 E= -389.149584637975     Delta-E=       -0.000001197923 Rises=F Damp=F
 DIIS: error= 1.10D-05 at cycle   7 NSaved=   7.
 NSaved= 7 IEnMin= 7 EnMin= -389.149584637975     IErMin= 7 ErrMin= 1.10D-05
 ErrMax= 1.10D-05  0.00D+00 EMaxC= 1.00D-01 BMatC= 4.72D-08 BMatP= 8.59D-07
 IDIUse=1 WtCom= 1.00D+00 WtEn= 0.00D+00
 Coeff-Com: -0.526D-04 0.450D-03 0.300D-02-0.101D-01-0.426D-01 0.748D-01
 Coeff-Com:  0.975D+00
 Coeff:     -0.526D-04 0.450D-03 0.300D-02-0.101D-01-0.426D-01 0.748D-01
 Coeff:      0.975D+00
 Gap=     0.506 Goal=   None    Shift=    0.000
 RMSDP=1.88D-06 MaxDP=4.20D-05 DE=-1.20D-06 OVMax= 1.42D-04

 Cycle   8  Pass 1  IDiag  1:
 E= -389.149584736421     Delta-E=       -0.000000098446 Rises=F Damp=F
 DIIS: error= 3.31D-06 at cycle   8 NSaved=   8.
 NSaved= 8 IEnMin= 8 EnMin= -389.149584736421     IErMin= 8 ErrMin= 3.31D-06
 ErrMax= 3.31D-06  0.00D+00 EMaxC= 1.00D-01 BMatC= 6.38D-09 BMatP= 4.72D-08
 IDIUse=1 WtCom= 1.00D+00 WtEn= 0.00D+00
 Coeff-Com: -0.739D-04 0.329D-03 0.265D-02 0.340D-02-0.245D-01-0.868D-01
 Coeff-Com: -0.544D-01 0.116D+01
 Coeff:     -0.739D-04 0.329D-03 0.265D-02 0.340D-02-0.245D-01-0.868D-01
 Coeff:     -0.544D-01 0.116D+01
 Gap=     0.506 Goal=   None    Shift=    0.000
 RMSDP=8.66D-07 MaxDP=2.24D-05 DE=-9.84D-08 OVMax= 7.20D-05

 Cycle   9  Pass 1  IDiag  1:
 E= -389.149584756061     Delta-E=       -0.000000019640 Rises=F Damp=F
 DIIS: error= 1.36D-06 at cycle   9 NSaved=   9.
 NSaved= 9 IEnMin= 9 EnMin= -389.149584756061     IErMin= 9 ErrMin= 1.36D-06
 ErrMax= 1.36D-06  0.00D+00 EMaxC= 1.00D-01 BMatC= 7.47D-10 BMatP= 6.38D-09
 IDIUse=1 WtCom= 1.00D+00 WtEn= 0.00D+00
 Coeff-Com:  0.103D-04-0.773D-04-0.536D-03 0.142D-02 0.576D-02-0.410D-03
 Coeff-Com: -0.108D+00-0.117D+00 0.122D+01
 Coeff:      0.103D-04-0.773D-04-0.536D-03 0.142D-02 0.576D-02-0.410D-03
 Coeff:     -0.108D+00-0.117D+00 0.122D+01
 Gap=     0.506 Goal=   None    Shift=    0.000
 RMSDP=3.61D-07 MaxDP=1.02D-05 DE=-1.96D-08 OVMax= 3.88D-05

 Cycle  10  Pass 1  IDiag  1:
 E= -389.149584759138     Delta-E=       -0.000000003077 Rises=F Damp=F
 DIIS: error= 4.98D-07 at cycle  10 NSaved=  10.
 NSaved=10 IEnMin=10 EnMin= -389.149584759138     IErMin=10 ErrMin= 4.98D-07
 ErrMax= 4.98D-07  0.00D+00 EMaxC= 1.00D-01 BMatC= 1.01D-10 BMatP= 7.47D-10
 IDIUse=1 WtCom= 1.00D+00 WtEn= 0.00D+00
 Coeff-Com:  0.867D-05-0.402D-04-0.320D-03-0.372D-03 0.259D-02 0.114D-01
 Coeff-Com:  0.959D-02-0.165D+00-0.114D-01 0.115D+01
 Coeff:      0.867D-05-0.402D-04-0.320D-03-0.372D-03 0.259D-02 0.114D-01
 Coeff:      0.959D-02-0.165D+00-0.114D-01 0.115D+01
 Gap=     0.506 Goal=   None    Shift=    0.000
 RMSDP=1.35D-07 MaxDP=3.53D-06 DE=-3.08D-09 OVMax= 1.11D-05

 Cycle  11  Pass 1  IDiag  1:
 E= -389.149584759452     Delta-E=       -0.000000000314 Rises=F Damp=F
 DIIS: error= 1.98D-07 at cycle  11 NSaved=  11.
 NSaved=11 IEnMin=11 EnMin= -389.149584759452     IErMin=11 ErrMin= 1.98D-07
 ErrMax= 1.98D-07  0.00D+00 EMaxC= 1.00D-01 BMatC= 7.67D-12 BMatP= 1.01D-10
 IDIUse=1 WtCom= 1.00D+00 WtEn= 0.00D+00
 Coeff-Com:  0.741D-06-0.950D-06-0.123D-04-0.166D-03-0.968D-04 0.225D-02
 Coeff-Com:  0.118D-01-0.160D-01-0.868D-01 0.212D+00 0.877D+00
 Coeff:      0.741D-06-0.950D-06-0.123D-04-0.166D-03-0.968D-04 0.225D-02
 Coeff:      0.118D-01-0.160D-01-0.868D-01 0.212D+00 0.877D+00
 Gap=     0.506 Goal=   None    Shift=    0.000
 RMSDP=2.02D-08 MaxDP=7.08D-07 DE=-3.14D-10 OVMax= 1.90D-06

 Cycle  12  Pass 1  IDiag  1:
 E= -389.149584759465     Delta-E=       -0.000000000013 Rises=F Damp=F
 DIIS: error= 4.95D-08 at cycle  12 NSaved=  12.
 NSaved=12 IEnMin=12 EnMin= -389.149584759465     IErMin=12 ErrMin= 4.95D-08
 ErrMax= 4.95D-08  0.00D+00 EMaxC= 1.00D-01 BMatC= 1.31D-12 BMatP= 7.67D-12
 IDIUse=1 WtCom= 1.00D+00 WtEn= 0.00D+00
 Coeff-Com: -0.101D-05 0.521D-05 0.405D-04 0.281D-04-0.374D-03-0.124D-02
 Coeff-Com: -0.608D-04 0.183D-01-0.138D-01-0.145D+00 0.124D+00 0.102D+01
 Coeff:     -0.101D-05 0.521D-05 0.405D-04 0.281D-04-0.374D-03-0.124D-02
 Coeff:     -0.608D-04 0.183D-01-0.138D-01-0.145D+00 0.124D+00 0.102D+01
 Gap=     0.506 Goal=   None    Shift=    0.000
 RMSDP=1.23D-08 MaxDP=2.79D-07 DE=-1.32D-11 OVMax= 7.15D-07

 Cycle  13  Pass 1  IDiag  1:
 E= -389.149584759466     Delta-E=       -0.000000000001 Rises=F Damp=F
 DIIS: error= 1.07D-08 at cycle  13 NSaved=  13.
 NSaved=13 IEnMin=13 EnMin= -389.149584759466     IErMin=13 ErrMin= 1.07D-08
 ErrMax= 1.07D-08  0.00D+00 EMaxC= 1.00D-01 BMatC= 3.35D-14 BMatP= 1.31D-12
 IDIUse=1 WtCom= 1.00D+00 WtEn= 0.00D+00
 Coeff-Com: -0.787D-07 0.283D-06 0.231D-05 0.116D-04-0.148D-04-0.160D-03
 Coeff-Com: -0.637D-03 0.187D-02 0.513D-02-0.171D-01-0.395D-01 0.520D-01
 Coeff-Com:  0.998D+00
 Coeff:     -0.787D-07 0.283D-06 0.231D-05 0.116D-04-0.148D-04-0.160D-03
 Coeff:     -0.637D-03 0.187D-02 0.513D-02-0.171D-01-0.395D-01 0.520D-01
 Coeff:      0.998D+00
 Gap=     0.506 Goal=   None    Shift=    0.000
 RMSDP=1.60D-09 MaxDP=3.69D-08 DE=-9.09D-13 OVMax= 6.49D-08

 SCF Done:  E(RHF) =  -389.149584759     A.U. after   13 cycles
            NFock= 13  Conv=0.16D-08     -V/T= 2.0014
 KE= 3.886000513412D+02 PE=-1.948937905764D+03 EE= 6.490748581127D+02
 Leave Link  502 at Fri Sep 17 20:10:16 2021, MaxMem=   524288000 cpu:              36.6 elap:              36.6
 (Enter /opt/gaussian/g16_legacy/l801.exe)
 ExpMin= 1.61D-01 ExpMax= 3.05D+03 ExpMxC= 4.57D+02 IAcc=3 IRadAn=         5 AccDes= 0.00D+00
 HarFok:  IExCor=  205 AccDes= 0.00D+00 IRadAn=         5 IDoV=-2 UseB2=F ITyADJ=14
 ICtDFT= 12500011 ScaDFX=  1.000000  1.000000  1.000000  1.000000
 Largest valence mixing into a core orbital is  1.98D-04
 Largest core mixing into a valence orbital is  3.53D-05
 Range of M.O.s used for correlation:    11   240
 NBasis=   240 NAE=    39 NBE=    39 NFC=    10 NFV=     0
 NROrb=    230 NOA=    29 NOB=    29 NVA=   201 NVB=   201
 Leave Link  801 at Fri Sep 17 20:10:17 2021, MaxMem=   524288000 cpu:               1.7 elap:               1.7
 (Enter /opt/gaussian/g16_legacy/l906.exe)
 Frozen-core derivative calculation, NFC=  10 NFV=   0.
 FulOut=F Deriv=T AODrv=T NAtomX=    28
   MMem=          88  MDisk=          29 MDiskD=          29
  W3Min=     2246400 MinDsk=     2795480 NBas6D=         240
 NBas2D=       29244    NTT=       28920    LW2=     2040000
    MDV=   523625110 MDiskM=       30186 NBas2p=       24424
 Fully direct method using O(ONN) memory.
 IMap=   1   2   3   4   5   6   7   8   9  10  11  12  13  14  15  16  17  18  19  20
 IMap=  21  22  23  24  25  26  27  28  29  30  31  32  33  34  35  36  37  38  39
 JobTyp=1 Pass  1:  I=  11 to  39 NPSUse=  1 ParTrn=F ParDer=F DoDerP=T.
 Spin components of T(2) and E(2):
     alpha-alpha T2 =       0.5721442460D-01 E2=     -0.1639414833D+00
     alpha-beta  T2 =       0.3623223258D+00 E2=     -0.1090110695D+01
     beta-beta   T2 =       0.5721442460D-01 E2=     -0.1639414833D+00
 The integrals were generated   1 times.
 ANorm=    0.1215216514D+01
 E2 =    -0.1417993662D+01 EUMP2 =    -0.39056757842115D+03
 Leave Link  906 at Fri Sep 17 20:14:50 2021, MaxMem=   524288000 cpu:             272.6 elap:             272.6
 (Enter /opt/gaussian/g16_legacy/l1002.exe)
 Minotr:  Closed shell wavefunction.
          Computing MP2/KS-MP2 derivatives.
          Using Z-Vector for PSCF gradient.
          Skipping F1 and S1 gradient terms here.
          IDoAtm=1111111111111111111111111111
          Frozen-core window.
          Direct CPHF calculation.
          Differentiating once with respect to electric field.
                with respect to dipole field.
          Differentiating once with respect to nuclear coordinates.
          Requested convergence is 1.0D-10 RMS, and 1.0D-09 maximum.
          NewPWx=F KeepS1=T KeepF1=T KeepIn=T MapXYZ=F SortEE=F KeepMc=T.
 Keep R1 ints in memory in canonical form, NReq=425201067.
 FoFCou: FMM=F IPFlag=           0 FMFlag=           0 FMFlg1=           0
         NFxFlg=           0 DoJE=F BraDBF=F KetDBF=F FulRan=T
         wScrn=  0.000000 ICntrl=       600 IOpCl=  0 I1Cent=           0 NGrid=           0
         NMat0=    1 NMatS0=  28920 NMatT0=    0 NMatD0=    1 NMtDS0=    0 NMtDT0=    0
 Symmetry not used in FoFCou.
 Two-electron integral symmetry not used.
          MDV=     524288000 using IRadAn=       5.
          Solving linear equations separately, MaxMat=       0.
          There are     1 degrees of freedom in the 1st order CPHF.  IDoFFX=0 NUNeed=     1.
 LinEq1:  Iter=  0 NonCon=     1 RMS=2.53D-03 Max=4.14D-02 NDo=     1
 AX will form     1 AO Fock derivatives at one time.
 LinEq1:  Iter=  1 NonCon=     1 RMS=6.94D-04 Max=8.43D-03 NDo=     1
 LinEq1:  Iter=  2 NonCon=     1 RMS=1.68D-04 Max=4.82D-03 NDo=     1
 LinEq1:  Iter=  3 NonCon=     1 RMS=4.21D-05 Max=5.07D-04 NDo=     1
 LinEq1:  Iter=  4 NonCon=     1 RMS=2.10D-05 Max=9.61D-04 NDo=     1
 LinEq1:  Iter=  5 NonCon=     1 RMS=5.61D-06 Max=6.39D-05 NDo=     1
 LinEq1:  Iter=  6 NonCon=     1 RMS=1.68D-06 Max=4.03D-05 NDo=     1
 LinEq1:  Iter=  7 NonCon=     1 RMS=4.06D-07 Max=4.68D-06 NDo=     1
 LinEq1:  Iter=  8 NonCon=     1 RMS=1.05D-07 Max=1.31D-06 NDo=     1
 LinEq1:  Iter=  9 NonCon=     1 RMS=2.71D-08 Max=6.99D-07 NDo=     1
 LinEq1:  Iter= 10 NonCon=     1 RMS=9.38D-09 Max=1.46D-07 NDo=     1
 LinEq1:  Iter= 11 NonCon=     1 RMS=3.31D-09 Max=9.61D-08 NDo=     1
 LinEq1:  Iter= 12 NonCon=     1 RMS=8.13D-10 Max=1.28D-08 NDo=     1
 LinEq1:  Iter= 13 NonCon=     1 RMS=2.42D-10 Max=5.51D-09 NDo=     1
 LinEq1:  Iter= 14 NonCon=     0 RMS=6.76D-11 Max=7.71D-10 NDo=     1
 Linear equations converged to 1.000D-10 1.000D-09 after    14 iterations.
 End of Minotr F.D. properties file   721 does not exist.
 End of Minotr F.D. properties file   722 does not exist.
 End of Minotr F.D. properties file   788 does not exist.
 Leave Link 1002 at Fri Sep 17 20:15:27 2021, MaxMem=   524288000 cpu:              36.9 elap:              36.9
 (Enter /opt/gaussian/g16_legacy/l601.exe)
 Copying SCF densities to generalized density rwf, IOpCl= 0 IROHF=0.

 **********************************************************************

            Population analysis using the SCF density.

 **********************************************************************

 Orbital symmetries:
       Occupied  (A) (A) (A) (A) (A) (A) (A) (A) (A) (A) (A) (A)
                 (A) (A) (A) (A) (A) (A) (A) (A) (A) (A) (A) (A)
                 (A) (A) (A) (A) (A) (A) (A) (A) (A) (A) (A) (A)
                 (A) (A) (A)
       Virtual   (A) (A) (A) (A) (A) (A) (A) (A) (A) (A) (A) (A)
                 (A) (A) (A) (A) (A) (A) (A) (A) (A) (A) (A) (A)
                 (A) (A) (A) (A) (A) (A) (A) (A) (A) (A) (A) (A)
                 (A) (A) (A) (A) (A) (A) (A) (A) (A) (A) (A) (A)
                 (A) (A) (A) (A) (A) (A) (A) (A) (A) (A) (A) (A)
                 (A) (A) (A) (A) (A) (A) (A) (A) (A) (A) (A) (A)
                 (A) (A) (A) (A) (A) (A) (A) (A) (A) (A) (A) (A)
                 (A) (A) (A) (A) (A) (A) (A) (A) (A) (A) (A) (A)
                 (A) (A) (A) (A) (A) (A) (A) (A) (A) (A) (A) (A)
                 (A) (A) (A) (A) (A) (A) (A) (A) (A) (A) (A) (A)
                 (A) (A) (A) (A) (A) (A) (A) (A) (A) (A) (A) (A)
                 (A) (A) (A) (A) (A) (A) (A) (A) (A) (A) (A) (A)
                 (A) (A) (A) (A) (A) (A) (A) (A) (A) (A) (A) (A)
                 (A) (A) (A) (A) (A) (A) (A) (A) (A) (A) (A) (A)
                 (A) (A) (A) (A) (A) (A) (A) (A) (A) (A) (A) (A)
                 (A) (A) (A) (A) (A) (A) (A) (A) (A) (A) (A) (A)
                 (A) (A) (A) (A) (A) (A) (A) (A) (A)
 The electronic state is 1-A.
 Alpha  occ. eigenvalues --  -11.22778 -11.22663 -11.22109 -11.21853 -11.21681
 Alpha  occ. eigenvalues --  -11.21540 -11.21446 -11.21446 -11.21318 -11.20963
 Alpha  occ. eigenvalues --   -1.10423  -1.08009  -1.01774  -0.97610  -0.93479
 Alpha  occ. eigenvalues --   -0.91683  -0.87339  -0.82449  -0.70308  -0.68591
 Alpha  occ. eigenvalues --   -0.63517  -0.61826  -0.60710  -0.58596  -0.57622
 Alpha  occ. eigenvalues --   -0.57595  -0.55344  -0.54170  -0.53679  -0.52678
 Alpha  occ. eigenvalues --   -0.52390  -0.50799  -0.50293  -0.49355  -0.46874
 Alpha  occ. eigenvalues --   -0.45999  -0.44293  -0.32241  -0.31966
 Alpha virt. eigenvalues --    0.18656   0.19170   0.22910   0.24739   0.25598
 Alpha virt. eigenvalues --    0.26604   0.28443   0.29521   0.30085   0.30896
 Alpha virt. eigenvalues --    0.31649   0.32233   0.32634   0.33065   0.34113
 Alpha virt. eigenvalues --    0.35235   0.36956   0.37715   0.38698   0.40327
 Alpha virt. eigenvalues --    0.41560   0.41742   0.43392   0.44293   0.45495
 Alpha virt. eigenvalues --    0.51699   0.52700   0.60843   0.63246   0.69547
 Alpha virt. eigenvalues --    0.71465   0.71990   0.73757   0.75312   0.76818
 Alpha virt. eigenvalues --    0.78199   0.78887   0.80252   0.81907   0.82686
 Alpha virt. eigenvalues --    0.85902   0.86595   0.89582   0.90460   0.92581
 Alpha virt. eigenvalues --    0.92888   0.94472   0.95620   0.96981   0.98572
 Alpha virt. eigenvalues --    0.99899   1.01501   1.03129   1.05566   1.06449
 Alpha virt. eigenvalues --    1.07569   1.08245   1.11061   1.12468   1.12965
 Alpha virt. eigenvalues --    1.13397   1.13822   1.14306   1.14809   1.15567
 Alpha virt. eigenvalues --    1.16780   1.17270   1.17943   1.18791   1.20041
 Alpha virt. eigenvalues --    1.21584   1.22062   1.23329   1.24171   1.26159
 Alpha virt. eigenvalues --    1.28650   1.31181   1.37548   1.41195   1.45164
 Alpha virt. eigenvalues --    1.46424   1.50826   1.54237   1.56592   1.58163
 Alpha virt. eigenvalues --    1.63238   1.67411   1.69038   1.70083   1.71917
 Alpha virt. eigenvalues --    1.76233   1.82109   1.87213   1.92088   1.95410
 Alpha virt. eigenvalues --    2.00226   2.00644   2.02122   2.05357   2.06795
 Alpha virt. eigenvalues --    2.08671   2.10725   2.12548   2.13890   2.14772
 Alpha virt. eigenvalues --    2.16170   2.20159   2.23614   2.26554   2.28478
 Alpha virt. eigenvalues --    2.29103   2.30667   2.34342   2.34575   2.35412
 Alpha virt. eigenvalues --    2.35876   2.36894   2.37165   2.39925   2.40432
 Alpha virt. eigenvalues --    2.41326   2.41580   2.43598   2.44191   2.45124
 Alpha virt. eigenvalues --    2.46779   2.48902   2.49845   2.50760   2.54006
 Alpha virt. eigenvalues --    2.55239   2.58435   2.60201   2.61436   2.63698
 Alpha virt. eigenvalues --    2.66009   2.69463   2.70786   2.72359   2.73933
 Alpha virt. eigenvalues --    2.76626   2.78621   2.79347   2.82683   2.84729
 Alpha virt. eigenvalues --    2.86164   2.89079   2.89614   2.92090   2.93543
 Alpha virt. eigenvalues --    2.94091   2.97893   2.99548   3.02254   3.05094
 Alpha virt. eigenvalues --    3.05873   3.07319   3.07985   3.11805   3.14533
 Alpha virt. eigenvalues --    3.16191   3.19689   3.19892   3.20345   3.21543
 Alpha virt. eigenvalues --    3.23729   3.24849   3.25446   3.26667   3.37881
 Alpha virt. eigenvalues --    3.40006   3.42459   3.46273   3.55803   3.56360
 Alpha virt. eigenvalues --    3.60291   3.60971   3.67979   3.71259   3.78561
 Alpha virt. eigenvalues --    3.79407   3.80826   3.81211   3.81946   3.83001
 Alpha virt. eigenvalues --    3.83456   3.85741   3.87596   3.90235   3.91168
 Alpha virt. eigenvalues --    3.95071   4.58627   4.61381   4.75722   4.82326
 Alpha virt. eigenvalues --    4.89859   4.92287   4.93017   5.04276   5.10862
 Alpha virt. eigenvalues --    5.17000
          Condensed to atoms (all electrons):
               1          2          3          4          5          6
     1  C    4.973033   0.397333   0.413182   0.341768  -0.051962   0.003557
     2  H    0.397333   0.591675  -0.032157  -0.038208  -0.000067  -0.000200
     3  H    0.413182  -0.032157   0.599568  -0.050536  -0.005530   0.000245
     4  C    0.341768  -0.038208  -0.050536   4.944441   0.346099  -0.038657
     5  C   -0.051962  -0.000067  -0.005530   0.346099   4.915320   0.405627
     6  H    0.003557  -0.000200   0.000245  -0.038657   0.405627   0.573776
     7  H   -0.004782   0.001383  -0.001367  -0.043855   0.406408  -0.031291
     8  H    0.000105  -0.000034   0.001494  -0.040696   0.395206  -0.026243
     9  C   -0.054263  -0.003467   0.003012   0.693945  -0.050781  -0.002741
    10  H   -0.005006   0.000443   0.000016  -0.038230   0.003389   0.000026
    11  C    0.002908  -0.000121  -0.000067  -0.045690  -0.007911  -0.002287
    12  H    0.000086  -0.000000  -0.000003  -0.000377  -0.001680  -0.001411
    13  H   -0.000040  -0.000006   0.000007  -0.000439   0.000164  -0.000050
    14  H   -0.000146   0.000026  -0.000001  -0.000822   0.000393   0.000197
    15  C   -0.000114   0.000002  -0.000052   0.000007   0.000000  -0.000000
    16  H   -0.000003   0.000000  -0.000001  -0.000004  -0.000000   0.000000
    17  H    0.000035  -0.000000  -0.000007  -0.000002   0.000001  -0.000000
    18  H   -0.000005   0.000000   0.000002   0.000000  -0.000000   0.000000
    19  C   -0.004146   0.000018   0.002010   0.000497  -0.000100   0.000001
    20  C    0.000443  -0.000000  -0.000020  -0.000016   0.000001  -0.000000
    21  H   -0.000348   0.000040   0.000070   0.000005  -0.000001   0.000000
    22  H   -0.000027   0.000001   0.000017  -0.000000  -0.000000   0.000000
    23  H    0.000519  -0.000029  -0.000146  -0.000007   0.000006  -0.000000
    24  C   -0.067862   0.005870  -0.003460  -0.002483  -0.000503   0.000000
    25  H    0.000027  -0.000060  -0.000009   0.002184  -0.000023   0.000002
    26  C    0.346605  -0.038764  -0.042517  -0.041466   0.003418  -0.000088
    27  H   -0.040304  -0.002413   0.004785  -0.004275  -0.000052   0.000002
    28  H   -0.040483  -0.002685  -0.003777   0.004232  -0.000085   0.000001
               7          8          9         10         11         12
     1  C   -0.004782   0.000105  -0.054263  -0.005006   0.002908   0.000086
     2  H    0.001383  -0.000034  -0.003467   0.000443  -0.000121  -0.000000
     3  H   -0.001367   0.001494   0.003012   0.000016  -0.000067  -0.000003
     4  C   -0.043855  -0.040696   0.693945  -0.038230  -0.045690  -0.000377
     5  C    0.406408   0.395206  -0.050781   0.003389  -0.007911  -0.001680
     6  H   -0.031291  -0.026243  -0.002741   0.000026  -0.002287  -0.001411
     7  H    0.586275  -0.031177   0.002092  -0.000105   0.000139   0.000014
     8  H   -0.031177   0.574600  -0.002797  -0.000132   0.000677  -0.000144
     9  C    0.002092  -0.002797   4.954393   0.406097   0.340857  -0.041997
    10  H   -0.000105  -0.000132   0.406097   0.563240  -0.043808   0.003409
    11  C    0.000139   0.000677   0.340857  -0.043808   4.897004   0.408204
    12  H    0.000014  -0.000144  -0.041997   0.003409   0.408204   0.573887
    13  H   -0.000014   0.000129  -0.045254  -0.002167   0.404776  -0.029234
    14  H    0.000022  -0.000065  -0.043564  -0.000728   0.398240  -0.027629
    15  C    0.000000  -0.000001  -0.000001   0.000000  -0.000000   0.000000
    16  H   -0.000000   0.000001  -0.000004  -0.000000   0.000000   0.000000
    17  H   -0.000000  -0.000003  -0.000000   0.000000   0.000000  -0.000000
    18  H   -0.000000   0.000000   0.000000  -0.000000   0.000000  -0.000000
    19  C   -0.000001   0.000069   0.000126  -0.000009   0.000000   0.000000
    20  C   -0.000000  -0.000002  -0.000001   0.000000   0.000000  -0.000000
    21  H   -0.000000   0.000000  -0.000000  -0.000000   0.000000  -0.000000
    22  H   -0.000000   0.000000   0.000000  -0.000000  -0.000000   0.000000
    23  H    0.000000  -0.000006  -0.000000   0.000000   0.000000   0.000000
    24  C    0.000017   0.000314  -0.000824  -0.000295  -0.000026  -0.000000
    25  H    0.000001  -0.000033   0.001599   0.000078  -0.000028   0.000000
    26  C    0.000171  -0.000203  -0.004947  -0.000587   0.000009  -0.000002
    27  H   -0.000005   0.000006  -0.000593  -0.000527   0.000002  -0.000001
    28  H   -0.000001  -0.000001   0.000117   0.000006   0.000000   0.000000
              13         14         15         16         17         18
     1  C   -0.000040  -0.000146  -0.000114  -0.000003   0.000035  -0.000005
     2  H   -0.000006   0.000026   0.000002   0.000000  -0.000000   0.000000
     3  H    0.000007  -0.000001  -0.000052  -0.000001  -0.000007   0.000002
     4  C   -0.000439  -0.000822   0.000007  -0.000004  -0.000002   0.000000
     5  C    0.000164   0.000393   0.000000  -0.000000   0.000001  -0.000000
     6  H   -0.000050   0.000197  -0.000000   0.000000  -0.000000   0.000000
     7  H   -0.000014   0.000022   0.000000  -0.000000  -0.000000  -0.000000
     8  H    0.000129  -0.000065  -0.000001   0.000001  -0.000003   0.000000
     9  C   -0.045254  -0.043564  -0.000001  -0.000004  -0.000000   0.000000
    10  H   -0.002167  -0.000728   0.000000  -0.000000   0.000000  -0.000000
    11  C    0.404776   0.398240  -0.000000   0.000000   0.000000   0.000000
    12  H   -0.029234  -0.027629   0.000000   0.000000  -0.000000  -0.000000
    13  H    0.587707  -0.034149  -0.000000   0.000000  -0.000000   0.000000
    14  H   -0.034149   0.589666   0.000000  -0.000000  -0.000000  -0.000000
    15  C   -0.000000   0.000000   4.896222   0.405534   0.400853   0.396293
    16  H    0.000000  -0.000000   0.405534   0.569087  -0.028053  -0.027436
    17  H   -0.000000  -0.000000   0.400853  -0.028053   0.595956  -0.034903
    18  H    0.000000  -0.000000   0.396293  -0.027436  -0.034903   0.594560
    19  C   -0.000001   0.000000   0.353842  -0.041218  -0.047724  -0.042899
    20  C    0.000000  -0.000000  -0.060856   0.003789  -0.000273  -0.002827
    21  H   -0.000000  -0.000000   0.003498  -0.000116  -0.000019  -0.000044
    22  H    0.000000  -0.000000  -0.005231   0.000118  -0.000774   0.002727
    23  H   -0.000000   0.000000   0.000522  -0.000134   0.001543  -0.000180
    24  C    0.000012   0.000001  -0.045620  -0.002107  -0.001173  -0.000529
    25  H    0.000007   0.000003  -0.006680   0.002274   0.000140   0.000234
    26  C   -0.000003   0.000001   0.003276   0.000129  -0.000082  -0.000132
    27  H    0.000014  -0.000004  -0.000102  -0.000008  -0.000002   0.000008
    28  H   -0.000000   0.000000   0.000060   0.000005  -0.000008   0.000011
              19         20         21         22         23         24
     1  C   -0.004146   0.000443  -0.000348  -0.000027   0.000519  -0.067862
     2  H    0.000018  -0.000000   0.000040   0.000001  -0.000029   0.005870
     3  H    0.002010  -0.000020   0.000070   0.000017  -0.000146  -0.003460
     4  C    0.000497  -0.000016   0.000005  -0.000000  -0.000007  -0.002483
     5  C   -0.000100   0.000001  -0.000001  -0.000000   0.000006  -0.000503
     6  H    0.000001  -0.000000   0.000000   0.000000  -0.000000   0.000000
     7  H   -0.000001  -0.000000  -0.000000  -0.000000   0.000000   0.000017
     8  H    0.000069  -0.000002   0.000000   0.000000  -0.000006   0.000314
     9  C    0.000126  -0.000001  -0.000000   0.000000  -0.000000  -0.000824
    10  H   -0.000009   0.000000  -0.000000  -0.000000   0.000000  -0.000295
    11  C    0.000000   0.000000   0.000000  -0.000000   0.000000  -0.000026
    12  H    0.000000  -0.000000  -0.000000   0.000000   0.000000  -0.000000
    13  H   -0.000001   0.000000  -0.000000   0.000000  -0.000000   0.000012
    14  H    0.000000  -0.000000  -0.000000  -0.000000   0.000000   0.000001
    15  C    0.353842  -0.060856   0.003498  -0.005231   0.000522  -0.045620
    16  H   -0.041218   0.003789  -0.000116   0.000118  -0.000134  -0.002107
    17  H   -0.047724  -0.000273  -0.000019  -0.000774   0.001543  -0.001173
    18  H   -0.042899  -0.002827  -0.000044   0.002727  -0.000180  -0.000529
    19  C    4.930515   0.341699  -0.038034  -0.043556  -0.041624   0.698090
    20  C    0.341699   4.917713   0.404437   0.405224   0.398191  -0.047592
    21  H   -0.038034   0.404437   0.568627  -0.029594  -0.026528  -0.002839
    22  H   -0.043556   0.405224  -0.029594   0.585020  -0.031808   0.002483
    23  H   -0.041624   0.398191  -0.026528  -0.031808   0.577752  -0.004061
    24  C    0.698090  -0.047592  -0.002839   0.002483  -0.004061   4.962580
    25  H   -0.037259   0.003339   0.000028  -0.000103  -0.000126   0.405161
    26  C   -0.050256  -0.008357  -0.001782   0.000074   0.000630   0.341165
    27  H    0.001711   0.000182   0.000066   0.000008  -0.000029  -0.042986
    28  H   -0.000310  -0.001695   0.000543   0.000047  -0.000375  -0.045311
              25         26         27         28
     1  C    0.000027   0.346605  -0.040304  -0.040483
     2  H   -0.000060  -0.038764  -0.002413  -0.002685
     3  H   -0.000009  -0.042517   0.004785  -0.003777
     4  C    0.002184  -0.041466  -0.004275   0.004232
     5  C   -0.000023   0.003418  -0.000052  -0.000085
     6  H    0.000002  -0.000088   0.000002   0.000001
     7  H    0.000001   0.000171  -0.000005  -0.000001
     8  H   -0.000033  -0.000203   0.000006  -0.000001
     9  C    0.001599  -0.004947  -0.000593   0.000117
    10  H    0.000078  -0.000587  -0.000527   0.000006
    11  C   -0.000028   0.000009   0.000002   0.000000
    12  H    0.000000  -0.000002  -0.000001   0.000000
    13  H    0.000007  -0.000003   0.000014  -0.000000
    14  H    0.000003   0.000001  -0.000004   0.000000
    15  C   -0.006680   0.003276  -0.000102   0.000060
    16  H    0.002274   0.000129  -0.000008   0.000005
    17  H    0.000140  -0.000082  -0.000002  -0.000008
    18  H    0.000234  -0.000132   0.000008   0.000011
    19  C   -0.037259  -0.050256   0.001711  -0.000310
    20  C    0.003339  -0.008357   0.000182  -0.001695
    21  H    0.000028  -0.001782   0.000066   0.000543
    22  H   -0.000103   0.000074   0.000008   0.000047
    23  H   -0.000126   0.000630  -0.000029  -0.000375
    24  C    0.405161   0.341165  -0.042986  -0.045311
    25  H    0.547584  -0.039953  -0.004381   0.003430
    26  C   -0.039953   4.957431   0.410939   0.415679
    27  H   -0.004381   0.410939   0.595850  -0.032207
    28  H    0.003430   0.415679  -0.032207   0.587353
 Mulliken charges:
               1
     1  C   -0.210109
     2  H    0.121422
     3  H    0.115243
     4  C    0.012585
     5  C   -0.357335
     6  H    0.119532
     7  H    0.116076
     8  H    0.128935
     9  C   -0.151002
    10  H    0.114889
    11  C   -0.352877
    12  H    0.116877
    13  H    0.118541
    14  H    0.118559
    15  C   -0.341454
    16  H    0.118148
    17  H    0.114498
    18  H    0.115121
    19  C    0.018559
    20  C   -0.353379
    21  H    0.121991
    22  H    0.115374
    23  H    0.125886
    24  C   -0.148023
    25  H    0.122565
    26  C   -0.250389
    27  H    0.114315
    28  H    0.115452
 Sum of Mulliken charges =  -0.00000
 Mulliken charges with hydrogens summed into heavy atoms:
               1
     1  C    0.026556
     4  C    0.012585
     5  C    0.007208
     9  C   -0.036113
    11  C    0.001099
    15  C    0.006313
    19  C    0.018559
    20  C    0.009873
    24  C   -0.025458
    26  C   -0.020623
 Electronic spatial extent (au):  <R**2>=           2253.7704
 Charge=             -0.0000 electrons
 Dipole moment (field-independent basis, Debye):
    X=              0.1521    Y=             -0.2421    Z=              0.3234  Tot=              0.4317
 Quadrupole moment (field-independent basis, Debye-Ang):
   XX=            -64.7107   YY=            -64.6646   ZZ=            -65.1494
   XY=             -1.2443   XZ=              0.5229   YZ=             -0.2734
 Traceless Quadrupole moment (field-independent basis, Debye-Ang):
   XX=              0.1309   YY=              0.1770   ZZ=             -0.3079
   XY=             -1.2443   XZ=              0.5229   YZ=             -0.2734
 Octapole moment (field-independent basis, Debye-Ang**2):
  XXX=              6.0769  YYY=             -0.0776  ZZZ=              1.0566  XYY=              0.2810
  XXY=              1.6883  XXZ=              4.5345  XZZ=             -3.1327  YZZ=             -0.7190
  YYZ=             -0.7575  XYZ=              2.5483
 Hexadecapole moment (field-independent basis, Debye-Ang**3):
 XXXX=          -2194.8540 YYYY=           -550.3611 ZZZZ=           -376.6904 XXXY=             -5.0525
 XXXZ=             -5.2530 YYYX=              0.3993 YYYZ=             -0.9715 ZZZX=              7.7212
 ZZZY=              1.0698 XXYY=           -470.7385 XXZZ=           -434.5436 YYZZ=           -156.0296
 XXYZ=             -0.7554 YYXZ=             -2.1097 ZZXY=             -5.8443
 N-N= 5.221134115510D+02 E-N=-1.948937905293D+03  KE= 3.886000513412D+02
 No NMR shielding tensors so no spin-rotation constants.
 Leave Link  601 at Fri Sep 17 20:15:27 2021, MaxMem=   524288000 cpu:               0.3 elap:               0.3
 (Enter /opt/gaussian/g16_legacy/l701.exe)
 ... and contract with generalized density number  2.
 Compute integral first derivatives.
 Leave Link  701 at Fri Sep 17 20:15:28 2021, MaxMem=   524288000 cpu:               0.3 elap:               0.3
 (Enter /opt/gaussian/g16_legacy/l702.exe)
 L702 exits ... SP integral derivatives will be done elsewhere.
 Leave Link  702 at Fri Sep 17 20:15:28 2021, MaxMem=   524288000 cpu:               0.0 elap:               0.1
 (Enter /opt/gaussian/g16_legacy/l703.exe)
 Integral derivatives from FoFJK, PRISM(SPDF).
 Compute integral first derivatives, UseDBF=F ICtDFT=           0.
 Calling FoFJK, ICntrl=  10002127 FMM=F ISym2X=0 I1Cent= 0 IOpClX= 0 NMat=1 NMatS=1 NMatT=0.
 FoFJK:  IHMeth= 1 ICntrl=10002127 DoSepK=F KAlg= 0 I1Cent=           0 FoldK=F
 IRaf=         0 NMat=       1 IRICut=       1 DoRegI=T DoRafI=F ISym2E= 0 IDoP0=0 IntGTp=1.
 FoFCou: FMM=F IPFlag=           0 FMFlag=      100000 FMFlg1=         800
         NFxFlg=           0 DoJE=F BraDBF=F KetDBF=F FulRan=T
         wScrn=  0.000000 ICntrl=  10002127 IOpCl=  0 I1Cent=           0 NGrid=           0
         NMat0=    1 NMatS0=      1 NMatT0=    0 NMatD0=    1 NMtDS0=    0 NMtDT0=    0
 Symmetry not used in FoFCou.
 Leave Link  703 at Fri Sep 17 20:16:03 2021, MaxMem=   524288000 cpu:              34.9 elap:              34.9
 (Enter /opt/gaussian/g16_legacy/l716.exe)
 Dipole        = 3.29661790D-02-6.80814819D-02 1.12480522D-01
 ***** Axes restored to original set *****
 -------------------------------------------------------------------
 Center     Atomic                   Forces (Hartrees/Bohr)
 Number     Number              X              Y              Z
 -------------------------------------------------------------------
      1        6          -0.000435340   -0.004097640   -0.001219565
      2        1          -0.000613691    0.000915593   -0.001353433
      3        1           0.001406388   -0.001474123    0.003323548
      4        6          -0.003774657    0.002210685    0.005380268
      5        6           0.003581854   -0.002771166   -0.001788581
      6        1          -0.002320649    0.003637852    0.001087120
      7        1          -0.000348064    0.002951005    0.002800856
      8        1           0.000304508   -0.002493907   -0.002160572
      9        6          -0.005230349    0.001622135   -0.003255925
     10        1          -0.001897733    0.001896537   -0.002981787
     11        6           0.003073263   -0.000207589   -0.000531479
     12        1          -0.002942031   -0.001256249    0.001325204
     13        1           0.001043223   -0.003426564   -0.001041913
     14        1           0.001867294    0.002631391    0.000884167
     15        6           0.003022639   -0.000554700    0.002455824
     16        1          -0.002960528   -0.001782678   -0.002820931
     17        1          -0.002685281    0.001106229    0.002045927
     18        1           0.001527030    0.001110168   -0.002745279
     19        6           0.001595664    0.001074087    0.003277574
     20        6          -0.003814277   -0.001023273    0.000221967
     21        1           0.003627373    0.000398450   -0.001635013
     22        1           0.003442514   -0.001186641   -0.001214497
     23        1          -0.003211919    0.000574088    0.000548289
     24        6           0.004898732   -0.005369052    0.004550177
     25        1          -0.002538100    0.002250024   -0.003857141
     26        6          -0.001202504    0.002476801    0.002968992
     27        1           0.002274432    0.000189192   -0.002442966
     28        1           0.002310210    0.000599344   -0.001820829
 -------------------------------------------------------------------
 Cartesian Forces:  Max     0.005380268 RMS     0.002504409
 Leave Link  716 at Fri Sep 17 20:16:03 2021, MaxMem=   524288000 cpu:               0.1 elap:               0.1
 (Enter /opt/gaussian/g16_legacy/l103.exe)

 GradGradGradGradGradGradGradGradGradGradGradGradGradGradGradGradGradGrad
 Berny optimization.
 FormGI is forming the generalized inverse of G from B-inverse, IUseBI=4.
 Internal  Forces:  Max     0.009775018 RMS     0.002293212
 Search for a local minimum.
 Step number   1 out of a maximum of  138
 All quantities printed in internal units (Hartrees-Bohrs-Radians)
 RMS Force = .22932D-02 SwitMx=.10000D-02 MixMth= 1
 Mixed Optimization -- RFO/linear search
 Second derivative matrix not updated -- first step.
 ITU=  0
     Eigenvalues ---    0.00254   0.00446   0.00682   0.00688   0.00688
     Eigenvalues ---    0.00710   0.00817   0.01190   0.01291   0.01578
     Eigenvalues ---    0.01644   0.02759   0.02815   0.03443   0.04034
     Eigenvalues ---    0.05243   0.05339   0.07006   0.07019   0.07054
     Eigenvalues ---    0.07107   0.07300   0.07305   0.07310   0.07516
     Eigenvalues ---    0.09339   0.10149   0.12822   0.13368   0.15988
     Eigenvalues ---    0.15998   0.16000   0.16000   0.16000   0.16000
     Eigenvalues ---    0.16000   0.16000   0.16000   0.16000   0.16000
     Eigenvalues ---    0.16000   0.16000   0.16000   0.21855   0.22001
     Eigenvalues ---    0.22004   0.22028   0.24979   0.24989   0.25000
     Eigenvalues ---    0.25000   0.28637   0.29967   0.31719   0.31765
     Eigenvalues ---    0.31768   0.31939   0.32787   0.33782   0.33923
     Eigenvalues ---    0.34148   0.34163   0.34169   0.34197   0.34213
     Eigenvalues ---    0.34213   0.34234   0.34266   0.34291   0.34324
     Eigenvalues ---    0.34355   0.34436   0.34532   0.34608   0.34622
     Eigenvalues ---    0.35034   0.55168   0.56080
 RFO step:  Lambda=-4.22151357D-03 EMin= 2.54425509D-03
 Linear search not attempted -- first point.
 Iteration  1 RMS(Cart)=  0.09534699 RMS(Int)=  0.00320942
 Iteration  2 RMS(Cart)=  0.00436044 RMS(Int)=  0.00008391
 Iteration  3 RMS(Cart)=  0.00001250 RMS(Int)=  0.00008354
 Iteration  4 RMS(Cart)=  0.00000000 RMS(Int)=  0.00008354
 ITry= 1 IFail=0 DXMaxC= 4.20D-01 DCOld= 1.00D+10 DXMaxT= 3.00D-01 DXLimC= 3.00D+00 Rises=F
 Variable       Old X    -DE/DX   Delta X   Delta X   Delta X     New X
                                 (Linear)    (Quad)   (Total)
    R1        2.07461  -0.00038   0.00000  -0.00112  -0.00112   2.07349
    R2        2.07700  -0.00375   0.00000  -0.01097  -0.01097   2.06603
    R3        2.88030  -0.00657   0.00000  -0.02162  -0.02162   2.85867
    R4        2.90766  -0.00435   0.00000  -0.01498  -0.01498   2.89269
    R5        2.84576   0.00096   0.00000   0.00299   0.00299   2.84875
    R6        2.54983  -0.00679   0.00000  -0.01221  -0.01221   2.53762
    R7        2.06601  -0.00346   0.00000  -0.00994  -0.00994   2.05607
    R8        2.07055  -0.00339   0.00000  -0.00981  -0.00981   2.06074
    R9        2.06937  -0.00203   0.00000  -0.00586  -0.00586   2.06350
   R10        2.05619  -0.00130   0.00000  -0.00366  -0.00366   2.05253
   R11        2.82726   0.00304   0.00000   0.00914   0.00914   2.83641
   R12        2.06316  -0.00317   0.00000  -0.00904  -0.00904   2.05412
   R13        2.07046  -0.00300   0.00000  -0.00867  -0.00867   2.06179
   R14        2.06735  -0.00153   0.00000  -0.00439  -0.00439   2.06297
   R15        2.06999  -0.00409   0.00000  -0.01181  -0.01181   2.05818
   R16        2.06972  -0.00206   0.00000  -0.00596  -0.00596   2.06376
   R17        2.06786  -0.00161   0.00000  -0.00464  -0.00464   2.06322
   R18        2.84571  -0.00069   0.00000  -0.00214  -0.00214   2.84356
   R19        2.84256   0.00150   0.00000   0.00465   0.00465   2.84720
   R20        2.54185  -0.00051   0.00000  -0.00091  -0.00091   2.54094
   R21        2.06442  -0.00249   0.00000  -0.00714  -0.00714   2.05728
   R22        2.06971  -0.00315   0.00000  -0.00911  -0.00911   2.06061
   R23        2.06841  -0.00185   0.00000  -0.00533  -0.00533   2.06308
   R24        2.06293  -0.00412   0.00000  -0.01176  -0.01176   2.05117
   R25        2.84661  -0.00260   0.00000  -0.00809  -0.00809   2.83852
   R26        2.07081  -0.00206   0.00000  -0.00596  -0.00596   2.06485
   R27        2.06884  -0.00163   0.00000  -0.00471  -0.00471   2.06413
    A1        1.84831  -0.00144   0.00000   0.00310   0.00295   1.85126
    A2        1.88123   0.00417   0.00000   0.02608   0.02631   1.90754
    A3        1.89953   0.00244   0.00000   0.01485   0.01508   1.91461
    A4        1.89325   0.00173   0.00000  -0.00451  -0.00481   1.88843
    A5        1.86980   0.00350   0.00000   0.01058   0.01006   1.87986
    A6        2.06085  -0.00978   0.00000  -0.04597  -0.04603   2.01482
    A7        1.98772   0.00310   0.00000   0.01218   0.01216   1.99988
    A8        2.14236  -0.00471   0.00000  -0.01855  -0.01856   2.12380
    A9        2.15310   0.00162   0.00000   0.00636   0.00635   2.15945
   A10        1.96884  -0.00050   0.00000  -0.00011  -0.00011   1.96872
   A11        1.93016  -0.00151   0.00000  -0.00862  -0.00860   1.92157
   A12        1.92038   0.00306   0.00000   0.01513   0.01514   1.93552
   A13        1.85264   0.00227   0.00000   0.02037   0.02038   1.87302
   A14        1.90036  -0.00159   0.00000  -0.01054  -0.01055   1.88982
   A15        1.88871  -0.00187   0.00000  -0.01721  -0.01718   1.87153
   A16        2.07990  -0.00298   0.00000  -0.01910  -0.01912   2.06078
   A17        2.22878  -0.00123   0.00000  -0.00543  -0.00545   2.22333
   A18        1.97431   0.00422   0.00000   0.02473   0.02471   1.99902
   A19        1.98533  -0.00280   0.00000  -0.01690  -0.01682   1.96851
   A20        1.90745   0.00219   0.00000   0.01357   0.01353   1.92098
   A21        1.91756   0.00386   0.00000   0.02307   0.02304   1.94060
   A22        1.87317   0.00037   0.00000   0.00305   0.00311   1.87627
   A23        1.89128  -0.00077   0.00000  -0.00514  -0.00505   1.88623
   A24        1.88622  -0.00303   0.00000  -0.01881  -0.01896   1.86727
   A25        1.87764   0.00089   0.00000   0.00838   0.00842   1.88605
   A26        1.88018   0.00100   0.00000   0.00946   0.00949   1.88967
   A27        1.95943  -0.00270   0.00000  -0.01312  -0.01308   1.94635
   A28        1.89624  -0.00322   0.00000  -0.02614  -0.02613   1.87011
   A29        1.92213   0.00199   0.00000   0.01033   0.01036   1.93249
   A30        1.92628   0.00193   0.00000   0.01024   0.01026   1.93654
   A31        2.00506   0.00107   0.00000   0.00422   0.00422   2.00927
   A32        2.10739   0.00132   0.00000   0.00520   0.00520   2.11259
   A33        2.17012  -0.00239   0.00000  -0.00941  -0.00941   2.16070
   A34        1.96584  -0.00088   0.00000  -0.00314  -0.00313   1.96270
   A35        1.93036  -0.00076   0.00000  -0.00283  -0.00282   1.92754
   A36        1.92083   0.00330   0.00000   0.01615   0.01617   1.93700
   A37        1.85789   0.00220   0.00000   0.02076   0.02076   1.87865
   A38        1.89748  -0.00191   0.00000  -0.01473  -0.01471   1.88277
   A39        1.88887  -0.00211   0.00000  -0.01720  -0.01717   1.87170
   A40        2.06734  -0.00097   0.00000  -0.00918  -0.00918   2.05816
   A41        2.22265  -0.00404   0.00000  -0.01799  -0.01799   2.20466
   A42        1.99204   0.00501   0.00000   0.02728   0.02728   2.01932
   A43        1.95463   0.00030   0.00000  -0.00252  -0.00254   1.95209
   A44        1.93974  -0.00194   0.00000  -0.01909  -0.01910   1.92064
   A45        1.89559  -0.00102   0.00000  -0.00909  -0.00908   1.88651
   A46        1.90427   0.00082   0.00000   0.00566   0.00554   1.90981
   A47        1.93410   0.00043   0.00000   0.00617   0.00613   1.94023
   A48        1.83184   0.00146   0.00000   0.02015   0.02003   1.85188
    D1        1.55794  -0.00028   0.00000  -0.09118  -0.09106   1.46688
    D2       -1.58286  -0.00012   0.00000  -0.08091  -0.08085  -1.66371
    D3       -0.43590  -0.00161   0.00000  -0.10586  -0.10567  -0.54157
    D4        2.70648  -0.00144   0.00000  -0.09559  -0.09546   2.61103
[...]
                 (A) (A) (A) (A) (A) (A) (A) (A) (A) (A) (A) (A)
                 (A) (A) (A) (A) (A) (A) (A) (A) (A) (A) (A) (A)
                 (A) (A) (A) (A) (A) (A) (A) (A) (A) (A) (A) (A)
                 (A) (A) (A) (A) (A) (A) (A) (A) (A) (A) (A) (A)
                 (A) (A) (A) (A) (A) (A) (A) (A) (A) (A) (A) (A)
                 (A) (A) (A) (A) (A) (A) (A) (A) (A) (A) (A) (A)
                 (A) (A) (A) (A) (A) (A) (A) (A) (A) (A) (A) (A)
                 (A) (A) (A) (A) (A) (A) (A) (A) (A) (A) (A) (A)
                 (A) (A) (A) (A) (A) (A) (A) (A) (A) (A) (A) (A)
                 (A) (A) (A) (A) (A) (A) (A) (A) (A) (A) (A) (A)
                 (A) (A) (A) (A) (A) (A) (A) (A) (A) (A) (A) (A)
                 (A) (A) (A) (A) (A) (A) (A) (A) (A) (A) (A) (A)
                 (A) (A) (A) (A) (A) (A) (A) (A) (A)
 The electronic state is 1-A.
 Alpha  occ. eigenvalues --  -11.22664 -11.22648 -11.21913 -11.21714 -11.21527
 Alpha  occ. eigenvalues --  -11.21395 -11.21386 -11.21328 -11.21293 -11.21025
 Alpha  occ. eigenvalues --   -1.10789  -1.08154  -1.01820  -0.97834  -0.93623
 Alpha  occ. eigenvalues --   -0.91831  -0.87676  -0.82717  -0.70144  -0.68968
 Alpha  occ. eigenvalues --   -0.64224  -0.61947  -0.61076  -0.58531  -0.57954
 Alpha  occ. eigenvalues --   -0.57560  -0.55329  -0.53992  -0.53090  -0.52760
 Alpha  occ. eigenvalues --   -0.52457  -0.51399  -0.50569  -0.49406  -0.47113
 Alpha  occ. eigenvalues --   -0.46127  -0.44594  -0.32469  -0.32041
 Alpha virt. eigenvalues --    0.18743   0.19400   0.23223   0.24724   0.25707
 Alpha virt. eigenvalues --    0.26453   0.28548   0.29750   0.30575   0.31011
 Alpha virt. eigenvalues --    0.31978   0.32367   0.33238   0.33899   0.34470
 Alpha virt. eigenvalues --    0.35257   0.36959   0.38085   0.39255   0.39834
 Alpha virt. eigenvalues --    0.41085   0.41633   0.43914   0.45282   0.46436
 Alpha virt. eigenvalues --    0.52026   0.52511   0.60714   0.65681   0.69644
 Alpha virt. eigenvalues --    0.71649   0.72335   0.74273   0.74542   0.75770
 Alpha virt. eigenvalues --    0.77067   0.79029   0.80103   0.81396   0.83209
 Alpha virt. eigenvalues --    0.84903   0.86279   0.86965   0.89578   0.92018
 Alpha virt. eigenvalues --    0.94867   0.96470   0.96841   0.97248   0.99541
 Alpha virt. eigenvalues --    1.00477   1.01715   1.03289   1.04938   1.06695
 Alpha virt. eigenvalues --    1.08281   1.08686   1.10076   1.12448   1.12889
 Alpha virt. eigenvalues --    1.13383   1.15101   1.15578   1.15941   1.16471
 Alpha virt. eigenvalues --    1.16877   1.18253   1.18738   1.19758   1.20702
 Alpha virt. eigenvalues --    1.22008   1.22437   1.23051   1.25542   1.25899
 Alpha virt. eigenvalues --    1.28078   1.36072   1.36806   1.42564   1.45945
 Alpha virt. eigenvalues --    1.47421   1.49876   1.56002   1.57952   1.58423
 Alpha virt. eigenvalues --    1.61143   1.65313   1.68696   1.71222   1.73478
 Alpha virt. eigenvalues --    1.77412   1.85204   1.87826   1.92475   1.96565
 Alpha virt. eigenvalues --    2.00245   2.01234   2.02337   2.06740   2.07531
 Alpha virt. eigenvalues --    2.09070   2.10236   2.10877   2.13296   2.15356
 Alpha virt. eigenvalues --    2.15800   2.19399   2.21775   2.26463   2.27907
 Alpha virt. eigenvalues --    2.28306   2.31884   2.34570   2.35167   2.35726
 Alpha virt. eigenvalues --    2.35978   2.36170   2.36754   2.40419   2.41062
 Alpha virt. eigenvalues --    2.42738   2.43352   2.43536   2.44672   2.46271
 Alpha virt. eigenvalues --    2.47062   2.49245   2.49910   2.51828   2.53078
 Alpha virt. eigenvalues --    2.56860   2.58214   2.60552   2.61737   2.64401
 Alpha virt. eigenvalues --    2.68204   2.69074   2.71705   2.73510   2.74584
 Alpha virt. eigenvalues --    2.75908   2.79729   2.81053   2.83162   2.84297
 Alpha virt. eigenvalues --    2.86175   2.88462   2.89959   2.93304   2.94924
 Alpha virt. eigenvalues --    2.96875   2.99332   3.01338   3.03959   3.04855
 Alpha virt. eigenvalues --    3.07160   3.07957   3.08861   3.12885   3.15399
 Alpha virt. eigenvalues --    3.17468   3.18640   3.19025   3.21533   3.22341
 Alpha virt. eigenvalues --    3.24939   3.26222   3.26799   3.28218   3.39340
 Alpha virt. eigenvalues --    3.40738   3.43686   3.47456   3.56503   3.57429
 Alpha virt. eigenvalues --    3.61870   3.62588   3.69520   3.72454   3.79412
 Alpha virt. eigenvalues --    3.80204   3.81397   3.82148   3.83578   3.84409
 Alpha virt. eigenvalues --    3.84559   3.87114   3.88503   3.90540   3.91550
 Alpha virt. eigenvalues --    3.95779   4.58854   4.60906   4.75813   4.82820
 Alpha virt. eigenvalues --    4.89888   4.92601   4.93068   5.03645   5.11602
 Alpha virt. eigenvalues --    5.18402
          Condensed to atoms (all electrons):
               1          2          3          4          5          6
     1  C    4.966501   0.399784   0.407598   0.352284  -0.061981   0.003895
     2  H    0.399784   0.600428  -0.035522  -0.041109  -0.002402  -0.000135
     3  H    0.407598  -0.035522   0.605864  -0.050559  -0.004205   0.000116
     4  C    0.352284  -0.041109  -0.050559   4.920432   0.352626  -0.038159
     5  C   -0.061981  -0.002402  -0.004205   0.352626   4.906402   0.406382
     6  H    0.003895  -0.000135   0.000116  -0.038159   0.406382   0.571677
     7  H   -0.002489   0.002326  -0.000875  -0.045485   0.402780  -0.028122
     8  H   -0.003057  -0.000040   0.002620  -0.041469   0.398333  -0.026910
     9  C   -0.049535  -0.002092   0.001787   0.701790  -0.043938  -0.002175
    10  H   -0.006710   0.000183   0.000073  -0.040999   0.003551   0.000034
    11  C    0.003129  -0.000112  -0.000077  -0.043801  -0.008790  -0.002560
    12  H    0.000070  -0.000000  -0.000004   0.000161  -0.002208  -0.001700
    13  H   -0.000068  -0.000005   0.000011  -0.000639   0.000223  -0.000015
    14  H   -0.000126   0.000022  -0.000003  -0.000956   0.000358   0.000033
    15  C   -0.000118   0.000002  -0.000049   0.000003   0.000000   0.000000
    16  H   -0.000003   0.000000  -0.000001  -0.000001  -0.000000   0.000000
    17  H    0.000030  -0.000000  -0.000008  -0.000000   0.000000  -0.000000
    18  H   -0.000006   0.000000   0.000003  -0.000000  -0.000000   0.000000
    19  C   -0.004757   0.000042   0.002455   0.000391  -0.000049   0.000000
    20  C    0.000254  -0.000012  -0.000183   0.000005   0.000001  -0.000000
    21  H   -0.000440   0.000052   0.000179   0.000002  -0.000000  -0.000000
    22  H   -0.000051   0.000002   0.000035  -0.000001  -0.000000   0.000000
    23  H    0.000211  -0.000010  -0.000152  -0.000001   0.000001  -0.000000
    24  C   -0.066453   0.005902  -0.004259  -0.000693  -0.000369   0.000001
    25  H    0.000948  -0.000084  -0.000008   0.001009  -0.000007  -0.000000
    26  C    0.346505  -0.037561  -0.040593  -0.043826   0.003489  -0.000092
    27  H   -0.042749  -0.002641   0.005145  -0.003615  -0.000078   0.000001
    28  H   -0.041885  -0.003606  -0.003277   0.004203  -0.000089   0.000001
               7          8          9         10         11         12
     1  C   -0.002489  -0.003057  -0.049535  -0.006710   0.003129   0.000070
     2  H    0.002326  -0.000040  -0.002092   0.000183  -0.000112  -0.000000
     3  H   -0.000875   0.002620   0.001787   0.000073  -0.000077  -0.000004
     4  C   -0.045485  -0.041469   0.701790  -0.040999  -0.043801   0.000161
     5  C    0.402780   0.398333  -0.043938   0.003551  -0.008790  -0.002208
     6  H   -0.028122  -0.026910  -0.002175   0.000034  -0.002560  -0.001700
     7  H    0.590394  -0.035603   0.000115  -0.000133   0.000224  -0.000029
     8  H   -0.035603   0.583347  -0.000532  -0.000115   0.000386  -0.000046
     9  C    0.000115  -0.000532   4.936287   0.408517   0.342446  -0.044044
    10  H   -0.000133  -0.000115   0.408517   0.567826  -0.041888   0.003406
    11  C    0.000224   0.000386   0.342446  -0.041888   4.890984   0.408866
    12  H   -0.000029  -0.000046  -0.044044   0.003406   0.408866   0.576790
    13  H   -0.000021   0.000060  -0.043350  -0.001425   0.403131  -0.028564
    14  H    0.000046  -0.000033  -0.041908  -0.001073   0.400272  -0.028096
    15  C   -0.000000   0.000000  -0.000000   0.000002  -0.000000   0.000000
    16  H   -0.000000   0.000000  -0.000004  -0.000001  -0.000000  -0.000000
    17  H   -0.000000  -0.000000  -0.000001   0.000000   0.000000   0.000000
    18  H   -0.000000   0.000000   0.000000  -0.000000   0.000000  -0.000000
    19  C    0.000000   0.000015   0.000242  -0.000034  -0.000001   0.000000
    20  C    0.000000  -0.000001  -0.000006  -0.000000   0.000000  -0.000000
    21  H   -0.000000   0.000000  -0.000001   0.000000  -0.000000   0.000000
    22  H   -0.000000   0.000000   0.000000  -0.000000  -0.000000  -0.000000
    23  H    0.000000  -0.000001   0.000000   0.000000   0.000000   0.000000
    24  C    0.000011   0.000048  -0.001059  -0.002576  -0.000022  -0.000002
    25  H    0.000000  -0.000005  -0.000486  -0.000479   0.000052  -0.000002
    26  C    0.000028  -0.000073  -0.006375  -0.000612   0.000009  -0.000001
    27  H   -0.000007   0.000006  -0.001136  -0.001940  -0.000014  -0.000002
    28  H   -0.000000  -0.000001   0.000144   0.000097   0.000000   0.000000
              13         14         15         16         17         18
     1  C   -0.000068  -0.000126  -0.000118  -0.000003   0.000030  -0.000006
     2  H   -0.000005   0.000022   0.000002   0.000000  -0.000000   0.000000
     3  H    0.000011  -0.000003  -0.000049  -0.000001  -0.000008   0.000003
     4  C   -0.000639  -0.000956   0.000003  -0.000001  -0.000000  -0.000000
     5  C    0.000223   0.000358   0.000000  -0.000000   0.000000  -0.000000
     6  H   -0.000015   0.000033   0.000000   0.000000  -0.000000   0.000000
     7  H   -0.000021   0.000046  -0.000000  -0.000000  -0.000000  -0.000000
     8  H    0.000060  -0.000033   0.000000   0.000000  -0.000000   0.000000
     9  C   -0.043350  -0.041908  -0.000000  -0.000004  -0.000001   0.000000
    10  H   -0.001425  -0.001073   0.000002  -0.000001   0.000000  -0.000000
    11  C    0.403131   0.400272  -0.000000  -0.000000   0.000000   0.000000
    12  H   -0.028564  -0.028096   0.000000  -0.000000   0.000000  -0.000000
    13  H    0.588147  -0.036380  -0.000000   0.000000  -0.000000   0.000000
    14  H   -0.036380   0.588501   0.000000  -0.000000   0.000000  -0.000000
    15  C   -0.000000   0.000000   4.898834   0.406059   0.398323   0.398472
    16  H    0.000000  -0.000000   0.406059   0.566227  -0.026752  -0.026589
    17  H   -0.000000   0.000000   0.398323  -0.026752   0.596264  -0.038188
    18  H    0.000000  -0.000000   0.398472  -0.026589  -0.038188   0.596509
    19  C   -0.000001   0.000000   0.354737  -0.041440  -0.044155  -0.044482
    20  C    0.000000  -0.000000  -0.065416   0.003828  -0.001806  -0.001368
    21  H    0.000000  -0.000000   0.003788  -0.000115  -0.000067  -0.000036
    22  H    0.000000  -0.000000  -0.002457  -0.000043  -0.000482   0.002838
    23  H   -0.000000   0.000000  -0.002469  -0.000043   0.002722  -0.000454
    24  C    0.000002   0.000003  -0.044447  -0.002671  -0.000516  -0.001128
    25  H    0.000037   0.000000  -0.007061   0.002400   0.000203   0.000161
    26  C   -0.000004   0.000005   0.003203   0.000138  -0.000084  -0.000121
    27  H    0.000015  -0.000013  -0.000090  -0.000009  -0.000001   0.000008
    28  H   -0.000000   0.000000   0.000050   0.000006  -0.000007   0.000011
              19         20         21         22         23         24
     1  C   -0.004757   0.000254  -0.000440  -0.000051   0.000211  -0.066453
     2  H    0.000042  -0.000012   0.000052   0.000002  -0.000010   0.005902
     3  H    0.002455  -0.000183   0.000179   0.000035  -0.000152  -0.004259
     4  C    0.000391   0.000005   0.000002  -0.000001  -0.000001  -0.000693
     5  C   -0.000049   0.000001  -0.000000  -0.000000   0.000001  -0.000369
     6  H    0.000000  -0.000000  -0.000000   0.000000  -0.000000   0.000001
     7  H    0.000000   0.000000  -0.000000  -0.000000   0.000000   0.000011
     8  H    0.000015  -0.000001   0.000000   0.000000  -0.000001   0.000048
     9  C    0.000242  -0.000006  -0.000001   0.000000   0.000000  -0.001059
    10  H   -0.000034  -0.000000   0.000000  -0.000000   0.000000  -0.002576
    11  C   -0.000001   0.000000  -0.000000  -0.000000   0.000000  -0.000022
    12  H    0.000000  -0.000000   0.000000  -0.000000   0.000000  -0.000002
    13  H   -0.000001   0.000000   0.000000   0.000000  -0.000000   0.000002
    14  H    0.000000  -0.000000  -0.000000  -0.000000   0.000000   0.000003
    15  C    0.354737  -0.065416   0.003788  -0.002457  -0.002469  -0.044447
    16  H   -0.041440   0.003828  -0.000115  -0.000043  -0.000043  -0.002671
    17  H   -0.044155  -0.001806  -0.000067  -0.000482   0.002722  -0.000516
    18  H   -0.044482  -0.001368  -0.000036   0.002838  -0.000454  -0.001128
    19  C    4.914989   0.350251  -0.037859  -0.043768  -0.043312   0.702051
    20  C    0.350251   4.906733   0.407075   0.400380   0.400966  -0.044716
    21  H   -0.037859   0.407075   0.570890  -0.026868  -0.028262  -0.003036
    22  H   -0.043768   0.400380  -0.026868   0.587204  -0.035877  -0.000185
    23  H   -0.043312   0.400966  -0.028262  -0.035877   0.587524  -0.000222
    24  C    0.702051  -0.044716  -0.003036  -0.000185  -0.000222   4.954436
    25  H   -0.037310   0.003507   0.000054  -0.000122  -0.000115   0.406789
    26  C   -0.050973  -0.007637  -0.002455   0.000164   0.000291   0.338039
    27  H    0.002069   0.000145   0.000070   0.000019  -0.000013  -0.043246
    28  H   -0.000995  -0.002561  -0.001488   0.000166  -0.000097  -0.044295
              25         26         27         28
     1  C    0.000948   0.346505  -0.042749  -0.041885
     2  H   -0.000084  -0.037561  -0.002641  -0.003606
     3  H   -0.000008  -0.040593   0.005145  -0.003277
     4  C    0.001009  -0.043826  -0.003615   0.004203
     5  C   -0.000007   0.003489  -0.000078  -0.000089
     6  H   -0.000000  -0.000092   0.000001   0.000001
     7  H    0.000000   0.000028  -0.000007  -0.000000
     8  H   -0.000005  -0.000073   0.000006  -0.000001
     9  C   -0.000486  -0.006375  -0.001136   0.000144
    10  H   -0.000479  -0.000612  -0.001940   0.000097
    11  C    0.000052   0.000009  -0.000014   0.000000
    12  H   -0.000002  -0.000001  -0.000002   0.000000
    13  H    0.000037  -0.000004   0.000015  -0.000000
    14  H    0.000000   0.000005  -0.000013   0.000000
    15  C   -0.007061   0.003203  -0.000090   0.000050
    16  H    0.002400   0.000138  -0.000009   0.000006
    17  H    0.000203  -0.000084  -0.000001  -0.000007
    18  H    0.000161  -0.000121   0.000008   0.000011
    19  C   -0.037310  -0.050973   0.002069  -0.000995
    20  C    0.003507  -0.007637   0.000145  -0.002561
    21  H    0.000054  -0.002455   0.000070  -0.001488
    22  H   -0.000122   0.000164   0.000019   0.000166
    23  H   -0.000115   0.000291  -0.000013  -0.000097
    24  C    0.406789   0.338039  -0.043246  -0.044295
    25  H    0.549695  -0.038411  -0.004270   0.003113
    26  C   -0.038411   4.967795   0.413225   0.421265
    27  H   -0.004270   0.413225   0.590081  -0.030229
    28  H    0.003113   0.421265  -0.030229   0.578959
 Mulliken charges:
               1
     1  C   -0.200782
     2  H    0.116587
     3  H    0.113890
     4  C    0.018407
     5  C   -0.350032
     6  H    0.117728
     7  H    0.116839
     8  H    0.123071
     9  C   -0.154685
    10  H    0.114296
    11  C   -0.352235
    12  H    0.115406
    13  H    0.118845
    14  H    0.119344
    15  C   -0.341367
    16  H    0.119014
    17  H    0.114527
    18  H    0.114371
    19  C    0.021895
    20  C   -0.349440
    21  H    0.118517
    22  H    0.119046
    23  H    0.119312
    24  C   -0.147387
    25  H    0.120392
    26  C   -0.265339
    27  H    0.119266
    28  H    0.120515
 Sum of Mulliken charges =   0.00000
 Mulliken charges with hydrogens summed into heavy atoms:
               1
     1  C    0.029695
     4  C    0.018407
     5  C    0.007606
     9  C   -0.040389
    11  C    0.001360
    15  C    0.006546
    19  C    0.021895
    20  C    0.007434
    24  C   -0.026996
    26  C   -0.025558
 Electronic spatial extent (au):  <R**2>=           2254.9311
 Charge=              0.0000 electrons
 Dipole moment (field-independent basis, Debye):
    X=              0.1080    Y=             -0.2847    Z=              0.2340  Tot=              0.3841
 Quadrupole moment (field-independent basis, Debye-Ang):
   XX=            -64.2679   YY=            -64.0251   ZZ=            -65.7842
   XY=             -0.9126   XZ=              0.3580   YZ=             -0.3838
 Traceless Quadrupole moment (field-independent basis, Debye-Ang):
   XX=              0.4245   YY=              0.6673   ZZ=             -1.0918
   XY=             -0.9126   XZ=              0.3580   YZ=             -0.3838
 Octapole moment (field-independent basis, Debye-Ang**2):
  XXX=              4.7744  YYY=              0.4542  ZZZ=              2.0980  XYY=             -1.3789
  XXY=              0.6624  XXZ=              5.9661  XZZ=             -1.3236  YZZ=             -0.7576
  YYZ=             -1.5973  XYZ=              2.2046
 Hexadecapole moment (field-independent basis, Debye-Ang**3):
 XXXX=          -2192.8891 YYYY=           -595.2776 ZZZZ=           -326.9168 XXXY=             -5.9874
 XXXZ=             -9.1616 YYYX=              1.8953 YYYZ=              2.8946 ZZZX=              7.4650
 ZZZY=             -1.7919 XXYY=           -475.2489 XXZZ=           -427.3838 YYZZ=           -156.8474
 XXYZ=             -0.9290 YYXZ=              0.9453 ZZXY=             -5.8769
 N-N= 5.236287088177D+02 E-N=-1.952043348769D+03  KE= 3.887416774561D+02
 No NMR shielding tensors so no spin-rotation constants.
 Leave Link  601 at Fri Sep 17 22:09:10 2021, MaxMem=   524288000 cpu:               0.3 elap:               0.6
 (Enter /opt/gaussian/g16_legacy/l9999.exe)
 1\1\GINC-TRUENO90\FOpt\RMP2-FC\6-31G(d,p)\C10H18\JRAMOS\17-Sep-2021\0\
 \#p opt mp2/6-31g(d,p)\\Conformer number 027. Energy MM = 27.110 kcal/
 mol\\0,1\C,2.2266105191,1.2835379183,-8.9637372881\H,1.9115420313,0.29
 36221353,-9.3164242673\H,2.1223777061,1.9508402339,-9.8260984118\C,3.6
 935677471,1.2124732492,-8.6008672489\C,4.5882298715,1.0722745761,-9.80
 29660455\H,5.6260084317,0.875980876,-9.5480965768\H,4.2385279114,0.253
 4198259,-10.4353187837\H,4.5528882414,1.9790460347,-10.4107795852\C,4.
 127902826,1.2393162047,-7.3279474757\H,3.3865318017,1.3312181532,-6.54
 23288093\C,5.5418100048,1.1544328538,-6.836049486\H,6.2689248369,1.099
 8814628,-7.6417657789\H,5.7868424913,2.0262997872,-6.2269216663\H,5.67
 76624617,0.2764205452,-6.2016952817\C,1.2729496357,5.6695050391,-7.554
 8598296\H,2.0053226957,5.6404204935,-6.7495371803\H,1.6827496459,6.272
 0862709,-8.3686672833\H,0.3843530764,6.1909521075,-7.1915631001\C,0.92
 43962144,4.2871840425,-8.0336182681\C,-0.0833658299,4.2453495344,-9.14
 87726985\H,-0.311664489,3.2349070393,-9.4780759977\H,-1.0158022494,4.7
 229520747,-8.8394977832\H,0.2856612604,4.8039477935,-10.0117577223\C,1
 .4978014158,3.2006848296,-7.4824148921\H,2.2271007652,3.369962906,-6.6
 973752847\C,1.2589115809,1.7708213098,-7.8786972783\H,1.3325599227,1.1
 262746509,-6.999882049\H,0.241599473,1.6453880518,-8.2526839276\\Versi
 on=EM64L-G16RevA.03\State=1-A\HF=-389.1530044\MP2=-390.5711268\RMSD=9.
 193e-09\RMSF=2.095e-06\Dipole=-0.0098709,0.0227057,-0.1186061\PG=C01 [
 X(C10H18)]\\@


 ALTHOUGH J.J. COULD DIAGNOSE THE FAULTS OF AN
 APPARATUS WITH UNCANNY ACCURACY, IT WAS JUST AS
 WELL NOT TO LET HIM HANDLE IT.
   -- GEORGE THOMPSON, ABOUT HIS FATHER
 Job cpu time:       0 days  1 hours 59 minutes 36.3 seconds.
 Elapsed time:       0 days  1 hours 59 minutes 39.7 seconds.
 File lengths (MBytes):  RWF=     32 Int=      0 D2E=      0 Chk=      7 Scr=      1
 Normal termination of Gaussian 16 at Fri Sep 17 22:09:11 2021.
