 Entering Gaussian System, Link 0=/opt/gaussian/g16_legacy/g16
 Input=02-IsoP_041_gaussian.com
 Output=02-IsoP_041_gaussian.log
 Initial command:
 /opt/gaussian/g16_legacy/l1.exe "/scratch-local/jramos/2661529/Gau-12114.inp" -scrdir="/scratch-local/jramos/2661529/"
 Entering Link 1 = /opt/gaussian/g16_legacy/l1.exe PID=     12125.
  
 Copyright (c) 1988,1990,1992,1993,1995,1998,2003,2009,2016,
            Gaussian, Inc.  All Rights Reserved.
  
 This is part of the Gaussian(R) 16 program.  It is based on
 the Gaussian(R) 09 system (copyright 2009, Gaussian, Inc.),
 the Gaussian(R) 03 system (copyright 2003, Gaussian, Inc.),
 the Gaussian(R) 98 system (copyright 1998, Gaussian, Inc.),
 the Gaussian(R) 94 system (copyright 1995, Gaussian, Inc.),
 the Gaussian 92(TM) system (copyright 1992, Gaussian, Inc.),
 the Gaussian 90(TM) system (copyright 1990, Gaussian, Inc.),
 the Gaussian 88(TM) system (copyright 1988, Gaussian, Inc.),
 the Gaussian 86(TM) system (copyright 1986, Carnegie Mellon
 University), and the Gaussian 82(TM) system (copyright 1983,
 Carnegie Mellon University). Gaussian is a federally registered
 trademark of Gaussian, Inc.
  
 This software contains proprietary and confidential information,
 including trade secrets, belonging to Gaussian, Inc.
  
 This software is provided under written license and may be
 used, copied, transmitted, or stored only in accord with that
 written license.
  
 The following legend is applicable only to US Government
 contracts under FAR:
  
                    RESTRICTED RIGHTS LEGEND
  
 Use, reproduction and disclosure by the US Government is
 subject to restrictions as set forth in subparagraphs (a)
 and (c) of the Commercial Computer Software - Restricted
 Rights clause in FAR 52.227-19.
  
 Gaussian, Inc.
 340 Quinnipiac St., Bldg. 40, Wallingford CT 06492
  
  
 ---------------------------------------------------------------
 Warning -- This program may not be used in any manner that
 competes with the business of Gaussian, Inc. or will provide
 assistance to any competitor of Gaussian, Inc.  The licensee
 of this program is prohibited from giving any competitor of
 Gaussian, Inc. access to this program.  By using this program,
 the user acknowledges that Gaussian, Inc. is engaged in the
 business of creating and licensing software in the field of
 computational chemistry and represents and warrants to the
 licensee that it is not a competitor of Gaussian, Inc. and that
 it will not use this program in any manner prohibited above.
 ---------------------------------------------------------------
  

 Cite this work as:
 Gaussian 16, Revision A.03,
 M. J. Frisch, G. W. Trucks, H. B. Schlegel, G. E. Scuseria, 
 M. A. Robb, J. R. Cheeseman, G. Scalmani, V. Barone, 
 G. A. Petersson, H. Nakatsuji, X. Li, M. Caricato, A. V. Marenich, 
 J. Bloino, B. G. Janesko, R. Gomperts, B. Mennucci, H. P. Hratchian, 
 J. V. Ortiz, A. F. Izmaylov, J. L. Sonnenberg, D. Williams-Young, 
 F. Ding, F. Lipparini, F. Egidi, J. Goings, B. Peng, A. Petrone, 
 T. Henderson, D. Ranasinghe, V. G. Zakrzewski, J. Gao, N. Rega, 
 G. Zheng, W. Liang, M. Hada, M. Ehara, K. Toyota, R. Fukuda, 
 J. Hasegawa, M. Ishida, T. Nakajima, Y. Honda, O. Kitao, H. Nakai, 
 T. Vreven, K. Throssell, J. A. Montgomery, Jr., J. E. Peralta, 
 F. Ogliaro, M. J. Bearpark, J. J. Heyd, E. N. Brothers, K. N. Kudin, 
 V. N. Staroverov, T. A. Keith, R. Kobayashi, J. Normand, 
 K. Raghavachari, A. P. Rendell, J. C. Burant, S. S. Iyengar, 
 J. Tomasi, M. Cossi, J. M. Millam, M. Klene, C. Adamo, R. Cammi, 
 J. W. Ochterski, R. L. Martin, K. Morokuma, O. Farkas, 
 J. B. Foresman, and D. J. Fox, Gaussian, Inc., Wallingford CT, 2016.
 
 ******************************************
 Gaussian 16:  EM64L-G16RevA.03 25-Dec-2016
                17-Sep-2021 
 ******************************************
 %chk=02-IsoP_041_gaussian.chk
 %nproc=1
 Will use up to    1 processors via shared memory.
 %mem=4000Mb
 ---------------------
 #p opt mp2/6-31g(d,p)
 ---------------------
 1/18=20,19=15,38=1/1,3;
 2/9=110,12=2,17=6,18=5,40=1/2;
 3/5=1,6=6,7=101,11=9,25=1,30=1,71=1/1,2,3;
 4//1;
 5/5=2,38=5/2;
 8/6=4,10=2/1;
 9/15=2,16=-3/6;
 10/5=1/2;
 6/7=2,8=2,9=2,10=2/1;
 7/12=2/1,2,3,16;
 1/18=20,19=15/3(2);
 2/9=110/2;
 99//99;
 2/9=110/2;
 3/5=1,6=6,7=101,11=9,25=1,30=1,71=1/1,2,3;
 4/5=5,16=3,69=1/1;
 5/5=2,38=5/2;
 8/6=4,10=2/1;
 9/15=2,16=-3/6;
 10/5=1/2;
 7/12=2/1,2,3,16;
 1/18=20,19=15/3(-8);
 2/9=110/2;
 6/7=2,8=2,9=2,10=2/1;
 99//99;
 Leave Link    1 at Fri Sep 17 20:09:28 2021, MaxMem=   524288000 cpu:               0.0 elap:               0.1
 (Enter /opt/gaussian/g16_legacy/l101.exe)
 -------------------------------------------------
 Conformer number 041. Energy MM = 26.841 kcal/mol
 -------------------------------------------------
 Symbolic Z-matrix:
 Charge =  0 Multiplicity = 1
 C                     2.174     1.2648   -9.0656 
 H                     1.8241    0.2567   -9.3255 
 H                     1.9748    1.8757   -9.9554 
 C                     3.6682    1.2234   -8.7905 
 C                     4.4511    2.4459   -9.1926 
 H                     5.4467    2.1835   -9.5649 
 H                     3.9518    2.9874   -10.003 
 H                     4.5671    3.1302   -8.3484 
 C                     4.2246    0.1497   -8.195 
 H                     3.5874   -0.6971   -7.9435 
 C                     5.642     0.0159   -7.7351 
 H                     6.2268    0.9309   -7.8673 
 H                     5.6537   -0.2222   -6.6671 
 H                     6.1392   -0.7943   -8.2743 
 C                     2.8621    4.9045   -6.0837 
 H                     2.2973    5.6071   -6.7031 
 H                     2.6542    5.1393   -5.0354 
 H                     3.9275    5.0727   -6.2735 
 C                     2.5119    3.4707   -6.3808 
 C                     3.1887    2.4719   -5.4815 
 H                     3.0669    1.4383   -5.8044 
 H                     4.2656    2.6685   -5.4423 
 H                     2.7864    2.5483   -4.4638 
 C                     1.7109    3.1559   -7.4204 
 H                     1.3011    3.9616   -8.0282 
 C                     1.3322    1.774    -7.8816 
 H                     1.3746    1.0521   -7.0565 
 H                     0.2793    1.7964   -8.1862 
 
 ITRead=  0  0  0  0  0  0  0  0  0  0  0  0  0  0  0  0  0  0  0  0
 ITRead=  0  0  0  0  0  0  0  0
 MicOpt= -1 -1 -1 -1 -1 -1 -1 -1 -1 -1 -1 -1 -1 -1 -1 -1 -1 -1 -1 -1
 MicOpt= -1 -1 -1 -1 -1 -1 -1 -1
 NAtoms=     28 NQM=       28 NQMF=       0 NMMI=      0 NMMIF=      0
                NMic=       0 NMicF=      0.
                    Isotopes and Nuclear Properties:
 (Nuclear quadrupole moments (NQMom) in fm**2, nuclear magnetic moments (NMagM)
  in nuclear magnetons)

  Atom         1           2           3           4           5           6           7           8           9          10
 IAtWgt=          12           1           1          12          12           1           1           1          12           1
 AtmWgt=  12.0000000   1.0078250   1.0078250  12.0000000  12.0000000   1.0078250   1.0078250   1.0078250  12.0000000   1.0078250
 NucSpn=           0           1           1           0           0           1           1           1           0           1
 AtZEff=  -0.0000000  -0.0000000  -0.0000000  -0.0000000  -0.0000000  -0.0000000  -0.0000000  -0.0000000  -0.0000000  -0.0000000
 NQMom=    0.0000000   0.0000000   0.0000000   0.0000000   0.0000000   0.0000000   0.0000000   0.0000000   0.0000000   0.0000000
 NMagM=    0.0000000   2.7928460   2.7928460   0.0000000   0.0000000   2.7928460   2.7928460   2.7928460   0.0000000   2.7928460
 AtZNuc=   6.0000000   1.0000000   1.0000000   6.0000000   6.0000000   1.0000000   1.0000000   1.0000000   6.0000000   1.0000000

  Atom        11          12          13          14          15          16          17          18          19          20
 IAtWgt=          12           1           1           1          12           1           1           1          12          12
 AtmWgt=  12.0000000   1.0078250   1.0078250   1.0078250  12.0000000   1.0078250   1.0078250   1.0078250  12.0000000  12.0000000
 NucSpn=           0           1           1           1           0           1           1           1           0           0
 AtZEff=  -0.0000000  -0.0000000  -0.0000000  -0.0000000  -0.0000000  -0.0000000  -0.0000000  -0.0000000  -0.0000000  -0.0000000
 NQMom=    0.0000000   0.0000000   0.0000000   0.0000000   0.0000000   0.0000000   0.0000000   0.0000000   0.0000000   0.0000000
 NMagM=    0.0000000   2.7928460   2.7928460   2.7928460   0.0000000   2.7928460   2.7928460   2.7928460   0.0000000   0.0000000
 AtZNuc=   6.0000000   1.0000000   1.0000000   1.0000000   6.0000000   1.0000000   1.0000000   1.0000000   6.0000000   6.0000000

  Atom        21          22          23          24          25          26          27          28
 IAtWgt=           1           1           1          12           1          12           1           1
 AtmWgt=   1.0078250   1.0078250   1.0078250  12.0000000   1.0078250  12.0000000   1.0078250   1.0078250
 NucSpn=           1           1           1           0           1           0           1           1
 AtZEff=  -0.0000000  -0.0000000  -0.0000000  -0.0000000  -0.0000000  -0.0000000  -0.0000000  -0.0000000
 NQMom=    0.0000000   0.0000000   0.0000000   0.0000000   0.0000000   0.0000000   0.0000000   0.0000000
 NMagM=    2.7928460   2.7928460   2.7928460   0.0000000   2.7928460   0.0000000   2.7928460   2.7928460
 AtZNuc=   1.0000000   1.0000000   1.0000000   6.0000000   1.0000000   6.0000000   1.0000000   1.0000000
 Leave Link  101 at Fri Sep 17 20:09:28 2021, MaxMem=   524288000 cpu:               0.3 elap:               0.3
 (Enter /opt/gaussian/g16_legacy/l103.exe)

 GradGradGradGradGradGradGradGradGradGradGradGradGradGradGradGradGradGrad
 Berny optimization.
 Initialization pass.
                           ----------------------------
                           !    Initial Parameters    !
                           ! (Angstroms and Degrees)  !
 --------------------------                            --------------------------
 ! Name  Definition              Value          Derivative Info.                !
 --------------------------------------------------------------------------------
 ! R1    R(1,2)                  1.0983         estimate D2E/DX2                !
 ! R2    R(1,3)                  1.0976         estimate D2E/DX2                !
 ! R3    R(1,4)                  1.5199         estimate D2E/DX2                !
 ! R4    R(1,26)                 1.5394         estimate D2E/DX2                !
 ! R5    R(4,5)                  1.5064         estimate D2E/DX2                !
 ! R6    R(4,9)                  1.348          estimate D2E/DX2                !
 ! R7    R(5,6)                  1.0948         estimate D2E/DX2                !
 ! R8    R(5,7)                  1.0951         estimate D2E/DX2                !
 ! R9    R(5,8)                  1.0929         estimate D2E/DX2                !
 ! R10   R(9,10)                 1.0892         estimate D2E/DX2                !
 ! R11   R(9,11)                 1.4961         estimate D2E/DX2                !
 ! R12   R(11,12)                1.0939         estimate D2E/DX2                !
 ! R13   R(11,13)                1.0943         estimate D2E/DX2                !
 ! R14   R(11,14)                1.0929         estimate D2E/DX2                !
 ! R15   R(15,16)                1.0938         estimate D2E/DX2                !
 ! R16   R(15,17)                1.0942         estimate D2E/DX2                !
 ! R17   R(15,18)                1.0952         estimate D2E/DX2                !
 ! R18   R(15,19)                1.5056         estimate D2E/DX2                !
 ! R19   R(19,20)                1.5048         estimate D2E/DX2                !
 ! R20   R(19,24)                1.3496         estimate D2E/DX2                !
 ! R21   R(20,21)                1.0897         estimate D2E/DX2                !
 ! R22   R(20,22)                1.0954         estimate D2E/DX2                !
 ! R23   R(20,23)                1.097          estimate D2E/DX2                !
 ! R24   R(24,25)                1.0893         estimate D2E/DX2                !
 ! R25   R(24,26)                1.5052         estimate D2E/DX2                !
 ! R26   R(26,27)                1.0971         estimate D2E/DX2                !
 ! R27   R(26,28)                1.0963         estimate D2E/DX2                !
 ! A1    A(2,1,3)              105.1428         estimate D2E/DX2                !
 ! A2    A(2,1,4)              109.3315         estimate D2E/DX2                !
 ! A3    A(2,1,26)             108.144          estimate D2E/DX2                !
 ! A4    A(3,1,4)              109.897          estimate D2E/DX2                !
 ! A5    A(3,1,26)             109.888          estimate D2E/DX2                !
 ! A6    A(4,1,26)             114.0412         estimate D2E/DX2                !
 ! A7    A(1,4,5)              116.1375         estimate D2E/DX2                !
 ! A8    A(1,4,9)              120.4943         estimate D2E/DX2                !
 ! A9    A(5,4,9)              123.3552         estimate D2E/DX2                !
 ! A10   A(4,5,6)              111.6468         estimate D2E/DX2                !
 ! A11   A(4,5,7)              111.2147         estimate D2E/DX2                !
 ! A12   A(4,5,8)              110.9235         estimate D2E/DX2                !
 ! A13   A(6,5,7)              106.3482         estimate D2E/DX2                !
 ! A14   A(6,5,8)              108.4344         estimate D2E/DX2                !
 ! A15   A(7,5,8)              108.084          estimate D2E/DX2                !
 ! A16   A(4,9,10)             118.6721         estimate D2E/DX2                !
 ! A17   A(4,9,11)             126.7322         estimate D2E/DX2                !
 ! A18   A(10,9,11)            114.439          estimate D2E/DX2                !
 ! A19   A(9,11,12)            113.2348         estimate D2E/DX2                !
 ! A20   A(9,11,13)            109.2443         estimate D2E/DX2                !
 ! A21   A(9,11,14)            110.2211         estimate D2E/DX2                !
 ! A22   A(12,11,13)           107.1111         estimate D2E/DX2                !
 ! A23   A(12,11,14)           108.497          estimate D2E/DX2                !
 ! A24   A(13,11,14)           108.3824         estimate D2E/DX2                !
 ! A25   A(16,15,17)           107.8538         estimate D2E/DX2                !
 ! A26   A(16,15,18)           107.7911         estimate D2E/DX2                !
 ! A27   A(16,15,19)           112.327          estimate D2E/DX2                !
 ! A28   A(17,15,18)           108.5369         estimate D2E/DX2                !
 ! A29   A(17,15,19)           110.4396         estimate D2E/DX2                !
 ! A30   A(18,15,19)           109.7762         estimate D2E/DX2                !
 ! A31   A(15,19,20)           114.1773         estimate D2E/DX2                !
 ! A32   A(15,19,24)           120.81           estimate D2E/DX2                !
 ! A33   A(20,19,24)           124.922          estimate D2E/DX2                !
 ! A34   A(19,20,21)           113.7169         estimate D2E/DX2                !
 ! A35   A(19,20,22)           110.1468         estimate D2E/DX2                !
 ! A36   A(19,20,23)           110.0755         estimate D2E/DX2                !
 ! A37   A(21,20,22)           106.9017         estimate D2E/DX2                !
 ! A38   A(21,20,23)           107.4559         estimate D2E/DX2                !
 ! A39   A(22,20,23)           108.351          estimate D2E/DX2                !
 ! A40   A(19,24,25)           118.7226         estimate D2E/DX2                !
 ! A41   A(19,24,26)           126.8318         estimate D2E/DX2                !
 ! A42   A(25,24,26)           114.4213         estimate D2E/DX2                !
 ! A43   A(1,26,24)            113.6878         estimate D2E/DX2                !
 ! A44   A(1,26,27)            109.8549         estimate D2E/DX2                !
 ! A45   A(1,26,28)            108.5569         estimate D2E/DX2                !
 ! A46   A(24,26,27)           111.341          estimate D2E/DX2                !
 ! A47   A(24,26,28)           107.9386         estimate D2E/DX2                !
 ! A48   A(27,26,28)           105.041          estimate D2E/DX2                !
 ! D1    D(2,1,4,5)            145.9031         estimate D2E/DX2                !
 ! D2    D(2,1,4,9)            -35.3659         estimate D2E/DX2                !
 ! D3    D(3,1,4,5)             30.9814         estimate D2E/DX2                !
 ! D4    D(3,1,4,9)           -150.2875         estimate D2E/DX2                !
 ! D5    D(26,1,4,5)           -92.9085         estimate D2E/DX2                !
 ! D6    D(26,1,4,9)            85.8226         estimate D2E/DX2                !
 ! D7    D(2,1,26,24)          179.9841         estimate D2E/DX2                !
 ! D8    D(2,1,26,27)           54.4675         estimate D2E/DX2                !
 ! D9    D(2,1,26,28)          -59.8797         estimate D2E/DX2                !
 ! D10   D(3,1,26,24)          -65.756          estimate D2E/DX2                !
 ! D11   D(3,1,26,27)          168.7275         estimate D2E/DX2                !
 ! D12   D(3,1,26,28)           54.3802         estimate D2E/DX2                !
 ! D13   D(4,1,26,24)           58.1387         estimate D2E/DX2                !
 ! D14   D(4,1,26,27)          -67.3778         estimate D2E/DX2                !
 ! D15   D(4,1,26,28)          178.2749         estimate D2E/DX2                !
 ! D16   D(1,4,5,6)           -144.1641         estimate D2E/DX2                !
 ! D17   D(1,4,5,7)            -25.5505         estimate D2E/DX2                !
 ! D18   D(1,4,5,8)             94.7738         estimate D2E/DX2                !
 ! D19   D(9,4,5,6)             37.145          estimate D2E/DX2                !
 ! D20   D(9,4,5,7)            155.7586         estimate D2E/DX2                !
 ! D21   D(9,4,5,8)            -83.9171         estimate D2E/DX2                !
 ! D22   D(1,4,9,10)             1.8229         estimate D2E/DX2                !
 ! D23   D(1,4,9,11)          -173.3553         estimate D2E/DX2                !
 ! D24   D(5,4,9,10)          -179.541          estimate D2E/DX2                !
 ! D25   D(5,4,9,11)             5.2808         estimate D2E/DX2                !
 ! D26   D(4,9,11,12)            3.6932         estimate D2E/DX2                !
 ! D27   D(4,9,11,13)          122.9695         estimate D2E/DX2                !
 ! D28   D(4,9,11,14)         -118.0473         estimate D2E/DX2                !
 ! D29   D(10,9,11,12)        -171.6603         estimate D2E/DX2                !
 ! D30   D(10,9,11,13)         -52.384          estimate D2E/DX2                !
 ! D31   D(10,9,11,14)          66.5992         estimate D2E/DX2                !
 ! D32   D(16,15,19,20)       -175.6628         estimate D2E/DX2                !
 ! D33   D(16,15,19,24)          7.6342         estimate D2E/DX2                !
 ! D34   D(17,15,19,20)        -55.2146         estimate D2E/DX2                !
 ! D35   D(17,15,19,24)        128.0824         estimate D2E/DX2                !
 ! D36   D(18,15,19,20)         64.4249         estimate D2E/DX2                !
 ! D37   D(18,15,19,24)       -112.2781         estimate D2E/DX2                !
 ! D38   D(15,19,20,21)       -170.2055         estimate D2E/DX2                !
 ! D39   D(15,19,20,22)        -50.2438         estimate D2E/DX2                !
 ! D40   D(15,19,20,23)         69.171          estimate D2E/DX2                !
 ! D41   D(24,19,20,21)          6.3407         estimate D2E/DX2                !
 ! D42   D(24,19,20,22)        126.3024         estimate D2E/DX2                !
 ! D43   D(24,19,20,23)       -114.2828         estimate D2E/DX2                !
 ! D44   D(15,19,24,25)         -1.4803         estimate D2E/DX2                !
 ! D45   D(15,19,24,26)        176.6186         estimate D2E/DX2                !
 ! D46   D(20,19,24,25)       -177.8115         estimate D2E/DX2                !
 ! D47   D(20,19,24,26)          0.2874         estimate D2E/DX2                !
 ! D48   D(19,24,26,1)         -98.1748         estimate D2E/DX2                !
 ! D49   D(19,24,26,27)         26.5476         estimate D2E/DX2                !
 ! D50   D(19,24,26,28)        141.3403         estimate D2E/DX2                !
 ! D51   D(25,24,26,1)          79.9943         estimate D2E/DX2                !
 ! D52   D(25,24,26,27)       -155.2833         estimate D2E/DX2                !
 ! D53   D(25,24,26,28)        -40.4907         estimate D2E/DX2                !
 --------------------------------------------------------------------------------
 Trust Radius=3.00D-01 FncErr=1.00D-07 GrdErr=1.00D-07 EigMax=2.50D+02 EigMin=1.00D-04
 Number of steps in this run=    138 maximum allowed number of steps=    168.
 GradGradGradGradGradGradGradGradGradGradGradGradGradGradGradGradGradGrad

 Leave Link  103 at Fri Sep 17 20:09:28 2021, MaxMem=   524288000 cpu:               0.1 elap:               0.1
 (Enter /opt/gaussian/g16_legacy/l202.exe)
                          Input orientation:                          
 ---------------------------------------------------------------------
 Center     Atomic      Atomic             Coordinates (Angstroms)
 Number     Number       Type             X           Y           Z
 ---------------------------------------------------------------------
      1          6           0        2.174000    1.264800   -9.065600
      2          1           0        1.824100    0.256700   -9.325500
      3          1           0        1.974800    1.875700   -9.955400
      4          6           0        3.668200    1.223400   -8.790500
      5          6           0        4.451100    2.445900   -9.192600
      6          1           0        5.446700    2.183500   -9.564900
      7          1           0        3.951800    2.987400  -10.003000
      8          1           0        4.567100    3.130200   -8.348400
      9          6           0        4.224600    0.149700   -8.195000
     10          1           0        3.587400   -0.697100   -7.943500
     11          6           0        5.642000    0.015900   -7.735100
     12          1           0        6.226800    0.930900   -7.867300
     13          1           0        5.653700   -0.222200   -6.667100
     14          1           0        6.139200   -0.794300   -8.274300
     15          6           0        2.862100    4.904500   -6.083700
     16          1           0        2.297300    5.607100   -6.703100
     17          1           0        2.654200    5.139300   -5.035400
     18          1           0        3.927500    5.072700   -6.273500
     19          6           0        2.511900    3.470700   -6.380800
     20          6           0        3.188700    2.471900   -5.481500
     21          1           0        3.066900    1.438300   -5.804400
     22          1           0        4.265600    2.668500   -5.442300
     23          1           0        2.786400    2.548300   -4.463800
     24          6           0        1.710900    3.155900   -7.420400
     25          1           0        1.301100    3.961600   -8.028200
     26          6           0        1.332200    1.774000   -7.881600
     27          1           0        1.374600    1.052100   -7.056500
     28          1           0        0.279300    1.796400   -8.186200
 ---------------------------------------------------------------------
                    Distance matrix (angstroms):
                    1          2          3          4          5
     1  C    0.000000
     2  H    1.098291   0.000000
     3  H    1.097553   1.743745   0.000000
     4  C    1.519877   2.149753   2.156407   0.000000
     5  C    2.568328   3.422191   2.653121   1.506361   0.000000
     6  H    3.435677   4.110122   3.507324   2.164382   1.094843
     7  H    2.647006   3.527440   2.268628   2.159232   1.095112
     8  H    3.117855   4.090938   3.297914   2.153917   1.092884
     9  C    2.491255   2.655538   3.337617   1.347974   2.513771
    10  H    2.665682   2.434930   3.642461   2.100538   3.490656
    11  C    3.918802   4.142912   4.673002   2.543189   3.073670
    12  H    4.239410   4.686647   4.830353   2.735743   2.684168
    13  H    4.480210   4.686392   5.361754   3.246659   3.865638
    14  H    4.537495   4.563958   5.224675   3.231628   3.767208
    15  C    4.755273   5.760968   4.995097   4.639726   4.270234
    16  H    4.944914   5.977264   4.960323   5.045139   4.563951
    17  H    5.611137   6.552389   5.942985   5.519352   5.269304
    18  H    5.036932   6.077240   5.252641   4.606478   3.961740
    19  C    3.491178   4.412949   3.950983   3.491997   3.566081
    20  C    3.915671   4.641722   4.673841   3.569055   3.920025
    21  H    3.385675   3.916488   4.314487   3.053610   3.796204
    22  H    4.412875   5.182369   5.122926   3.695354   3.761477
    23  H    4.816531   5.460181   5.591847   4.610126   5.014306
    24  C    2.549001   3.470963   2.852154   3.072906   3.339684
    25  H    3.018424   3.960152   2.918724   3.698919   3.684518
    26  C    1.539405   2.151514   2.173459   2.566351   3.449305
    27  H    2.172732   2.446032   3.072813   2.880399   3.996305
    28  H    2.155419   2.460709   2.451750   3.489721   4.340346
                    6          7          8          9         10
     6  H    0.000000
     7  H    1.752973   0.000000
     8  H    1.774770   1.771069   0.000000
     9  C    2.739799   3.375770   3.004034   0.000000
    10  H    3.792597   4.236728   3.971395   1.089195   0.000000
    11  C    2.843378   4.102433   3.351181   1.496139   2.184761
    12  H    2.249313   3.737115   2.796959   2.174044   3.102035
    13  H    3.771934   4.932162   3.904620   2.124880   2.474737
    14  H    3.318508   4.698338   4.228320   2.136146   2.574987
    15  C    5.118862   4.497069   3.344254   5.377929   5.946666
    16  H    5.461653   4.526537   3.740861   5.976911   6.553311
    17  H    6.086968   5.567000   4.321069   6.111083   6.587220
    18  H    4.635597   4.272966   2.913349   5.293048   6.016241
    19  C    4.517569   3.927750   2.865526   4.153758   4.579224
    20  C    4.675029   4.614328   3.248455   3.718707   4.032737
    21  H    4.512220   4.561908   3.403684   2.952241   3.067018
    22  H    4.315791   4.582592   2.957953   3.731406   4.247731
    23  H    5.764677   5.677473   4.312727   4.662998   4.825198
    24  C    4.415953   3.423426   3.003285   3.994488   4.317464
    25  H    4.765405   3.446028   3.385338   4.806793   5.190166
    26  C    4.464336   3.582594   3.538610   3.332049   3.346056
    27  H    4.914686   4.366830   4.022383   3.198907   2.956849
    28  H    5.362153   4.266907   4.493391   4.275171   4.149695
                   11         12         13         14         15
    11  C    0.000000
    12  H    1.093935   0.000000
    13  H    1.094282   1.760274   0.000000
    14  H    1.092872   1.774722   1.773725   0.000000
    15  C    5.861175   5.503811   5.866553   6.929245   0.000000
    16  H    6.596481   6.217972   6.726623   7.629337   1.093756
    17  H    6.516483   6.204334   6.356503   7.605479   1.094206
    18  H    5.535974   4.998148   5.583068   6.581528   1.095168
    19  C    4.854616   4.739277   4.856993   5.910404   1.505553
    20  C    4.138759   4.158939   3.839277   5.212796   2.527223
    21  H    3.518802   3.807621   3.192655   4.530335   3.483460
    22  H    3.766656   3.570180   3.432652   4.849906   2.716782
    23  H    5.026819   5.102563   4.555394   6.077348   2.860330
    24  C    5.041050   5.054077   5.246398   5.995254   2.483874
    25  H    5.873489   5.785633   6.188853   6.788694   2.665870
    26  C    4.656904   4.966702   4.912758   5.464213   3.920851
    27  H    4.443525   4.920968   4.481760   5.252965   4.242639
    28  H    5.668529   6.018600   5.938568   6.407645   4.555398
                   16         17         18         19         20
    16  H    0.000000
    17  H    1.768456   0.000000
    18  H    1.768528   1.777251   0.000000
    19  C    2.171206   2.148157   2.140523   0.000000
    20  C    3.480859   2.756759   2.817313   1.504792   0.000000
    21  H    4.333456   3.802510   3.764246   2.184242   1.089692
    22  H    3.754889   2.977756   2.566200   2.144708   1.095400
    23  H    3.822295   2.656593   3.309036   2.145008   1.096994
    24  C    2.620451   3.242208   3.146874   1.349618   2.532011
    25  H    2.335803   3.489228   3.348357   2.102605   3.502559
    26  C    4.124674   4.601498   4.494774   2.553994   3.113541
    27  H    4.660933   4.735760   4.826553   2.756746   2.790594
    28  H    4.559972   5.171332   5.263262   3.323741   4.029431
                   21         22         23         24         25
    21  H    0.000000
    22  H    1.755389   0.000000
    23  H    1.762949   1.777623   0.000000
    24  C    2.720357   3.267557   3.204272   0.000000
    25  H    3.798734   4.140923   4.111992   1.089270   0.000000
    26  C    2.727020   3.918565   3.794153   1.505246   2.192727
    27  H    2.140277   3.684599   3.309666   2.161364   3.068354
    28  H    3.684009   4.917330   4.550513   2.117586   2.399402
                   26         27         28
    26  C    0.000000
    27  H    1.097145   0.000000
    28  H    1.096303   1.740657   0.000000
 Stoichiometry    C10H18
 Framework group  C1[X(C10H18)]
 Deg. of freedom    78
 Full point group                 C1      NOp   1
 Largest Abelian subgroup         C1      NOp   1
 Largest concise Abelian subgroup C1      NOp   1
                         Standard orientation:                         
 ---------------------------------------------------------------------
 Center     Atomic      Atomic             Coordinates (Angstroms)
 Number     Number       Type             X           Y           Z
 ---------------------------------------------------------------------
      1          6           0        0.815309    1.821411   -0.070864
      2          1           0        1.525361    2.356395   -0.715737
      3          1           0        0.678347    2.469489    0.804270
      4          6           0        1.424201    0.496214    0.357078
      5          6           0        1.066535    0.017306    1.739773
      6          1           0        1.906650   -0.495229    2.219557
      7          1           0        0.802741    0.855338    2.393520
      8          1           0        0.216214   -0.668483    1.707487
      9          6           0        2.213281   -0.198253   -0.486783
     10          1           0        2.428772    0.223873   -1.467457
     11          6           0        2.768984   -1.569967   -0.267634
     12          1           0        2.422153   -2.032832    0.660891
     13          1           0        2.455414   -2.221597   -1.088917
     14          1           0        3.861239   -1.536935   -0.251663
     15          6           0       -2.971566   -0.939930    0.733624
     16          1           0       -3.475792   -0.186609    1.345642
     17          1           0       -3.733596   -1.456819    0.142504
     18          1           0       -2.505664   -1.663880    1.410546
     19          6           0       -1.925783   -0.338559   -0.167143
     20          6           0       -1.277314   -1.323476   -1.101929
     21          1           0       -0.411071   -0.923325   -1.628173
     22          1           0       -0.933854   -2.202128   -0.545237
     23          1           0       -1.998417   -1.654674   -1.859368
     24          6           0       -1.584638    0.962642   -0.057756
     25          1           0       -2.098178    1.578234    0.679694
     26          6           0       -0.514752    1.683281   -0.833507
     27          1           0       -0.338690    1.208265   -1.806693
     28          1           0       -0.887178    2.686896   -1.070014
 ---------------------------------------------------------------------
 Rotational constants (GHZ):           1.6539320           0.8587601           0.7393346
 Leave Link  202 at Fri Sep 17 20:09:28 2021, MaxMem=   524288000 cpu:               0.1 elap:               0.2
 (Enter /opt/gaussian/g16_legacy/l301.exe)
 Standard basis: 6-31G(d,p) (6D, 7F)
 Ernie: Thresh=  0.10000D-02 Tol=  0.10000D-05 Strict=F.
 There are   240 symmetry adapted cartesian basis functions of A   symmetry.
 There are   240 symmetry adapted basis functions of A   symmetry.
   240 basis functions,   406 primitive gaussians,   240 cartesian basis functions
    39 alpha electrons       39 beta electrons
       nuclear repulsion energy       541.9660770113 Hartrees.
 IExCor=    0 DFT=F Ex=HF Corr=None ExCW=0 ScaHFX=  1.000000
 ScaDFX=  1.000000  1.000000  1.000000  1.000000 ScalE2=  1.000000  1.000000
 IRadAn=      5 IRanWt=     -1 IRanGd=            0 ICorTp=0 IEmpDi=  4
 NAtoms=   28 NActive=   28 NUniq=   28 SFac= 1.00D+00 NAtFMM=   60 NAOKFM=F Big=F
 Integral buffers will be    131072 words long.
 Raffenetti 1 integral format.
 Two-electron integral symmetry is turned on.
 Leave Link  301 at Fri Sep 17 20:09:29 2021, MaxMem=   524288000 cpu:               0.1 elap:               0.3
 (Enter /opt/gaussian/g16_legacy/l302.exe)
 NPDir=0 NMtPBC=     1 NCelOv=     1 NCel=       1 NClECP=     1 NCelD=      1
         NCelK=      1 NCelE2=     1 NClLst=     1 CellRange=     0.0.
 One-electron integrals computed using PRISM.
 One-electron integral symmetry used in STVInt
 NBasis=   240 RedAO= T EigKep=  2.40D-03  NBF=   240
 NBsUse=   240 1.00D-06 EigRej= -1.00D+00 NBFU=   240
 Leave Link  302 at Fri Sep 17 20:09:30 2021, MaxMem=   524288000 cpu:               0.3 elap:               0.7
 (Enter /opt/gaussian/g16_legacy/l303.exe)
 DipDrv:  MaxL=1.
 Leave Link  303 at Fri Sep 17 20:09:30 2021, MaxMem=   524288000 cpu:               0.1 elap:               0.3
 (Enter /opt/gaussian/g16_legacy/l401.exe)
 ExpMin= 1.61D-01 ExpMax= 3.05D+03 ExpMxC= 4.57D+02 IAcc=3 IRadAn=         5 AccDes= 0.00D+00
 Harris functional with IExCor=  205 and IRadAn=       5 diagonalized for initial guess.
 HarFok:  IExCor=  205 AccDes= 0.00D+00 IRadAn=         5 IDoV= 1 UseB2=F ITyADJ=14
 ICtDFT=  3500011 ScaDFX=  1.000000  1.000000  1.000000  1.000000
 FoFCou: FMM=F IPFlag=           0 FMFlag=      100000 FMFlg1=           0
         NFxFlg=           0 DoJE=T BraDBF=F KetDBF=T FulRan=T
         wScrn=  0.000000 ICntrl=       500 IOpCl=  0 I1Cent=   200000004 NGrid=           0
         NMat0=    1 NMatS0=      1 NMatT0=    0 NMatD0=    1 NMtDS0=    0 NMtDT0=    0
 Petite list used in FoFCou.
 Harris En= -390.108013768271    
 JPrj=0 DoOrth=F DoCkMO=F.
 Leave Link  401 at Fri Sep 17 20:09:42 2021, MaxMem=   524288000 cpu:              11.9 elap:              12.3
 (Enter /opt/gaussian/g16_legacy/l502.exe)
 Keep R1 ints in memory in canonical form, NReq=425198025.
 FoFCou: FMM=F IPFlag=           0 FMFlag=           0 FMFlg1=           0
         NFxFlg=           0 DoJE=F BraDBF=F KetDBF=F FulRan=T
         wScrn=  0.000000 ICntrl=       600 IOpCl=  0 I1Cent=           0 NGrid=           0
         NMat0=    1 NMatS0=  28920 NMatT0=    0 NMatD0=    1 NMtDS0=    0 NMtDT0=    0
 Symmetry not used in FoFCou.
 Two-electron integral symmetry not used.
 Closed shell SCF:
 Using DIIS extrapolation, IDIIS=  1040.
 NGot=   524288000 LenX=   105970886 LenY=   105912845
 Requested convergence on RMS density matrix=1.00D-08 within 128 cycles.
 Requested convergence on MAX density matrix=1.00D-06.
 Requested convergence on             energy=1.00D-06.
 No special actions if energy rises.

 Cycle   1  Pass 1  IDiag  1:
 E= -388.525913797894    
 DIIS: error= 4.52D-02 at cycle   1 NSaved=   1.
 NSaved= 1 IEnMin= 1 EnMin= -388.525913797894     IErMin= 1 ErrMin= 4.52D-02
 ErrMax= 4.52D-02  0.00D+00 EMaxC= 1.00D-01 BMatC= 8.11D-01 BMatP= 8.11D-01
 IDIUse=3 WtCom= 5.48D-01 WtEn= 4.52D-01
 Coeff-Com:  0.100D+01
 Coeff-En:   0.100D+01
 Coeff:      0.100D+01
 Gap=     0.505 Goal=   None    Shift=    0.000
 GapD=    0.505 DampG=2.000 DampE=0.500 DampFc=1.0000 IDamp=-1.
 RMSDP=4.06D-03 MaxDP=1.15D-01              OVMax= 1.35D-01

 Cycle   2  Pass 1  IDiag  1:
 E= -389.058308591445     Delta-E=       -0.532394793551 Rises=F Damp=F
 DIIS: error= 1.53D-02 at cycle   2 NSaved=   2.
 NSaved= 2 IEnMin= 2 EnMin= -389.058308591445     IErMin= 2 ErrMin= 1.53D-02
 ErrMax= 1.53D-02  0.00D+00 EMaxC= 1.00D-01 BMatC= 9.61D-02 BMatP= 8.11D-01
 IDIUse=3 WtCom= 8.47D-01 WtEn= 1.53D-01
 Coeff-Com:  0.193D+00 0.807D+00
 Coeff-En:   0.000D+00 0.100D+01
 Coeff:      0.164D+00 0.836D+00
 Gap=     0.546 Goal=   None    Shift=    0.000
 RMSDP=1.88D-03 MaxDP=3.25D-02 DE=-5.32D-01 OVMax= 4.94D-02

 Cycle   3  Pass 1  IDiag  1:
 E= -389.144034960169     Delta-E=       -0.085726368724 Rises=F Damp=F
 DIIS: error= 3.92D-03 at cycle   3 NSaved=   3.
 NSaved= 3 IEnMin= 3 EnMin= -389.144034960169     IErMin= 3 ErrMin= 3.92D-03
 ErrMax= 3.92D-03  0.00D+00 EMaxC= 1.00D-01 BMatC= 4.59D-03 BMatP= 9.61D-02
 IDIUse=3 WtCom= 9.61D-01 WtEn= 3.92D-02
 Coeff-Com: -0.215D-01 0.130D+00 0.891D+00
 Coeff-En:   0.000D+00 0.000D+00 0.100D+01
 Coeff:     -0.207D-01 0.125D+00 0.895D+00
 Gap=     0.493 Goal=   None    Shift=    0.000
 RMSDP=3.28D-04 MaxDP=8.48D-03 DE=-8.57D-02 OVMax= 1.32D-02

 Cycle   4  Pass 1  IDiag  1:
 E= -389.148949440078     Delta-E=       -0.004914479909 Rises=F Damp=F
 DIIS: error= 8.03D-04 at cycle   4 NSaved=   4.
 NSaved= 4 IEnMin= 4 EnMin= -389.148949440078     IErMin= 4 ErrMin= 8.03D-04
 ErrMax= 8.03D-04  0.00D+00 EMaxC= 1.00D-01 BMatC= 2.30D-04 BMatP= 4.59D-03
 IDIUse=3 WtCom= 9.92D-01 WtEn= 8.03D-03
 Coeff-Com: -0.807D-02 0.125D-01 0.210D+00 0.786D+00
 Coeff-En:   0.000D+00 0.000D+00 0.000D+00 0.100D+01
 Coeff:     -0.801D-02 0.124D-01 0.208D+00 0.787D+00
 Gap=     0.493 Goal=   None    Shift=    0.000
 RMSDP=9.75D-05 MaxDP=2.43D-03 DE=-4.91D-03 OVMax= 5.25D-03

 Cycle   5  Pass 1  IDiag  1:
 E= -389.149199086195     Delta-E=       -0.000249646117 Rises=F Damp=F
 DIIS: error= 1.73D-04 at cycle   5 NSaved=   5.
 NSaved= 5 IEnMin= 5 EnMin= -389.149199086195     IErMin= 5 ErrMin= 1.73D-04
 ErrMax= 1.73D-04  0.00D+00 EMaxC= 1.00D-01 BMatC= 2.21D-05 BMatP= 2.30D-04
 IDIUse=3 WtCom= 9.98D-01 WtEn= 1.73D-03
 Coeff-Com:  0.146D-02-0.138D-01-0.725D-01 0.104D+00 0.981D+00
 Coeff-En:   0.000D+00 0.000D+00 0.000D+00 0.000D+00 0.100D+01
 Coeff:      0.145D-02-0.138D-01-0.724D-01 0.104D+00 0.981D+00
 Gap=     0.493 Goal=   None    Shift=    0.000
 RMSDP=3.67D-05 MaxDP=8.39D-04 DE=-2.50D-04 OVMax= 1.53D-03

 Cycle   6  Pass 1  IDiag  1:
 E= -389.149230461072     Delta-E=       -0.000031374876 Rises=F Damp=F
 DIIS: error= 5.10D-05 at cycle   6 NSaved=   6.
 NSaved= 6 IEnMin= 6 EnMin= -389.149230461072     IErMin= 6 ErrMin= 5.10D-05
 ErrMax= 5.10D-05  0.00D+00 EMaxC= 1.00D-01 BMatC= 1.29D-06 BMatP= 2.21D-05
 IDIUse=1 WtCom= 1.00D+00 WtEn= 0.00D+00
 Coeff-Com:  0.920D-03-0.431D-02-0.315D-01-0.358D-01 0.194D+00 0.877D+00
 Coeff:      0.920D-03-0.431D-02-0.315D-01-0.358D-01 0.194D+00 0.877D+00
 Gap=     0.493 Goal=   None    Shift=    0.000
 RMSDP=8.72D-06 MaxDP=1.96D-04 DE=-3.14D-05 OVMax= 4.73D-04

 Cycle   7  Pass 1  IDiag  1:
 E= -389.149232349164     Delta-E=       -0.000001888093 Rises=F Damp=F
 DIIS: error= 9.15D-06 at cycle   7 NSaved=   7.
 NSaved= 7 IEnMin= 7 EnMin= -389.149232349164     IErMin= 7 ErrMin= 9.15D-06
 ErrMax= 9.15D-06  0.00D+00 EMaxC= 1.00D-01 BMatC= 4.93D-08 BMatP= 1.29D-06
 IDIUse=1 WtCom= 1.00D+00 WtEn= 0.00D+00
 Coeff-Com:  0.633D-04-0.686D-04-0.107D-02-0.764D-02-0.194D-01 0.113D+00
 Coeff-Com:  0.916D+00
 Coeff:      0.633D-04-0.686D-04-0.107D-02-0.764D-02-0.194D-01 0.113D+00
 Coeff:      0.916D+00
 Gap=     0.493 Goal=   None    Shift=    0.000
 RMSDP=1.74D-06 MaxDP=4.26D-05 DE=-1.89D-06 OVMax= 1.07D-04

 Cycle   8  Pass 1  IDiag  1:
 E= -389.149232434177     Delta-E=       -0.000000085013 Rises=F Damp=F
 DIIS: error= 3.11D-06 at cycle   8 NSaved=   8.
 NSaved= 8 IEnMin= 8 EnMin= -389.149232434177     IErMin= 8 ErrMin= 3.11D-06
 ErrMax= 3.11D-06  0.00D+00 EMaxC= 1.00D-01 BMatC= 6.85D-09 BMatP= 4.93D-08
 IDIUse=1 WtCom= 1.00D+00 WtEn= 0.00D+00
 Coeff-Com: -0.682D-04 0.346D-03 0.257D-02 0.293D-02-0.212D-01-0.614D-01
 Coeff-Com:  0.111D+00 0.966D+00
 Coeff:     -0.682D-04 0.346D-03 0.257D-02 0.293D-02-0.212D-01-0.614D-01
 Coeff:      0.111D+00 0.966D+00
 Gap=     0.493 Goal=   None    Shift=    0.000
 RMSDP=6.81D-07 MaxDP=1.85D-05 DE=-8.50D-08 OVMax= 4.16D-05

 Cycle   9  Pass 1  IDiag  1:
 E= -389.149232446665     Delta-E=       -0.000000012487 Rises=F Damp=F
 DIIS: error= 1.61D-06 at cycle   9 NSaved=   9.
 NSaved= 9 IEnMin= 9 EnMin= -389.149232446665     IErMin= 9 ErrMin= 1.61D-06
 ErrMax= 1.61D-06  0.00D+00 EMaxC= 1.00D-01 BMatC= 7.59D-10 BMatP= 6.85D-09
 IDIUse=1 WtCom= 1.00D+00 WtEn= 0.00D+00
 Coeff-Com: -0.158D-04 0.516D-04 0.452D-03 0.161D-02-0.158D-02-0.187D-01
 Coeff-Com: -0.737D-01 0.709D-01 0.102D+01
 Coeff:     -0.158D-04 0.516D-04 0.452D-03 0.161D-02-0.158D-02-0.187D-01
 Coeff:     -0.737D-01 0.709D-01 0.102D+01
 Gap=     0.493 Goal=   None    Shift=    0.000
 RMSDP=2.61D-07 MaxDP=7.14D-06 DE=-1.25D-08 OVMax= 2.51D-05

 Cycle  10  Pass 1  IDiag  1:
 E= -389.149232448994     Delta-E=       -0.000000002330 Rises=F Damp=F
 DIIS: error= 5.63D-07 at cycle  10 NSaved=  10.
 NSaved=10 IEnMin=10 EnMin= -389.149232448994     IErMin=10 ErrMin= 5.63D-07
 ErrMax= 5.63D-07  0.00D+00 EMaxC= 1.00D-01 BMatC= 2.11D-10 BMatP= 7.59D-10
 IDIUse=1 WtCom= 1.00D+00 WtEn= 0.00D+00
 Coeff-Com:  0.976D-05-0.526D-04-0.389D-03-0.236D-03 0.260D-02 0.102D-01
 Coeff-Com: -0.992D-02-0.197D+00 0.889D-01 0.111D+01
 Coeff:      0.976D-05-0.526D-04-0.389D-03-0.236D-03 0.260D-02 0.102D-01
 Coeff:     -0.992D-02-0.197D+00 0.889D-01 0.111D+01
 Gap=     0.493 Goal=   None    Shift=    0.000
 RMSDP=1.45D-07 MaxDP=3.42D-06 DE=-2.33D-09 OVMax= 1.12D-05

 Cycle  11  Pass 1  IDiag  1:
 E= -389.149232449524     Delta-E=       -0.000000000529 Rises=F Damp=F
 DIIS: error= 2.11D-07 at cycle  11 NSaved=  11.
 NSaved=11 IEnMin=11 EnMin= -389.149232449524     IErMin=11 ErrMin= 2.11D-07
 ErrMax= 2.11D-07  0.00D+00 EMaxC= 1.00D-01 BMatC= 1.72D-11 BMatP= 2.11D-10
 IDIUse=1 WtCom= 1.00D+00 WtEn= 0.00D+00
 Coeff-Com:  0.247D-05-0.888D-05-0.728D-04-0.176D-03 0.343D-04 0.319D-02
 Coeff-Com:  0.139D-01-0.238D-01-0.109D+00-0.497D-01 0.117D+01
 Coeff:      0.247D-05-0.888D-05-0.728D-04-0.176D-03 0.343D-04 0.319D-02
 Coeff:      0.139D-01-0.238D-01-0.109D+00-0.497D-01 0.117D+01
 Gap=     0.493 Goal=   None    Shift=    0.000
 RMSDP=5.18D-08 MaxDP=1.33D-06 DE=-5.29D-10 OVMax= 4.78D-06

 Cycle  12  Pass 1  IDiag  1:
 E= -389.149232449597     Delta-E=       -0.000000000073 Rises=F Damp=F
 DIIS: error= 5.00D-08 at cycle  12 NSaved=  12.
 NSaved=12 IEnMin=12 EnMin= -389.149232449597     IErMin=12 ErrMin= 5.00D-08
 ErrMax= 5.00D-08  0.00D+00 EMaxC= 1.00D-01 BMatC= 1.56D-12 BMatP= 1.72D-11
 IDIUse=1 WtCom= 1.00D+00 WtEn= 0.00D+00
 Coeff-Com: -0.124D-05 0.633D-05 0.482D-04 0.608D-04-0.322D-03-0.141D-02
 Coeff-Com: -0.288D-03 0.199D-01 0.129D-01-0.128D+00-0.132D+00 0.123D+01
 Coeff:     -0.124D-05 0.633D-05 0.482D-04 0.608D-04-0.322D-03-0.141D-02
 Coeff:     -0.288D-03 0.199D-01 0.129D-01-0.128D+00-0.132D+00 0.123D+01
 Gap=     0.493 Goal=   None    Shift=    0.000
 RMSDP=1.66D-08 MaxDP=4.15D-07 DE=-7.30D-11 OVMax= 1.35D-06

 Cycle  13  Pass 1  IDiag  1:
 E= -389.149232449587     Delta-E=        0.000000000010 Rises=F Damp=F
 DIIS: error= 9.98D-09 at cycle  13 NSaved=  13.
 NSaved=13 IEnMin=12 EnMin= -389.149232449597     IErMin=13 ErrMin= 9.98D-09
 ErrMax= 9.98D-09  0.00D+00 EMaxC= 1.00D-01 BMatC= 4.97D-14 BMatP= 1.56D-12
 IDIUse=1 WtCom= 1.00D+00 WtEn= 0.00D+00
 Coeff-Com: -0.165D-06 0.684D-06 0.533D-05 0.136D-04-0.163D-04-0.212D-03
 Coeff-Com: -0.730D-03 0.160D-02 0.771D-02-0.190D-02-0.656D-01 0.417D-01
 Coeff-Com:  0.102D+01
 Coeff:     -0.165D-06 0.684D-06 0.533D-05 0.136D-04-0.163D-04-0.212D-03
 Coeff:     -0.730D-03 0.160D-02 0.771D-02-0.190D-02-0.656D-01 0.417D-01
 Coeff:      0.102D+01
 Gap=     0.493 Goal=   None    Shift=    0.000
 RMSDP=2.27D-09 MaxDP=6.83D-08 DE= 9.66D-12 OVMax= 1.37D-07

 SCF Done:  E(RHF) =  -389.149232450     A.U. after   13 cycles
            NFock= 13  Conv=0.23D-08     -V/T= 2.0013
 KE= 3.886288876032D+02 PE=-1.988690341950D+03 EE= 6.689461448863D+02
 Leave Link  502 at Fri Sep 17 20:10:23 2021, MaxMem=   524288000 cpu:              40.4 elap:              40.6
 (Enter /opt/gaussian/g16_legacy/l801.exe)
 ExpMin= 1.61D-01 ExpMax= 3.05D+03 ExpMxC= 4.57D+02 IAcc=3 IRadAn=         5 AccDes= 0.00D+00
 HarFok:  IExCor=  205 AccDes= 0.00D+00 IRadAn=         5 IDoV=-2 UseB2=F ITyADJ=14
 ICtDFT= 12500011 ScaDFX=  1.000000  1.000000  1.000000  1.000000
 Largest valence mixing into a core orbital is  1.98D-04
 Largest core mixing into a valence orbital is  3.59D-05
 Range of M.O.s used for correlation:    11   240
 NBasis=   240 NAE=    39 NBE=    39 NFC=    10 NFV=     0
 NROrb=    230 NOA=    29 NOB=    29 NVA=   201 NVB=   201
 Leave Link  801 at Fri Sep 17 20:10:25 2021, MaxMem=   524288000 cpu:               1.7 elap:               1.7
 (Enter /opt/gaussian/g16_legacy/l906.exe)
 Frozen-core derivative calculation, NFC=  10 NFV=   0.
 FulOut=F Deriv=T AODrv=T NAtomX=    28
   MMem=          82  MDisk=          29 MDiskD=          29
  W3Min=     2246400 MinDsk=     2795480 NBas6D=         240
 NBas2D=       29244    NTT=       28920    LW2=     2040000
    MDV=   523611226 MDiskM=       30185 NBas2p=       26082
 Fully direct method using O(ONN) memory.
 IMap=   1   2   3   4   5   6   7   8   9  10  11  12  13  14  15  16  17  18  19  20
 IMap=  21  22  23  24  25  26  27  28  29  30  31  32  33  34  35  36  37  38  39
 JobTyp=1 Pass  1:  I=  11 to  39 NPSUse=  1 ParTrn=F ParDer=F DoDerP=T.
 Spin components of T(2) and E(2):
     alpha-alpha T2 =       0.5766658960D-01 E2=     -0.1647874791D+00
     alpha-beta  T2 =       0.3634724805D+00 E2=     -0.1092105245D+01
     beta-beta   T2 =       0.5766658960D-01 E2=     -0.1647874791D+00
 The integrals were generated   1 times.
 ANorm=    0.1216061536D+01
 E2 =    -0.1421680204D+01 EUMP2 =    -0.39057091265326D+03
 Leave Link  906 at Fri Sep 17 20:15:30 2021, MaxMem=   524288000 cpu:             305.6 elap:             305.7
 (Enter /opt/gaussian/g16_legacy/l1002.exe)
 Minotr:  Closed shell wavefunction.
          Computing MP2/KS-MP2 derivatives.
          Using Z-Vector for PSCF gradient.
          Skipping F1 and S1 gradient terms here.
          IDoAtm=1111111111111111111111111111
          Frozen-core window.
          Direct CPHF calculation.
          Differentiating once with respect to electric field.
                with respect to dipole field.
          Differentiating once with respect to nuclear coordinates.
          Requested convergence is 1.0D-10 RMS, and 1.0D-09 maximum.
          NewPWx=F KeepS1=T KeepF1=T KeepIn=T MapXYZ=F SortEE=F KeepMc=T.
 Keep R1 ints in memory in canonical form, NReq=425201067.
 FoFCou: FMM=F IPFlag=           0 FMFlag=           0 FMFlg1=           0
         NFxFlg=           0 DoJE=F BraDBF=F KetDBF=F FulRan=T
         wScrn=  0.000000 ICntrl=       600 IOpCl=  0 I1Cent=           0 NGrid=           0
         NMat0=    1 NMatS0=  28920 NMatT0=    0 NMatD0=    1 NMtDS0=    0 NMtDT0=    0
 Symmetry not used in FoFCou.
 Two-electron integral symmetry not used.
          MDV=     524288000 using IRadAn=       5.
          Solving linear equations separately, MaxMat=       0.
          There are     1 degrees of freedom in the 1st order CPHF.  IDoFFX=0 NUNeed=     1.
 LinEq1:  Iter=  0 NonCon=     1 RMS=2.54D-03 Max=4.28D-02 NDo=     1
 AX will form     1 AO Fock derivatives at one time.
 LinEq1:  Iter=  1 NonCon=     1 RMS=7.01D-04 Max=1.06D-02 NDo=     1
 LinEq1:  Iter=  2 NonCon=     1 RMS=1.91D-04 Max=6.44D-03 NDo=     1
 LinEq1:  Iter=  3 NonCon=     1 RMS=5.60D-05 Max=8.41D-04 NDo=     1
 LinEq1:  Iter=  4 NonCon=     1 RMS=2.59D-05 Max=9.58D-04 NDo=     1
 LinEq1:  Iter=  5 NonCon=     1 RMS=7.45D-06 Max=1.94D-04 NDo=     1
 LinEq1:  Iter=  6 NonCon=     1 RMS=2.23D-06 Max=7.16D-05 NDo=     1
 LinEq1:  Iter=  7 NonCon=     1 RMS=6.97D-07 Max=2.20D-05 NDo=     1
 LinEq1:  Iter=  8 NonCon=     1 RMS=2.35D-07 Max=4.16D-06 NDo=     1
 LinEq1:  Iter=  9 NonCon=     1 RMS=6.99D-08 Max=1.36D-06 NDo=     1
 LinEq1:  Iter= 10 NonCon=     1 RMS=1.92D-08 Max=3.33D-07 NDo=     1
 LinEq1:  Iter= 11 NonCon=     1 RMS=4.96D-09 Max=8.28D-08 NDo=     1
 LinEq1:  Iter= 12 NonCon=     1 RMS=1.16D-09 Max=1.85D-08 NDo=     1
 LinEq1:  Iter= 13 NonCon=     1 RMS=3.24D-10 Max=6.64D-09 NDo=     1
 LinEq1:  Iter= 14 NonCon=     1 RMS=9.02D-11 Max=1.36D-09 NDo=     1
 LinEq1:  Iter= 15 NonCon=     0 RMS=2.20D-11 Max=3.88D-10 NDo=     1
 Linear equations converged to 1.000D-10 1.000D-09 after    15 iterations.
 End of Minotr F.D. properties file   721 does not exist.
 End of Minotr F.D. properties file   722 does not exist.
 End of Minotr F.D. properties file   788 does not exist.
 Leave Link 1002 at Fri Sep 17 20:16:07 2021, MaxMem=   524288000 cpu:              36.7 elap:              36.7
 (Enter /opt/gaussian/g16_legacy/l601.exe)
 Copying SCF densities to generalized density rwf, IOpCl= 0 IROHF=0.

 **********************************************************************

            Population analysis using the SCF density.

 **********************************************************************

 Orbital symmetries:
       Occupied  (A) (A) (A) (A) (A) (A) (A) (A) (A) (A) (A) (A)
                 (A) (A) (A) (A) (A) (A) (A) (A) (A) (A) (A) (A)
                 (A) (A) (A) (A) (A) (A) (A) (A) (A) (A) (A) (A)
                 (A) (A) (A)
       Virtual   (A) (A) (A) (A) (A) (A) (A) (A) (A) (A) (A) (A)
                 (A) (A) (A) (A) (A) (A) (A) (A) (A) (A) (A) (A)
                 (A) (A) (A) (A) (A) (A) (A) (A) (A) (A) (A) (A)
                 (A) (A) (A) (A) (A) (A) (A) (A) (A) (A) (A) (A)
                 (A) (A) (A) (A) (A) (A) (A) (A) (A) (A) (A) (A)
                 (A) (A) (A) (A) (A) (A) (A) (A) (A) (A) (A) (A)
                 (A) (A) (A) (A) (A) (A) (A) (A) (A) (A) (A) (A)
                 (A) (A) (A) (A) (A) (A) (A) (A) (A) (A) (A) (A)
                 (A) (A) (A) (A) (A) (A) (A) (A) (A) (A) (A) (A)
                 (A) (A) (A) (A) (A) (A) (A) (A) (A) (A) (A) (A)
                 (A) (A) (A) (A) (A) (A) (A) (A) (A) (A) (A) (A)
                 (A) (A) (A) (A) (A) (A) (A) (A) (A) (A) (A) (A)
                 (A) (A) (A) (A) (A) (A) (A) (A) (A) (A) (A) (A)
                 (A) (A) (A) (A) (A) (A) (A) (A) (A) (A) (A) (A)
                 (A) (A) (A) (A) (A) (A) (A) (A) (A) (A) (A) (A)
                 (A) (A) (A) (A) (A) (A) (A) (A) (A) (A) (A) (A)
                 (A) (A) (A) (A) (A) (A) (A) (A) (A)
 The electronic state is 1-A.
 Alpha  occ. eigenvalues --  -11.22942 -11.22495 -11.21934 -11.21877 -11.21594
 Alpha  occ. eigenvalues --  -11.21467 -11.21370 -11.21346 -11.21307 -11.21113
 Alpha  occ. eigenvalues --   -1.10587  -1.07873  -1.01989  -0.97123  -0.93369
 Alpha  occ. eigenvalues --   -0.92227  -0.87337  -0.81771  -0.70368  -0.69242
 Alpha  occ. eigenvalues --   -0.63629  -0.62293  -0.59654  -0.58977  -0.57718
 Alpha  occ. eigenvalues --   -0.57046  -0.55261  -0.53963  -0.53288  -0.52841
 Alpha  occ. eigenvalues --   -0.52419  -0.51021  -0.49812  -0.49282  -0.47858
 Alpha  occ. eigenvalues --   -0.45239  -0.44428  -0.33121  -0.31279
 Alpha virt. eigenvalues --    0.18061   0.18479   0.21732   0.25708   0.26114
 Alpha virt. eigenvalues --    0.26652   0.27981   0.29634   0.30303   0.30867
 Alpha virt. eigenvalues --    0.31996   0.32011   0.33211   0.33829   0.34091
 Alpha virt. eigenvalues --    0.35930   0.36376   0.37504   0.38913   0.39850
 Alpha virt. eigenvalues --    0.41155   0.41744   0.43410   0.43783   0.46848
 Alpha virt. eigenvalues --    0.50822   0.53285   0.59203   0.61920   0.67339
 Alpha virt. eigenvalues --    0.69862   0.70539   0.72561   0.75041   0.77017
 Alpha virt. eigenvalues --    0.78003   0.79228   0.80418   0.81785   0.83976
 Alpha virt. eigenvalues --    0.85353   0.87627   0.89380   0.90510   0.91298
 Alpha virt. eigenvalues --    0.94765   0.95890   0.97861   0.98145   0.99704
 Alpha virt. eigenvalues --    1.01436   1.03730   1.04808   1.05587   1.06276
 Alpha virt. eigenvalues --    1.07313   1.09522   1.10378   1.12477   1.13019
 Alpha virt. eigenvalues --    1.13705   1.14108   1.14818   1.15187   1.16084
 Alpha virt. eigenvalues --    1.16577   1.16967   1.18914   1.20144   1.20664
 Alpha virt. eigenvalues --    1.21971   1.22725   1.24006   1.24742   1.29106
 Alpha virt. eigenvalues --    1.30514   1.31790   1.40859   1.42629   1.44249
 Alpha virt. eigenvalues --    1.47987   1.50368   1.55944   1.58748   1.61236
 Alpha virt. eigenvalues --    1.61725   1.66446   1.67482   1.70360   1.71908
 Alpha virt. eigenvalues --    1.75019   1.78362   1.90378   1.91751   1.95731
 Alpha virt. eigenvalues --    1.98920   2.00962   2.02279   2.06764   2.07434
 Alpha virt. eigenvalues --    2.09131   2.10355   2.11754   2.13291   2.15023
 Alpha virt. eigenvalues --    2.17560   2.18461   2.20015   2.27306   2.29031
 Alpha virt. eigenvalues --    2.29833   2.31810   2.34184   2.35365   2.35604
 Alpha virt. eigenvalues --    2.36329   2.37259   2.37770   2.39774   2.41143
 Alpha virt. eigenvalues --    2.43167   2.43702   2.44284   2.44838   2.45922
 Alpha virt. eigenvalues --    2.47423   2.48045   2.48277   2.51568   2.54688
 Alpha virt. eigenvalues --    2.56445   2.58394   2.59242   2.63210   2.64214
 Alpha virt. eigenvalues --    2.67365   2.67622   2.70573   2.72875   2.73669
 Alpha virt. eigenvalues --    2.75539   2.77841   2.79916   2.82579   2.85121
 Alpha virt. eigenvalues --    2.86147   2.90002   2.90904   2.92774   2.94175
 Alpha virt. eigenvalues --    2.94767   2.98566   3.00785   3.01427   3.03272
 Alpha virt. eigenvalues --    3.05749   3.07501   3.09744   3.11915   3.13719
 Alpha virt. eigenvalues --    3.16377   3.17229   3.19348   3.20542   3.22264
 Alpha virt. eigenvalues --    3.23848   3.24620   3.25512   3.27085   3.38487
 Alpha virt. eigenvalues --    3.38933   3.44554   3.45331   3.55561   3.57368
 Alpha virt. eigenvalues --    3.61339   3.62387   3.65746   3.70623   3.78840
 Alpha virt. eigenvalues --    3.79309   3.81723   3.82067   3.83012   3.83369
 Alpha virt. eigenvalues --    3.85181   3.86042   3.87554   3.90777   3.91339
 Alpha virt. eigenvalues --    3.93261   4.58733   4.65276   4.75147   4.87316
 Alpha virt. eigenvalues --    4.89806   4.92330   4.94062   5.09464   5.11487
 Alpha virt. eigenvalues --    5.15804
          Condensed to atoms (all electrons):
               1          2          3          4          5          6
     1  C    4.979581   0.410847   0.409978   0.348174  -0.053387   0.003001
     2  H    0.410847   0.584013  -0.031015  -0.043196   0.003673  -0.000132
     3  H    0.409978  -0.031015   0.600094  -0.044770  -0.006229   0.000176
     4  C    0.348174  -0.043196  -0.044770   4.968452   0.343024  -0.040254
     5  C   -0.053387   0.003673  -0.006229   0.343024   4.911617   0.402920
     6  H    0.003001  -0.000132   0.000176  -0.040254   0.402920   0.582073
     7  H   -0.007443   0.000178   0.001813  -0.039866   0.406257  -0.030483
     8  H    0.002452  -0.000099   0.000085  -0.040940   0.398597  -0.027845
     9  C   -0.051919  -0.004244   0.003473   0.685717  -0.051950  -0.004269
    10  H   -0.005155   0.001862   0.000156  -0.039992   0.003312   0.000019
    11  C    0.002946   0.000061  -0.000101  -0.049646  -0.006969  -0.001731
    12  H    0.000132   0.000000   0.000000  -0.001154  -0.001539  -0.001474
    13  H   -0.000084  -0.000014  -0.000001   0.000441   0.000169  -0.000087
    14  H   -0.000119   0.000010   0.000006  -0.001189   0.000345   0.000358
    15  C   -0.000102   0.000002   0.000002  -0.000044  -0.000022  -0.000003
    16  H   -0.000005   0.000000   0.000001   0.000002   0.000003   0.000000
    17  H   -0.000005   0.000000   0.000000   0.000000  -0.000000   0.000000
    18  H    0.000035  -0.000000  -0.000001  -0.000019   0.000139  -0.000015
    19  C   -0.004388  -0.000027   0.000458   0.003650  -0.002765   0.000202
    20  C    0.000727  -0.000015  -0.000026  -0.002483   0.000026  -0.000012
    21  H   -0.000395   0.000049   0.000009   0.001733  -0.000048   0.000007
    22  H    0.000113  -0.000003  -0.000000  -0.000354   0.000207  -0.000037
    23  H   -0.000066   0.000002   0.000001   0.000147  -0.000006   0.000001
    24  C   -0.061423   0.005171  -0.002241  -0.007354  -0.001477   0.000234
    25  H    0.001132  -0.000124   0.001008  -0.000136   0.000021  -0.000001
    26  C    0.336031  -0.038807  -0.043014  -0.056698   0.002087  -0.000098
    27  H   -0.038432  -0.004156   0.004290  -0.003971   0.000086   0.000002
    28  H   -0.045690  -0.002445  -0.003180   0.005689  -0.000147   0.000004
               7          8          9         10         11         12
     1  C   -0.007443   0.002452  -0.051919  -0.005155   0.002946   0.000132
     2  H    0.000178  -0.000099  -0.004244   0.001862   0.000061   0.000000
     3  H    0.001813   0.000085   0.003473   0.000156  -0.000101   0.000000
     4  C   -0.039866  -0.040940   0.685717  -0.039992  -0.049646  -0.001154
     5  C    0.406257   0.398597  -0.051950   0.003312  -0.006969  -0.001539
     6  H   -0.030483  -0.027845  -0.004269   0.000019  -0.001731  -0.001474
     7  H    0.582402  -0.029535   0.003281  -0.000097   0.000158   0.000026
     8  H   -0.029535   0.568380  -0.004623  -0.000144   0.000627  -0.000138
     9  C    0.003281  -0.004623   4.962026   0.405878   0.340750  -0.041682
    10  H   -0.000097  -0.000144   0.405878   0.561826  -0.042980   0.003323
    11  C    0.000158   0.000627   0.340750  -0.042980   4.899638   0.408674
    12  H    0.000026  -0.000138  -0.041682   0.003323   0.408674   0.572600
    13  H   -0.000010   0.000194  -0.043734  -0.002519   0.402215  -0.029428
    14  H    0.000010  -0.000099  -0.044049  -0.000220   0.400070  -0.027792
    15  C    0.000010  -0.000139   0.000003  -0.000000  -0.000000  -0.000000
    16  H    0.000001  -0.000017   0.000000   0.000000  -0.000000  -0.000000
    17  H    0.000000   0.000019  -0.000000  -0.000000   0.000000  -0.000000
    18  H   -0.000004   0.000174  -0.000001  -0.000000  -0.000000   0.000001
    19  C    0.000120  -0.000306   0.000383  -0.000004  -0.000004  -0.000014
    20  C    0.000007  -0.000626  -0.002271  -0.000040   0.000060   0.000008
    21  H    0.000005  -0.000253   0.002415   0.000041  -0.000256  -0.000016
    22  H   -0.000002   0.000041  -0.000092   0.000002   0.000084   0.000097
    23  H    0.000000   0.000000   0.000098   0.000001  -0.000004  -0.000001
    24  C    0.000107   0.001205  -0.000862   0.000037   0.000012  -0.000002
    25  H    0.000053   0.000052  -0.000003   0.000001  -0.000000   0.000000
    26  C    0.000035   0.000174  -0.005281   0.000105  -0.000071  -0.000006
    27  H    0.000000   0.000032   0.001520   0.000486  -0.000048   0.000001
    28  H   -0.000006  -0.000004   0.000052  -0.000024   0.000002   0.000000
              13         14         15         16         17         18
     1  C   -0.000084  -0.000119  -0.000102  -0.000005  -0.000005   0.000035
     2  H   -0.000014   0.000010   0.000002   0.000000   0.000000  -0.000000
     3  H   -0.000001   0.000006   0.000002   0.000001   0.000000  -0.000001
     4  C    0.000441  -0.001189  -0.000044   0.000002   0.000000  -0.000019
     5  C    0.000169   0.000345  -0.000022   0.000003  -0.000000   0.000139
     6  H   -0.000087   0.000358  -0.000003   0.000000   0.000000  -0.000015
     7  H   -0.000010   0.000010   0.000010   0.000001   0.000000  -0.000004
     8  H    0.000194  -0.000099  -0.000139  -0.000017   0.000019   0.000174
     9  C   -0.043734  -0.044049   0.000003   0.000000  -0.000000  -0.000001
    10  H   -0.002519  -0.000220  -0.000000   0.000000  -0.000000  -0.000000
    11  C    0.402215   0.400070  -0.000000  -0.000000   0.000000  -0.000000
    12  H   -0.029428  -0.027792  -0.000000  -0.000000  -0.000000   0.000001
    13  H    0.588274  -0.033303   0.000000  -0.000000   0.000000   0.000000
    14  H   -0.033303   0.586192   0.000000   0.000000  -0.000000  -0.000000
    15  C    0.000000   0.000000   4.902980   0.405062   0.399570   0.396786
    16  H   -0.000000   0.000000   0.405062   0.568383  -0.027841  -0.027129
    17  H    0.000000  -0.000000   0.399570  -0.027841   0.593058  -0.034979
    18  H    0.000000  -0.000000   0.396786  -0.027129  -0.034979   0.596124
    19  C   -0.000005   0.000000   0.352736  -0.040162  -0.045583  -0.044700
    20  C    0.000175  -0.000000  -0.065607   0.003779  -0.001511  -0.001925
    21  H   -0.000081   0.000018   0.003631  -0.000105  -0.000010  -0.000092
    22  H    0.000133  -0.000001  -0.002757   0.000035  -0.000694   0.002821
    23  H   -0.000015   0.000000  -0.002356  -0.000091   0.002538  -0.000309
    24  C    0.000002  -0.000000  -0.045525  -0.002546   0.000319  -0.002109
    25  H    0.000000  -0.000000  -0.006252   0.002226   0.000137   0.000220
    26  C    0.000029  -0.000005   0.003152   0.000121  -0.000119  -0.000084
    27  H   -0.000001   0.000001   0.000073   0.000005   0.000006  -0.000006
    28  H   -0.000000   0.000000  -0.000100  -0.000007   0.000008  -0.000003
              19         20         21         22         23         24
     1  C   -0.004388   0.000727  -0.000395   0.000113  -0.000066  -0.061423
     2  H   -0.000027  -0.000015   0.000049  -0.000003   0.000002   0.005171
     3  H    0.000458  -0.000026   0.000009  -0.000000   0.000001  -0.002241
     4  C    0.003650  -0.002483   0.001733  -0.000354   0.000147  -0.007354
     5  C   -0.002765   0.000026  -0.000048   0.000207  -0.000006  -0.001477
     6  H    0.000202  -0.000012   0.000007  -0.000037   0.000001   0.000234
     7  H    0.000120   0.000007   0.000005  -0.000002   0.000000   0.000107
     8  H   -0.000306  -0.000626  -0.000253   0.000041   0.000000   0.001205
     9  C    0.000383  -0.002271   0.002415  -0.000092   0.000098  -0.000862
    10  H   -0.000004  -0.000040   0.000041   0.000002   0.000001   0.000037
    11  C   -0.000004   0.000060  -0.000256   0.000084  -0.000004   0.000012
    12  H   -0.000014   0.000008  -0.000016   0.000097  -0.000001  -0.000002
    13  H   -0.000005   0.000175  -0.000081   0.000133  -0.000015   0.000002
    14  H    0.000000  -0.000000   0.000018  -0.000001   0.000000  -0.000000
    15  C    0.352736  -0.065607   0.003631  -0.002757  -0.002356  -0.045525
    16  H   -0.040162   0.003779  -0.000105   0.000035  -0.000091  -0.002546
    17  H   -0.045583  -0.001511  -0.000010  -0.000694   0.002538   0.000319
    18  H   -0.044700  -0.001925  -0.000092   0.002821  -0.000309  -0.002109
    19  C    4.924730   0.349486  -0.034787  -0.044515  -0.043590   0.691416
    20  C    0.349486   4.912026   0.406427   0.402582   0.395202  -0.043528
    21  H   -0.034787   0.406427   0.553092  -0.029013  -0.026844  -0.003000
    22  H   -0.044515   0.402582  -0.029013   0.589626  -0.033434   0.000153
    23  H   -0.043590   0.395202  -0.026844  -0.033434   0.592711  -0.000584
    24  C    0.691416  -0.043528  -0.003000   0.000153  -0.000584   4.973728
    25  H   -0.037127   0.003311   0.000042  -0.000118  -0.000120   0.403535
    26  C   -0.051796  -0.006863  -0.002470   0.000305   0.000189   0.346858
    27  H   -0.000041  -0.002242  -0.001209  -0.000068   0.000170  -0.045224
    28  H    0.002265   0.000081   0.000099  -0.000013   0.000031  -0.044232
              25         26         27         28
     1  C    0.001132   0.336031  -0.038432  -0.045690
     2  H   -0.000124  -0.038807  -0.004156  -0.002445
     3  H    0.001008  -0.043014   0.004290  -0.003180
     4  C   -0.000136  -0.056698  -0.003971   0.005689
     5  C    0.000021   0.002087   0.000086  -0.000147
     6  H   -0.000001  -0.000098   0.000002   0.000004
     7  H    0.000053   0.000035   0.000000  -0.000006
     8  H    0.000052   0.000174   0.000032  -0.000004
     9  C   -0.000003  -0.005281   0.001520   0.000052
    10  H    0.000001   0.000105   0.000486  -0.000024
    11  C   -0.000000  -0.000071  -0.000048   0.000002
    12  H    0.000000  -0.000006   0.000001   0.000000
    13  H    0.000000   0.000029  -0.000001  -0.000000
    14  H   -0.000000  -0.000005   0.000001   0.000000
    15  C   -0.006252   0.003152   0.000073  -0.000100
    16  H    0.002226   0.000121   0.000005  -0.000007
    17  H    0.000137  -0.000119   0.000006   0.000008
    18  H    0.000220  -0.000084  -0.000006  -0.000003
    19  C   -0.037127  -0.051796  -0.000041   0.002265
    20  C    0.003311  -0.006863  -0.002242   0.000081
    21  H    0.000042  -0.002470  -0.001209   0.000099
    22  H   -0.000118   0.000305  -0.000068  -0.000013
    23  H   -0.000120   0.000189   0.000170   0.000031
    24  C    0.403535   0.346858  -0.045224  -0.044232
    25  H    0.558155  -0.041612   0.003393  -0.004491
    26  C   -0.041612   4.961450   0.416106   0.410252
    27  H    0.003393   0.416106   0.582704  -0.031705
    28  H   -0.004491   0.410252  -0.031705   0.600063
 Mulliken charges:
               1
     1  C   -0.226539
     2  H    0.118412
     3  H    0.109030
     4  C    0.015038
     5  C   -0.347943
     6  H    0.117447
     7  H    0.112982
     8  H    0.132738
     9  C   -0.150614
    10  H    0.114126
    11  C   -0.353486
    12  H    0.118382
    13  H    0.117650
    14  H    0.119767
    15  C   -0.341099
    16  H    0.118284
    17  H    0.115085
    18  H    0.115079
    19  C    0.024372
    20  C   -0.346748
    21  H    0.131012
    22  H    0.114902
    23  H    0.116329
    24  C   -0.162667
    25  H    0.116697
    26  C   -0.229970
    27  H    0.118230
    28  H    0.113505
 Sum of Mulliken charges =  -0.00000
 Mulliken charges with hydrogens summed into heavy atoms:
               1
     1  C    0.000902
     4  C    0.015038
     5  C    0.015223
     9  C   -0.036488
    11  C    0.002313
    15  C    0.007350
    19  C    0.024372
    20  C    0.015495
    24  C   -0.045970
    26  C    0.001764
 Electronic spatial extent (au):  <R**2>=           1846.9724
 Charge=             -0.0000 electrons
 Dipole moment (field-independent basis, Debye):
    X=             -0.1118    Y=             -0.2367    Z=              0.0595  Tot=              0.2684
 Quadrupole moment (field-independent basis, Debye-Ang):
   XX=            -67.1011   YY=            -64.1547   ZZ=            -64.6631
   XY=             -0.1653   XZ=             -1.4629   YZ=              0.3667
 Traceless Quadrupole moment (field-independent basis, Debye-Ang):
   XX=             -1.7948   YY=              1.1516   ZZ=              0.6432
   XY=             -0.1653   XZ=             -1.4629   YZ=              0.3667
 Octapole moment (field-independent basis, Debye-Ang**2):
  XXX=             -1.5529  YYY=              2.6351  ZZZ=             -1.3264  XYY=             -1.8413
  XXY=             -4.8986  XXZ=             -0.0303  XZZ=              2.1183  YZZ=              0.2369
  YYZ=              1.4546  XYZ=             -3.1833
 Hexadecapole moment (field-independent basis, Debye-Ang**3):
 XXXX=          -1500.1261 YYYY=           -686.4084 ZZZZ=           -409.8403 XXXY=             -3.7650
 XXXZ=            -11.5292 YYYX=             -2.5178 YYYZ=             -0.6705 ZZZX=             -2.3223
 ZZZY=              2.6670 XXYY=           -365.2634 XXZZ=           -312.4202 YYZZ=           -179.1756
 XXYZ=              5.2722 YYXZ=             -1.4685 ZZXY=              0.4747
 N-N= 5.419660770113D+02 E-N=-1.988690341318D+03  KE= 3.886288876032D+02
 No NMR shielding tensors so no spin-rotation constants.
 Leave Link  601 at Fri Sep 17 20:16:07 2021, MaxMem=   524288000 cpu:               0.3 elap:               0.3
 (Enter /opt/gaussian/g16_legacy/l701.exe)
 ... and contract with generalized density number  2.
 Compute integral first derivatives.
 Leave Link  701 at Fri Sep 17 20:16:08 2021, MaxMem=   524288000 cpu:               0.3 elap:               0.3
 (Enter /opt/gaussian/g16_legacy/l702.exe)
 L702 exits ... SP integral derivatives will be done elsewhere.
 Leave Link  702 at Fri Sep 17 20:16:08 2021, MaxMem=   524288000 cpu:               0.1 elap:               0.1
 (Enter /opt/gaussian/g16_legacy/l703.exe)
 Integral derivatives from FoFJK, PRISM(SPDF).
 Compute integral first derivatives, UseDBF=F ICtDFT=           0.
 Calling FoFJK, ICntrl=  10002127 FMM=F ISym2X=0 I1Cent= 0 IOpClX= 0 NMat=1 NMatS=1 NMatT=0.
 FoFJK:  IHMeth= 1 ICntrl=10002127 DoSepK=F KAlg= 0 I1Cent=           0 FoldK=F
 IRaf=         0 NMat=       1 IRICut=       1 DoRegI=T DoRafI=F ISym2E= 0 IDoP0=0 IntGTp=1.
 FoFCou: FMM=F IPFlag=           0 FMFlag=      100000 FMFlg1=         800
         NFxFlg=           0 DoJE=F BraDBF=F KetDBF=F FulRan=T
         wScrn=  0.000000 ICntrl=  10002127 IOpCl=  0 I1Cent=           0 NGrid=           0
         NMat0=    1 NMatS0=      1 NMatT0=    0 NMatD0=    1 NMtDS0=    0 NMtDT0=    0
 Symmetry not used in FoFCou.
 Leave Link  703 at Fri Sep 17 20:16:48 2021, MaxMem=   524288000 cpu:              40.7 elap:              40.7
 (Enter /opt/gaussian/g16_legacy/l716.exe)
 Dipole        =-9.16995004D-03-1.03320261D-01 9.47544461D-03
 ***** Axes restored to original set *****
 -------------------------------------------------------------------
 Center     Atomic                   Forces (Hartrees/Bohr)
 Number     Number              X              Y              Z
 -------------------------------------------------------------------
      1        6           0.001161939   -0.008579509   -0.004238365
      2        1           0.000798454    0.001750135    0.002153679
      3        1           0.001012933    0.000779736    0.003864859
      4        6          -0.007131214   -0.000042086   -0.002939710
      5        6           0.006506410    0.001388608   -0.002153883
      6        1          -0.002163247    0.000821516    0.002929140
      7        1          -0.000031254   -0.001709456    0.004545938
      8        1          -0.000045526    0.000879230   -0.002375331
      9        6          -0.003800935    0.004038211    0.002669713
     10        1          -0.001001230    0.001698596   -0.002215244
     11        6           0.002553407    0.002007647   -0.000604139
     12        1          -0.003131872   -0.003332540   -0.001044827
     13        1           0.001698296   -0.001411014   -0.002408095
     14        1           0.001816005    0.000320839    0.002801415
     15        6          -0.002787779    0.001351915   -0.001028680
     16        1           0.000928931   -0.003067791    0.000964777
     17        1           0.002709830    0.000623662   -0.001258367
     18        1          -0.001528549    0.000807820    0.003058883
     19        6           0.000820370    0.000738684   -0.006725970
     20        6          -0.002686372   -0.004143796    0.002263772
     21        1          -0.000842704    0.002768492   -0.001514732
     22        1          -0.002759690    0.000892816    0.001518333
     23        1           0.003751985    0.001375890   -0.001514135
     24        6           0.001453200   -0.003992522    0.000558478
     25        1           0.002012612    0.000792891    0.002343335
     26        6          -0.004227410    0.001463902    0.004707149
     27        1           0.003615040    0.002464770   -0.003267606
     28        1           0.001298372   -0.000686645   -0.001090387
 -------------------------------------------------------------------
 Cartesian Forces:  Max     0.008579509 RMS     0.002748829
 Leave Link  716 at Fri Sep 17 20:16:49 2021, MaxMem=   524288000 cpu:               0.1 elap:               0.1
 (Enter /opt/gaussian/g16_legacy/l103.exe)

 GradGradGradGradGradGradGradGradGradGradGradGradGradGradGradGradGradGrad
 Berny optimization.
 FormGI is forming the generalized inverse of G from B-inverse, IUseBI=4.
 Internal  Forces:  Max     0.006487958 RMS     0.001931198
 Search for a local minimum.
 Step number   1 out of a maximum of  138
 All quantities printed in internal units (Hartrees-Bohrs-Radians)
 RMS Force = .19312D-02 SwitMx=.10000D-02 MixMth= 1
 Mixed Optimization -- RFO/linear search
 Second derivative matrix not updated -- first step.
 ITU=  0
     Eigenvalues ---    0.00245   0.00503   0.00682   0.00692   0.00697
     Eigenvalues ---    0.00703   0.00817   0.01189   0.01284   0.01559
     Eigenvalues ---    0.01646   0.02755   0.02777   0.03792   0.03858
     Eigenvalues ---    0.05304   0.05357   0.06940   0.07061   0.07097
     Eigenvalues ---    0.07099   0.07175   0.07324   0.07345   0.07494
     Eigenvalues ---    0.09565   0.09580   0.13005   0.13006   0.15971
     Eigenvalues ---    0.15995   0.16000   0.16000   0.16000   0.16000
     Eigenvalues ---    0.16000   0.16000   0.16000   0.16000   0.16000
     Eigenvalues ---    0.16000   0.16000   0.16000   0.21903   0.21914
     Eigenvalues ---    0.22001   0.22009   0.24947   0.24974   0.24993
     Eigenvalues ---    0.24996   0.28572   0.30378   0.31719   0.31802
     Eigenvalues ---    0.31833   0.31880   0.32786   0.33872   0.33954
     Eigenvalues ---    0.34000   0.34017   0.34094   0.34196   0.34222
     Eigenvalues ---    0.34228   0.34259   0.34322   0.34331   0.34362
     Eigenvalues ---    0.34382   0.34481   0.34483   0.34848   0.34897
     Eigenvalues ---    0.34906   0.55103   0.55455
 RFO step:  Lambda=-3.55384888D-03 EMin= 2.44694379D-03
 Linear search not attempted -- first point.
 Iteration  1 RMS(Cart)=  0.09693815 RMS(Int)=  0.00171744
 Iteration  2 RMS(Cart)=  0.00351888 RMS(Int)=  0.00016741
 Iteration  3 RMS(Cart)=  0.00000427 RMS(Int)=  0.00016739
 Iteration  4 RMS(Cart)=  0.00000000 RMS(Int)=  0.00016739
 ITry= 1 IFail=0 DXMaxC= 3.10D-01 DCOld= 1.00D+10 DXMaxT= 3.00D-01 DXLimC= 3.00D+00 Rises=F
 Variable       Old X    -DE/DX   Delta X   Delta X   Delta X     New X
                                 (Linear)    (Quad)   (Total)
    R1        2.07547  -0.00237   0.00000  -0.00693  -0.00693   2.06854
    R2        2.07408  -0.00288   0.00000  -0.00840  -0.00840   2.06567
    R3        2.87215  -0.00492   0.00000  -0.01602  -0.01602   2.85614
    R4        2.90905  -0.00126   0.00000  -0.00435  -0.00435   2.90470
    R5        2.84661   0.00255   0.00000   0.00795   0.00795   2.85456
    R6        2.54730  -0.00377   0.00000  -0.00676  -0.00676   2.54055
    R7        2.06895  -0.00316   0.00000  -0.00913  -0.00913   2.05982
    R8        2.06946  -0.00420   0.00000  -0.01213  -0.01213   2.05733
    R9        2.06525  -0.00129   0.00000  -0.00370  -0.00370   2.06155
   R10        2.05828  -0.00125   0.00000  -0.00353  -0.00353   2.05475
   R11        2.82729   0.00261   0.00000   0.00788   0.00788   2.83517
   R12        2.06724  -0.00434   0.00000  -0.01249  -0.01249   2.05475
   R13        2.06789  -0.00203   0.00000  -0.00584  -0.00584   2.06205
   R14        2.06523  -0.00079   0.00000  -0.00228  -0.00228   2.06295
   R15        2.06690  -0.00300   0.00000  -0.00863  -0.00863   2.05827
   R16        2.06775  -0.00159   0.00000  -0.00457  -0.00457   2.06318
   R17        2.06957  -0.00189   0.00000  -0.00547  -0.00547   2.06409
   R18        2.84508  -0.00009   0.00000  -0.00027  -0.00027   2.84482
   R19        2.84365  -0.00128   0.00000  -0.00398  -0.00398   2.83966
   R20        2.55041  -0.00437   0.00000  -0.00788  -0.00788   2.54253
   R21        2.05922  -0.00208   0.00000  -0.00592  -0.00592   2.05330
   R22        2.07001  -0.00250   0.00000  -0.00723  -0.00723   2.06278
   R23        2.07302  -0.00268   0.00000  -0.00781  -0.00781   2.06521
   R24        2.05842  -0.00148   0.00000  -0.00419  -0.00419   2.05423
   R25        2.84450  -0.00184   0.00000  -0.00571  -0.00571   2.83879
   R26        2.07330  -0.00394   0.00000  -0.01147  -0.01147   2.06184
   R27        2.07171  -0.00096   0.00000  -0.00278  -0.00278   2.06893
    A1        1.83509   0.00104   0.00000   0.02448   0.02452   1.85961
    A2        1.90819   0.00077   0.00000   0.00793   0.00798   1.91617
    A3        1.88747   0.00093   0.00000   0.00818   0.00828   1.89575
    A4        1.91806   0.00117   0.00000  -0.00211  -0.00256   1.91550
    A5        1.91791  -0.00089   0.00000  -0.01686  -0.01709   1.90082
    A6        1.99039  -0.00270   0.00000  -0.01775  -0.01794   1.97245
    A7        2.02698   0.00649   0.00000   0.02551   0.02547   2.05245
    A8        2.10302  -0.00460   0.00000  -0.01824  -0.01827   2.08475
    A9        2.15295  -0.00189   0.00000  -0.00757  -0.00760   2.14536
   A10        1.94860   0.00023   0.00000   0.00519   0.00518   1.95378
   A11        1.94106  -0.00214   0.00000  -0.01383  -0.01381   1.92725
   A12        1.93598   0.00249   0.00000   0.01221   0.01218   1.94816
   A13        1.85613   0.00204   0.00000   0.01823   0.01826   1.87438
   A14        1.89254  -0.00124   0.00000  -0.00619  -0.00624   1.88630
   A15        1.88642  -0.00146   0.00000  -0.01606  -0.01605   1.87037
   A16        2.07122  -0.00263   0.00000  -0.01434  -0.01493   2.05629
   A17        2.21189   0.00011   0.00000   0.00143   0.00085   2.21274
   A18        1.99734   0.00260   0.00000   0.01729   0.01671   2.01405
   A19        1.97632  -0.00300   0.00000  -0.01770  -0.01762   1.95870
   A20        1.90667   0.00232   0.00000   0.01495   0.01492   1.92159
   A21        1.92372   0.00404   0.00000   0.02336   0.02334   1.94706
   A22        1.86944   0.00072   0.00000   0.00694   0.00701   1.87645
   A23        1.89363  -0.00089   0.00000  -0.00671  -0.00661   1.88702
   A24        1.89163  -0.00340   0.00000  -0.02210  -0.02224   1.86939
   A25        1.88240   0.00059   0.00000   0.00587   0.00590   1.88830
   A26        1.88131   0.00058   0.00000   0.00651   0.00655   1.88785
   A27        1.96048  -0.00247   0.00000  -0.01235  -0.01231   1.94817
   A28        1.89433  -0.00322   0.00000  -0.02512  -0.02512   1.86921
   A29        1.92753   0.00207   0.00000   0.01114   0.01116   1.93869
   A30        1.91596   0.00231   0.00000   0.01295   0.01296   1.92892
   A31        1.99277   0.00117   0.00000   0.00552   0.00494   1.99771
   A32        2.10853   0.00019   0.00000   0.00185   0.00127   2.10981
   A33        2.18030  -0.00131   0.00000  -0.00406  -0.00464   2.17566
   A34        1.98473  -0.00309   0.00000  -0.01474  -0.01474   1.97000
   A35        1.92242  -0.00024   0.00000  -0.00547  -0.00548   1.91694
   A36        1.92118   0.00173   0.00000   0.01050   0.01052   1.93170
   A37        1.86579   0.00188   0.00000   0.01188   0.01184   1.87763
   A38        1.87546   0.00199   0.00000   0.01962   0.01964   1.89510
   A39        1.89108  -0.00226   0.00000  -0.02213  -0.02213   1.86895
   A40        2.07210  -0.00355   0.00000  -0.02040  -0.02046   2.05164
   A41        2.21363   0.00133   0.00000   0.00605   0.00600   2.21963
   A42        1.99703   0.00223   0.00000   0.01486   0.01481   2.01184
   A43        1.98423  -0.00076   0.00000  -0.00798  -0.00810   1.97612
   A44        1.91733  -0.00105   0.00000  -0.01668  -0.01683   1.90050
   A45        1.89468  -0.00093   0.00000  -0.00513  -0.00507   1.88961
   A46        1.94327   0.00028   0.00000  -0.00485  -0.00513   1.93814
   A47        1.88388   0.00135   0.00000   0.01594   0.01593   1.89982
   A48        1.83331   0.00130   0.00000   0.02186   0.02183   1.85514
    D1        2.54649   0.00146   0.00000   0.07923   0.07928   2.62577
    D2       -0.61725   0.00122   0.00000   0.06452   0.06453  -0.55272
    D3        0.54073  -0.00087   0.00000   0.04658   0.04660   0.58733
[...]
                 (A) (A) (A) (A) (A) (A) (A) (A) (A) (A) (A) (A)
                 (A) (A) (A) (A) (A) (A) (A) (A) (A) (A) (A) (A)
                 (A) (A) (A) (A) (A) (A) (A) (A) (A) (A) (A) (A)
                 (A) (A) (A) (A) (A) (A) (A) (A) (A) (A) (A) (A)
                 (A) (A) (A) (A) (A) (A) (A) (A) (A) (A) (A) (A)
                 (A) (A) (A) (A) (A) (A) (A) (A) (A) (A) (A) (A)
                 (A) (A) (A) (A) (A) (A) (A) (A) (A) (A) (A) (A)
                 (A) (A) (A) (A) (A) (A) (A) (A) (A) (A) (A) (A)
                 (A) (A) (A) (A) (A) (A) (A) (A) (A) (A) (A) (A)
                 (A) (A) (A) (A) (A) (A) (A) (A) (A) (A) (A) (A)
                 (A) (A) (A) (A) (A) (A) (A) (A) (A)
 The electronic state is 1-A.
 Alpha  occ. eigenvalues --  -11.22905 -11.22417 -11.21815 -11.21726 -11.21476
 Alpha  occ. eigenvalues --  -11.21353 -11.21281 -11.21253 -11.21241 -11.20943
 Alpha  occ. eigenvalues --   -1.10825  -1.08027  -1.01971  -0.97278  -0.93554
 Alpha  occ. eigenvalues --   -0.92408  -0.87489  -0.81946  -0.70430  -0.69260
 Alpha  occ. eigenvalues --   -0.63913  -0.62527  -0.59472  -0.59238  -0.58024
 Alpha  occ. eigenvalues --   -0.57118  -0.55205  -0.53892  -0.53053  -0.52843
 Alpha  occ. eigenvalues --   -0.52471  -0.51202  -0.50222  -0.49364  -0.47951
 Alpha  occ. eigenvalues --   -0.45451  -0.44723  -0.33174  -0.31263
 Alpha virt. eigenvalues --    0.18604   0.18963   0.22659   0.25755   0.25952
 Alpha virt. eigenvalues --    0.27103   0.28218   0.29765   0.29955   0.30982
 Alpha virt. eigenvalues --    0.31949   0.32549   0.32836   0.33437   0.34117
 Alpha virt. eigenvalues --    0.35441   0.36564   0.37296   0.39977   0.40245
 Alpha virt. eigenvalues --    0.41205   0.41954   0.43405   0.43993   0.47372
 Alpha virt. eigenvalues --    0.50788   0.52611   0.61807   0.64251   0.66718
 Alpha virt. eigenvalues --    0.70387   0.71100   0.73867   0.74211   0.77045
 Alpha virt. eigenvalues --    0.77691   0.80673   0.81028   0.82166   0.83988
 Alpha virt. eigenvalues --    0.85714   0.86730   0.88403   0.89066   0.91822
 Alpha virt. eigenvalues --    0.92906   0.94845   0.97132   0.98132   1.00192
 Alpha virt. eigenvalues --    1.01161   1.02721   1.04014   1.04621   1.06351
 Alpha virt. eigenvalues --    1.08732   1.08947   1.09911   1.12407   1.12686
 Alpha virt. eigenvalues --    1.13345   1.13880   1.15520   1.15713   1.16325
 Alpha virt. eigenvalues --    1.17649   1.18625   1.19519   1.20006   1.21075
 Alpha virt. eigenvalues --    1.22010   1.23356   1.24733   1.26477   1.28128
 Alpha virt. eigenvalues --    1.29172   1.31099   1.42222   1.44092   1.46007
 Alpha virt. eigenvalues --    1.46986   1.48216   1.54733   1.58394   1.59748
 Alpha virt. eigenvalues --    1.61496   1.67278   1.69432   1.70408   1.73912
 Alpha virt. eigenvalues --    1.76149   1.77706   1.90629   1.92050   1.96201
 Alpha virt. eigenvalues --    1.99314   2.01611   2.02700   2.06568   2.07064
 Alpha virt. eigenvalues --    2.09089   2.09794   2.11361   2.14311   2.15261
 Alpha virt. eigenvalues --    2.16799   2.19010   2.21110   2.26452   2.28519
 Alpha virt. eigenvalues --    2.29800   2.31415   2.33416   2.35543   2.35815
 Alpha virt. eigenvalues --    2.36024   2.36580   2.39135   2.40020   2.41943
 Alpha virt. eigenvalues --    2.43875   2.44129   2.44817   2.45322   2.46530
 Alpha virt. eigenvalues --    2.47183   2.49174   2.50864   2.52035   2.54023
 Alpha virt. eigenvalues --    2.56607   2.58266   2.59664   2.64073   2.64546
 Alpha virt. eigenvalues --    2.67468   2.69788   2.70568   2.73172   2.74167
 Alpha virt. eigenvalues --    2.75896   2.76631   2.79597   2.82897   2.84678
 Alpha virt. eigenvalues --    2.86626   2.87881   2.90365   2.93554   2.94985
 Alpha virt. eigenvalues --    2.95534   2.98969   3.00134   3.02279   3.03569
 Alpha virt. eigenvalues --    3.06314   3.07959   3.11379   3.14748   3.15173
 Alpha virt. eigenvalues --    3.18286   3.19141   3.19560   3.20425   3.22503
 Alpha virt. eigenvalues --    3.23488   3.26144   3.27283   3.27652   3.39599
 Alpha virt. eigenvalues --    3.40166   3.44373   3.45780   3.56284   3.58114
 Alpha virt. eigenvalues --    3.62762   3.63553   3.66885   3.71309   3.79633
 Alpha virt. eigenvalues --    3.80749   3.82617   3.83484   3.83808   3.84203
 Alpha virt. eigenvalues --    3.85435   3.86924   3.87418   3.90181   3.91803
 Alpha virt. eigenvalues --    3.94498   4.58879   4.64381   4.74907   4.85584
 Alpha virt. eigenvalues --    4.91793   4.92127   4.93439   5.10663   5.12449
 Alpha virt. eigenvalues --    5.16087
          Condensed to atoms (all electrons):
               1          2          3          4          5          6
     1  C    5.011941   0.411568   0.411105   0.334997  -0.052478   0.003808
     2  H    0.411568   0.575272  -0.029001  -0.039931   0.003179  -0.000118
     3  H    0.411105  -0.029001   0.595036  -0.047258  -0.004703   0.000133
     4  C    0.334997  -0.039931  -0.047258   4.953946   0.350396  -0.040965
     5  C   -0.052478   0.003179  -0.004703   0.350396   4.906035   0.405633
     6  H    0.003808  -0.000118   0.000133  -0.040965   0.405633   0.579879
     7  H   -0.004481  -0.000017   0.002099  -0.041752   0.396943  -0.028098
     8  H   -0.000521   0.000040  -0.000150  -0.044381   0.401729  -0.026169
     9  C   -0.057543  -0.004589   0.003724   0.695518  -0.043617  -0.002597
    10  H   -0.005955   0.001709   0.000141  -0.044262   0.003575   0.000033
    11  C    0.002922   0.000035  -0.000092  -0.043827  -0.008257  -0.002296
    12  H    0.000086   0.000004   0.000000   0.000007  -0.002057  -0.001378
    13  H   -0.000073  -0.000013  -0.000000  -0.000451   0.000277   0.000005
    14  H   -0.000112   0.000013   0.000005  -0.000969   0.000273  -0.000028
    15  C   -0.000090   0.000002  -0.000000  -0.000059   0.000046  -0.000006
    16  H   -0.000006   0.000000   0.000002   0.000003  -0.000006  -0.000000
    17  H   -0.000006   0.000000   0.000000   0.000001  -0.000004   0.000000
    18  H    0.000028  -0.000000  -0.000001  -0.000016   0.000166  -0.000007
    19  C   -0.004222  -0.000046   0.000482   0.003771  -0.004541   0.000213
    20  C    0.000569  -0.000005  -0.000018  -0.000763   0.000167  -0.000019
    21  H   -0.000316   0.000041   0.000001   0.001184  -0.000011  -0.000002
    22  H    0.000128  -0.000003  -0.000000  -0.000232   0.000287  -0.000023
    23  H   -0.000057   0.000001   0.000000   0.000102  -0.000011   0.000001
    24  C   -0.065785   0.005150  -0.003116  -0.003344  -0.006069   0.000077
    25  H    0.000354  -0.000123   0.001459  -0.000221   0.000046   0.000004
    26  C    0.337502  -0.038831  -0.042565  -0.055683   0.001255  -0.000121
    27  H   -0.040641  -0.003448   0.004529  -0.005534   0.000147   0.000003
    28  H   -0.047955  -0.002959  -0.002259   0.006168  -0.000173   0.000003
               7          8          9         10         11         12
     1  C   -0.004481  -0.000521  -0.057543  -0.005955   0.002922   0.000086
     2  H   -0.000017   0.000040  -0.004589   0.001709   0.000035   0.000004
     3  H    0.002099  -0.000150   0.003724   0.000141  -0.000092   0.000000
     4  C   -0.041752  -0.044381   0.695518  -0.044262  -0.043827   0.000007
     5  C    0.396943   0.401729  -0.043617   0.003575  -0.008257  -0.002057
     6  H   -0.028098  -0.026169  -0.002597   0.000033  -0.002296  -0.001378
     7  H    0.592244  -0.033837  -0.000021  -0.000119   0.000293  -0.000033
     8  H   -0.033837   0.565732  -0.000290  -0.000135   0.000262  -0.000066
     9  C   -0.000021  -0.000290   4.948158   0.406306   0.342480  -0.043722
    10  H   -0.000119  -0.000135   0.406306   0.568390  -0.041978   0.003432
    11  C    0.000293   0.000262   0.342480  -0.041978   4.889637   0.408352
    12  H   -0.000033  -0.000066  -0.043722   0.003432   0.408352   0.576327
    13  H   -0.000028   0.000047  -0.043274  -0.001310   0.401038  -0.028426
    14  H    0.000053  -0.000022  -0.042306  -0.001161   0.401922  -0.028149
    15  C   -0.000000   0.000005  -0.000001  -0.000000  -0.000000  -0.000000
    16  H    0.000000   0.000014   0.000000  -0.000000  -0.000000  -0.000000
    17  H    0.000000   0.000020  -0.000000   0.000000  -0.000000  -0.000000
    18  H   -0.000003  -0.000139  -0.000002  -0.000000   0.000000   0.000000
    19  C    0.000123   0.001555   0.000590  -0.000004  -0.000017  -0.000002
    20  C    0.000002  -0.000205  -0.001026  -0.000033   0.000011  -0.000002
    21  H    0.000003  -0.000078   0.001674   0.000028  -0.000086  -0.000003
    22  H   -0.000003  -0.000151  -0.000121  -0.000003   0.000076   0.000014
    23  H    0.000000   0.000005   0.000078   0.000001  -0.000002   0.000000
    24  C    0.000310   0.005609  -0.000374   0.000094  -0.000005   0.000003
    25  H   -0.000019   0.000105  -0.000008   0.000001  -0.000000   0.000000
    26  C    0.000057  -0.000434  -0.006087  -0.000070  -0.000061  -0.000008
    27  H   -0.000001   0.000044   0.001733   0.000720  -0.000068   0.000001
    28  H    0.000012  -0.000017   0.000121  -0.000042   0.000002   0.000000
              13         14         15         16         17         18
     1  C   -0.000073  -0.000112  -0.000090  -0.000006  -0.000006   0.000028
     2  H   -0.000013   0.000013   0.000002   0.000000   0.000000  -0.000000
     3  H   -0.000000   0.000005  -0.000000   0.000002   0.000000  -0.000001
     4  C   -0.000451  -0.000969  -0.000059   0.000003   0.000001  -0.000016
     5  C    0.000277   0.000273   0.000046  -0.000006  -0.000004   0.000166
     6  H    0.000005  -0.000028  -0.000006  -0.000000   0.000000  -0.000007
     7  H   -0.000028   0.000053  -0.000000   0.000000   0.000000  -0.000003
     8  H    0.000047  -0.000022   0.000005   0.000014   0.000020  -0.000139
     9  C   -0.043274  -0.042306  -0.000001   0.000000  -0.000000  -0.000002
    10  H   -0.001310  -0.001161  -0.000000  -0.000000   0.000000  -0.000000
    11  C    0.401038   0.401922  -0.000000  -0.000000  -0.000000   0.000000
    12  H   -0.028426  -0.028149  -0.000000  -0.000000  -0.000000   0.000000
    13  H    0.591043  -0.036624   0.000000  -0.000000   0.000000   0.000000
    14  H   -0.036624   0.588172   0.000000   0.000000  -0.000000  -0.000000
    15  C    0.000000   0.000000   4.903641   0.405822   0.398955   0.397622
    16  H   -0.000000   0.000000   0.405822   0.568119  -0.026574  -0.026900
    17  H    0.000000  -0.000000   0.398955  -0.026574   0.592378  -0.037761
    18  H    0.000000  -0.000000   0.397622  -0.026900  -0.037761   0.596111
    19  C   -0.000008   0.000000   0.353334  -0.041857  -0.043736  -0.044088
    20  C    0.000108   0.000001  -0.065401   0.003807  -0.001291  -0.001946
    21  H   -0.000030   0.000008   0.003732  -0.000113  -0.000031  -0.000074
    22  H    0.000133  -0.000000  -0.002703  -0.000027  -0.000493   0.002903
    23  H   -0.000011   0.000000  -0.002338  -0.000047   0.002719  -0.000501
    24  C    0.000001  -0.000000  -0.045065  -0.002604  -0.000971  -0.000789
    25  H    0.000000  -0.000000  -0.007040   0.002365   0.000184   0.000203
    26  C    0.000030  -0.000005   0.003183   0.000145  -0.000125  -0.000080
    27  H   -0.000000   0.000001   0.000082   0.000006   0.000005  -0.000004
    28  H   -0.000001   0.000000  -0.000103  -0.000008   0.000011  -0.000003
              19         20         21         22         23         24
     1  C   -0.004222   0.000569  -0.000316   0.000128  -0.000057  -0.065785
     2  H   -0.000046  -0.000005   0.000041  -0.000003   0.000001   0.005150
     3  H    0.000482  -0.000018   0.000001  -0.000000   0.000000  -0.003116
     4  C    0.003771  -0.000763   0.001184  -0.000232   0.000102  -0.003344
     5  C   -0.004541   0.000167  -0.000011   0.000287  -0.000011  -0.006069
     6  H    0.000213  -0.000019  -0.000002  -0.000023   0.000001   0.000077
     7  H    0.000123   0.000002   0.000003  -0.000003   0.000000   0.000310
     8  H    0.001555  -0.000205  -0.000078  -0.000151   0.000005   0.005609
     9  C    0.000590  -0.001026   0.001674  -0.000121   0.000078  -0.000374
    10  H   -0.000004  -0.000033   0.000028  -0.000003   0.000001   0.000094
    11  C   -0.000017   0.000011  -0.000086   0.000076  -0.000002  -0.000005
    12  H   -0.000002  -0.000002  -0.000003   0.000014   0.000000   0.000003
    13  H   -0.000008   0.000108  -0.000030   0.000133  -0.000011   0.000001
    14  H    0.000000   0.000001   0.000008  -0.000000   0.000000  -0.000000
    15  C    0.353334  -0.065401   0.003732  -0.002703  -0.002338  -0.045065
    16  H   -0.041857   0.003807  -0.000113  -0.000027  -0.000047  -0.002604
    17  H   -0.043736  -0.001291  -0.000031  -0.000493   0.002719  -0.000971
    18  H   -0.044088  -0.001946  -0.000074   0.002903  -0.000501  -0.000789
    19  C    4.913006   0.351791  -0.036496  -0.043397  -0.044686   0.694575
    20  C    0.351791   4.902068   0.406985   0.401429   0.396675  -0.041928
    21  H   -0.036496   0.406985   0.556687  -0.027681  -0.025715  -0.002836
    22  H   -0.043397   0.401429  -0.027681   0.588296  -0.036648  -0.000277
    23  H   -0.044686   0.396675  -0.025715  -0.036648   0.595986  -0.000461
    24  C    0.694575  -0.041928  -0.002836  -0.000277  -0.000461   4.969977
    25  H   -0.039355   0.003500   0.000035  -0.000121  -0.000128   0.403355
    26  C   -0.048664  -0.008009  -0.002716   0.000359   0.000190   0.349181
    27  H    0.000541  -0.002572  -0.001440  -0.000076   0.000077  -0.047409
    28  H    0.001521   0.000136   0.000111  -0.000016   0.000035  -0.043648
              25         26         27         28
     1  C    0.000354   0.337502  -0.040641  -0.047955
     2  H   -0.000123  -0.038831  -0.003448  -0.002959
     3  H    0.001459  -0.042565   0.004529  -0.002259
     4  C   -0.000221  -0.055683  -0.005534   0.006168
     5  C    0.000046   0.001255   0.000147  -0.000173
     6  H    0.000004  -0.000121   0.000003   0.000003
     7  H   -0.000019   0.000057  -0.000001   0.000012
     8  H    0.000105  -0.000434   0.000044  -0.000017
     9  C   -0.000008  -0.006087   0.001733   0.000121
    10  H    0.000001  -0.000070   0.000720  -0.000042
    11  C   -0.000000  -0.000061  -0.000068   0.000002
    12  H    0.000000  -0.000008   0.000001   0.000000
    13  H    0.000000   0.000030  -0.000000  -0.000001
    14  H   -0.000000  -0.000005   0.000001   0.000000
    15  C   -0.007040   0.003183   0.000082  -0.000103
    16  H    0.002365   0.000145   0.000006  -0.000008
    17  H    0.000184  -0.000125   0.000005   0.000011
    18  H    0.000203  -0.000080  -0.000004  -0.000003
    19  C   -0.039355  -0.048664   0.000541   0.001521
    20  C    0.003500  -0.008009  -0.002572   0.000136
    21  H    0.000035  -0.002716  -0.001440   0.000111
    22  H   -0.000121   0.000359  -0.000076  -0.000016
    23  H   -0.000128   0.000190   0.000077   0.000035
    24  C    0.403355   0.349181  -0.047409  -0.043648
    25  H    0.561453  -0.040933   0.003470  -0.003500
    26  C   -0.040933   4.950087   0.417777   0.410763
    27  H    0.003470   0.417777   0.583740  -0.029428
    28  H   -0.003500   0.410763  -0.029428   0.596567
 Mulliken charges:
               1
     1  C   -0.234769
     2  H    0.122070
     3  H    0.110447
     4  C    0.023555
     5  C   -0.348228
     6  H    0.112034
     7  H    0.116273
     8  H    0.131427
     9  C   -0.154803
    10  H    0.110641
    11  C   -0.350342
    12  H    0.115618
    13  H    0.117565
    14  H    0.118928
    15  C   -0.343616
    16  H    0.117860
    17  H    0.116718
    18  H    0.115281
    19  C    0.029615
    20  C   -0.344029
    21  H    0.127139
    22  H    0.118350
    23  H    0.114734
    24  C   -0.163653
    25  H    0.114915
    26  C   -0.226137
    27  H    0.117746
    28  H    0.114660
 Sum of Mulliken charges =  -0.00000
 Mulliken charges with hydrogens summed into heavy atoms:
               1
     1  C   -0.002251
     4  C    0.023555
     5  C    0.011507
     9  C   -0.044162
    11  C    0.001769
    15  C    0.006243
    19  C    0.029615
    20  C    0.016194
    24  C   -0.048738
    26  C    0.006269
 Electronic spatial extent (au):  <R**2>=           1886.1668
 Charge=             -0.0000 electrons
 Dipole moment (field-independent basis, Debye):
    X=             -0.1610    Y=             -0.1826    Z=              0.0695  Tot=              0.2532
 Quadrupole moment (field-independent basis, Debye-Ang):
   XX=            -66.8065   YY=            -63.9417   ZZ=            -64.7098
   XY=              0.0088   XZ=             -1.4132   YZ=              0.2957
 Traceless Quadrupole moment (field-independent basis, Debye-Ang):
   XX=             -1.6539   YY=              1.2110   ZZ=              0.4429
   XY=              0.0088   XZ=             -1.4132   YZ=              0.2957
 Octapole moment (field-independent basis, Debye-Ang**2):
  XXX=             -3.0914  YYY=              1.7875  ZZZ=             -1.0473  XYY=             -1.3491
  XXY=             -5.3876  XXZ=             -0.0354  XZZ=              2.5635  YZZ=              0.1170
  YYZ=              1.3463  XYZ=             -2.7232
 Hexadecapole moment (field-independent basis, Debye-Ang**3):
 XXXX=          -1567.1041 YYYY=           -662.2637 ZZZZ=           -422.4363 XXXY=             -1.0194
 XXXZ=            -11.8441 YYYX=             -2.1146 YYYZ=             -2.0785 ZZZX=             -2.5170
 ZZZY=              1.1646 XXYY=           -368.9720 XXZZ=           -325.8548 YYZZ=           -176.1174
 XXYZ=              6.5477 YYXZ=             -0.4875 ZZXY=              1.0504
 N-N= 5.399669990112D+02 E-N=-1.984778379560D+03  KE= 3.887516458269D+02
 No NMR shielding tensors so no spin-rotation constants.
 Leave Link  601 at Fri Sep 17 22:49:05 2021, MaxMem=   524288000 cpu:               0.3 elap:               0.6
 (Enter /opt/gaussian/g16_legacy/l9999.exe)
 1\1\GINC-TRUENO91\FOpt\RMP2-FC\6-31G(d,p)\C10H18\JRAMOS\17-Sep-2021\0\
 \#p opt mp2/6-31g(d,p)\\Conformer number 041. Energy MM = 26.841 kcal/
 mol\\0,1\C,2.1894955285,1.3026870381,-9.0785074218\H,1.827748197,0.316
 4462672,-9.38030494\H,1.9751198903,1.9845534811,-9.9063134012\C,3.6811
 696035,1.2483224288,-8.83038761\C,4.4631457289,2.4509951806,-9.2794844
 922\H,5.5183232729,2.3936301564,-9.0234434378\H,4.3851865288,2.5643781
 332,-10.3632146919\H,4.0505158166,3.3538240767,-8.8285904436\C,4.20581
 59269,0.1659840407,-8.2247076076\H,3.5174930158,-0.6381884365,-7.97308
 09324\C,5.632357856,-0.0813174478,-7.8390678415\H,6.2904361708,0.73661
 02485,-8.1207839096\H,5.7203774859,-0.2238420609,-6.7601748319\H,6.008
 7800062,-0.9905946588,-8.3111997752\C,2.7957668974,4.9297279096,-6.022
 726887\H,2.295584406,5.5895271775,-6.7302569469\H,2.4541622272,5.18453
 9647,-5.0168606918\H,3.867241446,5.1404576315,-6.0553693655\C,2.526014
 8192,3.4816985112,-6.3286701255\C,3.1807870631,2.5113348687,-5.3856884
 641\H,3.0038972907,1.4739227271,-5.6537523564\H,4.2612568207,2.6716406
 913,-5.3785123515\H,2.8290023544,2.6749786186,-4.3643282897\C,1.756849
 5092,3.1342627132,-7.3785410784\H,1.3603843761,3.9402455947,-7.9923760
 139\C,1.398580371,1.7520440382,-7.8337902579\H,1.5645763657,1.02272956
 13,-7.04043837\H,0.3301310251,1.7212018629,-8.0690274646\\Version=EM64
 L-G16RevA.03\State=1-A\HF=-389.1534509\MP2=-390.5737736\RMSD=4.247e-09
 \RMSF=3.430e-06\Dipole=0.056308,0.0319764,0.0616994\PG=C01 [X(C10H18)]
 \\@


 AND HERE I AM, FOR ALL MY LORE,
 THE WRETCHED FOOL I WAS BEFORE.
 CALLED MASTER OF ARTS, AND DOCTOR TO BOOT,
 FOR TEN YEARS ALMOST I CONFUTE
 AND UP AND DOWN, WHEREVER IT GOES
 I DRAG MY STUDENTS BY THE NOSE --
 AND SEE THAT FOR ALL OUR SCIENCE AND ART
 WE CAN KNOW NOTHING.  IT BURNS MY HEART.

                                       -- FAUST
 Job cpu time:       0 days  2 hours 39 minutes 25.5 seconds.
 Elapsed time:       0 days  2 hours 39 minutes 32.2 seconds.
 File lengths (MBytes):  RWF=     37 Int=      0 D2E=      0 Chk=      7 Scr=      1
 Normal termination of Gaussian 16 at Fri Sep 17 22:49:06 2021.
