 Entering Gaussian System, Link 0=/opt/gaussian/g16_legacy/g16
 Input=02-IsoP_040_gaussian.com
 Output=02-IsoP_040_gaussian.log
 Initial command:
 /opt/gaussian/g16_legacy/l1.exe "/scratch-local/jramos/2661528/Gau-12123.inp" -scrdir="/scratch-local/jramos/2661528/"
 Entering Link 1 = /opt/gaussian/g16_legacy/l1.exe PID=     12129.
  
 Copyright (c) 1988,1990,1992,1993,1995,1998,2003,2009,2016,
            Gaussian, Inc.  All Rights Reserved.
  
 This is part of the Gaussian(R) 16 program.  It is based on
 the Gaussian(R) 09 system (copyright 2009, Gaussian, Inc.),
 the Gaussian(R) 03 system (copyright 2003, Gaussian, Inc.),
 the Gaussian(R) 98 system (copyright 1998, Gaussian, Inc.),
 the Gaussian(R) 94 system (copyright 1995, Gaussian, Inc.),
 the Gaussian 92(TM) system (copyright 1992, Gaussian, Inc.),
 the Gaussian 90(TM) system (copyright 1990, Gaussian, Inc.),
 the Gaussian 88(TM) system (copyright 1988, Gaussian, Inc.),
 the Gaussian 86(TM) system (copyright 1986, Carnegie Mellon
 University), and the Gaussian 82(TM) system (copyright 1983,
 Carnegie Mellon University). Gaussian is a federally registered
 trademark of Gaussian, Inc.
  
 This software contains proprietary and confidential information,
 including trade secrets, belonging to Gaussian, Inc.
  
 This software is provided under written license and may be
 used, copied, transmitted, or stored only in accord with that
 written license.
  
 The following legend is applicable only to US Government
 contracts under FAR:
  
                    RESTRICTED RIGHTS LEGEND
  
 Use, reproduction and disclosure by the US Government is
 subject to restrictions as set forth in subparagraphs (a)
 and (c) of the Commercial Computer Software - Restricted
 Rights clause in FAR 52.227-19.
  
 Gaussian, Inc.
 340 Quinnipiac St., Bldg. 40, Wallingford CT 06492
  
  
 ---------------------------------------------------------------
 Warning -- This program may not be used in any manner that
 competes with the business of Gaussian, Inc. or will provide
 assistance to any competitor of Gaussian, Inc.  The licensee
 of this program is prohibited from giving any competitor of
 Gaussian, Inc. access to this program.  By using this program,
 the user acknowledges that Gaussian, Inc. is engaged in the
 business of creating and licensing software in the field of
 computational chemistry and represents and warrants to the
 licensee that it is not a competitor of Gaussian, Inc. and that
 it will not use this program in any manner prohibited above.
 ---------------------------------------------------------------
  

 Cite this work as:
 Gaussian 16, Revision A.03,
 M. J. Frisch, G. W. Trucks, H. B. Schlegel, G. E. Scuseria, 
 M. A. Robb, J. R. Cheeseman, G. Scalmani, V. Barone, 
 G. A. Petersson, H. Nakatsuji, X. Li, M. Caricato, A. V. Marenich, 
 J. Bloino, B. G. Janesko, R. Gomperts, B. Mennucci, H. P. Hratchian, 
 J. V. Ortiz, A. F. Izmaylov, J. L. Sonnenberg, D. Williams-Young, 
 F. Ding, F. Lipparini, F. Egidi, J. Goings, B. Peng, A. Petrone, 
 T. Henderson, D. Ranasinghe, V. G. Zakrzewski, J. Gao, N. Rega, 
 G. Zheng, W. Liang, M. Hada, M. Ehara, K. Toyota, R. Fukuda, 
 J. Hasegawa, M. Ishida, T. Nakajima, Y. Honda, O. Kitao, H. Nakai, 
 T. Vreven, K. Throssell, J. A. Montgomery, Jr., J. E. Peralta, 
 F. Ogliaro, M. J. Bearpark, J. J. Heyd, E. N. Brothers, K. N. Kudin, 
 V. N. Staroverov, T. A. Keith, R. Kobayashi, J. Normand, 
 K. Raghavachari, A. P. Rendell, J. C. Burant, S. S. Iyengar, 
 J. Tomasi, M. Cossi, J. M. Millam, M. Klene, C. Adamo, R. Cammi, 
 J. W. Ochterski, R. L. Martin, K. Morokuma, O. Farkas, 
 J. B. Foresman, and D. J. Fox, Gaussian, Inc., Wallingford CT, 2016.
 
 ******************************************
 Gaussian 16:  EM64L-G16RevA.03 25-Dec-2016
                17-Sep-2021 
 ******************************************
 %chk=02-IsoP_040_gaussian.chk
 %nproc=1
 Will use up to    1 processors via shared memory.
 %mem=4000Mb
 ---------------------
 #p opt mp2/6-31g(d,p)
 ---------------------
 1/18=20,19=15,38=1/1,3;
 2/9=110,12=2,17=6,18=5,40=1/2;
 3/5=1,6=6,7=101,11=9,25=1,30=1,71=1/1,2,3;
 4//1;
 5/5=2,38=5/2;
 8/6=4,10=2/1;
 9/15=2,16=-3/6;
 10/5=1/2;
 6/7=2,8=2,9=2,10=2/1;
 7/12=2/1,2,3,16;
 1/18=20,19=15/3(2);
 2/9=110/2;
 99//99;
 2/9=110/2;
 3/5=1,6=6,7=101,11=9,25=1,30=1,71=1/1,2,3;
 4/5=5,16=3,69=1/1;
 5/5=2,38=5/2;
 8/6=4,10=2/1;
 9/15=2,16=-3/6;
 10/5=1/2;
 7/12=2/1,2,3,16;
 1/18=20,19=15/3(-8);
 2/9=110/2;
 6/7=2,8=2,9=2,10=2/1;
 99//99;
 Leave Link    1 at Fri Sep 17 20:09:28 2021, MaxMem=   524288000 cpu:               0.0 elap:               0.1
 (Enter /opt/gaussian/g16_legacy/l101.exe)
 -------------------------------------------------
 Conformer number 040. Energy MM = 29.379 kcal/mol
 -------------------------------------------------
 Symbolic Z-matrix:
 Charge =  0 Multiplicity = 1
 C                     2.1588    1.2461   -8.9887 
 H                     1.8636    0.2143   -9.2243 
 H                     1.9713    1.8291   -9.8991 
 C                     3.6549    1.2792   -8.6907 
 C                     4.4615    0.162    -9.2955 
 H                     5.2322   -0.2026   -8.6083 
 H                     3.8392   -0.7019   -9.5426 
 H                     4.944     0.5066   -10.2172 
 C                     4.2055    2.2271   -7.9095 
 H                     3.5772    3.0368   -7.5496 
 C                     5.6102    2.3098   -7.4044 
 H                     6.2785    1.5651   -7.8423 
 H                     6.0238    3.3      -7.6133 
 H                     5.6095    2.1676   -6.3208 
 C                     2.1052    0.5375   -4.2339 
 H                     1.8399   -0.5011   -4.4563 
 H                     3.1692    0.5589   -3.9708 
 H                     1.5259    0.8508   -3.3597 
 C                     1.8468    1.4589   -5.3956 
 C                     2.1833    2.8999   -5.1238 
 H                     1.642     3.5901   -5.7764 
 H                     1.9243    3.1726   -4.097 
 H                     3.2584    3.0673   -5.2482 
 C                     1.4006    0.9767   -6.5748 
 H                     1.1911   -0.0885   -6.651 
 C                     1.2119    1.7357   -7.8672 
 H                     0.1765    1.5826   -8.1974 
 H                     1.322     2.8155   -7.7363 
 
 ITRead=  0  0  0  0  0  0  0  0  0  0  0  0  0  0  0  0  0  0  0  0
 ITRead=  0  0  0  0  0  0  0  0
 MicOpt= -1 -1 -1 -1 -1 -1 -1 -1 -1 -1 -1 -1 -1 -1 -1 -1 -1 -1 -1 -1
 MicOpt= -1 -1 -1 -1 -1 -1 -1 -1
 NAtoms=     28 NQM=       28 NQMF=       0 NMMI=      0 NMMIF=      0
                NMic=       0 NMicF=      0.
                    Isotopes and Nuclear Properties:
 (Nuclear quadrupole moments (NQMom) in fm**2, nuclear magnetic moments (NMagM)
  in nuclear magnetons)

  Atom         1           2           3           4           5           6           7           8           9          10
 IAtWgt=          12           1           1          12          12           1           1           1          12           1
 AtmWgt=  12.0000000   1.0078250   1.0078250  12.0000000  12.0000000   1.0078250   1.0078250   1.0078250  12.0000000   1.0078250
 NucSpn=           0           1           1           0           0           1           1           1           0           1
 AtZEff=  -0.0000000  -0.0000000  -0.0000000  -0.0000000  -0.0000000  -0.0000000  -0.0000000  -0.0000000  -0.0000000  -0.0000000
 NQMom=    0.0000000   0.0000000   0.0000000   0.0000000   0.0000000   0.0000000   0.0000000   0.0000000   0.0000000   0.0000000
 NMagM=    0.0000000   2.7928460   2.7928460   0.0000000   0.0000000   2.7928460   2.7928460   2.7928460   0.0000000   2.7928460
 AtZNuc=   6.0000000   1.0000000   1.0000000   6.0000000   6.0000000   1.0000000   1.0000000   1.0000000   6.0000000   1.0000000

  Atom        11          12          13          14          15          16          17          18          19          20
 IAtWgt=          12           1           1           1          12           1           1           1          12          12
 AtmWgt=  12.0000000   1.0078250   1.0078250   1.0078250  12.0000000   1.0078250   1.0078250   1.0078250  12.0000000  12.0000000
 NucSpn=           0           1           1           1           0           1           1           1           0           0
 AtZEff=  -0.0000000  -0.0000000  -0.0000000  -0.0000000  -0.0000000  -0.0000000  -0.0000000  -0.0000000  -0.0000000  -0.0000000
 NQMom=    0.0000000   0.0000000   0.0000000   0.0000000   0.0000000   0.0000000   0.0000000   0.0000000   0.0000000   0.0000000
 NMagM=    0.0000000   2.7928460   2.7928460   2.7928460   0.0000000   2.7928460   2.7928460   2.7928460   0.0000000   0.0000000
 AtZNuc=   6.0000000   1.0000000   1.0000000   1.0000000   6.0000000   1.0000000   1.0000000   1.0000000   6.0000000   6.0000000

  Atom        21          22          23          24          25          26          27          28
 IAtWgt=           1           1           1          12           1          12           1           1
 AtmWgt=   1.0078250   1.0078250   1.0078250  12.0000000   1.0078250  12.0000000   1.0078250   1.0078250
 NucSpn=           1           1           1           0           1           0           1           1
 AtZEff=  -0.0000000  -0.0000000  -0.0000000  -0.0000000  -0.0000000  -0.0000000  -0.0000000  -0.0000000
 NQMom=    0.0000000   0.0000000   0.0000000   0.0000000   0.0000000   0.0000000   0.0000000   0.0000000
 NMagM=    2.7928460   2.7928460   2.7928460   0.0000000   2.7928460   0.0000000   2.7928460   2.7928460
 AtZNuc=   1.0000000   1.0000000   1.0000000   6.0000000   1.0000000   6.0000000   1.0000000   1.0000000
 Leave Link  101 at Fri Sep 17 20:09:28 2021, MaxMem=   524288000 cpu:               0.3 elap:               0.3
 (Enter /opt/gaussian/g16_legacy/l103.exe)

 GradGradGradGradGradGradGradGradGradGradGradGradGradGradGradGradGradGrad
 Berny optimization.
 Initialization pass.
                           ----------------------------
                           !    Initial Parameters    !
                           ! (Angstroms and Degrees)  !
 --------------------------                            --------------------------
 ! Name  Definition              Value          Derivative Info.                !
 --------------------------------------------------------------------------------
 ! R1    R(1,2)                  1.0988         estimate D2E/DX2                !
 ! R2    R(1,3)                  1.0972         estimate D2E/DX2                !
 ! R3    R(1,4)                  1.5258         estimate D2E/DX2                !
 ! R4    R(1,26)                 1.5473         estimate D2E/DX2                !
 ! R5    R(4,5)                  1.5048         estimate D2E/DX2                !
 ! R6    R(4,9)                  1.3461         estimate D2E/DX2                !
 ! R7    R(5,6)                  1.0951         estimate D2E/DX2                !
 ! R8    R(5,7)                  1.093          estimate D2E/DX2                !
 ! R9    R(5,8)                  1.0959         estimate D2E/DX2                !
 ! R10   R(9,10)                 1.0862         estimate D2E/DX2                !
 ! R11   R(9,11)                 1.495          estimate D2E/DX2                !
 ! R12   R(11,12)                1.0922         estimate D2E/DX2                !
 ! R13   R(11,13)                1.0933         estimate D2E/DX2                !
 ! R14   R(11,14)                1.0929         estimate D2E/DX2                !
 ! R15   R(15,16)                1.0948         estimate D2E/DX2                !
 ! R16   R(15,17)                1.0963         estimate D2E/DX2                !
 ! R17   R(15,18)                1.0945         estimate D2E/DX2                !
 ! R18   R(15,19)                1.5051         estimate D2E/DX2                !
 ! R19   R(19,20)                1.5045         estimate D2E/DX2                !
 ! R20   R(19,24)                1.3499         estimate D2E/DX2                !
 ! R21   R(20,21)                1.0933         estimate D2E/DX2                !
 ! R22   R(20,22)                1.0935         estimate D2E/DX2                !
 ! R23   R(20,23)                1.0951         estimate D2E/DX2                !
 ! R24   R(24,25)                1.0883         estimate D2E/DX2                !
 ! R25   R(24,26)                1.5106         estimate D2E/DX2                !
 ! R26   R(26,27)                1.0975         estimate D2E/DX2                !
 ! R27   R(26,28)                1.0933         estimate D2E/DX2                !
 ! A1    A(2,1,3)              105.9703         estimate D2E/DX2                !
 ! A2    A(2,1,4)              109.0067         estimate D2E/DX2                !
 ! A3    A(2,1,26)             106.7469         estimate D2E/DX2                !
 ! A4    A(3,1,4)              108.5468         estimate D2E/DX2                !
 ! A5    A(3,1,26)             109.1899         estimate D2E/DX2                !
 ! A6    A(4,1,26)             116.8478         estimate D2E/DX2                !
 ! A7    A(1,4,5)              115.5284         estimate D2E/DX2                !
 ! A8    A(1,4,9)              121.9839         estimate D2E/DX2                !
 ! A9    A(5,4,9)              122.4657         estimate D2E/DX2                !
 ! A10   A(4,5,6)              111.852          estimate D2E/DX2                !
 ! A11   A(4,5,7)              111.8687         estimate D2E/DX2                !
 ! A12   A(4,5,8)              109.9105         estimate D2E/DX2                !
 ! A13   A(6,5,7)              106.2256         estimate D2E/DX2                !
 ! A14   A(6,5,8)              108.8208         estimate D2E/DX2                !
 ! A15   A(7,5,8)              108.0025         estimate D2E/DX2                !
 ! A16   A(4,9,10)             118.7251         estimate D2E/DX2                !
 ! A17   A(4,9,11)             128.2683         estimate D2E/DX2                !
 ! A18   A(10,9,11)            112.9729         estimate D2E/DX2                !
 ! A19   A(9,11,12)            113.6862         estimate D2E/DX2                !
 ! A20   A(9,11,13)            109.9381         estimate D2E/DX2                !
 ! A21   A(9,11,14)            109.0976         estimate D2E/DX2                !
 ! A22   A(12,11,13)           108.0265         estimate D2E/DX2                !
 ! A23   A(12,11,14)           108.0107         estimate D2E/DX2                !
 ! A24   A(13,11,14)           107.9115         estimate D2E/DX2                !
 ! A25   A(16,15,17)           107.6064         estimate D2E/DX2                !
 ! A26   A(16,15,18)           107.7913         estimate D2E/DX2                !
 ! A27   A(16,15,19)           112.4808         estimate D2E/DX2                !
 ! A28   A(17,15,18)           108.4468         estimate D2E/DX2                !
 ! A29   A(17,15,19)           109.8723         estimate D2E/DX2                !
 ! A30   A(18,15,19)           110.5103         estimate D2E/DX2                !
 ! A31   A(15,19,20)           114.111          estimate D2E/DX2                !
 ! A32   A(15,19,24)           120.819          estimate D2E/DX2                !
 ! A33   A(20,19,24)           125.0217         estimate D2E/DX2                !
 ! A34   A(19,20,21)           112.7109         estimate D2E/DX2                !
 ! A35   A(19,20,22)           110.8248         estimate D2E/DX2                !
 ! A36   A(19,20,23)           110.2091         estimate D2E/DX2                !
 ! A37   A(21,20,22)           106.6065         estimate D2E/DX2                !
 ! A38   A(21,20,23)           108.7686         estimate D2E/DX2                !
 ! A39   A(22,20,23)           107.5213         estimate D2E/DX2                !
 ! A40   A(19,24,25)           118.3233         estimate D2E/DX2                !
 ! A41   A(19,24,26)           127.5305         estimate D2E/DX2                !
 ! A42   A(25,24,26)           114.069          estimate D2E/DX2                !
 ! A43   A(1,26,24)            112.6239         estimate D2E/DX2                !
 ! A44   A(1,26,27)            108.3688         estimate D2E/DX2                !
 ! A45   A(1,26,28)            109.7358         estimate D2E/DX2                !
 ! A46   A(24,26,27)           107.7676         estimate D2E/DX2                !
 ! A47   A(24,26,28)           112.4103         estimate D2E/DX2                !
 ! A48   A(27,26,28)           105.5936         estimate D2E/DX2                !
 ! D1    D(2,1,4,5)             23.954          estimate D2E/DX2                !
 ! D2    D(2,1,4,9)           -154.3804         estimate D2E/DX2                !
 ! D3    D(3,1,4,5)            -91.0393         estimate D2E/DX2                !
 ! D4    D(3,1,4,9)             90.6262         estimate D2E/DX2                !
 ! D5    D(26,1,4,5)           145.0141         estimate D2E/DX2                !
 ! D6    D(26,1,4,9)           -33.3203         estimate D2E/DX2                !
 ! D7    D(2,1,26,24)           65.5633         estimate D2E/DX2                !
 ! D8    D(2,1,26,27)          -53.5624         estimate D2E/DX2                !
 ! D9    D(2,1,26,28)         -168.3998         estimate D2E/DX2                !
 ! D10   D(3,1,26,24)          179.7027         estimate D2E/DX2                !
 ! D11   D(3,1,26,27)           60.577          estimate D2E/DX2                !
 ! D12   D(3,1,26,28)          -54.2604         estimate D2E/DX2                !
 ! D13   D(4,1,26,24)          -56.6793         estimate D2E/DX2                !
 ! D14   D(4,1,26,27)         -175.805          estimate D2E/DX2                !
 ! D15   D(4,1,26,28)           69.3576         estimate D2E/DX2                !
 ! D16   D(1,4,5,6)           -140.3651         estimate D2E/DX2                !
 ! D17   D(1,4,5,7)            -21.3296         estimate D2E/DX2                !
 ! D18   D(1,4,5,8)             98.6419         estimate D2E/DX2                !
 ! D19   D(9,4,5,6)             37.9605         estimate D2E/DX2                !
 ! D20   D(9,4,5,7)            156.996          estimate D2E/DX2                !
 ! D21   D(9,4,5,8)            -83.0325         estimate D2E/DX2                !
 ! D22   D(1,4,9,10)            -5.1312         estimate D2E/DX2                !
 ! D23   D(1,4,9,11)           172.595          estimate D2E/DX2                !
 ! D24   D(5,4,9,10)           176.6502         estimate D2E/DX2                !
 ! D25   D(5,4,9,11)            -5.6236         estimate D2E/DX2                !
 ! D26   D(4,9,11,12)            8.3623         estimate D2E/DX2                !
 ! D27   D(4,9,11,13)          129.6008         estimate D2E/DX2                !
 ! D28   D(4,9,11,14)         -112.2475         estimate D2E/DX2                !
 ! D29   D(10,9,11,12)        -173.8033         estimate D2E/DX2                !
 ! D30   D(10,9,11,13)         -52.5648         estimate D2E/DX2                !
 ! D31   D(10,9,11,14)          65.5869         estimate D2E/DX2                !
 ! D32   D(16,15,19,20)        179.2949         estimate D2E/DX2                !
 ! D33   D(16,15,19,24)         -3.1123         estimate D2E/DX2                !
 ! D34   D(17,15,19,20)        -60.8602         estimate D2E/DX2                !
 ! D35   D(17,15,19,24)        116.7326         estimate D2E/DX2                !
 ! D36   D(18,15,19,20)         58.773          estimate D2E/DX2                !
 ! D37   D(18,15,19,24)       -123.6342         estimate D2E/DX2                !
 ! D38   D(15,19,20,21)       -156.9037         estimate D2E/DX2                !
 ! D39   D(15,19,20,22)        -37.5192         estimate D2E/DX2                !
 ! D40   D(15,19,20,23)         81.3784         estimate D2E/DX2                !
 ! D41   D(24,19,20,21)         25.6208         estimate D2E/DX2                !
 ! D42   D(24,19,20,22)        145.0052         estimate D2E/DX2                !
 ! D43   D(24,19,20,23)        -96.0972         estimate D2E/DX2                !
 ! D44   D(15,19,24,25)          2.6261         estimate D2E/DX2                !
 ! D45   D(15,19,24,26)       -173.9723         estimate D2E/DX2                !
 ! D46   D(20,19,24,25)        179.9429         estimate D2E/DX2                !
 ! D47   D(20,19,24,26)          3.3446         estimate D2E/DX2                !
 ! D48   D(19,24,26,1)         115.0194         estimate D2E/DX2                !
 ! D49   D(19,24,26,27)       -125.5054         estimate D2E/DX2                !
 ! D50   D(19,24,26,28)         -9.5622         estimate D2E/DX2                !
 ! D51   D(25,24,26,1)         -61.7012         estimate D2E/DX2                !
 ! D52   D(25,24,26,27)         57.774          estimate D2E/DX2                !
 ! D53   D(25,24,26,28)        173.7172         estimate D2E/DX2                !
 --------------------------------------------------------------------------------
 Trust Radius=3.00D-01 FncErr=1.00D-07 GrdErr=1.00D-07 EigMax=2.50D+02 EigMin=1.00D-04
 Number of steps in this run=    138 maximum allowed number of steps=    168.
 GradGradGradGradGradGradGradGradGradGradGradGradGradGradGradGradGradGrad

 Leave Link  103 at Fri Sep 17 20:09:28 2021, MaxMem=   524288000 cpu:               0.1 elap:               0.1
 (Enter /opt/gaussian/g16_legacy/l202.exe)
                          Input orientation:                          
 ---------------------------------------------------------------------
 Center     Atomic      Atomic             Coordinates (Angstroms)
 Number     Number       Type             X           Y           Z
 ---------------------------------------------------------------------
      1          6           0        2.158800    1.246100   -8.988700
      2          1           0        1.863600    0.214300   -9.224300
      3          1           0        1.971300    1.829100   -9.899100
      4          6           0        3.654900    1.279200   -8.690700
      5          6           0        4.461500    0.162000   -9.295500
      6          1           0        5.232200   -0.202600   -8.608300
      7          1           0        3.839200   -0.701900   -9.542600
      8          1           0        4.944000    0.506600  -10.217200
      9          6           0        4.205500    2.227100   -7.909500
     10          1           0        3.577200    3.036800   -7.549600
     11          6           0        5.610200    2.309800   -7.404400
     12          1           0        6.278500    1.565100   -7.842300
     13          1           0        6.023800    3.300000   -7.613300
     14          1           0        5.609500    2.167600   -6.320800
     15          6           0        2.105200    0.537500   -4.233900
     16          1           0        1.839900   -0.501100   -4.456300
     17          1           0        3.169200    0.558900   -3.970800
     18          1           0        1.525900    0.850800   -3.359700
     19          6           0        1.846800    1.458900   -5.395600
     20          6           0        2.183300    2.899900   -5.123800
     21          1           0        1.642000    3.590100   -5.776400
     22          1           0        1.924300    3.172600   -4.097000
     23          1           0        3.258400    3.067300   -5.248200
     24          6           0        1.400600    0.976700   -6.574800
     25          1           0        1.191100   -0.088500   -6.651000
     26          6           0        1.211900    1.735700   -7.867200
     27          1           0        0.176500    1.582600   -8.197400
     28          1           0        1.322000    2.815500   -7.736300
 ---------------------------------------------------------------------
                    Distance matrix (angstroms):
                    1          2          3          4          5
     1  C    0.000000
     2  H    1.098755   0.000000
     3  H    1.097212   1.753435   0.000000
     4  C    1.525849   2.151162   2.144092   0.000000
     5  C    2.563557   2.599402   3.056902   1.504833   0.000000
     6  H    3.418951   3.449743   4.053078   2.165732   1.095060
     7  H    2.631588   2.200848   3.165771   2.164361   1.092995
     8  H    3.132637   3.249639   3.269119   2.142170   1.095941
     9  C    2.513168   3.356272   3.018039   1.346086   2.500234
    10  H    2.699903   3.702371   3.091538   2.096975   3.477733
    11  C    3.943809   4.662635   4.438039   2.557323   3.083637
    12  H    4.288114   4.819328   4.780386   2.772147   2.716978
    13  H    4.587860   5.424401   4.879671   3.294861   3.888139
    14  H    4.458047   5.126154   5.114226   3.197834   3.766852
    15  C    4.807610   5.006688   5.812112   4.776479   5.595797
    16  H    4.867962   4.821430   5.922092   4.939012   5.543496
    17  H    5.164540   5.424261   6.180058   4.799187   5.493633
    18  H    5.678245   5.908698   6.627157   5.756364   6.657771
    19  C    3.612893   4.025948   4.520405   3.762871   4.871122
    20  C    4.203939   4.912103   4.898474   4.185099   5.485378
    21  H    4.010024   4.830440   4.495132   4.229086   5.664408
    22  H    5.262615   5.919834   5.955801   5.261371   6.521158
    23  H    4.303165   5.088659   4.982031   3.899400   5.125315
    24  C    2.544476   2.795617   3.478973   3.106511   4.175530
    25  H    2.860497   2.676904   3.851760   3.478691   4.213270
    26  C    1.547285   2.140348   2.171182   2.618166   3.882843
    27  H    2.160764   2.402722   2.485529   3.526282   4.645982
    28  H    2.175260   3.045278   2.464200   2.951867   4.396433
                    6          7          8          9         10
     6  H    0.000000
     7  H    1.750047   0.000000
     8  H    1.781736   1.770915   0.000000
     9  C    2.728713   3.373460   2.971697   0.000000
    10  H    3.788612   4.244829   3.922518   1.086233   0.000000
    11  C    2.811479   4.096178   3.406934   1.495041   2.163955
    12  H    2.192319   3.739050   2.922578   2.177175   3.090080
    13  H    3.726240   4.950745   3.968545   2.131916   2.461541
    14  H    3.315548   4.663474   4.287627   2.121020   2.528972
    15  C    5.427822   5.720591   6.622660   4.558075   4.405355
    16  H    5.369907   5.468818   6.621092   4.996372   5.010335
    17  H    5.132471   5.751823   6.493856   4.401155   4.371986
    18  H    6.511076   6.781629   7.669888   5.456660   5.151863
    19  C    4.954085   5.082944   5.809247   3.531755   3.181787
    20  C    5.573422   5.936393   6.268339   3.507432   2.801108
    21  H    5.940856   6.118269   6.334973   3.602696   2.682420
    22  H    6.533453   6.952205   7.326868   4.542356   3.830270
    23  H    5.087082   5.743350   5.838612   2.947109   2.323576
    24  C    4.495223   4.191933   5.103308   3.348490   3.151481
    25  H    4.491607   3.968632   5.211160   4.004052   4.033417
    26  C    4.524273   3.956206   4.578401   3.033959   2.718157
    27  H    5.377349   4.521490   5.288329   4.090368   3.754877
    28  H    5.015872   4.687336   4.960319   2.948014   2.273710
                   11         12         13         14         15
    11  C    0.000000
    12  H    1.092227   0.000000
    13  H    1.093252   1.768387   0.000000
    14  H    1.092891   1.767917   1.767634   0.000000
    15  C    5.047588   5.611858   5.865763   4.392322   0.000000
    16  H    5.550461   5.952760   6.474568   4.980783   1.094777
    17  H    4.562208   5.066428   5.378678   3.750397   1.096255
    18  H    5.930412   6.571996   6.657537   5.213239   1.094519
    19  C    4.349999   5.063357   5.074955   3.939056   1.505090
    20  C    4.158485   5.093388   4.594250   3.702421   2.525659
    21  H    4.476177   5.464952   4.760098   4.249816   3.451409
    22  H    5.026846   5.964091   5.402453   4.419956   2.644848
    23  H    3.279324   4.255228   3.646270   2.736348   2.959487
    24  C    4.492897   5.074119   5.277327   4.381506   2.483782
    25  H    5.084083   5.480440   5.980213   4.972050   2.658915
    26  C    4.459688   5.069533   5.066151   4.681536   3.928681
    27  H    5.539203   6.112349   6.122218   5.777659   4.530061
    28  H    4.330652   5.112888   4.728297   4.561367   4.250823
                   16         17         18         19         20
    16  H    0.000000
    17  H    1.768148   0.000000
    18  H    1.768830   1.777381   0.000000
    19  C    2.173461   2.142148   2.148872   0.000000
    20  C    3.482855   2.789568   2.782631   1.504523   0.000000
    21  H    4.303457   3.844568   3.654816   2.174618   1.093283
    22  H    3.692193   2.897780   2.468418   2.151543   1.093510
    23  H    3.920807   2.816341   3.388342   2.145062   1.095143
    24  C    2.620099   3.175424   3.220003   1.349861   2.533124
    25  H    2.325487   3.393446   3.439045   2.097717   3.499619
    26  C    4.126972   4.516394   4.604259   2.566812   3.134521
    27  H    4.593967   5.279049   5.075407   3.264244   3.899941
    28  H    4.693235   4.762707   4.801692   2.755840   2.752111
                   21         22         23         24         25
    21  H    0.000000
    22  H    1.753392   0.000000
    23  H    1.779063   1.765268   0.000000
    24  C    2.743278   3.351974   3.095464   0.000000
    25  H    3.807930   4.206575   4.025003   1.088277   0.000000
    26  C    2.827584   4.097146   3.580570   1.510625   2.192551
    27  H    3.469724   4.732461   4.516661   2.120935   2.492657
    28  H    2.131575   3.706048   3.162861   2.176338   3.102938
                   26         27         28
    26  C    0.000000
    27  H    1.097508   0.000000
    28  H    1.093263   1.744943   0.000000
 Stoichiometry    C10H18
 Framework group  C1[X(C10H18)]
 Deg. of freedom    78
 Full point group                 C1      NOp   1
 Largest Abelian subgroup         C1      NOp   1
 Largest concise Abelian subgroup C1      NOp   1
                         Standard orientation:                         
 ---------------------------------------------------------------------
 Center     Atomic      Atomic             Coordinates (Angstroms)
 Number     Number       Type             X           Y           Z
 ---------------------------------------------------------------------
      1          6           0        1.154775   -1.633314   -0.383149
      2          1           0        1.261856   -2.317082    0.470231
      3          1           0        1.770293   -2.055517   -1.187360
      4          6           0        1.723335   -0.269693   -0.001714
      5          6           0        2.747629   -0.279457    1.100669
      6          1           0        2.622292    0.569391    1.781039
      7          1           0        2.673394   -1.178754    1.717429
      8          1           0        3.756203   -0.244128    0.673331
      9          6           0        1.307102    0.866586   -0.591265
     10          1           0        0.606194    0.799148   -1.418358
     11          6           0        1.649457    2.276349   -0.230005
     12          1           0        2.432749    2.357502    0.526848
     13          1           0        1.980743    2.819138   -1.119291
     14          1           0        0.755570    2.774203    0.154075
     15          6           0       -2.789310    0.483694    1.370583
     16          1           0       -2.676384   -0.171559    2.240311
     17          1           0       -2.427473    1.478467    1.655671
     18          1           0       -3.857400    0.555855    1.142663
     19          6           0       -2.026811   -0.014020    0.172180
     20          6           0       -2.170134    0.851248   -1.050260
     21          1           0       -1.970833    0.307840   -1.977759
     22          1           0       -3.187198    1.244734   -1.130960
     23          1           0       -1.489365    1.706970   -0.989989
     24          6           0       -1.254202   -1.117904    0.253669
     25          1           0       -1.230750   -1.663378    1.195080
     26          6           0       -0.333177   -1.676756   -0.805286
     27          1           0       -0.614176   -2.724061   -0.974742
     28          1           0       -0.457696   -1.179163   -1.770750
 ---------------------------------------------------------------------
 Rotational constants (GHZ):           1.5993687           0.8366824           0.6991058
 Leave Link  202 at Fri Sep 17 20:09:28 2021, MaxMem=   524288000 cpu:               0.1 elap:               0.2
 (Enter /opt/gaussian/g16_legacy/l301.exe)
 Standard basis: 6-31G(d,p) (6D, 7F)
 Ernie: Thresh=  0.10000D-02 Tol=  0.10000D-05 Strict=F.
 There are   240 symmetry adapted cartesian basis functions of A   symmetry.
 There are   240 symmetry adapted basis functions of A   symmetry.
   240 basis functions,   406 primitive gaussians,   240 cartesian basis functions
    39 alpha electrons       39 beta electrons
       nuclear repulsion energy       536.2626631727 Hartrees.
 IExCor=    0 DFT=F Ex=HF Corr=None ExCW=0 ScaHFX=  1.000000
 ScaDFX=  1.000000  1.000000  1.000000  1.000000 ScalE2=  1.000000  1.000000
 IRadAn=      5 IRanWt=     -1 IRanGd=            0 ICorTp=0 IEmpDi=  4
 NAtoms=   28 NActive=   28 NUniq=   28 SFac= 1.00D+00 NAtFMM=   60 NAOKFM=F Big=F
 Integral buffers will be    131072 words long.
 Raffenetti 1 integral format.
 Two-electron integral symmetry is turned on.
 Leave Link  301 at Fri Sep 17 20:09:29 2021, MaxMem=   524288000 cpu:               0.1 elap:               0.3
 (Enter /opt/gaussian/g16_legacy/l302.exe)
 NPDir=0 NMtPBC=     1 NCelOv=     1 NCel=       1 NClECP=     1 NCelD=      1
         NCelK=      1 NCelE2=     1 NClLst=     1 CellRange=     0.0.
 One-electron integrals computed using PRISM.
 One-electron integral symmetry used in STVInt
 NBasis=   240 RedAO= T EigKep=  2.16D-03  NBF=   240
 NBsUse=   240 1.00D-06 EigRej= -1.00D+00 NBFU=   240
 Leave Link  302 at Fri Sep 17 20:09:30 2021, MaxMem=   524288000 cpu:               0.3 elap:               0.7
 (Enter /opt/gaussian/g16_legacy/l303.exe)
 DipDrv:  MaxL=1.
 Leave Link  303 at Fri Sep 17 20:09:30 2021, MaxMem=   524288000 cpu:               0.1 elap:               0.3
 (Enter /opt/gaussian/g16_legacy/l401.exe)
 ExpMin= 1.61D-01 ExpMax= 3.05D+03 ExpMxC= 4.57D+02 IAcc=3 IRadAn=         5 AccDes= 0.00D+00
 Harris functional with IExCor=  205 and IRadAn=       5 diagonalized for initial guess.
 HarFok:  IExCor=  205 AccDes= 0.00D+00 IRadAn=         5 IDoV= 1 UseB2=F ITyADJ=14
 ICtDFT=  3500011 ScaDFX=  1.000000  1.000000  1.000000  1.000000
 FoFCou: FMM=F IPFlag=           0 FMFlag=      100000 FMFlg1=           0
         NFxFlg=           0 DoJE=T BraDBF=F KetDBF=T FulRan=T
         wScrn=  0.000000 ICntrl=       500 IOpCl=  0 I1Cent=   200000004 NGrid=           0
         NMat0=    1 NMatS0=      1 NMatT0=    0 NMatD0=    1 NMtDS0=    0 NMtDT0=    0
 Petite list used in FoFCou.
 Harris En= -390.103604862403    
 JPrj=0 DoOrth=F DoCkMO=F.
 Leave Link  401 at Fri Sep 17 20:09:42 2021, MaxMem=   524288000 cpu:              11.7 elap:              12.1
 (Enter /opt/gaussian/g16_legacy/l502.exe)
 Keep R1 ints in memory in canonical form, NReq=425198025.
 FoFCou: FMM=F IPFlag=           0 FMFlag=           0 FMFlg1=           0
         NFxFlg=           0 DoJE=F BraDBF=F KetDBF=F FulRan=T
         wScrn=  0.000000 ICntrl=       600 IOpCl=  0 I1Cent=           0 NGrid=           0
         NMat0=    1 NMatS0=  28920 NMatT0=    0 NMatD0=    1 NMtDS0=    0 NMtDT0=    0
 Symmetry not used in FoFCou.
 Two-electron integral symmetry not used.
 Closed shell SCF:
 Using DIIS extrapolation, IDIIS=  1040.
 NGot=   524288000 LenX=   105970886 LenY=   105912845
 Requested convergence on RMS density matrix=1.00D-08 within 128 cycles.
 Requested convergence on MAX density matrix=1.00D-06.
 Requested convergence on             energy=1.00D-06.
 No special actions if energy rises.

 Cycle   1  Pass 1  IDiag  1:
 E= -388.521063440273    
 DIIS: error= 5.26D-02 at cycle   1 NSaved=   1.
 NSaved= 1 IEnMin= 1 EnMin= -388.521063440273     IErMin= 1 ErrMin= 5.26D-02
 ErrMax= 5.26D-02  0.00D+00 EMaxC= 1.00D-01 BMatC= 8.10D-01 BMatP= 8.10D-01
 IDIUse=3 WtCom= 4.74D-01 WtEn= 5.26D-01
 Coeff-Com:  0.100D+01
 Coeff-En:   0.100D+01
 Coeff:      0.100D+01
 Gap=     0.506 Goal=   None    Shift=    0.000
 GapD=    0.506 DampG=2.000 DampE=0.500 DampFc=1.0000 IDamp=-1.
 RMSDP=4.09D-03 MaxDP=1.15D-01              OVMax= 1.37D-01

 Cycle   2  Pass 1  IDiag  1:
 E= -389.057028304392     Delta-E=       -0.535964864119 Rises=F Damp=F
 DIIS: error= 1.29D-02 at cycle   2 NSaved=   2.
 NSaved= 2 IEnMin= 2 EnMin= -389.057028304392     IErMin= 2 ErrMin= 1.29D-02
 ErrMax= 1.29D-02  0.00D+00 EMaxC= 1.00D-01 BMatC= 9.26D-02 BMatP= 8.10D-01
 IDIUse=3 WtCom= 8.71D-01 WtEn= 1.29D-01
 Coeff-Com:  0.190D+00 0.810D+00
 Coeff-En:   0.000D+00 0.100D+01
 Coeff:      0.165D+00 0.835D+00
 Gap=     0.552 Goal=   None    Shift=    0.000
 RMSDP=1.83D-03 MaxDP=3.08D-02 DE=-5.36D-01 OVMax= 4.50D-02

 Cycle   3  Pass 1  IDiag  1:
 E= -389.140522880525     Delta-E=       -0.083494576133 Rises=F Damp=F
 DIIS: error= 2.52D-03 at cycle   3 NSaved=   3.
 NSaved= 3 IEnMin= 3 EnMin= -389.140522880525     IErMin= 3 ErrMin= 2.52D-03
 ErrMax= 2.52D-03  0.00D+00 EMaxC= 1.00D-01 BMatC= 3.47D-03 BMatP= 9.26D-02
 IDIUse=3 WtCom= 9.75D-01 WtEn= 2.52D-02
 Coeff-Com: -0.241D-01 0.110D+00 0.914D+00
 Coeff-En:   0.000D+00 0.000D+00 0.100D+01
 Coeff:     -0.235D-01 0.107D+00 0.917D+00
 Gap=     0.493 Goal=   None    Shift=    0.000
 RMSDP=2.87D-04 MaxDP=6.23D-03 DE=-8.35D-02 OVMax= 1.12D-02

 Cycle   4  Pass 1  IDiag  1:
 E= -389.144523587913     Delta-E=       -0.004000707388 Rises=F Damp=F
 DIIS: error= 5.40D-04 at cycle   4 NSaved=   4.
 NSaved= 4 IEnMin= 4 EnMin= -389.144523587913     IErMin= 4 ErrMin= 5.40D-04
 ErrMax= 5.40D-04  0.00D+00 EMaxC= 1.00D-01 BMatC= 8.78D-05 BMatP= 3.47D-03
 IDIUse=3 WtCom= 9.95D-01 WtEn= 5.40D-03
 Coeff-Com: -0.413D-02-0.408D-02 0.795D-01 0.929D+00
 Coeff-En:   0.000D+00 0.000D+00 0.000D+00 0.100D+01
 Coeff:     -0.410D-02-0.406D-02 0.790D-01 0.929D+00
 Gap=     0.493 Goal=   None    Shift=    0.000
 RMSDP=8.53D-05 MaxDP=2.00D-03 DE=-4.00D-03 OVMax= 2.27D-03

 Cycle   5  Pass 1  IDiag  1:
 E= -389.144650330318     Delta-E=       -0.000126742405 Rises=F Damp=F
 DIIS: error= 1.67D-04 at cycle   5 NSaved=   5.
 NSaved= 5 IEnMin= 5 EnMin= -389.144650330318     IErMin= 5 ErrMin= 1.67D-04
 ErrMax= 1.67D-04  0.00D+00 EMaxC= 1.00D-01 BMatC= 1.05D-05 BMatP= 8.78D-05
 IDIUse=3 WtCom= 9.98D-01 WtEn= 1.67D-03
 Coeff-Com:  0.220D-02-0.127D-01-0.875D-01 0.705D-01 0.103D+01
 Coeff-En:   0.000D+00 0.000D+00 0.000D+00 0.000D+00 0.100D+01
 Coeff:      0.219D-02-0.127D-01-0.873D-01 0.703D-01 0.103D+01
 Gap=     0.493 Goal=   None    Shift=    0.000
 RMSDP=2.82D-05 MaxDP=4.78D-04 DE=-1.27D-04 OVMax= 9.26D-04

 Cycle   6  Pass 1  IDiag  1:
 E= -389.144667279663     Delta-E=       -0.000016949346 Rises=F Damp=F
 DIIS: error= 3.01D-05 at cycle   6 NSaved=   6.
 NSaved= 6 IEnMin= 6 EnMin= -389.144667279663     IErMin= 6 ErrMin= 3.01D-05
 ErrMax= 3.01D-05  0.00D+00 EMaxC= 1.00D-01 BMatC= 3.36D-07 BMatP= 1.05D-05
 IDIUse=1 WtCom= 1.00D+00 WtEn= 0.00D+00
 Coeff-Com:  0.490D-03-0.197D-02-0.161D-01-0.256D-01 0.139D+00 0.904D+00
 Coeff:      0.490D-03-0.197D-02-0.161D-01-0.256D-01 0.139D+00 0.904D+00
 Gap=     0.493 Goal=   None    Shift=    0.000
 RMSDP=4.97D-06 MaxDP=1.06D-04 DE=-1.69D-05 OVMax= 3.34D-04

 Cycle   7  Pass 1  IDiag  1:
 E= -389.144667932691     Delta-E=       -0.000000653028 Rises=F Damp=F
 DIIS: error= 8.91D-06 at cycle   7 NSaved=   7.
 NSaved= 7 IEnMin= 7 EnMin= -389.144667932691     IErMin= 7 ErrMin= 8.91D-06
 ErrMax= 8.91D-06  0.00D+00 EMaxC= 1.00D-01 BMatC= 5.85D-08 BMatP= 3.36D-07
 IDIUse=1 WtCom= 1.00D+00 WtEn= 0.00D+00
 Coeff-Com: -0.469D-04 0.405D-03 0.275D-02-0.804D-02-0.487D-01 0.189D+00
 Coeff-Com:  0.865D+00
 Coeff:     -0.469D-04 0.405D-03 0.275D-02-0.804D-02-0.487D-01 0.189D+00
 Coeff:      0.865D+00
 Gap=     0.493 Goal=   None    Shift=    0.000
 RMSDP=1.67D-06 MaxDP=4.59D-05 DE=-6.53D-07 OVMax= 6.68D-05

 Cycle   8  Pass 1  IDiag  1:
 E= -389.144668025985     Delta-E=       -0.000000093294 Rises=F Damp=F
 DIIS: error= 4.65D-06 at cycle   8 NSaved=   8.
 NSaved= 8 IEnMin= 8 EnMin= -389.144668025985     IErMin= 8 ErrMin= 4.65D-06
 ErrMax= 4.65D-06  0.00D+00 EMaxC= 1.00D-01 BMatC= 6.37D-09 BMatP= 5.85D-08
 IDIUse=1 WtCom= 1.00D+00 WtEn= 0.00D+00
 Coeff-Com: -0.701D-04 0.292D-03 0.247D-02 0.410D-02-0.257D-01-0.930D-01
 Coeff-Com: -0.710D-01 0.118D+01
 Coeff:     -0.701D-04 0.292D-03 0.247D-02 0.410D-02-0.257D-01-0.930D-01
 Coeff:     -0.710D-01 0.118D+01
 Gap=     0.493 Goal=   None    Shift=    0.000
 RMSDP=9.25D-07 MaxDP=2.45D-05 DE=-9.33D-08 OVMax= 9.75D-05

 Cycle   9  Pass 1  IDiag  1:
 E= -389.144668052064     Delta-E=       -0.000000026079 Rises=F Damp=F
 DIIS: error= 1.66D-06 at cycle   9 NSaved=   9.
 NSaved= 9 IEnMin= 9 EnMin= -389.144668052064     IErMin= 9 ErrMin= 1.66D-06
 ErrMax= 1.66D-06  0.00D+00 EMaxC= 1.00D-01 BMatC= 1.75D-09 BMatP= 6.37D-09
 IDIUse=1 WtCom= 1.00D+00 WtEn= 0.00D+00
 Coeff-Com:  0.105D-04-0.812D-04-0.574D-03 0.142D-02 0.756D-02-0.111D-01
 Coeff-Com: -0.202D+00 0.421D-01 0.116D+01
 Coeff:      0.105D-04-0.812D-04-0.574D-03 0.142D-02 0.756D-02-0.111D-01
 Coeff:     -0.202D+00 0.421D-01 0.116D+01
 Gap=     0.493 Goal=   None    Shift=    0.000
 RMSDP=4.69D-07 MaxDP=1.10D-05 DE=-2.61D-08 OVMax= 4.01D-05

 Cycle  10  Pass 1  IDiag  1:
 E= -389.144668057105     Delta-E=       -0.000000005041 Rises=F Damp=F
 DIIS: error= 5.02D-07 at cycle  10 NSaved=  10.
 NSaved=10 IEnMin=10 EnMin= -389.144668057105     IErMin=10 ErrMin= 5.02D-07
 ErrMax= 5.02D-07  0.00D+00 EMaxC= 1.00D-01 BMatC= 1.12D-10 BMatP= 1.75D-09
 IDIUse=1 WtCom= 1.00D+00 WtEn= 0.00D+00
 Coeff-Com:  0.894D-05-0.376D-04-0.316D-03-0.536D-03 0.272D-02 0.173D-01
 Coeff-Com:  0.560D-02-0.123D+00-0.129D+00 0.123D+01
 Coeff:      0.894D-05-0.376D-04-0.316D-03-0.536D-03 0.272D-02 0.173D-01
 Coeff:      0.560D-02-0.123D+00-0.129D+00 0.123D+01
 Gap=     0.493 Goal=   None    Shift=    0.000
 RMSDP=1.53D-07 MaxDP=3.77D-06 DE=-5.04D-09 OVMax= 1.38D-05

 Cycle  11  Pass 1  IDiag  1:
 E= -389.144668057541     Delta-E=       -0.000000000435 Rises=F Damp=F
 DIIS: error= 9.73D-08 at cycle  11 NSaved=  11.
 NSaved=11 IEnMin=11 EnMin= -389.144668057541     IErMin=11 ErrMin= 9.73D-08
 ErrMax= 9.73D-08  0.00D+00 EMaxC= 1.00D-01 BMatC= 6.89D-12 BMatP= 1.12D-10
 IDIUse=1 WtCom= 1.00D+00 WtEn= 0.00D+00
 Coeff-Com: -0.445D-06 0.433D-05 0.307D-04-0.837D-04-0.508D-03 0.116D-02
 Coeff-Com:  0.105D-01 0.730D-03-0.824D-01 0.182D-01 0.105D+01
 Coeff:     -0.445D-06 0.433D-05 0.307D-04-0.837D-04-0.508D-03 0.116D-02
 Coeff:      0.105D-01 0.730D-03-0.824D-01 0.182D-01 0.105D+01
 Gap=     0.493 Goal=   None    Shift=    0.000
 RMSDP=2.79D-08 MaxDP=7.20D-07 DE=-4.35D-10 OVMax= 2.32D-06

 Cycle  12  Pass 1  IDiag  1:
 E= -389.144668057553     Delta-E=       -0.000000000012 Rises=F Damp=F
 DIIS: error= 4.27D-08 at cycle  12 NSaved=  12.
 NSaved=12 IEnMin=12 EnMin= -389.144668057553     IErMin=12 ErrMin= 4.27D-08
 ErrMax= 4.27D-08  0.00D+00 EMaxC= 1.00D-01 BMatC= 9.98D-13 BMatP= 6.89D-12
 IDIUse=1 WtCom= 1.00D+00 WtEn= 0.00D+00
 Coeff-Com: -0.111D-05 0.539D-05 0.436D-04 0.444D-04-0.446D-03-0.171D-02
 Coeff-Com:  0.158D-02 0.152D-01-0.627D-02-0.139D+00 0.258D+00 0.872D+00
 Coeff:     -0.111D-05 0.539D-05 0.436D-04 0.444D-04-0.446D-03-0.171D-02
 Coeff:      0.158D-02 0.152D-01-0.627D-02-0.139D+00 0.258D+00 0.872D+00
 Gap=     0.493 Goal=   None    Shift=    0.000
 RMSDP=8.33D-09 MaxDP=1.96D-07 DE=-1.21D-11 OVMax= 5.79D-07

 SCF Done:  E(RHF) =  -389.144668058     A.U. after   12 cycles
            NFock= 12  Conv=0.83D-08     -V/T= 2.0014
 KE= 3.885995444566D+02 PE=-1.977277814176D+03 EE= 6.632709384892D+02
 Leave Link  502 at Fri Sep 17 20:10:20 2021, MaxMem=   524288000 cpu:              37.8 elap:              37.9
 (Enter /opt/gaussian/g16_legacy/l801.exe)
 ExpMin= 1.61D-01 ExpMax= 3.05D+03 ExpMxC= 4.57D+02 IAcc=3 IRadAn=         5 AccDes= 0.00D+00
 HarFok:  IExCor=  205 AccDes= 0.00D+00 IRadAn=         5 IDoV=-2 UseB2=F ITyADJ=14
 ICtDFT= 12500011 ScaDFX=  1.000000  1.000000  1.000000  1.000000
 Largest valence mixing into a core orbital is  1.97D-04
 Largest core mixing into a valence orbital is  3.56D-05
 Range of M.O.s used for correlation:    11   240
 NBasis=   240 NAE=    39 NBE=    39 NFC=    10 NFV=     0
 NROrb=    230 NOA=    29 NOB=    29 NVA=   201 NVB=   201
 Leave Link  801 at Fri Sep 17 20:10:22 2021, MaxMem=   524288000 cpu:               1.8 elap:               1.8
 (Enter /opt/gaussian/g16_legacy/l906.exe)
 Frozen-core derivative calculation, NFC=  10 NFV=   0.
 FulOut=F Deriv=T AODrv=T NAtomX=    28
   MMem=          83  MDisk=          29 MDiskD=          29
  W3Min=     2246400 MinDsk=     2795480 NBas6D=         240
 NBas2D=       29244    NTT=       28920    LW2=     2040000
    MDV=   523616327 MDiskM=       30186 NBas2p=       25724
 Fully direct method using O(ONN) memory.
 IMap=   1   2   3   4   5   6   7   8   9  10  11  12  13  14  15  16  17  18  19  20
 IMap=  21  22  23  24  25  26  27  28  29  30  31  32  33  34  35  36  37  38  39
 JobTyp=1 Pass  1:  I=  11 to  39 NPSUse=  1 ParTrn=F ParDer=F DoDerP=T.
 Spin components of T(2) and E(2):
     alpha-alpha T2 =       0.5754491976D-01 E2=     -0.1645284525D+00
     alpha-beta  T2 =       0.3634694291D+00 E2=     -0.1091960889D+01
     beta-beta   T2 =       0.5754491976D-01 E2=     -0.1645284525D+00
 The integrals were generated   1 times.
 ANorm=    0.1215960225D+01
 E2 =    -0.1421017794D+01 EUMP2 =    -0.39056568585168D+03
 Leave Link  906 at Fri Sep 17 20:15:20 2021, MaxMem=   524288000 cpu:             298.5 elap:             298.6
 (Enter /opt/gaussian/g16_legacy/l1002.exe)
 Minotr:  Closed shell wavefunction.
          Computing MP2/KS-MP2 derivatives.
          Using Z-Vector for PSCF gradient.
          Skipping F1 and S1 gradient terms here.
          IDoAtm=1111111111111111111111111111
          Frozen-core window.
          Direct CPHF calculation.
          Differentiating once with respect to electric field.
                with respect to dipole field.
          Differentiating once with respect to nuclear coordinates.
          Requested convergence is 1.0D-10 RMS, and 1.0D-09 maximum.
          NewPWx=F KeepS1=T KeepF1=T KeepIn=T MapXYZ=F SortEE=F KeepMc=T.
 Keep R1 ints in memory in canonical form, NReq=425201067.
 FoFCou: FMM=F IPFlag=           0 FMFlag=           0 FMFlg1=           0
         NFxFlg=           0 DoJE=F BraDBF=F KetDBF=F FulRan=T
         wScrn=  0.000000 ICntrl=       600 IOpCl=  0 I1Cent=           0 NGrid=           0
         NMat0=    1 NMatS0=  28920 NMatT0=    0 NMatD0=    1 NMtDS0=    0 NMtDT0=    0
 Symmetry not used in FoFCou.
 Two-electron integral symmetry not used.
          MDV=     524288000 using IRadAn=       5.
          Solving linear equations separately, MaxMat=       0.
          There are     1 degrees of freedom in the 1st order CPHF.  IDoFFX=0 NUNeed=     1.
 LinEq1:  Iter=  0 NonCon=     1 RMS=2.54D-03 Max=3.13D-02 NDo=     1
 AX will form     1 AO Fock derivatives at one time.
 LinEq1:  Iter=  1 NonCon=     1 RMS=6.87D-04 Max=1.31D-02 NDo=     1
 LinEq1:  Iter=  2 NonCon=     1 RMS=1.66D-04 Max=3.74D-03 NDo=     1
 LinEq1:  Iter=  3 NonCon=     1 RMS=3.95D-05 Max=3.68D-04 NDo=     1
 LinEq1:  Iter=  4 NonCon=     1 RMS=1.91D-05 Max=9.20D-04 NDo=     1
 LinEq1:  Iter=  5 NonCon=     1 RMS=5.56D-06 Max=5.95D-05 NDo=     1
 LinEq1:  Iter=  6 NonCon=     1 RMS=1.88D-06 Max=3.87D-05 NDo=     1
 LinEq1:  Iter=  7 NonCon=     1 RMS=4.76D-07 Max=5.44D-06 NDo=     1
 LinEq1:  Iter=  8 NonCon=     1 RMS=1.21D-07 Max=1.21D-06 NDo=     1
 LinEq1:  Iter=  9 NonCon=     1 RMS=2.73D-08 Max=6.06D-07 NDo=     1
 LinEq1:  Iter= 10 NonCon=     1 RMS=9.10D-09 Max=1.93D-07 NDo=     1
 LinEq1:  Iter= 11 NonCon=     1 RMS=3.86D-09 Max=1.08D-07 NDo=     1
 LinEq1:  Iter= 12 NonCon=     1 RMS=1.05D-09 Max=1.49D-08 NDo=     1
 LinEq1:  Iter= 13 NonCon=     1 RMS=2.59D-10 Max=3.13D-09 NDo=     1
 LinEq1:  Iter= 14 NonCon=     0 RMS=7.02D-11 Max=6.96D-10 NDo=     1
 Linear equations converged to 1.000D-10 1.000D-09 after    14 iterations.
 End of Minotr F.D. properties file   721 does not exist.
 End of Minotr F.D. properties file   722 does not exist.
 End of Minotr F.D. properties file   788 does not exist.
 Leave Link 1002 at Fri Sep 17 20:15:56 2021, MaxMem=   524288000 cpu:              35.2 elap:              35.2
 (Enter /opt/gaussian/g16_legacy/l601.exe)
 Copying SCF densities to generalized density rwf, IOpCl= 0 IROHF=0.

 **********************************************************************

            Population analysis using the SCF density.

 **********************************************************************

 Orbital symmetries:
       Occupied  (A) (A) (A) (A) (A) (A) (A) (A) (A) (A) (A) (A)
                 (A) (A) (A) (A) (A) (A) (A) (A) (A) (A) (A) (A)
                 (A) (A) (A) (A) (A) (A) (A) (A) (A) (A) (A) (A)
                 (A) (A) (A)
       Virtual   (A) (A) (A) (A) (A) (A) (A) (A) (A) (A) (A) (A)
                 (A) (A) (A) (A) (A) (A) (A) (A) (A) (A) (A) (A)
                 (A) (A) (A) (A) (A) (A) (A) (A) (A) (A) (A) (A)
                 (A) (A) (A) (A) (A) (A) (A) (A) (A) (A) (A) (A)
                 (A) (A) (A) (A) (A) (A) (A) (A) (A) (A) (A) (A)
                 (A) (A) (A) (A) (A) (A) (A) (A) (A) (A) (A) (A)
                 (A) (A) (A) (A) (A) (A) (A) (A) (A) (A) (A) (A)
                 (A) (A) (A) (A) (A) (A) (A) (A) (A) (A) (A) (A)
                 (A) (A) (A) (A) (A) (A) (A) (A) (A) (A) (A) (A)
                 (A) (A) (A) (A) (A) (A) (A) (A) (A) (A) (A) (A)
                 (A) (A) (A) (A) (A) (A) (A) (A) (A) (A) (A) (A)
                 (A) (A) (A) (A) (A) (A) (A) (A) (A) (A) (A) (A)
                 (A) (A) (A) (A) (A) (A) (A) (A) (A) (A) (A) (A)
                 (A) (A) (A) (A) (A) (A) (A) (A) (A) (A) (A) (A)
                 (A) (A) (A) (A) (A) (A) (A) (A) (A) (A) (A) (A)
                 (A) (A) (A) (A) (A) (A) (A) (A) (A) (A) (A) (A)
                 (A) (A) (A) (A) (A) (A) (A) (A) (A)
 The electronic state is 1-A.
 Alpha  occ. eigenvalues --  -11.22690 -11.22385 -11.22150 -11.21990 -11.21564
 Alpha  occ. eigenvalues --  -11.21406 -11.21404 -11.21348 -11.21204 -11.21006
 Alpha  occ. eigenvalues --   -1.10308  -1.07757  -1.01837  -0.97441  -0.93386
 Alpha  occ. eigenvalues --   -0.91714  -0.87326  -0.82184  -0.70389  -0.68903
 Alpha  occ. eigenvalues --   -0.63662  -0.61808  -0.59435  -0.58850  -0.58089
 Alpha  occ. eigenvalues --   -0.57254  -0.55311  -0.53955  -0.53428  -0.53125
 Alpha  occ. eigenvalues --   -0.52649  -0.50867  -0.49824  -0.49648  -0.46509
 Alpha  occ. eigenvalues --   -0.45778  -0.44434  -0.32706  -0.31091
 Alpha virt. eigenvalues --    0.18177   0.19265   0.22506   0.24706   0.25228
 Alpha virt. eigenvalues --    0.26391   0.28726   0.29572   0.30601   0.30772
 Alpha virt. eigenvalues --    0.30950   0.32755   0.33087   0.34559   0.35031
 Alpha virt. eigenvalues --    0.36236   0.36368   0.37575   0.38328   0.40118
 Alpha virt. eigenvalues --    0.41003   0.42602   0.44207   0.45280   0.45939
 Alpha virt. eigenvalues --    0.51720   0.52619   0.60239   0.64278   0.69294
 Alpha virt. eigenvalues --    0.70791   0.71586   0.72878   0.74406   0.76886
 Alpha virt. eigenvalues --    0.77894   0.78876   0.80699   0.80985   0.82644
 Alpha virt. eigenvalues --    0.84287   0.86689   0.89640   0.90558   0.92268
 Alpha virt. eigenvalues --    0.95202   0.95800   0.96933   0.98326   0.99671
 Alpha virt. eigenvalues --    1.00299   1.02620   1.03834   1.05710   1.05976
 Alpha virt. eigenvalues --    1.08013   1.09888   1.11317   1.11704   1.12697
 Alpha virt. eigenvalues --    1.13917   1.14895   1.15254   1.15855   1.16335
 Alpha virt. eigenvalues --    1.17120   1.17899   1.19205   1.19550   1.20930
 Alpha virt. eigenvalues --    1.22394   1.24410   1.24566   1.26506   1.26829
 Alpha virt. eigenvalues --    1.28888   1.31506   1.37794   1.43446   1.45664
 Alpha virt. eigenvalues --    1.46933   1.50431   1.54565   1.56648   1.58517
 Alpha virt. eigenvalues --    1.63750   1.67025   1.67738   1.69375   1.73334
 Alpha virt. eigenvalues --    1.75595   1.85349   1.87279   1.92531   1.93407
 Alpha virt. eigenvalues --    1.97518   1.99244   2.02754   2.05333   2.08412
 Alpha virt. eigenvalues --    2.09254   2.10141   2.11402   2.14293   2.14685
 Alpha virt. eigenvalues --    2.15937   2.19456   2.22584   2.26259   2.27216
 Alpha virt. eigenvalues --    2.28029   2.30907   2.34887   2.35440   2.35831
 Alpha virt. eigenvalues --    2.35999   2.37224   2.37617   2.40154   2.40548
 Alpha virt. eigenvalues --    2.41162   2.42991   2.44250   2.45370   2.46289
 Alpha virt. eigenvalues --    2.47123   2.48381   2.50005   2.51108   2.52281
 Alpha virt. eigenvalues --    2.54622   2.57185   2.59758   2.62293   2.63784
 Alpha virt. eigenvalues --    2.66685   2.69253   2.71334   2.72817   2.75048
 Alpha virt. eigenvalues --    2.75194   2.78287   2.80441   2.82119   2.84844
 Alpha virt. eigenvalues --    2.86224   2.90298   2.90882   2.92560   2.93790
 Alpha virt. eigenvalues --    2.94945   2.98956   3.00691   3.02315   3.04637
 Alpha virt. eigenvalues --    3.06066   3.06620   3.08996   3.11768   3.14673
 Alpha virt. eigenvalues --    3.17660   3.18922   3.19962   3.20576   3.21602
 Alpha virt. eigenvalues --    3.22217   3.24333   3.26045   3.26796   3.38830
 Alpha virt. eigenvalues --    3.39773   3.43798   3.44396   3.55616   3.56616
 Alpha virt. eigenvalues --    3.60706   3.61969   3.66086   3.72027   3.78934
 Alpha virt. eigenvalues --    3.80151   3.81214   3.81723   3.82155   3.83172
 Alpha virt. eigenvalues --    3.84465   3.85321   3.86860   3.89888   3.93260
 Alpha virt. eigenvalues --    3.94994   4.56913   4.63619   4.76390   4.83100
 Alpha virt. eigenvalues --    4.89005   4.92775   4.93963   5.03905   5.09246
 Alpha virt. eigenvalues --    5.15991
          Condensed to atoms (all electrons):
               1          2          3          4          5          6
     1  C    4.972199   0.411193   0.402981   0.341662  -0.052734   0.003272
     2  H    0.411193   0.608516  -0.032836  -0.046695  -0.008447   0.000244
     3  H    0.402981  -0.032836   0.584385  -0.041256   0.002723  -0.000103
     4  C    0.341662  -0.046695  -0.041256   4.968351   0.341671  -0.039517
     5  C   -0.052734  -0.008447   0.002723   0.341671   4.917025   0.404854
     6  H    0.003272   0.000244  -0.000103  -0.039517   0.404854   0.571190
     7  H   -0.006197   0.001349   0.000199  -0.041194   0.405639  -0.029545
     8  H    0.001556   0.000133   0.000136  -0.042073   0.400656  -0.027091
     9  C   -0.053450   0.003562  -0.004352   0.690618  -0.055149  -0.003011
    10  H   -0.004640   0.000084   0.000328  -0.038326   0.003402   0.000025
    11  C    0.002866  -0.000076  -0.000116  -0.046571  -0.006781  -0.002109
    12  H    0.000079  -0.000001  -0.000001  -0.000709  -0.001401  -0.001630
    13  H   -0.000126  -0.000001   0.000019   0.001181   0.000189  -0.000121
    14  H   -0.000044   0.000009  -0.000008  -0.002744   0.000280   0.000504
    15  C   -0.000077   0.000003   0.000001  -0.000067   0.000000   0.000001
    16  H   -0.000007   0.000001   0.000000  -0.000000  -0.000000   0.000000
    17  H    0.000024  -0.000001  -0.000000   0.000023   0.000000  -0.000001
    18  H   -0.000004   0.000000   0.000000  -0.000000  -0.000000   0.000000
    19  C   -0.001531   0.000235  -0.000062  -0.000262  -0.000056   0.000017
    20  C    0.000217  -0.000012   0.000008   0.000286  -0.000001  -0.000000
    21  H   -0.000120  -0.000001   0.000012   0.000069  -0.000000   0.000000
    22  H   -0.000017   0.000000   0.000000   0.000002  -0.000000  -0.000000
    23  H    0.000175  -0.000001  -0.000005   0.000179   0.000002  -0.000002
    24  C   -0.064738  -0.003476   0.004762  -0.002853  -0.000007   0.000039
    25  H   -0.000927   0.002012  -0.000090   0.000065  -0.000021   0.000000
    26  C    0.347427  -0.043349  -0.035377  -0.044327   0.002889  -0.000126
    27  H   -0.046187  -0.005070  -0.001158   0.004598  -0.000083   0.000002
    28  H   -0.037372   0.004833  -0.004431  -0.003268  -0.000078   0.000003
               7          8          9         10         11         12
     1  C   -0.006197   0.001556  -0.053450  -0.004640   0.002866   0.000079
     2  H    0.001349   0.000133   0.003562   0.000084  -0.000076  -0.000001
     3  H    0.000199   0.000136  -0.004352   0.000328  -0.000116  -0.000001
     4  C   -0.041194  -0.042073   0.690618  -0.038326  -0.046571  -0.000709
     5  C    0.405639   0.400656  -0.055149   0.003402  -0.006781  -0.001401
     6  H   -0.029545  -0.027091  -0.003011   0.000025  -0.002109  -0.001630
     7  H    0.583057  -0.030637   0.003427  -0.000101   0.000162   0.000004
     8  H   -0.030637   0.575710  -0.005770  -0.000155   0.000612  -0.000065
     9  C    0.003427  -0.005770   4.948685   0.408321   0.342669  -0.041132
    10  H   -0.000101  -0.000155   0.408321   0.568954  -0.044710   0.003521
    11  C    0.000162   0.000612   0.342669  -0.044710   4.898045   0.407735
    12  H    0.000004  -0.000065  -0.041132   0.003521   0.407735   0.572696
    13  H   -0.000009   0.000152  -0.042268  -0.002299   0.399781  -0.028101
    14  H    0.000012  -0.000087  -0.047597  -0.001172   0.404460  -0.028295
    15  C    0.000000  -0.000000  -0.000115   0.000016  -0.000007  -0.000000
    16  H   -0.000000   0.000000   0.000003  -0.000001   0.000000  -0.000000
    17  H   -0.000000   0.000000   0.000030   0.000001   0.000012   0.000000
    18  H    0.000000   0.000000  -0.000000  -0.000000  -0.000000  -0.000000
    19  C    0.000003   0.000000  -0.000382  -0.001139  -0.000081  -0.000007
    20  C    0.000000   0.000000  -0.002573  -0.001747  -0.000071   0.000004
    21  H    0.000000   0.000000  -0.000383  -0.000015   0.000010  -0.000000
    22  H   -0.000000   0.000000   0.000116   0.000072  -0.000007   0.000000
    23  H   -0.000000   0.000000  -0.002126  -0.000839   0.000430  -0.000005
    24  C    0.000058   0.000000   0.001033  -0.000285  -0.000128  -0.000006
    25  H    0.000011   0.000000   0.000113  -0.000002   0.000001  -0.000000
    26  C    0.000135  -0.000070  -0.005940  -0.000760   0.000007  -0.000001
    27  H   -0.000016   0.000003   0.000196  -0.000005  -0.000000   0.000000
    28  H   -0.000000   0.000001  -0.000436  -0.001137   0.000016  -0.000001
              13         14         15         16         17         18
     1  C   -0.000126  -0.000044  -0.000077  -0.000007   0.000024  -0.000004
     2  H   -0.000001   0.000009   0.000003   0.000001  -0.000001   0.000000
     3  H    0.000019  -0.000008   0.000001   0.000000  -0.000000   0.000000
     4  C    0.001181  -0.002744  -0.000067  -0.000000   0.000023  -0.000000
     5  C    0.000189   0.000280   0.000000  -0.000000   0.000000  -0.000000
     6  H   -0.000121   0.000504   0.000001   0.000000  -0.000001   0.000000
     7  H   -0.000009   0.000012   0.000000  -0.000000  -0.000000   0.000000
     8  H    0.000152  -0.000087  -0.000000   0.000000   0.000000   0.000000
     9  C   -0.042268  -0.047597  -0.000115   0.000003   0.000030  -0.000000
    10  H   -0.002299  -0.001172   0.000016  -0.000001   0.000001  -0.000000
    11  C    0.399781   0.404460  -0.000007   0.000000   0.000012  -0.000000
    12  H   -0.028101  -0.028295  -0.000000  -0.000000   0.000000  -0.000000
    13  H    0.589479  -0.034958   0.000000   0.000000   0.000000  -0.000000
    14  H   -0.034958   0.589364   0.000017  -0.000001   0.000032   0.000000
    15  C    0.000000   0.000017   4.900536   0.404887   0.400565   0.395982
    16  H    0.000000  -0.000001   0.404887   0.570749  -0.027477  -0.027763
    17  H    0.000000   0.000032   0.400565  -0.027477   0.594399  -0.035549
    18  H   -0.000000   0.000000   0.395982  -0.027763  -0.035549   0.597835
    19  C   -0.000003   0.000255   0.353898  -0.040662  -0.047189  -0.043352
    20  C    0.000007  -0.000160  -0.063975   0.003857  -0.000279  -0.003255
    21  H   -0.000000   0.000000   0.003589  -0.000118  -0.000014  -0.000050
    22  H    0.000000  -0.000001  -0.005445   0.000105  -0.000584   0.002759
    23  H    0.000054   0.000022   0.000377  -0.000119   0.001795  -0.000274
    24  C    0.000001   0.000056  -0.043873  -0.002379  -0.002240   0.000269
    25  H   -0.000000   0.000000  -0.006577   0.002320   0.000108   0.000241
    26  C    0.000000   0.000003   0.003220   0.000124  -0.000081  -0.000124
    27  H    0.000000  -0.000000  -0.000119  -0.000006  -0.000003   0.000013
    28  H   -0.000003   0.000014   0.000099   0.000005  -0.000004   0.000002
              19         20         21         22         23         24
     1  C   -0.001531   0.000217  -0.000120  -0.000017   0.000175  -0.064738
     2  H    0.000235  -0.000012  -0.000001   0.000000  -0.000001  -0.003476
     3  H   -0.000062   0.000008   0.000012   0.000000  -0.000005   0.004762
     4  C   -0.000262   0.000286   0.000069   0.000002   0.000179  -0.002853
     5  C   -0.000056  -0.000001  -0.000000  -0.000000   0.000002  -0.000007
     6  H    0.000017  -0.000000   0.000000  -0.000000  -0.000002   0.000039
     7  H    0.000003   0.000000   0.000000  -0.000000  -0.000000   0.000058
     8  H    0.000000   0.000000   0.000000   0.000000   0.000000   0.000000
     9  C   -0.000382  -0.002573  -0.000383   0.000116  -0.002126   0.001033
    10  H   -0.001139  -0.001747  -0.000015   0.000072  -0.000839  -0.000285
    11  C   -0.000081  -0.000071   0.000010  -0.000007   0.000430  -0.000128
    12  H   -0.000007   0.000004  -0.000000   0.000000  -0.000005  -0.000006
    13  H   -0.000003   0.000007  -0.000000   0.000000   0.000054   0.000001
    14  H    0.000255  -0.000160   0.000000  -0.000001   0.000022   0.000056
    15  C    0.353898  -0.063975   0.003589  -0.005445   0.000377  -0.043873
    16  H   -0.040662   0.003857  -0.000118   0.000105  -0.000119  -0.002379
    17  H   -0.047189  -0.000279  -0.000014  -0.000584   0.001795  -0.002240
    18  H   -0.043352  -0.003255  -0.000050   0.002759  -0.000274   0.000269
    19  C    4.911575   0.344576  -0.037668  -0.042132  -0.043574   0.701525
    20  C    0.344576   4.921151   0.404956   0.405016   0.397533  -0.043880
    21  H   -0.037668   0.404956   0.570036  -0.029678  -0.026442  -0.002490
    22  H   -0.042132   0.405016  -0.029678   0.585698  -0.033249   0.002257
    23  H   -0.043574   0.397533  -0.026442  -0.033249   0.583879  -0.003807
    24  C    0.701525  -0.043880  -0.002490   0.002257  -0.003807   4.940574
    25  H   -0.034914   0.003372   0.000030  -0.000101  -0.000138   0.400675
    26  C   -0.046096  -0.008251  -0.001933   0.000099   0.000768   0.347521
    27  H   -0.000149   0.000305   0.000104   0.000016  -0.000045  -0.045513
    28  H    0.001180  -0.002142  -0.000417   0.000012  -0.000312  -0.045985
              25         26         27         28
     1  C   -0.000927   0.347427  -0.046187  -0.037372
     2  H    0.002012  -0.043349  -0.005070   0.004833
     3  H   -0.000090  -0.035377  -0.001158  -0.004431
     4  C    0.000065  -0.044327   0.004598  -0.003268
     5  C   -0.000021   0.002889  -0.000083  -0.000078
     6  H    0.000000  -0.000126   0.000002   0.000003
     7  H    0.000011   0.000135  -0.000016  -0.000000
     8  H    0.000000  -0.000070   0.000003   0.000001
     9  C    0.000113  -0.005940   0.000196  -0.000436
    10  H   -0.000002  -0.000760  -0.000005  -0.001137
    11  C    0.000001   0.000007  -0.000000   0.000016
    12  H   -0.000000  -0.000001   0.000000  -0.000001
    13  H   -0.000000   0.000000   0.000000  -0.000003
    14  H    0.000000   0.000003  -0.000000   0.000014
    15  C   -0.006577   0.003220  -0.000119   0.000099
    16  H    0.002320   0.000124  -0.000006   0.000005
    17  H    0.000108  -0.000081  -0.000003  -0.000004
    18  H    0.000241  -0.000124   0.000013   0.000002
    19  C   -0.034914  -0.046096  -0.000149   0.001180
    20  C    0.003372  -0.008251   0.000305  -0.002142
    21  H    0.000030  -0.001933   0.000104  -0.000417
    22  H   -0.000101   0.000099   0.000016   0.000012
    23  H   -0.000138   0.000768  -0.000045  -0.000312
    24  C    0.400675   0.347521  -0.045513  -0.045985
    25  H    0.561658  -0.043536  -0.001701   0.003377
    26  C   -0.043536   4.947397   0.412889   0.412877
    27  H   -0.001701   0.412889   0.596085  -0.031057
    28  H    0.003377   0.412877  -0.031057   0.591891
 Mulliken charges:
               1
     1  C   -0.215482
     2  H    0.107793
     3  H    0.124241
     4  C    0.001159
     5  C   -0.354572
     6  H    0.123105
     7  H    0.113642
     8  H    0.126986
     9  C   -0.134090
    10  H    0.112610
    11  C   -0.356149
    12  H    0.117317
    13  H    0.117026
    14  H    0.120036
    15  C   -0.342937
    16  H    0.116482
    17  H    0.116433
    18  H    0.113272
    19  C    0.025992
    20  C   -0.354941
    21  H    0.120525
    22  H    0.115061
    23  H    0.125725
    24  C   -0.137110
    25  H    0.114023
    26  C   -0.245386
    27  H    0.116902
    28  H    0.112336
 Sum of Mulliken charges =  -0.00000
 Mulliken charges with hydrogens summed into heavy atoms:
               1
     1  C    0.016552
     4  C    0.001159
     5  C    0.009162
     9  C   -0.021481
    11  C   -0.001770
    15  C    0.003250
    19  C    0.025992
    20  C    0.006370
    24  C   -0.023086
    26  C   -0.016149
 Electronic spatial extent (au):  <R**2>=           1920.6937
 Charge=             -0.0000 electrons
 Dipole moment (field-independent basis, Debye):
    X=              0.0656    Y=              0.1360    Z=              0.0685  Tot=              0.1659
 Quadrupole moment (field-independent basis, Debye-Ang):
   XX=            -66.1003   YY=            -64.2529   ZZ=            -64.6767
   XY=             -1.5198   XZ=              0.8846   YZ=             -0.5934
 Traceless Quadrupole moment (field-independent basis, Debye-Ang):
   XX=             -1.0903   YY=              0.7571   ZZ=              0.3333
   XY=             -1.5198   XZ=              0.8846   YZ=             -0.5934
 Octapole moment (field-independent basis, Debye-Ang**2):
  XXX=              0.3821  YYY=             -1.0851  ZZZ=             -0.1855  XYY=              2.3126
  XXY=              4.4373  XXZ=              2.5395  XZZ=             -0.9478  YZZ=             -1.2322
  YYZ=              1.3741  XYZ=              1.1146
 Hexadecapole moment (field-independent basis, Debye-Ang**3):
 XXXX=          -1554.2033 YYYY=           -738.8941 ZZZZ=           -386.2412 XXXY=            -14.3921
 XXXZ=              6.3388 YYYX=             -1.3808 YYYZ=             -2.3000 ZZZX=              1.0505
 ZZZY=             -2.7860 XXYY=           -389.2622 XXZZ=           -329.1582 YYZZ=           -183.2617
 XXYZ=             -0.2865 YYXZ=             -1.1586 ZZXY=              3.4288
 N-N= 5.362626631727D+02 E-N=-1.977277812030D+03  KE= 3.885995444566D+02
 No NMR shielding tensors so no spin-rotation constants.
 Leave Link  601 at Fri Sep 17 20:15:56 2021, MaxMem=   524288000 cpu:               0.3 elap:               0.3
 (Enter /opt/gaussian/g16_legacy/l701.exe)
 ... and contract with generalized density number  2.
 Compute integral first derivatives.
 Leave Link  701 at Fri Sep 17 20:15:56 2021, MaxMem=   524288000 cpu:               0.3 elap:               0.3
 (Enter /opt/gaussian/g16_legacy/l702.exe)
 L702 exits ... SP integral derivatives will be done elsewhere.
 Leave Link  702 at Fri Sep 17 20:15:56 2021, MaxMem=   524288000 cpu:               0.1 elap:               0.1
 (Enter /opt/gaussian/g16_legacy/l703.exe)
 Integral derivatives from FoFJK, PRISM(SPDF).
 Compute integral first derivatives, UseDBF=F ICtDFT=           0.
 Calling FoFJK, ICntrl=  10002127 FMM=F ISym2X=0 I1Cent= 0 IOpClX= 0 NMat=1 NMatS=1 NMatT=0.
 FoFJK:  IHMeth= 1 ICntrl=10002127 DoSepK=F KAlg= 0 I1Cent=           0 FoldK=F
 IRaf=         0 NMat=       1 IRICut=       1 DoRegI=T DoRafI=F ISym2E= 0 IDoP0=0 IntGTp=1.
 FoFCou: FMM=F IPFlag=           0 FMFlag=      100000 FMFlg1=         800
         NFxFlg=           0 DoJE=F BraDBF=F KetDBF=F FulRan=T
         wScrn=  0.000000 ICntrl=  10002127 IOpCl=  0 I1Cent=           0 NGrid=           0
         NMat0=    1 NMatS0=      1 NMatT0=    0 NMatD0=    1 NMtDS0=    0 NMtDT0=    0
 Symmetry not used in FoFCou.
 Leave Link  703 at Fri Sep 17 20:16:36 2021, MaxMem=   524288000 cpu:              39.6 elap:              39.6
 (Enter /opt/gaussian/g16_legacy/l716.exe)
 Dipole        = 3.29818572D-02 6.84962968D-02 1.79632633D-02
 ***** Axes restored to original set *****
 -------------------------------------------------------------------
 Center     Atomic                   Forces (Hartrees/Bohr)
 Number     Number              X              Y              Z
 -------------------------------------------------------------------
      1        6          -0.000588006    0.001987820   -0.001289149
      2        1           0.003685902    0.003054598    0.000175517
      3        1          -0.002954133   -0.001381069    0.000621820
      4        6          -0.008606925   -0.004696384    0.009177765
      5        6           0.005214537   -0.003718446   -0.000093806
      6        1          -0.000550285    0.002884018   -0.004101259
      7        1           0.000202439    0.003549295   -0.000380868
      8        1           0.000384131   -0.003945492    0.002046110
      9        6          -0.005629620    0.002000837   -0.000763178
     10        1          -0.002432813   -0.003229214   -0.000239122
     11        6           0.003591414   -0.000732897   -0.004204928
     12        1          -0.002494283    0.002175519    0.000763939
     13        1           0.001292084   -0.001767759    0.001722278
     14        1           0.001971952    0.001249517   -0.000295357
     15        6          -0.001523290   -0.003658698   -0.000258817
     16        1           0.000648369    0.003792268   -0.000949614
     17        1          -0.003112121    0.000736832    0.001761198
     18        1           0.003142711   -0.000537368   -0.000003248
     19        6          -0.002696797   -0.004741128   -0.002065712
     20        6          -0.001321875    0.003685142   -0.002148844
     21        1           0.003629042   -0.002380814    0.000249138
     22        1           0.000826521   -0.002048178   -0.001123596
     23        1          -0.002435186    0.001223903    0.001174067
     24        6           0.004710578    0.006935783   -0.004082357
     25        1           0.001183689    0.000167487    0.001416060
     26        6          -0.000110979    0.001254212    0.003244435
     27        1           0.002612753    0.000480613   -0.002852690
     28        1           0.001360193   -0.002340398    0.002500217
 -------------------------------------------------------------------
 Cartesian Forces:  Max     0.009177765 RMS     0.002891169
 Leave Link  716 at Fri Sep 17 20:16:36 2021, MaxMem=   524288000 cpu:               0.1 elap:               0.1
 (Enter /opt/gaussian/g16_legacy/l103.exe)

 GradGradGradGradGradGradGradGradGradGradGradGradGradGradGradGradGradGrad
 Berny optimization.
 FormGI is forming the generalized inverse of G from B-inverse, IUseBI=4.
 Internal  Forces:  Max     0.006374546 RMS     0.002323501
 Search for a local minimum.
 Step number   1 out of a maximum of  138
 All quantities printed in internal units (Hartrees-Bohrs-Radians)
 RMS Force = .23235D-02 SwitMx=.10000D-02 MixMth= 1
 Mixed Optimization -- RFO/linear search
 Second derivative matrix not updated -- first step.
 ITU=  0
     Eigenvalues ---    0.00230   0.00424   0.00625   0.00699   0.00702
     Eigenvalues ---    0.00706   0.00832   0.01181   0.01285   0.01518
     Eigenvalues ---    0.01668   0.02752   0.02802   0.03538   0.03939
     Eigenvalues ---    0.05266   0.05401   0.07007   0.07021   0.07077
     Eigenvalues ---    0.07095   0.07219   0.07291   0.07331   0.07540
     Eigenvalues ---    0.09356   0.09930   0.12878   0.13246   0.15986
     Eigenvalues ---    0.15994   0.16000   0.16000   0.16000   0.16000
     Eigenvalues ---    0.16000   0.16000   0.16000   0.16000   0.16000
     Eigenvalues ---    0.16000   0.16000   0.16000   0.21902   0.22002
     Eigenvalues ---    0.22004   0.22006   0.24971   0.24986   0.24988
     Eigenvalues ---    0.24993   0.27883   0.29810   0.31288   0.31849
     Eigenvalues ---    0.31876   0.31907   0.32903   0.33820   0.33959
     Eigenvalues ---    0.33992   0.34100   0.34135   0.34225   0.34234
     Eigenvalues ---    0.34266   0.34296   0.34410   0.34436   0.34438
     Eigenvalues ---    0.34440   0.34469   0.34481   0.34557   0.35012
     Eigenvalues ---    0.35252   0.55051   0.55863
 RFO step:  Lambda=-6.16215543D-03 EMin= 2.30000000D-03
 Linear search not attempted -- first point.
 Iteration  1 RMS(Cart)=  0.16283472 RMS(Int)=  0.00526226
 Iteration  2 RMS(Cart)=  0.00923078 RMS(Int)=  0.00033630
 Iteration  3 RMS(Cart)=  0.00003575 RMS(Int)=  0.00033593
 Iteration  4 RMS(Cart)=  0.00000000 RMS(Int)=  0.00033593
 ITry= 1 IFail=0 DXMaxC= 6.18D-01 DCOld= 1.00D+10 DXMaxT= 3.00D-01 DXLimC= 3.00D+00 Rises=F
 Variable       Old X    -DE/DX   Delta X   Delta X   Delta X     New X
                                 (Linear)    (Quad)   (Total)
    R1        2.07635  -0.00390   0.00000  -0.01131  -0.01131   2.06503
    R2        2.07343  -0.00074   0.00000  -0.00215  -0.00215   2.07128
    R3        2.88344  -0.00635   0.00000  -0.02086  -0.02086   2.86258
    R4        2.92394  -0.00569   0.00000  -0.01998  -0.01998   2.90397
    R5        2.84372   0.00474   0.00000   0.01460   0.01460   2.85833
    R6        2.54373  -0.00348   0.00000  -0.00616  -0.00616   2.53758
    R7        2.06936  -0.00392   0.00000  -0.01125  -0.01125   2.05811
    R8        2.06546  -0.00283   0.00000  -0.00808  -0.00808   2.05738
    R9        2.07103  -0.00279   0.00000  -0.00804  -0.00804   2.06299
   R10        2.05268  -0.00108   0.00000  -0.00301  -0.00301   2.04967
   R11        2.82522   0.00347   0.00000   0.01035   0.01035   2.83557
   R12        2.06401  -0.00332   0.00000  -0.00943  -0.00943   2.05458
   R13        2.06595  -0.00144   0.00000  -0.00411  -0.00411   2.06184
   R14        2.06526  -0.00046   0.00000  -0.00130  -0.00130   2.06396
   R15        2.06883  -0.00356   0.00000  -0.01021  -0.01021   2.05862
   R16        2.07162  -0.00258   0.00000  -0.00744  -0.00744   2.06418
   R17        2.06834  -0.00182   0.00000  -0.00521  -0.00521   2.06313
   R18        2.84421   0.00008   0.00000   0.00023   0.00023   2.84444
   R19        2.84314   0.00028   0.00000   0.00087   0.00087   2.84400
   R20        2.55087  -0.00528   0.00000  -0.00949  -0.00949   2.54138
   R21        2.06601  -0.00345   0.00000  -0.00984  -0.00984   2.05617
   R22        2.06643  -0.00176   0.00000  -0.00503  -0.00503   2.06141
   R23        2.06952  -0.00234   0.00000  -0.00671  -0.00671   2.06281
   R24        2.05655  -0.00049   0.00000  -0.00138  -0.00138   2.05517
   R25        2.85467  -0.00637   0.00000  -0.01998  -0.01998   2.83469
   R26        2.07399  -0.00167   0.00000  -0.00484  -0.00484   2.06915
   R27        2.06597  -0.00188   0.00000  -0.00535  -0.00535   2.06062
    A1        1.84953  -0.00094   0.00000  -0.00479  -0.00472   1.84481
    A2        1.90253  -0.00093   0.00000  -0.01113  -0.01105   1.89148
    A3        1.86308   0.00339   0.00000   0.02037   0.02034   1.88342
    A4        1.89450   0.00332   0.00000   0.02134   0.02132   1.91582
    A5        1.90572  -0.00093   0.00000  -0.00898  -0.00892   1.89681
    A6        2.03938  -0.00375   0.00000  -0.01633  -0.01632   2.02306
    A7        2.01635   0.00465   0.00000   0.01892   0.01709   2.03344
    A8        2.12902  -0.00476   0.00000  -0.01767  -0.01937   2.10965
    A9        2.13743   0.00017   0.00000   0.00161  -0.00018   2.13725
   A10        1.95219   0.00080   0.00000   0.00632   0.00631   1.95849
   A11        1.95248  -0.00272   0.00000  -0.01524  -0.01517   1.93731
   A12        1.91830   0.00458   0.00000   0.02496   0.02499   1.94329
   A13        1.85399   0.00191   0.00000   0.01629   0.01632   1.87031
   A14        1.89928  -0.00328   0.00000  -0.02176  -0.02181   1.87747
   A15        1.88500  -0.00156   0.00000  -0.01220  -0.01210   1.87290
   A16        2.07214  -0.00173   0.00000  -0.01267  -0.01283   2.05931
   A17        2.23870  -0.00331   0.00000  -0.01442  -0.01458   2.22413
   A18        1.97175   0.00507   0.00000   0.02816   0.02800   1.99975
   A19        1.98420  -0.00209   0.00000  -0.01308  -0.01303   1.97117
   A20        1.91878   0.00304   0.00000   0.01804   0.01799   1.93677
   A21        1.90411   0.00279   0.00000   0.01750   0.01744   1.92155
   A22        1.88542  -0.00086   0.00000  -0.00651  -0.00646   1.87896
   A23        1.88514  -0.00040   0.00000  -0.00196  -0.00191   1.88324
   A24        1.88341  -0.00265   0.00000  -0.01495  -0.01512   1.86829
   A25        1.87809   0.00079   0.00000   0.00622   0.00625   1.88434
   A26        1.88131   0.00080   0.00000   0.00806   0.00810   1.88941
   A27        1.96316  -0.00271   0.00000  -0.01381  -0.01377   1.94939
   A28        1.89275  -0.00294   0.00000  -0.02260  -0.02260   1.87015
   A29        1.91763   0.00167   0.00000   0.00837   0.00838   1.92602
   A30        1.92877   0.00227   0.00000   0.01294   0.01296   1.94173
   A31        1.99161   0.00201   0.00000   0.00812   0.00803   1.99964
   A32        2.10869  -0.00099   0.00000  -0.00355  -0.00364   2.10505
   A33        2.18204  -0.00100   0.00000  -0.00361  -0.00370   2.17834
   A34        1.96718   0.00001   0.00000   0.00157   0.00158   1.96875
   A35        1.93426  -0.00224   0.00000  -0.01275  -0.01273   1.92153
   A36        1.92351   0.00241   0.00000   0.01222   0.01224   1.93575
   A37        1.86063   0.00200   0.00000   0.01627   0.01629   1.87692
   A38        1.89837  -0.00157   0.00000  -0.01071  -0.01071   1.88766
   A39        1.87660  -0.00067   0.00000  -0.00709  -0.00706   1.86954
   A40        2.06513  -0.00335   0.00000  -0.01640  -0.01688   2.04825
   A41        2.22583   0.00339   0.00000   0.01558   0.01509   2.24092
   A42        1.99088   0.00002   0.00000   0.00362   0.00314   1.99402
   A43        1.96566  -0.00165   0.00000  -0.00985  -0.00992   1.95574
   A44        1.89139  -0.00328   0.00000  -0.03122  -0.03115   1.86024
   A45        1.91525   0.00288   0.00000   0.02083   0.02092   1.93617
   A46        1.88090   0.00288   0.00000   0.01630   0.01603   1.89693
   A47        1.96193  -0.00138   0.00000  -0.00807  -0.00805   1.95388
   A48        1.84296   0.00056   0.00000   0.01202   0.01219   1.85514
    D1        0.41808   0.00063   0.00000   0.04836   0.04816   0.46624
    D2       -2.69445  -0.00133   0.00000  -0.06006  -0.06000  -2.75444
    D3       -1.58894   0.00046   0.00000   0.04849   0.04833  -1.54060
    D4        1.58173  -0.00150   0.00000  -0.05993  -0.05983   1.52190
    D5        2.53097   0.00174   0.00000   0.05491   0.05488   2.58585
    D6       -0.58155  -0.00023   0.00000  -0.05351  -0.05328  -0.63483
    D7        1.14430  -0.00072   0.00000  -0.08847  -0.08839   1.05590
    D8       -0.93484  -0.00113   0.00000  -0.08206  -0.08224  -1.01708
    D9       -2.93913  -0.00153   0.00000  -0.09028  -0.09026  -3.02940
   D10        3.13640  -0.00053   0.00000  -0.08791  -0.08784   3.04857
   D11        1.05727  -0.00094   0.00000  -0.08149  -0.08168   0.97559
   D12       -0.94702  -0.00134   0.00000  -0.08971  -0.08971  -1.03673
   D13       -0.98924   0.00035   0.00000  -0.07894  -0.07877  -1.06801
   D14       -3.06838  -0.00006   0.00000  -0.07253  -0.07261  -3.14099
   D15        1.21052  -0.00046   0.00000  -0.08075  -0.08064   1.12988
[...]
                 (A) (A) (A) (A) (A) (A) (A) (A) (A) (A) (A) (A)
                 (A) (A) (A) (A) (A) (A) (A) (A) (A) (A) (A) (A)
                 (A) (A) (A) (A) (A) (A) (A) (A) (A) (A) (A) (A)
                 (A) (A) (A) (A) (A) (A) (A) (A) (A) (A) (A) (A)
                 (A) (A) (A) (A) (A) (A) (A) (A) (A) (A) (A) (A)
                 (A) (A) (A) (A) (A) (A) (A) (A) (A) (A) (A) (A)
                 (A) (A) (A) (A) (A) (A) (A) (A) (A) (A) (A) (A)
                 (A) (A) (A) (A) (A) (A) (A) (A) (A) (A) (A) (A)
                 (A) (A) (A) (A) (A) (A) (A) (A) (A) (A) (A) (A)
                 (A) (A) (A) (A) (A) (A) (A) (A) (A) (A) (A) (A)
                 (A) (A) (A) (A) (A) (A) (A) (A) (A) (A) (A) (A)
                 (A) (A) (A) (A) (A) (A) (A) (A) (A) (A) (A) (A)
                 (A) (A) (A) (A) (A) (A) (A) (A) (A) (A) (A) (A)
                 (A) (A) (A) (A) (A) (A) (A) (A) (A) (A) (A) (A)
                 (A) (A) (A) (A) (A) (A) (A) (A) (A)
 The electronic state is 1-A.
 Alpha  occ. eigenvalues --  -11.22686 -11.22358 -11.21942 -11.21829 -11.21617
 Alpha  occ. eigenvalues --  -11.21343 -11.21320 -11.21276 -11.21210 -11.21081
 Alpha  occ. eigenvalues --   -1.10786  -1.08087  -1.02024  -0.97716  -0.93690
 Alpha  occ. eigenvalues --   -0.91841  -0.87599  -0.82525  -0.70620  -0.68858
 Alpha  occ. eigenvalues --   -0.64364  -0.62000  -0.59841  -0.59305  -0.58218
 Alpha  occ. eigenvalues --   -0.57455  -0.55135  -0.53680  -0.53149  -0.52864
 Alpha  occ. eigenvalues --   -0.52489  -0.51416  -0.50332  -0.49626  -0.46907
 Alpha  occ. eigenvalues --   -0.45822  -0.45194  -0.33141  -0.31217
 Alpha virt. eigenvalues --    0.18829   0.19895   0.23128   0.24461   0.25631
 Alpha virt. eigenvalues --    0.26760   0.28970   0.29284   0.30688   0.30910
 Alpha virt. eigenvalues --    0.32104   0.32488   0.33232   0.33803   0.34585
 Alpha virt. eigenvalues --    0.36183   0.36691   0.38067   0.38897   0.39813
 Alpha virt. eigenvalues --    0.41030   0.42150   0.43541   0.45010   0.46127
 Alpha virt. eigenvalues --    0.51799   0.52935   0.62953   0.63857   0.69329
 Alpha virt. eigenvalues --    0.71317   0.72488   0.73667   0.74479   0.77143
 Alpha virt. eigenvalues --    0.78849   0.80235   0.80657   0.81312   0.83753
 Alpha virt. eigenvalues --    0.85455   0.86654   0.87306   0.88618   0.92385
 Alpha virt. eigenvalues --    0.92749   0.96061   0.98793   0.99592   1.00248
 Alpha virt. eigenvalues --    1.00805   1.02187   1.03367   1.04647   1.08275
 Alpha virt. eigenvalues --    1.08457   1.09362   1.10290   1.11939   1.12703
 Alpha virt. eigenvalues --    1.13983   1.14780   1.15252   1.16243   1.16733
 Alpha virt. eigenvalues --    1.17150   1.18419   1.18773   1.19544   1.21097
 Alpha virt. eigenvalues --    1.22022   1.23025   1.23633   1.25584   1.25776
 Alpha virt. eigenvalues --    1.34655   1.36762   1.43410   1.44035   1.45987
 Alpha virt. eigenvalues --    1.47715   1.52816   1.54554   1.55008   1.58582
 Alpha virt. eigenvalues --    1.61137   1.62981   1.67747   1.72444   1.74158
 Alpha virt. eigenvalues --    1.78819   1.84508   1.90083   1.93283   1.95999
 Alpha virt. eigenvalues --    1.97988   2.01369   2.03100   2.07244   2.08486
 Alpha virt. eigenvalues --    2.09162   2.09935   2.10508   2.11652   2.14682
 Alpha virt. eigenvalues --    2.16690   2.19093   2.21218   2.23358   2.27097
 Alpha virt. eigenvalues --    2.29416   2.31545   2.32938   2.35360   2.35770
 Alpha virt. eigenvalues --    2.35871   2.36099   2.37312   2.40669   2.41179
 Alpha virt. eigenvalues --    2.42719   2.44299   2.45209   2.45707   2.46741
 Alpha virt. eigenvalues --    2.47842   2.49152   2.50794   2.51371   2.52218
 Alpha virt. eigenvalues --    2.55060   2.56495   2.60229   2.63064   2.65716
 Alpha virt. eigenvalues --    2.69232   2.69783   2.71867   2.73329   2.73991
 Alpha virt. eigenvalues --    2.77028   2.79197   2.81010   2.82641   2.83812
 Alpha virt. eigenvalues --    2.85585   2.90343   2.90916   2.94392   2.94584
 Alpha virt. eigenvalues --    2.98364   3.00012   3.03083   3.03141   3.05388
 Alpha virt. eigenvalues --    3.06854   3.08047   3.10860   3.11952   3.15960
 Alpha virt. eigenvalues --    3.18568   3.18777   3.18897   3.21430   3.23030
 Alpha virt. eigenvalues --    3.24238   3.25395   3.27062   3.28810   3.39713
 Alpha virt. eigenvalues --    3.40633   3.43151   3.45659   3.56546   3.57544
 Alpha virt. eigenvalues --    3.62361   3.62666   3.68337   3.72402   3.79784
 Alpha virt. eigenvalues --    3.80196   3.81670   3.82089   3.83525   3.84490
 Alpha virt. eigenvalues --    3.85077   3.86879   3.88158   3.91139   3.94025
 Alpha virt. eigenvalues --    3.95486   4.59341   4.62485   4.76755   4.82592
 Alpha virt. eigenvalues --    4.89262   4.92980   4.93675   5.01540   5.10443
 Alpha virt. eigenvalues --    5.17859
          Condensed to atoms (all electrons):
               1          2          3          4          5          6
     1  C    4.976352   0.403992   0.408489   0.349599  -0.065261   0.003883
     2  H    0.403992   0.615044  -0.037891  -0.049701  -0.003535   0.000013
     3  H    0.408489  -0.037891   0.597815  -0.044472  -0.002557  -0.000074
     4  C    0.349599  -0.049701  -0.044472   4.926623   0.353757  -0.038119
     5  C   -0.065261  -0.003535  -0.002557   0.353757   4.903938   0.406809
     6  H    0.003883   0.000013  -0.000074  -0.038119   0.406809   0.570895
     7  H   -0.003220   0.002798  -0.000172  -0.043046   0.399576  -0.027250
     8  H   -0.002577  -0.000564   0.002632  -0.044825   0.401426  -0.027600
     9  C   -0.046616   0.000882  -0.001304   0.704635  -0.043137  -0.002113
    10  H   -0.008153   0.000096   0.000160  -0.037815   0.003486   0.000047
    11  C    0.003245  -0.000088  -0.000098  -0.044517  -0.008911  -0.002539
    12  H    0.000066  -0.000003  -0.000002   0.000416  -0.002182  -0.001656
    13  H   -0.000103  -0.000003   0.000018  -0.000476   0.000295   0.000018
    14  H   -0.000097   0.000015  -0.000004  -0.001227   0.000271  -0.000017
    15  C   -0.000084  -0.000003   0.000001  -0.000013  -0.000000   0.000000
    16  H   -0.000008   0.000001   0.000000  -0.000000  -0.000000   0.000000
    17  H    0.000012  -0.000000  -0.000000   0.000002   0.000000  -0.000000
    18  H   -0.000003   0.000000   0.000000   0.000000  -0.000000   0.000000
    19  C    0.000439   0.000219  -0.000062   0.000181  -0.000007   0.000000
    20  C    0.000277  -0.000009   0.000001  -0.000002  -0.000000  -0.000000
    21  H    0.000040  -0.000005   0.000010   0.000003  -0.000000   0.000000
    22  H   -0.000016   0.000000   0.000000   0.000001   0.000000   0.000000
    23  H    0.000028   0.000000  -0.000000   0.000004   0.000000  -0.000000
    24  C   -0.062393  -0.006634   0.005219   0.001795  -0.000159   0.000001
    25  H   -0.003513   0.002762  -0.000042   0.000193  -0.000042   0.000001
    26  C    0.346743  -0.038825  -0.037345  -0.045790   0.003346  -0.000087
    27  H   -0.047501  -0.002558  -0.004011   0.004470  -0.000092   0.000001
    28  H   -0.039069   0.005090  -0.003781  -0.002548  -0.000064   0.000001
               7          8          9         10         11         12
     1  C   -0.003220  -0.002577  -0.046616  -0.008153   0.003245   0.000066
     2  H    0.002798  -0.000564   0.000882   0.000096  -0.000088  -0.000003
     3  H   -0.000172   0.002632  -0.001304   0.000160  -0.000098  -0.000002
     4  C   -0.043046  -0.044825   0.704635  -0.037815  -0.044517   0.000416
     5  C    0.399576   0.401426  -0.043137   0.003486  -0.008911  -0.002182
     6  H   -0.027250  -0.027600  -0.002113   0.000047  -0.002539  -0.001656
     7  H    0.588925  -0.036477  -0.000164  -0.000109   0.000319  -0.000056
     8  H   -0.036477   0.591718  -0.000245  -0.000133   0.000274  -0.000033
     9  C   -0.000164  -0.000245   4.921759   0.407861   0.342622  -0.044179
    10  H   -0.000109  -0.000133   0.407861   0.557503  -0.041509   0.003331
    11  C    0.000319   0.000274   0.342622  -0.041509   4.894060   0.408399
    12  H   -0.000056  -0.000033  -0.044179   0.003331   0.408399   0.578831
    13  H   -0.000027   0.000046  -0.042184  -0.001485   0.400868  -0.028437
    14  H    0.000062  -0.000026  -0.043008  -0.001026   0.401932  -0.028525
    15  C    0.000000   0.000000  -0.000000  -0.000057  -0.000001  -0.000000
    16  H    0.000000   0.000000   0.000002  -0.000004  -0.000000  -0.000000
    17  H   -0.000000   0.000000   0.000049  -0.000034   0.000001   0.000000
    18  H    0.000000  -0.000000  -0.000003   0.000006   0.000000  -0.000000
    19  C    0.000002  -0.000000  -0.003034   0.000415   0.000003  -0.000002
    20  C   -0.000000   0.000000   0.000127  -0.002514   0.000010  -0.000000
    21  H   -0.000000   0.000000  -0.000015  -0.000665  -0.000001  -0.000000
    22  H    0.000000  -0.000000  -0.000012   0.000114  -0.000000   0.000000
    23  H   -0.000000   0.000000   0.000295  -0.000452   0.000012   0.000000
    24  C    0.000016   0.000004  -0.003988   0.000791  -0.000035  -0.000007
    25  H    0.000001  -0.000000   0.000115  -0.000002  -0.000002   0.000000
    26  C   -0.000013  -0.000038  -0.005574  -0.002338  -0.000056   0.000002
    27  H    0.000001  -0.000002   0.000102   0.000323   0.000000   0.000000
    28  H    0.000007  -0.000011   0.000494  -0.002770  -0.000047  -0.000002
              13         14         15         16         17         18
     1  C   -0.000103  -0.000097  -0.000084  -0.000008   0.000012  -0.000003
     2  H   -0.000003   0.000015  -0.000003   0.000001  -0.000000   0.000000
     3  H    0.000018  -0.000004   0.000001   0.000000  -0.000000   0.000000
     4  C   -0.000476  -0.001227  -0.000013  -0.000000   0.000002   0.000000
     5  C    0.000295   0.000271  -0.000000  -0.000000   0.000000  -0.000000
     6  H    0.000018  -0.000017   0.000000   0.000000  -0.000000   0.000000
     7  H   -0.000027   0.000062   0.000000   0.000000  -0.000000   0.000000
     8  H    0.000046  -0.000026   0.000000   0.000000   0.000000  -0.000000
     9  C   -0.042184  -0.043008  -0.000000   0.000002   0.000049  -0.000003
    10  H   -0.001485  -0.001026  -0.000057  -0.000004  -0.000034   0.000006
    11  C    0.400868   0.401932  -0.000001  -0.000000   0.000001   0.000000
    12  H   -0.028437  -0.028525  -0.000000  -0.000000   0.000000  -0.000000
    13  H    0.590419  -0.036446   0.000000   0.000000   0.000000  -0.000000
    14  H   -0.036446   0.588153   0.000000  -0.000000  -0.000004   0.000000
    15  C    0.000000   0.000000   4.898365   0.406172   0.398880   0.398041
    16  H    0.000000  -0.000000   0.406172   0.566351  -0.026411  -0.026820
    17  H    0.000000  -0.000004   0.398880  -0.026411   0.595865  -0.038391
    18  H   -0.000000   0.000000   0.398041  -0.026820  -0.038391   0.597269
    19  C   -0.000007   0.000077   0.353010  -0.041709  -0.044674  -0.044130
    20  C    0.000002  -0.000004  -0.065456   0.003804  -0.001429  -0.001637
    21  H    0.000003  -0.000001   0.003788  -0.000115  -0.000035  -0.000062
    22  H   -0.000000   0.000000  -0.002725  -0.000036  -0.000445   0.002702
    23  H    0.000008  -0.000007  -0.002275  -0.000043   0.002931  -0.000533
    24  C    0.000002   0.000022  -0.042480  -0.002527  -0.001293  -0.000737
    25  H    0.000000  -0.000000  -0.007193   0.002425   0.000179   0.000208
    26  C    0.000007  -0.000001   0.003181   0.000142  -0.000076  -0.000120
    27  H   -0.000000  -0.000000  -0.000118  -0.000007  -0.000005   0.000022
    28  H   -0.000018   0.000014   0.000089   0.000005   0.000006  -0.000006
              19         20         21         22         23         24
     1  C    0.000439   0.000277   0.000040  -0.000016   0.000028  -0.062393
     2  H    0.000219  -0.000009  -0.000005   0.000000   0.000000  -0.006634
     3  H   -0.000062   0.000001   0.000010   0.000000  -0.000000   0.005219
     4  C    0.000181  -0.000002   0.000003   0.000001   0.000004   0.001795
     5  C   -0.000007  -0.000000  -0.000000   0.000000   0.000000  -0.000159
     6  H    0.000000  -0.000000   0.000000   0.000000  -0.000000   0.000001
     7  H    0.000002  -0.000000  -0.000000   0.000000  -0.000000   0.000016
     8  H   -0.000000   0.000000   0.000000  -0.000000   0.000000   0.000004
     9  C   -0.003034   0.000127  -0.000015  -0.000012   0.000295  -0.003988
    10  H    0.000415  -0.002514  -0.000665   0.000114  -0.000452   0.000791
    11  C    0.000003   0.000010  -0.000001  -0.000000   0.000012  -0.000035
    12  H   -0.000002  -0.000000  -0.000000   0.000000   0.000000  -0.000007
    13  H   -0.000007   0.000002   0.000003  -0.000000   0.000008   0.000002
    14  H    0.000077  -0.000004  -0.000001   0.000000  -0.000007   0.000022
    15  C    0.353010  -0.065456   0.003788  -0.002725  -0.002275  -0.042480
    16  H   -0.041709   0.003804  -0.000115  -0.000036  -0.000043  -0.002527
    17  H   -0.044674  -0.001429  -0.000035  -0.000445   0.002931  -0.001293
    18  H   -0.044130  -0.001637  -0.000062   0.002702  -0.000533  -0.000737
    19  C    4.920880   0.347576  -0.038787  -0.042055  -0.044794   0.707547
    20  C    0.347576   4.912731   0.406848   0.403153   0.399253  -0.042619
    21  H   -0.038787   0.406848   0.569732  -0.027029  -0.027438  -0.002407
    22  H   -0.042055   0.403153  -0.027029   0.580227  -0.035379   0.000047
    23  H   -0.044794   0.399253  -0.027438  -0.035379   0.590061  -0.000722
    24  C    0.707547  -0.042619  -0.002407   0.000047  -0.000722   4.935216
    25  H   -0.034959   0.003584   0.000052  -0.000119  -0.000123   0.400556
    26  C   -0.047597  -0.008661  -0.002152   0.000194   0.000389   0.342167
    27  H   -0.002706   0.000418  -0.000053   0.000073  -0.000035  -0.043039
    28  H    0.001501  -0.002624  -0.000754  -0.000149   0.000109  -0.049250
              25         26         27         28
     1  C   -0.003513   0.346743  -0.047501  -0.039069
     2  H    0.002762  -0.038825  -0.002558   0.005090
     3  H   -0.000042  -0.037345  -0.004011  -0.003781
     4  C    0.000193  -0.045790   0.004470  -0.002548
     5  C   -0.000042   0.003346  -0.000092  -0.000064
     6  H    0.000001  -0.000087   0.000001   0.000001
     7  H    0.000001  -0.000013   0.000001   0.000007
     8  H   -0.000000  -0.000038  -0.000002  -0.000011
     9  C    0.000115  -0.005574   0.000102   0.000494
    10  H   -0.000002  -0.002338   0.000323  -0.002770
    11  C   -0.000002  -0.000056   0.000000  -0.000047
    12  H    0.000000   0.000002   0.000000  -0.000002
    13  H    0.000000   0.000007  -0.000000  -0.000018
    14  H   -0.000000  -0.000001  -0.000000   0.000014
    15  C   -0.007193   0.003181  -0.000118   0.000089
    16  H    0.002425   0.000142  -0.000007   0.000005
    17  H    0.000179  -0.000076  -0.000005   0.000006
    18  H    0.000208  -0.000120   0.000022  -0.000006
    19  C   -0.034959  -0.047597  -0.002706   0.001501
    20  C    0.003584  -0.008661   0.000418  -0.002624
    21  H    0.000052  -0.002152  -0.000053  -0.000754
    22  H   -0.000119   0.000194   0.000073  -0.000149
    23  H   -0.000123   0.000389  -0.000035   0.000109
    24  C    0.400556   0.342167  -0.043039  -0.049250
    25  H    0.559505  -0.043289   0.000238   0.003421
    26  C   -0.043289   4.961386   0.417755   0.414473
    27  H    0.000238   0.417755   0.580233  -0.029066
    28  H    0.003421   0.414473  -0.029066   0.587201
 Mulliken charges:
               1
     1  C   -0.214551
     2  H    0.108908
     3  H    0.117469
     4  C    0.010872
     5  C   -0.346959
     6  H    0.117785
     7  H    0.118829
     8  H    0.116432
     9  C   -0.143368
    10  H    0.124932
    11  C   -0.353943
    12  H    0.114038
    13  H    0.117499
    14  H    0.119848
    15  C   -0.341124
    16  H    0.118779
    17  H    0.114871
    18  H    0.114195
    19  C    0.012673
    20  C   -0.352828
    21  H    0.119043
    22  H    0.121455
    23  H    0.118712
    24  C   -0.135095
    25  H    0.116046
    26  C   -0.257822
    27  H    0.125555
    28  H    0.117749
 Sum of Mulliken charges =  -0.00000
 Mulliken charges with hydrogens summed into heavy atoms:
               1
     1  C    0.011826
     4  C    0.010872
     5  C    0.006088
     9  C   -0.018436
    11  C   -0.002558
    15  C    0.006721
    19  C    0.012673
    20  C    0.006382
    24  C   -0.019050
    26  C   -0.014519
 Electronic spatial extent (au):  <R**2>=           2104.6340
 Charge=             -0.0000 electrons
 Dipole moment (field-independent basis, Debye):
    X=             -0.0600    Y=             -0.0056    Z=             -0.0694  Tot=              0.0919
 Quadrupole moment (field-independent basis, Debye-Ang):
   XX=            -64.4231   YY=            -64.2843   ZZ=            -65.4187
   XY=             -1.5940   XZ=              0.7448   YZ=             -0.4484
 Traceless Quadrupole moment (field-independent basis, Debye-Ang):
   XX=              0.2856   YY=              0.4244   ZZ=             -0.7100
   XY=             -1.5940   XZ=              0.7448   YZ=             -0.4484
 Octapole moment (field-independent basis, Debye-Ang**2):
  XXX=             -0.2674  YYY=              1.0511  ZZZ=              0.9544  XYY=              2.7693
  XXY=              3.8494  XXZ=              1.3831  XZZ=             -1.7124  YZZ=             -2.1029
  YYZ=              0.1460  XYZ=              0.9400
 Hexadecapole moment (field-independent basis, Debye-Ang**3):
 XXXX=          -1907.2805 YYYY=           -683.4920 ZZZZ=           -324.0972 XXXY=             -4.7718
 XXXZ=              9.9658 YYYX=             -4.8751 YYYZ=              2.1910 ZZZX=             -0.1092
 ZZZY=             -4.7110 XXYY=           -439.9481 XXZZ=           -381.5531 YYZZ=           -165.3464
 XXYZ=              3.6272 YYXZ=             -2.3804 ZZXY=              0.4207
 N-N= 5.290286508213D+02 E-N=-1.962855711879D+03  KE= 3.887426901447D+02
 No NMR shielding tensors so no spin-rotation constants.
 Leave Link  601 at Fri Sep 17 22:24:46 2021, MaxMem=   524288000 cpu:               0.3 elap:               0.6
 (Enter /opt/gaussian/g16_legacy/l9999.exe)
 1\1\GINC-TRUENO91\FOpt\RMP2-FC\6-31G(d,p)\C10H18\JRAMOS\17-Sep-2021\0\
 \#p opt mp2/6-31g(d,p)\\Conformer number 040. Energy MM = 29.379 kcal/
 mol\\0,1\C,2.2609033947,1.0654735656,-8.872372826\H,1.9949151819,0.003
 4338102,-8.93667718\H,1.9708661605,1.4917305057,-9.8398691687\C,3.7637
 85655,1.1704157385,-8.7465479344\C,4.4962185146,0.3947522462,-9.808418
 0924\H,5.5749799478,0.5148452116,-9.7618539014\H,4.2721507204,-0.67078
 31711,-9.7221364423\H,4.1660451681,0.7076166256,-10.8013949682\C,4.359
 0976794,1.9058775023,-7.7901034444\H,3.7232550657,2.4070683556,-7.0714
 396922\C,5.8274981041,2.1090690342,-7.5663972022\H,6.4460824589,1.5996
 508846,-8.3005475121\H,6.0767420556,3.1713041564,-7.5998660993\H,6.116
 8587446,1.7470444057,-6.5779722186\C,1.8462280841,0.6827580236,-4.0137
 605858\H,1.7605989153,-0.3727780057,-4.2672700309\H,2.805028167,0.8377
 038976,-3.5134798179\H,1.0672500564,0.9251815655,-3.2873154756\C,1.733
 5482134,1.5551490608,-5.2338039999\C,1.8476230253,3.0288989922,-4.9594
 006341\H,1.7487977356,3.6389167978,-5.8534942916\H,1.0762853113,3.3435
 175588,-4.2529723094\H,2.8109029996,3.2554512594,-4.4960706408\C,1.554
 5442435,1.0120941979,-6.4521137321\H,1.4859896744,-0.0724934185,-6.507
 4493618\C,1.4140214166,1.7111243193,-7.7726920063\H,0.3677787779,1.662
 4415703,-8.0928441346\H,1.6593045283,2.7706353097,-7.6964362969\\Versi
 on=EM64L-G16RevA.03\State=1-A\HF=-389.1534777\MP2=-390.5720967\RMSD=9.
 902e-09\RMSF=1.120e-06\Dipole=-0.0094679,0.0318181,0.0195616\PG=C01 [X
 (C10H18)]\\@


 TIMES HAVE CHANGED. IN THE BIBLE WHEN AN ASS
 SPOKE IT WAS CONSIDERED A MIRACLE.
 Job cpu time:       0 days  2 hours 15 minutes  8.3 seconds.
 Elapsed time:       0 days  2 hours 15 minutes 13.3 seconds.
 File lengths (MBytes):  RWF=     37 Int=      0 D2E=      0 Chk=      7 Scr=      1
 Normal termination of Gaussian 16 at Fri Sep 17 22:24:47 2021.
