 Entering Gaussian System, Link 0=/opt/gaussian/g16_legacy/g16
 Input=02-IsoP_030_gaussian.com
 Output=02-IsoP_030_gaussian.log
 Initial command:
 /opt/gaussian/g16_legacy/l1.exe "/scratch-local/jramos/2661521/Gau-7258.inp" -scrdir="/scratch-local/jramos/2661521/"
 Entering Link 1 = /opt/gaussian/g16_legacy/l1.exe PID=      7262.
  
 Copyright (c) 1988,1990,1992,1993,1995,1998,2003,2009,2016,
            Gaussian, Inc.  All Rights Reserved.
  
 This is part of the Gaussian(R) 16 program.  It is based on
 the Gaussian(R) 09 system (copyright 2009, Gaussian, Inc.),
 the Gaussian(R) 03 system (copyright 2003, Gaussian, Inc.),
 the Gaussian(R) 98 system (copyright 1998, Gaussian, Inc.),
 the Gaussian(R) 94 system (copyright 1995, Gaussian, Inc.),
 the Gaussian 92(TM) system (copyright 1992, Gaussian, Inc.),
 the Gaussian 90(TM) system (copyright 1990, Gaussian, Inc.),
 the Gaussian 88(TM) system (copyright 1988, Gaussian, Inc.),
 the Gaussian 86(TM) system (copyright 1986, Carnegie Mellon
 University), and the Gaussian 82(TM) system (copyright 1983,
 Carnegie Mellon University). Gaussian is a federally registered
 trademark of Gaussian, Inc.
  
 This software contains proprietary and confidential information,
 including trade secrets, belonging to Gaussian, Inc.
  
 This software is provided under written license and may be
 used, copied, transmitted, or stored only in accord with that
 written license.
  
 The following legend is applicable only to US Government
 contracts under FAR:
  
                    RESTRICTED RIGHTS LEGEND
  
 Use, reproduction and disclosure by the US Government is
 subject to restrictions as set forth in subparagraphs (a)
 and (c) of the Commercial Computer Software - Restricted
 Rights clause in FAR 52.227-19.
  
 Gaussian, Inc.
 340 Quinnipiac St., Bldg. 40, Wallingford CT 06492
  
  
 ---------------------------------------------------------------
 Warning -- This program may not be used in any manner that
 competes with the business of Gaussian, Inc. or will provide
 assistance to any competitor of Gaussian, Inc.  The licensee
 of this program is prohibited from giving any competitor of
 Gaussian, Inc. access to this program.  By using this program,
 the user acknowledges that Gaussian, Inc. is engaged in the
 business of creating and licensing software in the field of
 computational chemistry and represents and warrants to the
 licensee that it is not a competitor of Gaussian, Inc. and that
 it will not use this program in any manner prohibited above.
 ---------------------------------------------------------------
  

 Cite this work as:
 Gaussian 16, Revision A.03,
 M. J. Frisch, G. W. Trucks, H. B. Schlegel, G. E. Scuseria, 
 M. A. Robb, J. R. Cheeseman, G. Scalmani, V. Barone, 
 G. A. Petersson, H. Nakatsuji, X. Li, M. Caricato, A. V. Marenich, 
 J. Bloino, B. G. Janesko, R. Gomperts, B. Mennucci, H. P. Hratchian, 
 J. V. Ortiz, A. F. Izmaylov, J. L. Sonnenberg, D. Williams-Young, 
 F. Ding, F. Lipparini, F. Egidi, J. Goings, B. Peng, A. Petrone, 
 T. Henderson, D. Ranasinghe, V. G. Zakrzewski, J. Gao, N. Rega, 
 G. Zheng, W. Liang, M. Hada, M. Ehara, K. Toyota, R. Fukuda, 
 J. Hasegawa, M. Ishida, T. Nakajima, Y. Honda, O. Kitao, H. Nakai, 
 T. Vreven, K. Throssell, J. A. Montgomery, Jr., J. E. Peralta, 
 F. Ogliaro, M. J. Bearpark, J. J. Heyd, E. N. Brothers, K. N. Kudin, 
 V. N. Staroverov, T. A. Keith, R. Kobayashi, J. Normand, 
 K. Raghavachari, A. P. Rendell, J. C. Burant, S. S. Iyengar, 
 J. Tomasi, M. Cossi, J. M. Millam, M. Klene, C. Adamo, R. Cammi, 
 J. W. Ochterski, R. L. Martin, K. Morokuma, O. Farkas, 
 J. B. Foresman, and D. J. Fox, Gaussian, Inc., Wallingford CT, 2016.
 
 ******************************************
 Gaussian 16:  EM64L-G16RevA.03 25-Dec-2016
                17-Sep-2021 
 ******************************************
 %chk=02-IsoP_030_gaussian.chk
 %nproc=1
 Will use up to    1 processors via shared memory.
 %mem=4000Mb
 ---------------------
 #p opt mp2/6-31g(d,p)
 ---------------------
 1/18=20,19=15,38=1/1,3;
 2/9=110,12=2,17=6,18=5,40=1/2;
 3/5=1,6=6,7=101,11=9,25=1,30=1,71=1/1,2,3;
 4//1;
 5/5=2,38=5/2;
 8/6=4,10=2/1;
 9/15=2,16=-3/6;
 10/5=1/2;
 6/7=2,8=2,9=2,10=2/1;
 7/12=2/1,2,3,16;
 1/18=20,19=15/3(2);
 2/9=110/2;
 99//99;
 2/9=110/2;
 3/5=1,6=6,7=101,11=9,25=1,30=1,71=1/1,2,3;
 4/5=5,16=3,69=1/1;
 5/5=2,38=5/2;
 8/6=4,10=2/1;
 9/15=2,16=-3/6;
 10/5=1/2;
 7/12=2/1,2,3,16;
 1/18=20,19=15/3(-8);
 2/9=110/2;
 6/7=2,8=2,9=2,10=2/1;
 99//99;
 Leave Link    1 at Fri Sep 17 20:09:27 2021, MaxMem=   524288000 cpu:               0.0 elap:               0.1
 (Enter /opt/gaussian/g16_legacy/l101.exe)
 -------------------------------------------------
 Conformer number 030. Energy MM = 27.340 kcal/mol
 -------------------------------------------------
 Symbolic Z-matrix:
 Charge =  0 Multiplicity = 1
 C                     2.1809    1.14     -8.8872 
 H                     1.8749    0.0912   -8.9961 
 H                     2.0089    1.5819   -9.8747 
 C                     3.6639    1.2043   -8.5585 
 C                     4.3797    2.4743   -8.9406 
 H                     5.4195    2.2922   -9.2261 
 H                     3.9096    2.9459   -9.809 
 H                     4.3695    3.1879   -8.111 
 C                     4.2742    0.152    -7.9795 
 H                     3.6848   -0.7355   -7.7572 
 C                     5.7033    0.0662   -7.5469 
 H                     6.2611    0.9925   -7.6983 
 H                     5.7437   -0.1697   -6.4792 
 H                     6.2098   -0.734    -8.0949 
 C                     1.8785    5.6443   -8.0575 
 H                     2.2616    5.6968   -7.0336 
 H                     2.6843    5.9609   -8.7281 
 H                     1.0521    6.3562   -8.1428 
 C                     1.4219    4.2604   -8.4237 
 C                     0.8939    4.1125   -9.8242 
 H                     0.2196    3.2558   -9.9251 
 H                     0.3226    4.9992   -10.119 
 H                     1.7225    3.9908   -10.5305 
 C                     1.5391    3.2384   -7.552 
 H                     1.9378    3.4401   -6.5614 
 C                     1.2688    1.7848   -7.8293 
 H                     1.3826    1.2341   -6.8845 
 H                     0.2168    1.6557   -8.1174 
 
 ITRead=  0  0  0  0  0  0  0  0  0  0  0  0  0  0  0  0  0  0  0  0
 ITRead=  0  0  0  0  0  0  0  0
 MicOpt= -1 -1 -1 -1 -1 -1 -1 -1 -1 -1 -1 -1 -1 -1 -1 -1 -1 -1 -1 -1
 MicOpt= -1 -1 -1 -1 -1 -1 -1 -1
 NAtoms=     28 NQM=       28 NQMF=       0 NMMI=      0 NMMIF=      0
                NMic=       0 NMicF=      0.
                    Isotopes and Nuclear Properties:
 (Nuclear quadrupole moments (NQMom) in fm**2, nuclear magnetic moments (NMagM)
  in nuclear magnetons)

  Atom         1           2           3           4           5           6           7           8           9          10
 IAtWgt=          12           1           1          12          12           1           1           1          12           1
 AtmWgt=  12.0000000   1.0078250   1.0078250  12.0000000  12.0000000   1.0078250   1.0078250   1.0078250  12.0000000   1.0078250
 NucSpn=           0           1           1           0           0           1           1           1           0           1
 AtZEff=  -0.0000000  -0.0000000  -0.0000000  -0.0000000  -0.0000000  -0.0000000  -0.0000000  -0.0000000  -0.0000000  -0.0000000
 NQMom=    0.0000000   0.0000000   0.0000000   0.0000000   0.0000000   0.0000000   0.0000000   0.0000000   0.0000000   0.0000000
 NMagM=    0.0000000   2.7928460   2.7928460   0.0000000   0.0000000   2.7928460   2.7928460   2.7928460   0.0000000   2.7928460
 AtZNuc=   6.0000000   1.0000000   1.0000000   6.0000000   6.0000000   1.0000000   1.0000000   1.0000000   6.0000000   1.0000000

  Atom        11          12          13          14          15          16          17          18          19          20
 IAtWgt=          12           1           1           1          12           1           1           1          12          12
 AtmWgt=  12.0000000   1.0078250   1.0078250   1.0078250  12.0000000   1.0078250   1.0078250   1.0078250  12.0000000  12.0000000
 NucSpn=           0           1           1           1           0           1           1           1           0           0
 AtZEff=  -0.0000000  -0.0000000  -0.0000000  -0.0000000  -0.0000000  -0.0000000  -0.0000000  -0.0000000  -0.0000000  -0.0000000
 NQMom=    0.0000000   0.0000000   0.0000000   0.0000000   0.0000000   0.0000000   0.0000000   0.0000000   0.0000000   0.0000000
 NMagM=    0.0000000   2.7928460   2.7928460   2.7928460   0.0000000   2.7928460   2.7928460   2.7928460   0.0000000   0.0000000
 AtZNuc=   6.0000000   1.0000000   1.0000000   1.0000000   6.0000000   1.0000000   1.0000000   1.0000000   6.0000000   6.0000000

  Atom        21          22          23          24          25          26          27          28
 IAtWgt=           1           1           1          12           1          12           1           1
 AtmWgt=   1.0078250   1.0078250   1.0078250  12.0000000   1.0078250  12.0000000   1.0078250   1.0078250
 NucSpn=           1           1           1           0           1           0           1           1
 AtZEff=  -0.0000000  -0.0000000  -0.0000000  -0.0000000  -0.0000000  -0.0000000  -0.0000000  -0.0000000
 NQMom=    0.0000000   0.0000000   0.0000000   0.0000000   0.0000000   0.0000000   0.0000000   0.0000000
 NMagM=    2.7928460   2.7928460   2.7928460   0.0000000   2.7928460   0.0000000   2.7928460   2.7928460
 AtZNuc=   1.0000000   1.0000000   1.0000000   6.0000000   1.0000000   6.0000000   1.0000000   1.0000000
 Leave Link  101 at Fri Sep 17 20:09:27 2021, MaxMem=   524288000 cpu:               0.3 elap:               0.3
 (Enter /opt/gaussian/g16_legacy/l103.exe)

 GradGradGradGradGradGradGradGradGradGradGradGradGradGradGradGradGradGrad
 Berny optimization.
 Initialization pass.
                           ----------------------------
                           !    Initial Parameters    !
                           ! (Angstroms and Degrees)  !
 --------------------------                            --------------------------
 ! Name  Definition              Value          Derivative Info.                !
 --------------------------------------------------------------------------------
 ! R1    R(1,2)                  1.0979         estimate D2E/DX2                !
 ! R2    R(1,3)                  1.0955         estimate D2E/DX2                !
 ! R3    R(1,4)                  1.5204         estimate D2E/DX2                !
 ! R4    R(1,26)                 1.5385         estimate D2E/DX2                !
 ! R5    R(4,5)                  1.5071         estimate D2E/DX2                !
 ! R6    R(4,9)                  1.3472         estimate D2E/DX2                !
 ! R7    R(5,6)                  1.0936         estimate D2E/DX2                !
 ! R8    R(5,7)                  1.0943         estimate D2E/DX2                !
 ! R9    R(5,8)                  1.0943         estimate D2E/DX2                !
 ! R10   R(9,10)                 1.0883         estimate D2E/DX2                !
 ! R11   R(9,11)                 1.4956         estimate D2E/DX2                !
 ! R12   R(11,12)                1.0918         estimate D2E/DX2                !
 ! R13   R(11,13)                1.0942         estimate D2E/DX2                !
 ! R14   R(11,14)                1.0942         estimate D2E/DX2                !
 ! R15   R(15,16)                1.0945         estimate D2E/DX2                !
 ! R16   R(15,17)                1.0951         estimate D2E/DX2                !
 ! R17   R(15,18)                1.0941         estimate D2E/DX2                !
 ! R18   R(15,19)                1.5026         estimate D2E/DX2                !
 ! R19   R(19,20)                1.504          estimate D2E/DX2                !
 ! R20   R(19,24)                1.3484         estimate D2E/DX2                !
 ! R21   R(20,21)                1.0949         estimate D2E/DX2                !
 ! R22   R(20,22)                1.0952         estimate D2E/DX2                !
 ! R23   R(20,23)                1.0956         estimate D2E/DX2                !
 ! R24   R(24,25)                1.0867         estimate D2E/DX2                !
 ! R25   R(24,26)                1.5043         estimate D2E/DX2                !
 ! R26   R(26,27)                1.0995         estimate D2E/DX2                !
 ! R27   R(26,28)                1.0983         estimate D2E/DX2                !
 ! A1    A(2,1,3)              104.6059         estimate D2E/DX2                !
 ! A2    A(2,1,4)              109.4935         estimate D2E/DX2                !
 ! A3    A(2,1,26)             107.6578         estimate D2E/DX2                !
 ! A4    A(3,1,4)              109.3288         estimate D2E/DX2                !
 ! A5    A(3,1,26)             110.9599         estimate D2E/DX2                !
 ! A6    A(4,1,26)             114.3248         estimate D2E/DX2                !
 ! A7    A(1,4,5)              116.3668         estimate D2E/DX2                !
 ! A8    A(1,4,9)              120.1162         estimate D2E/DX2                !
 ! A9    A(5,4,9)              123.5055         estimate D2E/DX2                !
 ! A10   A(4,5,6)              112.1777         estimate D2E/DX2                !
 ! A11   A(4,5,7)              111.1201         estimate D2E/DX2                !
 ! A12   A(4,5,8)              110.6634         estimate D2E/DX2                !
 ! A13   A(6,5,7)              105.8461         estimate D2E/DX2                !
 ! A14   A(6,5,8)              108.383          estimate D2E/DX2                !
 ! A15   A(7,5,8)              108.4551         estimate D2E/DX2                !
 ! A16   A(4,9,10)             118.6463         estimate D2E/DX2                !
 ! A17   A(4,9,11)             127.0117         estimate D2E/DX2                !
 ! A18   A(10,9,11)            114.3066         estimate D2E/DX2                !
 ! A19   A(9,11,12)            113.5399         estimate D2E/DX2                !
 ! A20   A(9,11,13)            109.2622         estimate D2E/DX2                !
 ! A21   A(9,11,14)            109.8415         estimate D2E/DX2                !
 ! A22   A(12,11,13)           107.4187         estimate D2E/DX2                !
 ! A23   A(12,11,14)           108.3317         estimate D2E/DX2                !
 ! A24   A(13,11,14)           108.2976         estimate D2E/DX2                !
 ! A25   A(16,15,17)           107.5444         estimate D2E/DX2                !
 ! A26   A(16,15,18)           107.8252         estimate D2E/DX2                !
 ! A27   A(16,15,19)           112.2433         estimate D2E/DX2                !
 ! A28   A(17,15,18)           108.6589         estimate D2E/DX2                !
 ! A29   A(17,15,19)           109.9151         estimate D2E/DX2                !
 ! A30   A(18,15,19)           110.5336         estimate D2E/DX2                !
 ! A31   A(15,19,20)           115.0993         estimate D2E/DX2                !
 ! A32   A(15,19,24)           120.9384         estimate D2E/DX2                !
 ! A33   A(20,19,24)           123.9157         estimate D2E/DX2                !
 ! A34   A(19,20,21)           112.2692         estimate D2E/DX2                !
 ! A35   A(19,20,22)           110.7414         estimate D2E/DX2                !
 ! A36   A(19,20,23)           110.2264         estimate D2E/DX2                !
 ! A37   A(21,20,22)           106.7036         estimate D2E/DX2                !
 ! A38   A(21,20,23)           108.6302         estimate D2E/DX2                !
 ! A39   A(22,20,23)           108.1149         estimate D2E/DX2                !
 ! A40   A(19,24,25)           118.7195         estimate D2E/DX2                !
 ! A41   A(19,24,26)           126.6997         estimate D2E/DX2                !
 ! A42   A(25,24,26)           114.413          estimate D2E/DX2                !
 ! A43   A(1,26,24)            115.1649         estimate D2E/DX2                !
 ! A44   A(1,26,27)            108.6391         estimate D2E/DX2                !
 ! A45   A(1,26,28)            109.7682         estimate D2E/DX2                !
 ! A46   A(24,26,27)           107.8778         estimate D2E/DX2                !
 ! A47   A(24,26,28)           109.5138         estimate D2E/DX2                !
 ! A48   A(27,26,28)           105.4063         estimate D2E/DX2                !
 ! D1    D(2,1,4,5)            154.7637         estimate D2E/DX2                !
 ! D2    D(2,1,4,9)            -24.0436         estimate D2E/DX2                !
 ! D3    D(3,1,4,5)             40.7067         estimate D2E/DX2                !
 ! D4    D(3,1,4,9)           -138.1007         estimate D2E/DX2                !
 ! D5    D(26,1,4,5)           -84.3629         estimate D2E/DX2                !
 ! D6    D(26,1,4,9)            96.8298         estimate D2E/DX2                !
 ! D7    D(2,1,26,24)         -179.6331         estimate D2E/DX2                !
 ! D8    D(2,1,26,27)           59.2743         estimate D2E/DX2                !
 ! D9    D(2,1,26,28)          -55.5065         estimate D2E/DX2                !
 ! D10   D(3,1,26,24)          -65.7214         estimate D2E/DX2                !
 ! D11   D(3,1,26,27)          173.186          estimate D2E/DX2                !
 ! D12   D(3,1,26,28)           58.4052         estimate D2E/DX2                !
 ! D13   D(4,1,26,24)           58.4819         estimate D2E/DX2                !
 ! D14   D(4,1,26,27)          -62.6107         estimate D2E/DX2                !
 ! D15   D(4,1,26,28)         -177.3914         estimate D2E/DX2                !
 ! D16   D(1,4,5,6)           -147.0665         estimate D2E/DX2                !
 ! D17   D(1,4,5,7)            -28.8007         estimate D2E/DX2                !
 ! D18   D(1,4,5,8)             91.7544         estimate D2E/DX2                !
 ! D19   D(9,4,5,6)             31.6963         estimate D2E/DX2                !
 ! D20   D(9,4,5,7)            149.962          estimate D2E/DX2                !
 ! D21   D(9,4,5,8)            -89.4828         estimate D2E/DX2                !
 ! D22   D(1,4,9,10)             0.0871         estimate D2E/DX2                !
 ! D23   D(1,4,9,11)          -177.6138         estimate D2E/DX2                !
 ! D24   D(5,4,9,10)          -178.6313         estimate D2E/DX2                !
 ! D25   D(5,4,9,11)             3.6677         estimate D2E/DX2                !
 ! D26   D(4,9,11,12)            2.7027         estimate D2E/DX2                !
 ! D27   D(4,9,11,13)          122.5787         estimate D2E/DX2                !
 ! D28   D(4,9,11,14)         -118.7582         estimate D2E/DX2                !
 ! D29   D(10,9,11,12)        -175.0835         estimate D2E/DX2                !
 ! D30   D(10,9,11,13)         -55.2075         estimate D2E/DX2                !
 ! D31   D(10,9,11,14)          63.4556         estimate D2E/DX2                !
 ! D32   D(16,15,19,20)       -179.4661         estimate D2E/DX2                !
 ! D33   D(16,15,19,24)         -1.8549         estimate D2E/DX2                !
 ! D34   D(17,15,19,20)        -59.8251         estimate D2E/DX2                !
 ! D35   D(17,15,19,24)        117.7861         estimate D2E/DX2                !
 ! D36   D(18,15,19,20)         60.1132         estimate D2E/DX2                !
 ! D37   D(18,15,19,24)       -122.2756         estimate D2E/DX2                !
 ! D38   D(15,19,20,21)       -156.6677         estimate D2E/DX2                !
 ! D39   D(15,19,20,22)        -37.5119         estimate D2E/DX2                !
 ! D40   D(15,19,20,23)         82.0821         estimate D2E/DX2                !
 ! D41   D(24,19,20,21)         25.8013         estimate D2E/DX2                !
 ! D42   D(24,19,20,22)        144.9571         estimate D2E/DX2                !
 ! D43   D(24,19,20,23)        -95.4488         estimate D2E/DX2                !
 ! D44   D(15,19,24,25)          2.2273         estimate D2E/DX2                !
 ! D45   D(15,19,24,26)       -172.7829         estimate D2E/DX2                !
 ! D46   D(20,19,24,25)        179.6205         estimate D2E/DX2                !
 ! D47   D(20,19,24,26)          4.6103         estimate D2E/DX2                !
 ! D48   D(19,24,26,1)          62.9988         estimate D2E/DX2                !
 ! D49   D(19,24,26,27)       -175.4955         estimate D2E/DX2                !
 ! D50   D(19,24,26,28)        -61.2614         estimate D2E/DX2                !
 ! D51   D(25,24,26,1)        -112.196          estimate D2E/DX2                !
 ! D52   D(25,24,26,27)          9.3097         estimate D2E/DX2                !
 ! D53   D(25,24,26,28)        123.5438         estimate D2E/DX2                !
 --------------------------------------------------------------------------------
 Trust Radius=3.00D-01 FncErr=1.00D-07 GrdErr=1.00D-07 EigMax=2.50D+02 EigMin=1.00D-04
 Number of steps in this run=    138 maximum allowed number of steps=    168.
 GradGradGradGradGradGradGradGradGradGradGradGradGradGradGradGradGradGrad

 Leave Link  103 at Fri Sep 17 20:09:27 2021, MaxMem=   524288000 cpu:               0.0 elap:               0.0
 (Enter /opt/gaussian/g16_legacy/l202.exe)
                          Input orientation:                          
 ---------------------------------------------------------------------
 Center     Atomic      Atomic             Coordinates (Angstroms)
 Number     Number       Type             X           Y           Z
 ---------------------------------------------------------------------
      1          6           0        2.180900    1.140000   -8.887200
      2          1           0        1.874900    0.091200   -8.996100
      3          1           0        2.008900    1.581900   -9.874700
      4          6           0        3.663900    1.204300   -8.558500
      5          6           0        4.379700    2.474300   -8.940600
      6          1           0        5.419500    2.292200   -9.226100
      7          1           0        3.909600    2.945900   -9.809000
      8          1           0        4.369500    3.187900   -8.111000
      9          6           0        4.274200    0.152000   -7.979500
     10          1           0        3.684800   -0.735500   -7.757200
     11          6           0        5.703300    0.066200   -7.546900
     12          1           0        6.261100    0.992500   -7.698300
     13          1           0        5.743700   -0.169700   -6.479200
     14          1           0        6.209800   -0.734000   -8.094900
     15          6           0        1.878500    5.644300   -8.057500
     16          1           0        2.261600    5.696800   -7.033600
     17          1           0        2.684300    5.960900   -8.728100
     18          1           0        1.052100    6.356200   -8.142800
     19          6           0        1.421900    4.260400   -8.423700
     20          6           0        0.893900    4.112500   -9.824200
     21          1           0        0.219600    3.255800   -9.925100
     22          1           0        0.322600    4.999200  -10.119000
     23          1           0        1.722500    3.990800  -10.530500
     24          6           0        1.539100    3.238400   -7.552000
     25          1           0        1.937800    3.440100   -6.561400
     26          6           0        1.268800    1.784800   -7.829300
     27          1           0        1.382600    1.234100   -6.884500
     28          1           0        0.216800    1.655700   -8.117400
 ---------------------------------------------------------------------
                    Distance matrix (angstroms):
                    1          2          3          4          5
     1  C    0.000000
     2  H    1.097942   0.000000
     3  H    1.095452   1.735535   0.000000
     4  C    1.520351   2.151977   2.148020   0.000000
     5  C    2.572534   3.457784   2.699928   1.507073   0.000000
     6  H    3.454120   4.178695   3.543642   2.170564   1.093551
     7  H    2.664469   3.598628   2.340400   2.158075   1.094312
     8  H    3.096183   4.073817   3.355936   2.152393   1.094333
     9  C    2.486356   2.606494   3.281460   1.347235   2.515536
    10  H    2.656335   2.343938   3.558481   2.098891   3.490865
    11  C    3.918769   4.093587   4.622185   2.545144   3.081114
    12  H    4.252443   4.662122   4.813036   2.744130   2.697908
    13  H    4.495255   4.622820   5.342869   3.246064   3.861311
    14  H    4.513496   4.503829   5.116507   3.233193   3.789151
    15  C    4.590051   5.631865   4.452226   4.811679   4.133372
    16  H    4.920038   5.951781   5.006806   4.947153   4.302035
    17  H    4.849722   5.931301   4.576734   4.859385   3.882772
    18  H    5.388605   6.376154   5.168064   5.791060   5.174800
    19  C    3.244659   4.232621   3.102311   3.792688   3.493697
    20  C    3.371957   4.221252   2.765811   4.211000   3.951614
    21  H    3.066031   3.690224   2.450730   4.235499   4.345850
    22  H    4.456909   5.268681   3.818538   5.291570   4.921769
    23  H    3.322292   4.193386   2.512946   3.927136   3.447936
    24  C    2.568647   3.478944   2.891304   3.108919   3.252855
    25  H    3.280077   4.140876   3.799463   3.459282   3.543478
    26  C    1.538456   2.144076   2.184623   2.570062   3.374625
    27  H    2.157996   2.451007   3.074819   2.829752   3.840345
    28  H    2.171688   2.443168   2.511010   3.504401   4.321747
                    6          7          8          9         10
     6  H    0.000000
     7  H    1.745535   0.000000
     8  H    1.774324   1.775747   0.000000
     9  C    2.728769   3.359446   3.040241   0.000000
    10  H    3.786003   4.220560   3.998382   1.088332   0.000000
    11  C    2.802736   4.077638   3.441256   1.495604   2.182038
    12  H    2.175243   3.714886   2.927158   2.175611   3.102704
    13  H    3.702907   4.915125   3.978024   2.124576   2.488470
    14  H    3.325970   4.665911   4.332235   2.131868   2.547483
    15  C    5.014068   3.804534   3.498835   5.992564   6.637375
    16  H    5.135240   4.241014   3.449437   5.974119   6.627487
    17  H    4.603117   3.429275   3.303065   6.068896   6.839987
    18  H    6.063317   4.750966   4.587404   6.992903   7.574431
    19  C    4.527523   3.136179   3.152203   5.021143   5.524849
    20  C    4.914496   3.233517   3.983684   5.524030   5.963616
    21  H    5.334425   3.704810   4.529596   5.464313   5.712957
    22  H    5.839821   4.144721   4.867265   6.609686   7.054734
    23  H    4.272530   2.528989   3.674947   5.268317   5.820629
    24  C    4.330752   3.286164   2.885515   4.146009   4.520842
    25  H    4.532167   3.831336   2.894483   4.275672   4.681622
    26  C    4.408720   3.498741   3.415023   3.423598   3.492015
    27  H    4.785314   4.227137   3.774018   3.275869   3.152944
    28  H    5.357465   4.261795   4.426352   4.329275   4.227837
                   11         12         13         14         15
    11  C    0.000000
    12  H    1.091831   0.000000
    13  H    1.094196   1.761992   0.000000
    14  H    1.094151   1.772209   1.773745   0.000000
    15  C    6.782699   6.401207   7.157751   7.710011   0.000000
    16  H    6.619096   6.210335   6.844575   7.620356   1.094483
    17  H    6.727338   6.207978   7.211223   7.592877   1.095104
    18  H    7.845563   7.490029   8.207682   8.767845   1.094082
    19  C    6.057267   5.884151   6.487282   6.926480   1.502586
    20  C    6.684981   6.562064   7.283325   7.398502   2.537140
    21  H    6.774980   6.825019   7.356899   7.426347   3.456127
    22  H    7.739646   7.561694   8.327905   8.463196   2.662097
    23  H    6.336491   6.132703   7.063486   6.956417   2.978947
    24  C    5.234830   5.230942   5.517672   6.155497   2.481749
    25  H    5.151058   5.096490   5.246169   6.166418   2.664644
    26  C    4.764255   5.056477   5.066317   5.552331   3.914020
    27  H    4.524512   4.951808   4.599360   5.351668   4.590393
    28  H    5.740528   6.095001   6.046686   6.451916   4.321315
                   16         17         18         19         20
    16  H    0.000000
    17  H    1.766283   0.000000
    18  H    1.768622   1.778459   0.000000
    19  C    2.168114   2.139629   2.146633   0.000000
    20  C    3.488274   2.797061   2.808260   1.504014   0.000000
    21  H    4.299886   3.850340   3.671802   2.170011   1.094896
    22  H    3.710264   2.904668   2.505790   2.151355   1.095229
    23  H    3.928024   2.838133   3.427195   2.145146   1.095559
    24  C    2.614283   3.179104   3.210435   1.348362   2.518576
    25  H    2.328200   3.406800   3.433501   2.099335   3.491090
    26  C    4.113701   4.500144   4.587258   2.550558   3.088424
    27  H    4.550886   5.237931   5.284738   3.395464   4.143169
    28  H    4.656857   4.999626   4.774209   2.886269   3.067164
                   21         22         23         24         25
    21  H    0.000000
    22  H    1.757171   0.000000
    23  H    1.779169   1.773675   0.000000
    24  C    2.715324   3.342122   3.077532   0.000000
    25  H    3.781621   4.206683   4.012902   1.086707   0.000000
    26  C    2.767136   4.058373   3.516925   1.504297   2.189783
    27  H    3.832113   5.075586   4.583475   2.118317   2.297624
    28  H    2.414147   3.898280   3.680065   2.138479   2.926954
                   26         27         28
    26  C    0.000000
    27  H    1.099485   0.000000
    28  H    1.098350   1.748393   0.000000
 Stoichiometry    C10H18
 Framework group  C1[X(C10H18)]
 Deg. of freedom    78
 Full point group                 C1      NOp   1
 Largest Abelian subgroup         C1      NOp   1
 Largest concise Abelian subgroup C1      NOp   1
                         Standard orientation:                         
 ---------------------------------------------------------------------
 Center     Atomic      Atomic             Coordinates (Angstroms)
 Number     Number       Type             X           Y           Z
 ---------------------------------------------------------------------
      1          6           0        0.570801    1.317011    0.465280
      2          1           0        1.163494    2.235685    0.566420
      3          1           0        0.004638    1.249158    1.400625
      4          6           0        1.503253    0.121382    0.353599
      5          6           0        0.942431   -1.207807    0.789495
      6          1           0        1.706956   -1.854106    1.229555
      7          1           0        0.178776   -1.079123    1.562664
      8          1           0        0.492142   -1.733609   -0.058053
      9          6           0        2.763874    0.286574   -0.092032
     10          1           0        3.093734    1.287039   -0.365399
     11          6           0        3.789228   -0.780419   -0.308844
     12          1           0        3.418302   -1.788186   -0.111576
     13          1           0        4.124389   -0.752727   -1.350076
     14          1           0        4.654878   -0.600055    0.335582
     15          6           0       -2.957186   -1.433703   -0.562069
     16          1           0       -2.629779   -1.848320   -1.520605
     17          1           0       -2.768449   -2.190457    0.206667
     18          1           0       -4.035415   -1.258651   -0.623664
     19          6           0       -2.235661   -0.161849   -0.216301
     20          6           0       -2.627972    0.457407    1.096966
     21          1           0       -2.414727    1.530837    1.129691
     22          1           0       -3.703006    0.344510    1.273271
     23          1           0       -2.094680   -0.030617    1.920180
     24          6           0       -1.275744    0.332178   -1.024124
     25          1           0       -1.056306   -0.187643   -1.952868
     26          6           0       -0.371964    1.499844   -0.736641
     27          1           0        0.235076    1.685834   -1.634293
     28          1           0       -0.976385    2.406707   -0.600087
 ---------------------------------------------------------------------
 Rotational constants (GHZ):           2.3067832           0.6543418           0.6010701
 Leave Link  202 at Fri Sep 17 20:09:27 2021, MaxMem=   524288000 cpu:               0.0 elap:               0.0
 (Enter /opt/gaussian/g16_legacy/l301.exe)
 Standard basis: 6-31G(d,p) (6D, 7F)
 Ernie: Thresh=  0.10000D-02 Tol=  0.10000D-05 Strict=F.
 There are   240 symmetry adapted cartesian basis functions of A   symmetry.
 There are   240 symmetry adapted basis functions of A   symmetry.
   240 basis functions,   406 primitive gaussians,   240 cartesian basis functions
    39 alpha electrons       39 beta electrons
       nuclear repulsion energy       532.6326412883 Hartrees.
 IExCor=    0 DFT=F Ex=HF Corr=None ExCW=0 ScaHFX=  1.000000
 ScaDFX=  1.000000  1.000000  1.000000  1.000000 ScalE2=  1.000000  1.000000
 IRadAn=      5 IRanWt=     -1 IRanGd=            0 ICorTp=0 IEmpDi=  4
 NAtoms=   28 NActive=   28 NUniq=   28 SFac= 1.00D+00 NAtFMM=   60 NAOKFM=F Big=F
 Integral buffers will be    131072 words long.
 Raffenetti 1 integral format.
 Two-electron integral symmetry is turned on.
 Leave Link  301 at Fri Sep 17 20:09:28 2021, MaxMem=   524288000 cpu:               0.1 elap:               0.1
 (Enter /opt/gaussian/g16_legacy/l302.exe)
 NPDir=0 NMtPBC=     1 NCelOv=     1 NCel=       1 NClECP=     1 NCelD=      1
         NCelK=      1 NCelE2=     1 NClLst=     1 CellRange=     0.0.
 One-electron integrals computed using PRISM.
 One-electron integral symmetry used in STVInt
 NBasis=   240 RedAO= T EigKep=  2.32D-03  NBF=   240
 NBsUse=   240 1.00D-06 EigRej= -1.00D+00 NBFU=   240
 Leave Link  302 at Fri Sep 17 20:09:28 2021, MaxMem=   524288000 cpu:               0.3 elap:               0.3
 (Enter /opt/gaussian/g16_legacy/l303.exe)
 DipDrv:  MaxL=1.
 Leave Link  303 at Fri Sep 17 20:09:28 2021, MaxMem=   524288000 cpu:               0.1 elap:               0.1
 (Enter /opt/gaussian/g16_legacy/l401.exe)
 ExpMin= 1.61D-01 ExpMax= 3.05D+03 ExpMxC= 4.57D+02 IAcc=3 IRadAn=         5 AccDes= 0.00D+00
 Harris functional with IExCor=  205 and IRadAn=       5 diagonalized for initial guess.
 HarFok:  IExCor=  205 AccDes= 0.00D+00 IRadAn=         5 IDoV= 1 UseB2=F ITyADJ=14
 ICtDFT=  3500011 ScaDFX=  1.000000  1.000000  1.000000  1.000000
 FoFCou: FMM=F IPFlag=           0 FMFlag=      100000 FMFlg1=           0
         NFxFlg=           0 DoJE=T BraDBF=F KetDBF=T FulRan=T
         wScrn=  0.000000 ICntrl=       500 IOpCl=  0 I1Cent=   200000004 NGrid=           0
         NMat0=    1 NMatS0=      1 NMatT0=    0 NMatD0=    1 NMtDS0=    0 NMtDT0=    0
 Petite list used in FoFCou.
 Harris En= -390.106884792801    
 JPrj=0 DoOrth=F DoCkMO=F.
 Leave Link  401 at Fri Sep 17 20:09:39 2021, MaxMem=   524288000 cpu:              11.5 elap:              11.5
 (Enter /opt/gaussian/g16_legacy/l502.exe)
 Keep R1 ints in memory in canonical form, NReq=425198025.
 FoFCou: FMM=F IPFlag=           0 FMFlag=           0 FMFlg1=           0
         NFxFlg=           0 DoJE=F BraDBF=F KetDBF=F FulRan=T
         wScrn=  0.000000 ICntrl=       600 IOpCl=  0 I1Cent=           0 NGrid=           0
         NMat0=    1 NMatS0=  28920 NMatT0=    0 NMatD0=    1 NMtDS0=    0 NMtDT0=    0
 Symmetry not used in FoFCou.
 Two-electron integral symmetry not used.
 Closed shell SCF:
 Using DIIS extrapolation, IDIIS=  1040.
 NGot=   524288000 LenX=   105970886 LenY=   105912845
 Requested convergence on RMS density matrix=1.00D-08 within 128 cycles.
 Requested convergence on MAX density matrix=1.00D-06.
 Requested convergence on             energy=1.00D-06.
 No special actions if energy rises.

 Cycle   1  Pass 1  IDiag  1:
 E= -388.523095038475    
 DIIS: error= 5.25D-02 at cycle   1 NSaved=   1.
 NSaved= 1 IEnMin= 1 EnMin= -388.523095038475     IErMin= 1 ErrMin= 5.25D-02
 ErrMax= 5.25D-02  0.00D+00 EMaxC= 1.00D-01 BMatC= 8.11D-01 BMatP= 8.11D-01
 IDIUse=3 WtCom= 4.75D-01 WtEn= 5.25D-01
 Coeff-Com:  0.100D+01
 Coeff-En:   0.100D+01
 Coeff:      0.100D+01
 Gap=     0.505 Goal=   None    Shift=    0.000
 GapD=    0.505 DampG=2.000 DampE=0.500 DampFc=1.0000 IDamp=-1.
 RMSDP=4.05D-03 MaxDP=1.14D-01              OVMax= 1.29D-01

 Cycle   2  Pass 1  IDiag  1:
 E= -389.057681833862     Delta-E=       -0.534586795387 Rises=F Damp=F
 DIIS: error= 1.53D-02 at cycle   2 NSaved=   2.
 NSaved= 2 IEnMin= 2 EnMin= -389.057681833862     IErMin= 2 ErrMin= 1.53D-02
 ErrMax= 1.53D-02  0.00D+00 EMaxC= 1.00D-01 BMatC= 9.47D-02 BMatP= 8.11D-01
 IDIUse=3 WtCom= 8.47D-01 WtEn= 1.53D-01
 Coeff-Com:  0.192D+00 0.808D+00
 Coeff-En:   0.000D+00 0.100D+01
 Coeff:      0.163D+00 0.837D+00
 Gap=     0.534 Goal=   None    Shift=    0.000
 RMSDP=1.82D-03 MaxDP=3.17D-02 DE=-5.35D-01 OVMax= 5.00D-02

 Cycle   3  Pass 1  IDiag  1:
 E= -389.142309960706     Delta-E=       -0.084628126845 Rises=F Damp=F
 DIIS: error= 2.80D-03 at cycle   3 NSaved=   3.
 NSaved= 3 IEnMin= 3 EnMin= -389.142309960706     IErMin= 3 ErrMin= 2.80D-03
 ErrMax= 2.80D-03  0.00D+00 EMaxC= 1.00D-01 BMatC= 4.32D-03 BMatP= 9.47D-02
 IDIUse=3 WtCom= 9.72D-01 WtEn= 2.80D-02
 Coeff-Com: -0.221D-01 0.126D+00 0.896D+00
 Coeff-En:   0.000D+00 0.000D+00 0.100D+01
 Coeff:     -0.215D-01 0.123D+00 0.899D+00
 Gap=     0.490 Goal=   None    Shift=    0.000
 RMSDP=3.13D-04 MaxDP=8.64D-03 DE=-8.46D-02 OVMax= 1.33D-02

 Cycle   4  Pass 1  IDiag  1:
 E= -389.146975479451     Delta-E=       -0.004665518745 Rises=F Damp=F
 DIIS: error= 6.95D-04 at cycle   4 NSaved=   4.
 NSaved= 4 IEnMin= 4 EnMin= -389.146975479451     IErMin= 4 ErrMin= 6.95D-04
 ErrMax= 6.95D-04  0.00D+00 EMaxC= 1.00D-01 BMatC= 2.16D-04 BMatP= 4.32D-03
 IDIUse=3 WtCom= 9.93D-01 WtEn= 6.95D-03
 Coeff-Com: -0.793D-02 0.128D-01 0.208D+00 0.787D+00
 Coeff-En:   0.000D+00 0.000D+00 0.000D+00 0.100D+01
 Coeff:     -0.787D-02 0.127D-01 0.207D+00 0.788D+00
 Gap=     0.488 Goal=   None    Shift=    0.000
 RMSDP=9.40D-05 MaxDP=2.79D-03 DE=-4.67D-03 OVMax= 5.21D-03

 Cycle   5  Pass 1  IDiag  1:
 E= -389.147212775670     Delta-E=       -0.000237296218 Rises=F Damp=F
 DIIS: error= 2.98D-04 at cycle   5 NSaved=   5.
 NSaved= 5 IEnMin= 5 EnMin= -389.147212775670     IErMin= 5 ErrMin= 2.98D-04
 ErrMax= 2.98D-04  0.00D+00 EMaxC= 1.00D-01 BMatC= 2.32D-05 BMatP= 2.16D-04
 IDIUse=3 WtCom= 9.97D-01 WtEn= 2.98D-03
 Coeff-Com:  0.161D-02-0.144D-01-0.786D-01 0.119D+00 0.972D+00
 Coeff-En:   0.000D+00 0.000D+00 0.000D+00 0.000D+00 0.100D+01
 Coeff:      0.161D-02-0.143D-01-0.783D-01 0.119D+00 0.972D+00
 Gap=     0.489 Goal=   None    Shift=    0.000
 RMSDP=3.70D-05 MaxDP=8.99D-04 DE=-2.37D-04 OVMax= 1.61D-03

 Cycle   6  Pass 1  IDiag  1:
 E= -389.147245790498     Delta-E=       -0.000033014829 Rises=F Damp=F
 DIIS: error= 4.39D-05 at cycle   6 NSaved=   6.
 NSaved= 6 IEnMin= 6 EnMin= -389.147245790498     IErMin= 6 ErrMin= 4.39D-05
 ErrMax= 4.39D-05  0.00D+00 EMaxC= 1.00D-01 BMatC= 1.09D-06 BMatP= 2.32D-05
 IDIUse=1 WtCom= 1.00D+00 WtEn= 0.00D+00
 Coeff-Com:  0.864D-03-0.398D-02-0.296D-01-0.326D-01 0.161D+00 0.904D+00
 Coeff:      0.864D-03-0.398D-02-0.296D-01-0.326D-01 0.161D+00 0.904D+00
 Gap=     0.489 Goal=   None    Shift=    0.000
 RMSDP=8.50D-06 MaxDP=2.23D-04 DE=-3.30D-05 OVMax= 3.95D-04

 Cycle   7  Pass 1  IDiag  1:
 E= -389.147247505189     Delta-E=       -0.000001714691 Rises=F Damp=F
 DIIS: error= 9.87D-06 at cycle   7 NSaved=   7.
 NSaved= 7 IEnMin= 7 EnMin= -389.147247505189     IErMin= 7 ErrMin= 9.87D-06
 ErrMax= 9.87D-06  0.00D+00 EMaxC= 1.00D-01 BMatC= 4.59D-08 BMatP= 1.09D-06
 IDIUse=1 WtCom= 1.00D+00 WtEn= 0.00D+00
 Coeff-Com:  0.206D-04 0.119D-03 0.407D-03-0.589D-02-0.271D-01 0.752D-01
 Coeff-Com:  0.957D+00
 Coeff:      0.206D-04 0.119D-03 0.407D-03-0.589D-02-0.271D-01 0.752D-01
 Coeff:      0.957D+00
 Gap=     0.489 Goal=   None    Shift=    0.000
 RMSDP=1.85D-06 MaxDP=4.74D-05 DE=-1.71D-06 OVMax= 1.42D-04

 Cycle   8  Pass 1  IDiag  1:
 E= -389.147247609440     Delta-E=       -0.000000104251 Rises=F Damp=F
 DIIS: error= 4.39D-06 at cycle   8 NSaved=   8.
 NSaved= 8 IEnMin= 8 EnMin= -389.147247609440     IErMin= 8 ErrMin= 4.39D-06
 ErrMax= 4.39D-06  0.00D+00 EMaxC= 1.00D-01 BMatC= 1.05D-08 BMatP= 4.59D-08
 IDIUse=1 WtCom= 1.00D+00 WtEn= 0.00D+00
 Coeff-Com: -0.906D-04 0.431D-03 0.329D-02 0.419D-02-0.223D-01-0.984D-01
 Coeff-Com:  0.113D+00 0.100D+01
 Coeff:     -0.906D-04 0.431D-03 0.329D-02 0.419D-02-0.223D-01-0.984D-01
 Coeff:      0.113D+00 0.100D+01
 Gap=     0.489 Goal=   None    Shift=    0.000
 RMSDP=8.85D-07 MaxDP=2.16D-05 DE=-1.04D-07 OVMax= 5.06D-05

 Cycle   9  Pass 1  IDiag  1:
 E= -389.147247631680     Delta-E=       -0.000000022240 Rises=F Damp=F
 DIIS: error= 2.01D-06 at cycle   9 NSaved=   9.
 NSaved= 9 IEnMin= 9 EnMin= -389.147247631680     IErMin= 9 ErrMin= 2.01D-06
 ErrMax= 2.01D-06  0.00D+00 EMaxC= 1.00D-01 BMatC= 1.13D-09 BMatP= 1.05D-08
 IDIUse=1 WtCom= 1.00D+00 WtEn= 0.00D+00
 Coeff-Com: -0.111D-04 0.216D-04 0.236D-03 0.165D-02 0.755D-03-0.188D-01
 Coeff-Com: -0.855D-01-0.897D-02 0.111D+01
 Coeff:     -0.111D-04 0.216D-04 0.236D-03 0.165D-02 0.755D-03-0.188D-01
 Coeff:     -0.855D-01-0.897D-02 0.111D+01
 Gap=     0.489 Goal=   None    Shift=    0.000
 RMSDP=3.76D-07 MaxDP=1.06D-05 DE=-2.22D-08 OVMax= 3.90D-05

 Cycle  10  Pass 1  IDiag  1:
 E= -389.147247636133     Delta-E=       -0.000000004453 Rises=F Damp=F
 DIIS: error= 6.60D-07 at cycle  10 NSaved=  10.
 NSaved=10 IEnMin=10 EnMin= -389.147247636133     IErMin=10 ErrMin= 6.60D-07
 ErrMax= 6.60D-07  0.00D+00 EMaxC= 1.00D-01 BMatC= 3.40D-10 BMatP= 1.13D-09
 IDIUse=1 WtCom= 1.00D+00 WtEn= 0.00D+00
 Coeff-Com:  0.144D-04-0.735D-04-0.556D-03-0.461D-03 0.345D-02 0.161D-01
 Coeff-Com: -0.118D-01-0.244D+00 0.146D+00 0.109D+01
 Coeff:      0.144D-04-0.735D-04-0.556D-03-0.461D-03 0.345D-02 0.161D-01
 Coeff:     -0.118D-01-0.244D+00 0.146D+00 0.109D+01
 Gap=     0.489 Goal=   None    Shift=    0.000
 RMSDP=2.04D-07 MaxDP=4.46D-06 DE=-4.45D-09 OVMax= 1.49D-05

 Cycle  11  Pass 1  IDiag  1:
 E= -389.147247636974     Delta-E=       -0.000000000842 Rises=F Damp=F
 DIIS: error= 1.70D-07 at cycle  11 NSaved=  11.
 NSaved=11 IEnMin=11 EnMin= -389.147247636974     IErMin=11 ErrMin= 1.70D-07
 ErrMax= 1.70D-07  0.00D+00 EMaxC= 1.00D-01 BMatC= 1.45D-11 BMatP= 3.40D-10
 IDIUse=1 WtCom= 1.00D+00 WtEn= 0.00D+00
 Coeff-Com:  0.187D-05-0.594D-05-0.499D-04-0.167D-03-0.755D-04 0.276D-02
 Coeff-Com:  0.132D-01-0.175D-01-0.877D-01 0.306D-02 0.109D+01
 Coeff:      0.187D-05-0.594D-05-0.499D-04-0.167D-03-0.755D-04 0.276D-02
 Coeff:      0.132D-01-0.175D-01-0.877D-01 0.306D-02 0.109D+01
 Gap=     0.489 Goal=   None    Shift=    0.000
 RMSDP=4.59D-08 MaxDP=1.10D-06 DE=-8.42D-10 OVMax= 4.03D-06

 Cycle  12  Pass 1  IDiag  1:
 E= -389.147247637014     Delta-E=       -0.000000000040 Rises=F Damp=F
 DIIS: error= 4.49D-08 at cycle  12 NSaved=  12.
 NSaved=12 IEnMin=12 EnMin= -389.147247637014     IErMin=12 ErrMin= 4.49D-08
 ErrMax= 4.49D-08  0.00D+00 EMaxC= 1.00D-01 BMatC= 1.20D-12 BMatP= 1.45D-11
 IDIUse=1 WtCom= 1.00D+00 WtEn= 0.00D+00
 Coeff-Com: -0.112D-05 0.591D-05 0.449D-04 0.447D-04-0.296D-03-0.136D-02
 Coeff-Com:  0.105D-02 0.179D-01-0.676D-02-0.997D-01-0.168D-01 0.111D+01
 Coeff:     -0.112D-05 0.591D-05 0.449D-04 0.447D-04-0.296D-03-0.136D-02
 Coeff:      0.105D-02 0.179D-01-0.676D-02-0.997D-01-0.168D-01 0.111D+01
 Gap=     0.489 Goal=   None    Shift=    0.000
 RMSDP=1.33D-08 MaxDP=2.58D-07 DE=-4.00D-11 OVMax= 9.32D-07

 Cycle  13  Pass 1  IDiag  1:
 E= -389.147247637020     Delta-E=       -0.000000000006 Rises=F Damp=F
 DIIS: error= 7.99D-09 at cycle  13 NSaved=  13.
 NSaved=13 IEnMin=13 EnMin= -389.147247637020     IErMin=13 ErrMin= 7.99D-09
 ErrMax= 7.99D-09  0.00D+00 EMaxC= 1.00D-01 BMatC= 5.19D-14 BMatP= 1.20D-12
 IDIUse=1 WtCom= 1.00D+00 WtEn= 0.00D+00
 Coeff-Com: -0.169D-06 0.710D-06 0.546D-05 0.137D-04-0.144D-04-0.247D-03
 Coeff-Com: -0.670D-03 0.191D-02 0.573D-02-0.651D-02-0.641D-01 0.706D-01
 Coeff-Com:  0.993D+00
 Coeff:     -0.169D-06 0.710D-06 0.546D-05 0.137D-04-0.144D-04-0.247D-03
 Coeff:     -0.670D-03 0.191D-02 0.573D-02-0.651D-02-0.641D-01 0.706D-01
 Coeff:      0.993D+00
 Gap=     0.489 Goal=   None    Shift=    0.000
 RMSDP=2.30D-09 MaxDP=5.65D-08 DE=-5.80D-12 OVMax= 1.05D-07

 SCF Done:  E(RHF) =  -389.147247637     A.U. after   13 cycles
            NFock= 13  Conv=0.23D-08     -V/T= 2.0013
 KE= 3.886474710015D+02 PE=-1.970013464712D+03 EE= 6.595861047853D+02
 Leave Link  502 at Fri Sep 17 20:10:17 2021, MaxMem=   524288000 cpu:              37.9 elap:              38.0
 (Enter /opt/gaussian/g16_legacy/l801.exe)
 ExpMin= 1.61D-01 ExpMax= 3.05D+03 ExpMxC= 4.57D+02 IAcc=3 IRadAn=         5 AccDes= 0.00D+00
 HarFok:  IExCor=  205 AccDes= 0.00D+00 IRadAn=         5 IDoV=-2 UseB2=F ITyADJ=14
 ICtDFT= 12500011 ScaDFX=  1.000000  1.000000  1.000000  1.000000
 Largest valence mixing into a core orbital is  1.98D-04
 Largest core mixing into a valence orbital is  3.56D-05
 Range of M.O.s used for correlation:    11   240
 NBasis=   240 NAE=    39 NBE=    39 NFC=    10 NFV=     0
 NROrb=    230 NOA=    29 NOB=    29 NVA=   201 NVB=   201
 Leave Link  801 at Fri Sep 17 20:10:19 2021, MaxMem=   524288000 cpu:               1.6 elap:               1.6
 (Enter /opt/gaussian/g16_legacy/l906.exe)
 Frozen-core derivative calculation, NFC=  10 NFV=   0.
 FulOut=F Deriv=T AODrv=T NAtomX=    28
   MMem=          85  MDisk=          29 MDiskD=          29
  W3Min=     2246400 MinDsk=     2795480 NBas6D=         240
 NBas2D=       29244    NTT=       28920    LW2=     2040000
    MDV=   523616925 MDiskM=       30186 NBas2p=       25360
 Fully direct method using O(ONN) memory.
 IMap=   1   2   3   4   5   6   7   8   9  10  11  12  13  14  15  16  17  18  19  20
 IMap=  21  22  23  24  25  26  27  28  29  30  31  32  33  34  35  36  37  38  39
 JobTyp=1 Pass  1:  I=  11 to  39 NPSUse=  1 ParTrn=F ParDer=F DoDerP=T.
 Spin components of T(2) and E(2):
     alpha-alpha T2 =       0.5751637409D-01 E2=     -0.1645848263D+00
     alpha-beta  T2 =       0.3631237299D+00 E2=     -0.1091755047D+01
     beta-beta   T2 =       0.5751637409D-01 E2=     -0.1645848263D+00
 The integrals were generated   1 times.
 ANorm=    0.1215794587D+01
 E2 =    -0.1420924700D+01 EUMP2 =    -0.39056817233687D+03
 Leave Link  906 at Fri Sep 17 20:15:08 2021, MaxMem=   524288000 cpu:             288.8 elap:             288.9
 (Enter /opt/gaussian/g16_legacy/l1002.exe)
 Minotr:  Closed shell wavefunction.
          Computing MP2/KS-MP2 derivatives.
          Using Z-Vector for PSCF gradient.
          Skipping F1 and S1 gradient terms here.
          IDoAtm=1111111111111111111111111111
          Frozen-core window.
          Direct CPHF calculation.
          Differentiating once with respect to electric field.
                with respect to dipole field.
          Differentiating once with respect to nuclear coordinates.
          Requested convergence is 1.0D-10 RMS, and 1.0D-09 maximum.
          NewPWx=F KeepS1=T KeepF1=T KeepIn=T MapXYZ=F SortEE=F KeepMc=T.
 Keep R1 ints in memory in canonical form, NReq=425201067.
 FoFCou: FMM=F IPFlag=           0 FMFlag=           0 FMFlg1=           0
         NFxFlg=           0 DoJE=F BraDBF=F KetDBF=F FulRan=T
         wScrn=  0.000000 ICntrl=       600 IOpCl=  0 I1Cent=           0 NGrid=           0
         NMat0=    1 NMatS0=  28920 NMatT0=    0 NMatD0=    1 NMtDS0=    0 NMtDT0=    0
 Symmetry not used in FoFCou.
 Two-electron integral symmetry not used.
          MDV=     524288000 using IRadAn=       5.
          Solving linear equations separately, MaxMat=       0.
          There are     1 degrees of freedom in the 1st order CPHF.  IDoFFX=0 NUNeed=     1.
 LinEq1:  Iter=  0 NonCon=     1 RMS=2.53D-03 Max=3.68D-02 NDo=     1
 AX will form     1 AO Fock derivatives at one time.
 LinEq1:  Iter=  1 NonCon=     1 RMS=7.00D-04 Max=1.05D-02 NDo=     1
 LinEq1:  Iter=  2 NonCon=     1 RMS=1.80D-04 Max=4.32D-03 NDo=     1
 LinEq1:  Iter=  3 NonCon=     1 RMS=5.20D-05 Max=8.94D-04 NDo=     1
 LinEq1:  Iter=  4 NonCon=     1 RMS=2.23D-05 Max=8.90D-04 NDo=     1
 LinEq1:  Iter=  5 NonCon=     1 RMS=6.22D-06 Max=1.56D-04 NDo=     1
 LinEq1:  Iter=  6 NonCon=     1 RMS=1.84D-06 Max=4.31D-05 NDo=     1
 LinEq1:  Iter=  7 NonCon=     1 RMS=6.24D-07 Max=1.39D-05 NDo=     1
 LinEq1:  Iter=  8 NonCon=     1 RMS=2.02D-07 Max=3.27D-06 NDo=     1
 LinEq1:  Iter=  9 NonCon=     1 RMS=6.00D-08 Max=9.50D-07 NDo=     1
 LinEq1:  Iter= 10 NonCon=     1 RMS=1.68D-08 Max=3.13D-07 NDo=     1
 LinEq1:  Iter= 11 NonCon=     1 RMS=4.57D-09 Max=9.85D-08 NDo=     1
 LinEq1:  Iter= 12 NonCon=     1 RMS=1.25D-09 Max=2.02D-08 NDo=     1
 LinEq1:  Iter= 13 NonCon=     1 RMS=3.38D-10 Max=5.64D-09 NDo=     1
 LinEq1:  Iter= 14 NonCon=     1 RMS=8.72D-11 Max=1.43D-09 NDo=     1
 LinEq1:  Iter= 15 NonCon=     0 RMS=2.14D-11 Max=4.27D-10 NDo=     1
 Linear equations converged to 1.000D-10 1.000D-09 after    15 iterations.
 End of Minotr F.D. properties file   721 does not exist.
 End of Minotr F.D. properties file   722 does not exist.
 End of Minotr F.D. properties file   788 does not exist.
 Leave Link 1002 at Fri Sep 17 20:15:44 2021, MaxMem=   524288000 cpu:              36.4 elap:              36.4
 (Enter /opt/gaussian/g16_legacy/l601.exe)
 Copying SCF densities to generalized density rwf, IOpCl= 0 IROHF=0.

 **********************************************************************

            Population analysis using the SCF density.

 **********************************************************************

 Orbital symmetries:
       Occupied  (A) (A) (A) (A) (A) (A) (A) (A) (A) (A) (A) (A)
                 (A) (A) (A) (A) (A) (A) (A) (A) (A) (A) (A) (A)
                 (A) (A) (A) (A) (A) (A) (A) (A) (A) (A) (A) (A)
                 (A) (A) (A)
       Virtual   (A) (A) (A) (A) (A) (A) (A) (A) (A) (A) (A) (A)
                 (A) (A) (A) (A) (A) (A) (A) (A) (A) (A) (A) (A)
                 (A) (A) (A) (A) (A) (A) (A) (A) (A) (A) (A) (A)
                 (A) (A) (A) (A) (A) (A) (A) (A) (A) (A) (A) (A)
                 (A) (A) (A) (A) (A) (A) (A) (A) (A) (A) (A) (A)
                 (A) (A) (A) (A) (A) (A) (A) (A) (A) (A) (A) (A)
                 (A) (A) (A) (A) (A) (A) (A) (A) (A) (A) (A) (A)
                 (A) (A) (A) (A) (A) (A) (A) (A) (A) (A) (A) (A)
                 (A) (A) (A) (A) (A) (A) (A) (A) (A) (A) (A) (A)
                 (A) (A) (A) (A) (A) (A) (A) (A) (A) (A) (A) (A)
                 (A) (A) (A) (A) (A) (A) (A) (A) (A) (A) (A) (A)
                 (A) (A) (A) (A) (A) (A) (A) (A) (A) (A) (A) (A)
                 (A) (A) (A) (A) (A) (A) (A) (A) (A) (A) (A) (A)
                 (A) (A) (A) (A) (A) (A) (A) (A) (A) (A) (A) (A)
                 (A) (A) (A) (A) (A) (A) (A) (A) (A) (A) (A) (A)
                 (A) (A) (A) (A) (A) (A) (A) (A) (A) (A) (A) (A)
                 (A) (A) (A) (A) (A) (A) (A) (A) (A)
 The electronic state is 1-A.
 Alpha  occ. eigenvalues --  -11.22902 -11.22385 -11.21951 -11.21900 -11.21782
 Alpha  occ. eigenvalues --  -11.21668 -11.21345 -11.21277 -11.21172 -11.21099
 Alpha  occ. eigenvalues --   -1.10627  -1.08003  -1.01822  -0.97041  -0.93788
 Alpha  occ. eigenvalues --   -0.92377  -0.87286  -0.81843  -0.70613  -0.68608
 Alpha  occ. eigenvalues --   -0.63609  -0.62713  -0.59197  -0.59059  -0.57664
 Alpha  occ. eigenvalues --   -0.57466  -0.55323  -0.54455  -0.53700  -0.52979
 Alpha  occ. eigenvalues --   -0.52180  -0.51276  -0.50122  -0.49227  -0.46815
 Alpha  occ. eigenvalues --   -0.45666  -0.44332  -0.33260  -0.31156
 Alpha virt. eigenvalues --    0.17733   0.18848   0.21982   0.25395   0.25960
 Alpha virt. eigenvalues --    0.26935   0.28024   0.28914   0.30148   0.30843
 Alpha virt. eigenvalues --    0.31574   0.32072   0.32784   0.34175   0.34738
 Alpha virt. eigenvalues --    0.35705   0.36504   0.38347   0.38497   0.39346
 Alpha virt. eigenvalues --    0.41332   0.41967   0.44023   0.44803   0.47826
 Alpha virt. eigenvalues --    0.50651   0.53464   0.59902   0.62164   0.67961
 Alpha virt. eigenvalues --    0.70353   0.71865   0.73846   0.75940   0.76504
 Alpha virt. eigenvalues --    0.77023   0.78317   0.79187   0.81628   0.83760
 Alpha virt. eigenvalues --    0.85410   0.86022   0.89924   0.90520   0.91234
 Alpha virt. eigenvalues --    0.93203   0.95154   0.97606   0.98405   1.00869
 Alpha virt. eigenvalues --    1.01911   1.02284   1.04141   1.05656   1.06229
 Alpha virt. eigenvalues --    1.08056   1.09677   1.10479   1.12264   1.12679
 Alpha virt. eigenvalues --    1.13518   1.13812   1.14412   1.14968   1.15500
 Alpha virt. eigenvalues --    1.17043   1.17910   1.18454   1.19613   1.20637
 Alpha virt. eigenvalues --    1.21290   1.23220   1.23569   1.25631   1.27389
 Alpha virt. eigenvalues --    1.29158   1.34120   1.39712   1.43165   1.45223
 Alpha virt. eigenvalues --    1.46150   1.50542   1.54001   1.57063   1.58054
 Alpha virt. eigenvalues --    1.61735   1.66583   1.70331   1.71306   1.72102
 Alpha virt. eigenvalues --    1.74391   1.80265   1.90433   1.93742   1.96945
 Alpha virt. eigenvalues --    1.99070   2.01262   2.03483   2.05733   2.07671
 Alpha virt. eigenvalues --    2.09703   2.10200   2.11240   2.13789   2.14514
 Alpha virt. eigenvalues --    2.17672   2.19377   2.21546   2.27003   2.29067
 Alpha virt. eigenvalues --    2.30563   2.33093   2.34056   2.35136   2.35805
 Alpha virt. eigenvalues --    2.36127   2.37011   2.38565   2.39983   2.40520
 Alpha virt. eigenvalues --    2.41438   2.43403   2.43601   2.44578   2.45649
 Alpha virt. eigenvalues --    2.47676   2.48394   2.49487   2.52806   2.55844
 Alpha virt. eigenvalues --    2.56876   2.57980   2.59453   2.61820   2.64591
 Alpha virt. eigenvalues --    2.66110   2.69737   2.70071   2.71357   2.73784
 Alpha virt. eigenvalues --    2.76089   2.77874   2.78132   2.84417   2.84899
 Alpha virt. eigenvalues --    2.87105   2.89086   2.90742   2.91827   2.93548
 Alpha virt. eigenvalues --    2.94891   2.98532   3.01062   3.01892   3.02838
 Alpha virt. eigenvalues --    3.05084   3.07117   3.10230   3.12148   3.12588
 Alpha virt. eigenvalues --    3.17070   3.18922   3.19446   3.20479   3.21230
 Alpha virt. eigenvalues --    3.23289   3.24219   3.26097   3.27651   3.37631
 Alpha virt. eigenvalues --    3.40486   3.44703   3.46782   3.55601   3.57115
 Alpha virt. eigenvalues --    3.60763   3.62802   3.67541   3.69546   3.79347
 Alpha virt. eigenvalues --    3.79850   3.80878   3.81909   3.82446   3.83451
 Alpha virt. eigenvalues --    3.84423   3.85596   3.86443   3.88476   3.91877
 Alpha virt. eigenvalues --    3.96889   4.58148   4.64000   4.74450   4.87547
 Alpha virt. eigenvalues --    4.89025   4.92236   4.93590   5.07845   5.12410
 Alpha virt. eigenvalues --    5.16311
          Condensed to atoms (all electrons):
               1          2          3          4          5          6
     1  C    4.948850   0.412842   0.411122   0.355164  -0.053632   0.003130
     2  H    0.412842   0.591576  -0.032744  -0.044905   0.003721  -0.000109
     3  H    0.411122  -0.032744   0.603375  -0.045365  -0.005098   0.000077
     4  C    0.355164  -0.044905  -0.045365   4.959859   0.341414  -0.039660
     5  C   -0.053632   0.003721  -0.005098   0.341414   4.905196   0.403343
     6  H    0.003130  -0.000109   0.000077  -0.039660   0.403343   0.585142
     7  H   -0.006517   0.000129   0.001577  -0.040113   0.405605  -0.031917
     8  H    0.001754  -0.000107   0.000016  -0.040236   0.400060  -0.027938
     9  C   -0.047990  -0.004128   0.002418   0.691581  -0.051160  -0.004392
    10  H   -0.006009   0.001931   0.000206  -0.038263   0.003326   0.000035
    11  C    0.003093   0.000138  -0.000109  -0.050169  -0.007416  -0.002200
    12  H    0.000113   0.000002   0.000001  -0.000766  -0.001761  -0.001426
    13  H   -0.000096  -0.000014  -0.000001   0.000365   0.000202  -0.000090
    14  H   -0.000117   0.000005   0.000010  -0.001135   0.000333   0.000336
    15  C   -0.000129   0.000002  -0.000010   0.000019   0.000056  -0.000006
    16  H    0.000001   0.000000  -0.000001  -0.000003  -0.000016   0.000000
    17  H    0.000024  -0.000001   0.000003   0.000012   0.000201  -0.000020
    18  H   -0.000003   0.000000   0.000000  -0.000001   0.000002   0.000000
    19  C   -0.002508   0.000022   0.001054  -0.000868  -0.001486   0.000201
    20  C   -0.002837   0.000028  -0.002605   0.000389  -0.000583   0.000001
    21  H   -0.002147   0.000109  -0.000560   0.000070   0.000034   0.000000
    22  H    0.000077   0.000001   0.000123  -0.000011   0.000013   0.000000
    23  H   -0.000502  -0.000046  -0.000177   0.000252  -0.000334  -0.000043
    24  C   -0.049195   0.005417  -0.003982  -0.007394  -0.001011   0.000349
    25  H    0.002360  -0.000101  -0.000054   0.000551  -0.000312   0.000006
    26  C    0.341238  -0.041430  -0.041584  -0.059234   0.001784  -0.000136
    27  H   -0.041784  -0.003573   0.004547  -0.002037   0.000105   0.000001
    28  H   -0.039956  -0.002671  -0.003012   0.005173  -0.000134   0.000004
               7          8          9         10         11         12
     1  C   -0.006517   0.001754  -0.047990  -0.006009   0.003093   0.000113
     2  H    0.000129  -0.000107  -0.004128   0.001931   0.000138   0.000002
     3  H    0.001577   0.000016   0.002418   0.000206  -0.000109   0.000001
     4  C   -0.040113  -0.040236   0.691581  -0.038263  -0.050169  -0.000766
     5  C    0.405605   0.400060  -0.051160   0.003326  -0.007416  -0.001761
     6  H   -0.031917  -0.027938  -0.004392   0.000035  -0.002200  -0.001426
     7  H    0.588533  -0.029878   0.003021  -0.000099   0.000175   0.000028
     8  H   -0.029878   0.567242  -0.003908  -0.000140   0.000671  -0.000157
     9  C    0.003021  -0.003908   4.951589   0.405197   0.340120  -0.041392
    10  H   -0.000099  -0.000140   0.405197   0.560488  -0.043149   0.003314
    11  C    0.000175   0.000671   0.340120  -0.043149   4.902519   0.408602
    12  H    0.000028  -0.000157  -0.041392   0.003314   0.408602   0.572001
    13  H   -0.000012   0.000154  -0.043637  -0.002146   0.402145  -0.029128
    14  H    0.000014  -0.000075  -0.044545  -0.000554   0.400199  -0.027810
    15  C    0.000006  -0.000015   0.000000  -0.000000   0.000000   0.000000
    16  H   -0.000000   0.000074  -0.000000   0.000000   0.000000   0.000000
    17  H    0.000129  -0.000002   0.000000  -0.000000  -0.000000   0.000000
    18  H   -0.000002   0.000010  -0.000000  -0.000000   0.000000  -0.000000
    19  C   -0.000706   0.000047  -0.000032  -0.000000   0.000000  -0.000000
    20  C   -0.000533   0.000005   0.000003   0.000000  -0.000000   0.000000
    21  H   -0.000005  -0.000001  -0.000000   0.000000   0.000000  -0.000000
    22  H    0.000006   0.000002  -0.000000  -0.000000  -0.000000  -0.000000
    23  H    0.000453  -0.000053   0.000007  -0.000000  -0.000000   0.000000
    24  C   -0.000859   0.000407  -0.000341   0.000011   0.000005  -0.000002
    25  H    0.000016   0.000121  -0.000014  -0.000001  -0.000001   0.000000
    26  C    0.000020   0.000464  -0.004857   0.000164  -0.000080  -0.000005
    27  H    0.000014  -0.000033   0.002511   0.000359  -0.000058   0.000001
    28  H   -0.000008   0.000003  -0.000001  -0.000022   0.000002   0.000000
              13         14         15         16         17         18
     1  C   -0.000096  -0.000117  -0.000129   0.000001   0.000024  -0.000003
     2  H   -0.000014   0.000005   0.000002   0.000000  -0.000001   0.000000
     3  H   -0.000001   0.000010  -0.000010  -0.000001   0.000003   0.000000
     4  C    0.000365  -0.001135   0.000019  -0.000003   0.000012  -0.000001
     5  C    0.000202   0.000333   0.000056  -0.000016   0.000201   0.000002
     6  H   -0.000090   0.000336  -0.000006   0.000000  -0.000020   0.000000
     7  H   -0.000012   0.000014   0.000006  -0.000000   0.000129  -0.000002
     8  H    0.000154  -0.000075  -0.000015   0.000074  -0.000002   0.000010
     9  C   -0.043637  -0.044545   0.000000  -0.000000   0.000000  -0.000000
    10  H   -0.002146  -0.000554  -0.000000   0.000000  -0.000000  -0.000000
    11  C    0.402145   0.400199   0.000000   0.000000  -0.000000   0.000000
    12  H   -0.029128  -0.027810   0.000000   0.000000   0.000000  -0.000000
    13  H    0.586901  -0.033296   0.000000   0.000000   0.000000   0.000000
    14  H   -0.033296   0.587775  -0.000000  -0.000000  -0.000000  -0.000000
    15  C    0.000000  -0.000000   4.896272   0.405743   0.400666   0.396409
    16  H    0.000000  -0.000000   0.405743   0.568819  -0.028113  -0.027162
    17  H    0.000000  -0.000000   0.400666  -0.028113   0.594931  -0.034948
    18  H    0.000000  -0.000000   0.396409  -0.027162  -0.034948   0.593537
    19  C   -0.000000   0.000000   0.354866  -0.041249  -0.047941  -0.043154
    20  C    0.000000  -0.000000  -0.061890   0.003788  -0.000669  -0.002649
    21  H   -0.000000   0.000000   0.003537  -0.000114  -0.000043  -0.000026
    22  H   -0.000000   0.000000  -0.005373   0.000090  -0.000551   0.002734
    23  H    0.000000  -0.000000   0.000397  -0.000128   0.001752  -0.000247
    24  C   -0.000001   0.000000  -0.044602  -0.002359  -0.001768  -0.000130
    25  H    0.000000  -0.000000  -0.006422   0.002257   0.000098   0.000242
    26  C    0.000027  -0.000005   0.003264   0.000130  -0.000047  -0.000147
    27  H   -0.000007   0.000002  -0.000094  -0.000009   0.000001   0.000002
    28  H   -0.000000   0.000000  -0.000054   0.000003  -0.000010   0.000023
              19         20         21         22         23         24
     1  C   -0.002508  -0.002837  -0.002147   0.000077  -0.000502  -0.049195
     2  H    0.000022   0.000028   0.000109   0.000001  -0.000046   0.005417
     3  H    0.001054  -0.002605  -0.000560   0.000123  -0.000177  -0.003982
     4  C   -0.000868   0.000389   0.000070  -0.000011   0.000252  -0.007394
     5  C   -0.001486  -0.000583   0.000034   0.000013  -0.000334  -0.001011
     6  H    0.000201   0.000001   0.000000   0.000000  -0.000043   0.000349
     7  H   -0.000706  -0.000533  -0.000005   0.000006   0.000453  -0.000859
     8  H    0.000047   0.000005  -0.000001   0.000002  -0.000053   0.000407
     9  C   -0.000032   0.000003  -0.000000  -0.000000   0.000007  -0.000341
    10  H   -0.000000   0.000000   0.000000  -0.000000  -0.000000   0.000011
    11  C    0.000000  -0.000000   0.000000  -0.000000  -0.000000   0.000005
    12  H   -0.000000   0.000000  -0.000000  -0.000000   0.000000  -0.000002
    13  H   -0.000000   0.000000  -0.000000  -0.000000   0.000000  -0.000001
    14  H    0.000000  -0.000000   0.000000   0.000000  -0.000000   0.000000
    15  C    0.354866  -0.061890   0.003537  -0.005373   0.000397  -0.044602
    16  H   -0.041249   0.003788  -0.000114   0.000090  -0.000128  -0.002359
    17  H   -0.047941  -0.000669  -0.000043  -0.000551   0.001752  -0.001768
    18  H   -0.043154  -0.002649  -0.000026   0.002734  -0.000247  -0.000130
    19  C    4.933038   0.346129  -0.038193  -0.042102  -0.043026   0.690679
    20  C    0.346129   4.920447   0.405884   0.404990   0.396850  -0.049286
    21  H   -0.038193   0.405884   0.565710  -0.028882  -0.027622  -0.003902
    22  H   -0.042102   0.404990  -0.028882   0.580935  -0.031629   0.002454
    23  H   -0.043026   0.396850  -0.027622  -0.031629   0.583823  -0.003448
    24  C    0.690679  -0.049286  -0.003902   0.002454  -0.003448   4.986133
    25  H   -0.039349   0.003422   0.000067  -0.000104  -0.000141   0.409872
    26  C   -0.059002  -0.004442  -0.000345  -0.000102   0.000786   0.333532
    27  H    0.003920   0.000060   0.000017   0.000003  -0.000013  -0.041639
    28  H   -0.003510  -0.000064   0.001145   0.000081  -0.000306  -0.044140
              25         26         27         28
     1  C    0.002360   0.341238  -0.041784  -0.039956
     2  H   -0.000101  -0.041430  -0.003573  -0.002671
     3  H   -0.000054  -0.041584   0.004547  -0.003012
     4  C    0.000551  -0.059234  -0.002037   0.005173
     5  C   -0.000312   0.001784   0.000105  -0.000134
     6  H    0.000006  -0.000136   0.000001   0.000004
     7  H    0.000016   0.000020   0.000014  -0.000008
     8  H    0.000121   0.000464  -0.000033   0.000003
     9  C   -0.000014  -0.004857   0.002511  -0.000001
    10  H   -0.000001   0.000164   0.000359  -0.000022
    11  C   -0.000001  -0.000080  -0.000058   0.000002
    12  H    0.000000  -0.000005   0.000001   0.000000
    13  H    0.000000   0.000027  -0.000007  -0.000000
    14  H   -0.000000  -0.000005   0.000002   0.000000
    15  C   -0.006422   0.003264  -0.000094  -0.000054
    16  H    0.002257   0.000130  -0.000009   0.000003
    17  H    0.000098  -0.000047   0.000001  -0.000010
    18  H    0.000242  -0.000147   0.000002   0.000023
    19  C   -0.039349  -0.059002   0.003920  -0.003510
    20  C    0.003422  -0.004442   0.000060  -0.000064
    21  H    0.000067  -0.000345   0.000017   0.001145
    22  H   -0.000104  -0.000102   0.000003   0.000081
    23  H   -0.000141   0.000786  -0.000013  -0.000306
    24  C    0.409872   0.333532  -0.041639  -0.044140
    25  H    0.552063  -0.041960  -0.006748   0.003286
    26  C   -0.041960   4.984655   0.410678   0.403757
    27  H   -0.006748   0.410678   0.585600  -0.029508
    28  H    0.003286   0.403757  -0.029508   0.592207
 Mulliken charges:
               1
     1  C   -0.226346
     2  H    0.113904
     3  H    0.110775
     4  C    0.015312
     5  C   -0.342453
     6  H    0.115311
     7  H    0.110924
     8  H    0.131512
     9  C   -0.150050
    10  H    0.115349
    11  C   -0.354487
    12  H    0.118384
    13  H    0.118635
    14  H    0.118863
    15  C   -0.342641
    16  H    0.118248
    17  H    0.116293
    18  H    0.115510
    19  C    0.033169
    20  C   -0.356439
    21  H    0.125267
    22  H    0.117246
    23  H    0.123394
    24  C   -0.174800
    25  H    0.120847
    26  C   -0.227124
    27  H    0.117682
    28  H    0.117716
 Sum of Mulliken charges =  -0.00000
 Mulliken charges with hydrogens summed into heavy atoms:
               1
     1  C   -0.001667
     4  C    0.015312
     5  C    0.015294
     9  C   -0.034701
    11  C    0.001395
    15  C    0.007411
    19  C    0.033169
    20  C    0.009467
    24  C   -0.053953
    26  C    0.008273
 Electronic spatial extent (au):  <R**2>=           2112.0043
 Charge=             -0.0000 electrons
 Dipole moment (field-independent basis, Debye):
    X=             -0.3027    Y=             -0.1652    Z=              0.2008  Tot=              0.3991
 Quadrupole moment (field-independent basis, Debye-Ang):
   XX=            -64.9746   YY=            -64.6014   ZZ=            -65.8110
   XY=              0.5752   XZ=             -2.1309   YZ=              0.1475
 Traceless Quadrupole moment (field-independent basis, Debye-Ang):
   XX=              0.1544   YY=              0.5276   ZZ=             -0.6820
   XY=              0.5752   XZ=             -2.1309   YZ=              0.1475
 Octapole moment (field-independent basis, Debye-Ang**2):
  XXX=             -0.5733  YYY=              1.7940  ZZZ=             -2.0290  XYY=              1.7697
  XXY=             -1.0522  XXZ=              1.3659  XZZ=             -0.4651  YZZ=             -2.4254
  YYZ=              0.2198  XYZ=             -3.0191
 Hexadecapole moment (field-independent basis, Debye-Ang**3):
 XXXX=          -2086.6654 YYYY=           -520.0301 ZZZZ=           -309.7933 XXXY=             10.1190
 XXXZ=            -15.8881 YYYX=             -1.9328 YYYZ=              0.4115 ZZZX=             -5.4926
 ZZZY=              1.6894 XXYY=           -441.4520 XXZZ=           -414.6237 YYZZ=           -140.1105
 XXYZ=             -0.9862 YYXZ=             -1.1057 ZZXY=              2.4806
 N-N= 5.326326412883D+02 E-N=-1.970013464499D+03  KE= 3.886474710015D+02
 No NMR shielding tensors so no spin-rotation constants.
 Leave Link  601 at Fri Sep 17 20:15:45 2021, MaxMem=   524288000 cpu:               0.3 elap:               0.3
 (Enter /opt/gaussian/g16_legacy/l701.exe)
 ... and contract with generalized density number  2.
 Compute integral first derivatives.
 Leave Link  701 at Fri Sep 17 20:15:45 2021, MaxMem=   524288000 cpu:               0.3 elap:               0.3
 (Enter /opt/gaussian/g16_legacy/l702.exe)
 L702 exits ... SP integral derivatives will be done elsewhere.
 Leave Link  702 at Fri Sep 17 20:15:45 2021, MaxMem=   524288000 cpu:               0.1 elap:               0.1
 (Enter /opt/gaussian/g16_legacy/l703.exe)
 Integral derivatives from FoFJK, PRISM(SPDF).
 Compute integral first derivatives, UseDBF=F ICtDFT=           0.
 Calling FoFJK, ICntrl=  10002127 FMM=F ISym2X=0 I1Cent= 0 IOpClX= 0 NMat=1 NMatS=1 NMatT=0.
 FoFJK:  IHMeth= 1 ICntrl=10002127 DoSepK=F KAlg= 0 I1Cent=           0 FoldK=F
 IRaf=         0 NMat=       1 IRICut=       1 DoRegI=T DoRafI=F ISym2E= 0 IDoP0=0 IntGTp=1.
 FoFCou: FMM=F IPFlag=           0 FMFlag=      100000 FMFlg1=         800
         NFxFlg=           0 DoJE=F BraDBF=F KetDBF=F FulRan=T
         wScrn=  0.000000 ICntrl=  10002127 IOpCl=  0 I1Cent=           0 NGrid=           0
         NMat0=    1 NMatS0=      1 NMatT0=    0 NMatD0=    1 NMtDS0=    0 NMtDT0=    0
 Symmetry not used in FoFCou.
 Leave Link  703 at Fri Sep 17 20:16:23 2021, MaxMem=   524288000 cpu:              37.5 elap:              37.5
 (Enter /opt/gaussian/g16_legacy/l716.exe)
 Dipole        =-7.01967780D-02-6.60732328D-02 6.23025100D-02
 ***** Axes restored to original set *****
 -------------------------------------------------------------------
 Center     Atomic                   Forces (Hartrees/Bohr)
 Number     Number              X              Y              Z
 -------------------------------------------------------------------
      1        6           0.001977861   -0.008184733   -0.001692763
      2        1           0.002106132    0.001426338    0.002621055
      3        1          -0.000016446    0.002922774    0.003601117
      4        6          -0.006939567   -0.003020542   -0.005565355
      5        6           0.005194151    0.002336859   -0.000180195
      6        1          -0.001811842   -0.000457775    0.003206866
      7        1          -0.001285348   -0.000781133    0.004632683
      8        1           0.000233167    0.000711030   -0.004124274
      9        6          -0.002369841    0.003275843    0.001308877
     10        1          -0.001300742    0.001781961   -0.001570470
     11        6           0.002147394    0.000265581    0.000280118
     12        1          -0.002687842   -0.002316811   -0.000512201
     13        1           0.002216802   -0.001126277   -0.002364714
     14        1           0.001250184    0.000921896    0.003190916
     15        6           0.000250432    0.000794144    0.003868653
     16        1          -0.001464057   -0.001727285   -0.002989331
     17        1          -0.002872917    0.001673069    0.000268769
     18        1           0.002788936    0.000787804   -0.001687741
     19        6          -0.000434950   -0.001105660    0.005448705
     20        6          -0.003932628   -0.002646845   -0.000928039
     21        1           0.004454031    0.001152848    0.000274111
     22        1           0.003274097   -0.001282512    0.000727934
     23        1          -0.003301582    0.001015468   -0.000471199
     24        6           0.006120570   -0.000329103   -0.001396996
     25        1           0.000716511    0.004194069   -0.001538829
     26        6          -0.007341750    0.000365634    0.003677903
     27        1           0.000754678    0.000814824   -0.005588206
     28        1           0.002274567   -0.001461466   -0.002497395
 -------------------------------------------------------------------
 Cartesian Forces:  Max     0.008184733 RMS     0.002841393
 Leave Link  716 at Fri Sep 17 20:16:23 2021, MaxMem=   524288000 cpu:               0.1 elap:               0.1
 (Enter /opt/gaussian/g16_legacy/l103.exe)

 GradGradGradGradGradGradGradGradGradGradGradGradGradGradGradGradGradGrad
 Berny optimization.
 FormGI is forming the generalized inverse of G from B-inverse, IUseBI=4.
 Internal  Forces:  Max     0.005791341 RMS     0.002076081
 Search for a local minimum.
 Step number   1 out of a maximum of  138
 All quantities printed in internal units (Hartrees-Bohrs-Radians)
 RMS Force = .20761D-02 SwitMx=.10000D-02 MixMth= 1
 Mixed Optimization -- RFO/linear search
 Second derivative matrix not updated -- first step.
 ITU=  0
     Eigenvalues ---    0.00257   0.00497   0.00672   0.00709   0.00713
     Eigenvalues ---    0.00732   0.00824   0.01183   0.01293   0.01582
     Eigenvalues ---    0.01647   0.02772   0.02787   0.03737   0.03761
     Eigenvalues ---    0.05280   0.05309   0.07046   0.07060   0.07088
     Eigenvalues ---    0.07130   0.07175   0.07288   0.07341   0.07521
     Eigenvalues ---    0.09644   0.09825   0.13051   0.13139   0.15969
     Eigenvalues ---    0.15993   0.16000   0.16000   0.16000   0.16000
     Eigenvalues ---    0.16000   0.16000   0.16000   0.16000   0.16000
     Eigenvalues ---    0.16000   0.16000   0.16000   0.21896   0.21948
     Eigenvalues ---    0.22002   0.22009   0.24973   0.24986   0.24994
     Eigenvalues ---    0.24996   0.28656   0.30333   0.31646   0.31931
     Eigenvalues ---    0.31960   0.32108   0.32843   0.33739   0.33865
     Eigenvalues ---    0.33911   0.34178   0.34190   0.34215   0.34229
     Eigenvalues ---    0.34253   0.34300   0.34317   0.34319   0.34332
     Eigenvalues ---    0.34337   0.34345   0.34405   0.34602   0.35006
     Eigenvalues ---    0.35196   0.55371   0.55614
 RFO step:  Lambda=-4.75451806D-03 EMin= 2.57252687D-03
 Linear search not attempted -- first point.
 Iteration  1 RMS(Cart)=  0.15003845 RMS(Int)=  0.00573005
 Iteration  2 RMS(Cart)=  0.00942050 RMS(Int)=  0.00026668
 Iteration  3 RMS(Cart)=  0.00005414 RMS(Int)=  0.00026511
 Iteration  4 RMS(Cart)=  0.00000001 RMS(Int)=  0.00026511
 ITry= 1 IFail=0 DXMaxC= 5.51D-01 DCOld= 1.00D+10 DXMaxT= 3.00D-01 DXLimC= 3.00D+00 Rises=F
 Variable       Old X    -DE/DX   Delta X   Delta X   Delta X     New X
                                 (Linear)    (Quad)   (Total)
    R1        2.07481  -0.00221   0.00000  -0.00643  -0.00643   2.06838
    R2        2.07010  -0.00206   0.00000  -0.00596  -0.00596   2.06415
    R3        2.87305  -0.00552   0.00000  -0.01792  -0.01792   2.85512
    R4        2.90726  -0.00177   0.00000  -0.00607  -0.00607   2.90119
    R5        2.84796   0.00173   0.00000   0.00540   0.00540   2.85336
    R6        2.54591  -0.00238   0.00000  -0.00425  -0.00425   2.54166
    R7        2.06651  -0.00248   0.00000  -0.00712  -0.00712   2.05939
    R8        2.06795  -0.00346   0.00000  -0.00995  -0.00995   2.05800
    R9        2.06799  -0.00267   0.00000  -0.00766  -0.00766   2.06033
   R10        2.05665  -0.00107   0.00000  -0.00301  -0.00301   2.05363
   R11        2.82628   0.00310   0.00000   0.00930   0.00930   2.83558
   R12        2.06326  -0.00327   0.00000  -0.00932  -0.00932   2.05395
   R13        2.06773  -0.00198   0.00000  -0.00570  -0.00570   2.06203
   R14        2.06765  -0.00169   0.00000  -0.00487  -0.00487   2.06278
   R15        2.06827  -0.00339   0.00000  -0.00975  -0.00975   2.05852
   R16        2.06945  -0.00179   0.00000  -0.00517  -0.00517   2.06428
   R17        2.06751  -0.00146   0.00000  -0.00420  -0.00420   2.06331
   R18        2.83948   0.00088   0.00000   0.00270   0.00270   2.84218
   R19        2.84217   0.00037   0.00000   0.00114   0.00114   2.84331
   R20        2.54804  -0.00382   0.00000  -0.00685  -0.00685   2.54119
   R21        2.06905  -0.00367   0.00000  -0.01057  -0.01057   2.05848
   R22        2.06968  -0.00294   0.00000  -0.00848  -0.00848   2.06120
   R23        2.07031  -0.00231   0.00000  -0.00665  -0.00665   2.06365
   R24        2.05358  -0.00036   0.00000  -0.00101  -0.00101   2.05257
   R25        2.84271   0.00374   0.00000   0.01153   0.01153   2.85424
   R26        2.07773  -0.00513   0.00000  -0.01500  -0.01500   2.06273
   R27        2.07558  -0.00135   0.00000  -0.00394  -0.00394   2.07164
    A1        1.82572   0.00177   0.00000   0.03390   0.03398   1.85970
    A2        1.91102  -0.00076   0.00000  -0.00814  -0.00815   1.90287
    A3        1.87898   0.00130   0.00000   0.00819   0.00817   1.88716
    A4        1.90815   0.00187   0.00000   0.00668   0.00633   1.91448
    A5        1.93662  -0.00198   0.00000  -0.02040  -0.02049   1.91613
    A6        1.99534  -0.00189   0.00000  -0.01571  -0.01590   1.97945
    A7        2.03098   0.00451   0.00000   0.01797   0.01762   2.04860
    A8        2.09642  -0.00318   0.00000  -0.01217  -0.01251   2.08392
    A9        2.15558  -0.00132   0.00000  -0.00489  -0.00523   2.15035
   A10        1.95787  -0.00150   0.00000  -0.00497  -0.00496   1.95291
   A11        1.93941  -0.00224   0.00000  -0.01421  -0.01416   1.92525
   A12        1.93144   0.00403   0.00000   0.02099   0.02102   1.95247
   A13        1.84736   0.00317   0.00000   0.02582   0.02584   1.87320
   A14        1.89164  -0.00119   0.00000  -0.00597  -0.00597   1.88567
   A15        1.89290  -0.00239   0.00000  -0.02237  -0.02230   1.87060
   A16        2.07077  -0.00295   0.00000  -0.01698  -0.01704   2.05373
   A17        2.21677   0.00087   0.00000   0.00400   0.00393   2.22071
   A18        1.99503   0.00210   0.00000   0.01366   0.01360   2.00863
   A19        1.98165  -0.00311   0.00000  -0.01846  -0.01836   1.96328
   A20        1.90699   0.00305   0.00000   0.01879   0.01874   1.92573
   A21        1.91710   0.00377   0.00000   0.02227   0.02223   1.93932
   A22        1.87481   0.00013   0.00000   0.00199   0.00207   1.87688
   A23        1.89075  -0.00055   0.00000  -0.00377  -0.00368   1.88707
   A24        1.89015  -0.00351   0.00000  -0.02212  -0.02230   1.86785
   A25        1.87700   0.00085   0.00000   0.00768   0.00771   1.88471
   A26        1.88191   0.00069   0.00000   0.00776   0.00778   1.88969
   A27        1.95902  -0.00251   0.00000  -0.01201  -0.01198   1.94703
   A28        1.89646  -0.00328   0.00000  -0.02622  -0.02622   1.87024
   A29        1.91838   0.00172   0.00000   0.00855   0.00857   1.92695
   A30        1.92918   0.00240   0.00000   0.01328   0.01330   1.94248
   A31        2.00886   0.00140   0.00000   0.00586   0.00569   2.01455
   A32        2.11077   0.00162   0.00000   0.00678   0.00662   2.11739
   A33        2.16274  -0.00300   0.00000  -0.01137  -0.01153   2.15120
   A34        1.95947  -0.00090   0.00000  -0.00319  -0.00318   1.95629
   A35        1.93280  -0.00123   0.00000  -0.00654  -0.00652   1.92629
   A36        1.92381   0.00323   0.00000   0.01648   0.01651   1.94032
   A37        1.86233   0.00221   0.00000   0.01931   0.01932   1.88165
   A38        1.89596  -0.00158   0.00000  -0.01114  -0.01113   1.88483
   A39        1.88696  -0.00186   0.00000  -0.01570  -0.01566   1.87130
   A40        2.07205  -0.00333   0.00000  -0.01977  -0.02087   2.05118
   A41        2.21133  -0.00234   0.00000  -0.00910  -0.01019   2.20114
   A42        1.99688   0.00579   0.00000   0.03507   0.03398   2.03086
   A43        2.01001  -0.00016   0.00000  -0.00223  -0.00219   2.00781
   A44        1.89611  -0.00277   0.00000  -0.02833  -0.02836   1.86775
   A45        1.91582  -0.00141   0.00000  -0.01226  -0.01229   1.90353
   A46        1.88282   0.00195   0.00000   0.01482   0.01465   1.89748
   A47        1.91138   0.00153   0.00000   0.01812   0.01805   1.92943
   A48        1.83969   0.00098   0.00000   0.01110   0.01066   1.85035
    D1        2.70114   0.00151   0.00000   0.05504   0.05505   2.75619
    D2       -0.41964   0.00073   0.00000   0.00800   0.00793  -0.41171
    D3        0.71047  -0.00121   0.00000   0.01543   0.01543   0.72589
[...]
                 (A) (A) (A) (A) (A) (A) (A) (A) (A) (A) (A) (A)
                 (A) (A) (A) (A) (A) (A) (A) (A) (A) (A) (A) (A)
                 (A) (A) (A) (A) (A) (A) (A) (A) (A) (A) (A) (A)
                 (A) (A) (A) (A) (A) (A) (A) (A) (A) (A) (A) (A)
                 (A) (A) (A) (A) (A) (A) (A) (A) (A) (A) (A) (A)
                 (A) (A) (A) (A) (A) (A) (A) (A) (A) (A) (A) (A)
                 (A) (A) (A) (A) (A) (A) (A) (A) (A) (A) (A) (A)
                 (A) (A) (A) (A) (A) (A) (A) (A) (A) (A) (A) (A)
                 (A) (A) (A) (A) (A) (A) (A) (A) (A) (A) (A) (A)
                 (A) (A) (A) (A) (A) (A) (A) (A) (A) (A) (A) (A)
                 (A) (A) (A) (A) (A) (A) (A) (A) (A) (A) (A) (A)
                 (A) (A) (A) (A) (A) (A) (A) (A) (A) (A) (A) (A)
                 (A) (A) (A) (A) (A) (A) (A) (A) (A)
 The electronic state is 1-A.
 Alpha  occ. eigenvalues --  -11.22962 -11.22417 -11.21792 -11.21683 -11.21675
 Alpha  occ. eigenvalues --  -11.21535 -11.21354 -11.21284 -11.21265 -11.21012
 Alpha  occ. eigenvalues --   -1.10804  -1.08206  -1.01895  -0.97250  -0.93820
 Alpha  occ. eigenvalues --   -0.92468  -0.87518  -0.81991  -0.70952  -0.68583
 Alpha  occ. eigenvalues --   -0.63918  -0.62733  -0.60156  -0.58812  -0.57940
 Alpha  occ. eigenvalues --   -0.57307  -0.55024  -0.53607  -0.53297  -0.53224
 Alpha  occ. eigenvalues --   -0.52542  -0.51120  -0.50742  -0.49799  -0.47074
 Alpha  occ. eigenvalues --   -0.46306  -0.44283  -0.33410  -0.31178
 Alpha virt. eigenvalues --    0.18327   0.19352   0.22789   0.25390   0.26270
 Alpha virt. eigenvalues --    0.27086   0.28389   0.29185   0.30264   0.30493
 Alpha virt. eigenvalues --    0.31600   0.32587   0.32978   0.33578   0.34754
 Alpha virt. eigenvalues --    0.35164   0.35881   0.37293   0.39685   0.40159
 Alpha virt. eigenvalues --    0.40408   0.41688   0.43630   0.43892   0.48211
 Alpha virt. eigenvalues --    0.50702   0.52777   0.61696   0.62992   0.70238
 Alpha virt. eigenvalues --    0.70499   0.72574   0.73566   0.74611   0.76462
 Alpha virt. eigenvalues --    0.77370   0.79267   0.81176   0.81710   0.83130
 Alpha virt. eigenvalues --    0.84506   0.85400   0.88385   0.89151   0.91112
 Alpha virt. eigenvalues --    0.92820   0.94486   0.97395   0.98078   0.98651
 Alpha virt. eigenvalues --    1.00047   1.02143   1.02632   1.05944   1.06290
 Alpha virt. eigenvalues --    1.07526   1.09270   1.10544   1.11530   1.12724
 Alpha virt. eigenvalues --    1.13224   1.14075   1.15262   1.15452   1.16107
 Alpha virt. eigenvalues --    1.16742   1.17819   1.19018   1.20096   1.20415
 Alpha virt. eigenvalues --    1.21844   1.22169   1.23480   1.25310   1.26542
 Alpha virt. eigenvalues --    1.29840   1.34307   1.40825   1.42525   1.46507
 Alpha virt. eigenvalues --    1.47271   1.50612   1.54687   1.56741   1.58513
 Alpha virt. eigenvalues --    1.59735   1.67175   1.67717   1.72514   1.73727
 Alpha virt. eigenvalues --    1.75160   1.79054   1.91769   1.93740   1.96802
 Alpha virt. eigenvalues --    2.00272   2.01239   2.03799   2.05703   2.07163
 Alpha virt. eigenvalues --    2.08633   2.10173   2.10746   2.14124   2.14756
 Alpha virt. eigenvalues --    2.17025   2.18109   2.21494   2.26675   2.28475
 Alpha virt. eigenvalues --    2.30184   2.31509   2.33798   2.35279   2.35723
 Alpha virt. eigenvalues --    2.35865   2.36121   2.39455   2.40328   2.41113
 Alpha virt. eigenvalues --    2.43015   2.43516   2.43803   2.44455   2.46312
 Alpha virt. eigenvalues --    2.47321   2.49599   2.51092   2.52159   2.53332
 Alpha virt. eigenvalues --    2.55466   2.59135   2.60851   2.62377   2.64107
 Alpha virt. eigenvalues --    2.68672   2.69143   2.69734   2.72301   2.73725
 Alpha virt. eigenvalues --    2.75700   2.77898   2.78309   2.83638   2.84895
 Alpha virt. eigenvalues --    2.86093   2.87525   2.89727   2.92205   2.94641
 Alpha virt. eigenvalues --    2.96496   2.98586   3.00159   3.03360   3.04039
 Alpha virt. eigenvalues --    3.06589   3.08351   3.11107   3.12792   3.15250
 Alpha virt. eigenvalues --    3.17792   3.18852   3.19861   3.20492   3.22058
 Alpha virt. eigenvalues --    3.23664   3.26028   3.26760   3.28890   3.38747
 Alpha virt. eigenvalues --    3.40947   3.44732   3.46017   3.56125   3.57833
 Alpha virt. eigenvalues --    3.61826   3.63365   3.68506   3.71124   3.79331
 Alpha virt. eigenvalues --    3.80833   3.81851   3.82884   3.83515   3.84333
 Alpha virt. eigenvalues --    3.84447   3.86725   3.88738   3.89696   3.90701
 Alpha virt. eigenvalues --    3.95399   4.59207   4.62178   4.74001   4.84682
 Alpha virt. eigenvalues --    4.92013   4.92281   4.92550   5.10083   5.11969
 Alpha virt. eigenvalues --    5.17365
          Condensed to atoms (all electrons):
               1          2          3          4          5          6
     1  C    4.988648   0.410281   0.411428   0.342664  -0.054551   0.003874
     2  H    0.410281   0.580578  -0.028741  -0.040632   0.003401  -0.000111
     3  H    0.411428  -0.028741   0.592444  -0.047457  -0.004488   0.000148
     4  C    0.342664  -0.040632  -0.047457   4.961953   0.350836  -0.040959
     5  C   -0.054551   0.003401  -0.004488   0.350836   4.905527   0.404662
     6  H    0.003874  -0.000111   0.000148  -0.040959   0.404662   0.580016
     7  H   -0.003688  -0.000064   0.001935  -0.041508   0.398239  -0.027773
     8  H   -0.000814   0.000073  -0.000214  -0.044561   0.402450  -0.026514
     9  C   -0.057299  -0.005149   0.003582   0.696256  -0.044476  -0.002745
    10  H   -0.005829   0.001633   0.000136  -0.043546   0.003552   0.000029
    11  C    0.002926   0.000044  -0.000090  -0.044369  -0.008063  -0.002206
    12  H    0.000089   0.000003  -0.000001   0.000013  -0.002029  -0.001398
    13  H   -0.000075  -0.000013  -0.000000  -0.000304   0.000279   0.000034
    14  H   -0.000114   0.000014   0.000006  -0.001110   0.000274  -0.000044
    15  C   -0.000106   0.000002  -0.000027  -0.000001   0.000027  -0.000001
    16  H   -0.000003   0.000000  -0.000002  -0.000007   0.000002   0.000000
    17  H    0.000024  -0.000000  -0.000004   0.000001   0.000052  -0.000002
    18  H   -0.000004   0.000000   0.000001  -0.000000  -0.000002   0.000000
    19  C   -0.002995  -0.000016   0.001692  -0.000056  -0.001613   0.000040
    20  C    0.000261  -0.000008   0.000057   0.000002   0.000007  -0.000000
    21  H   -0.000204   0.000024   0.000301  -0.000004  -0.000000  -0.000000
    22  H   -0.000043   0.000001   0.000013  -0.000000  -0.000001   0.000000
    23  H    0.000137  -0.000004  -0.000070   0.000002   0.000025  -0.000000
    24  C   -0.059943   0.005612  -0.002726  -0.009648  -0.005141   0.000190
    25  H   -0.000576  -0.000093   0.000131   0.004132  -0.001193   0.000064
    26  C    0.340291  -0.040654  -0.042352  -0.053424   0.000841  -0.000146
    27  H   -0.045850  -0.002900   0.004805  -0.003495   0.000122   0.000006
    28  H   -0.042495  -0.002749  -0.003108   0.005768  -0.000147   0.000003
               7          8          9         10         11         12
     1  C   -0.003688  -0.000814  -0.057299  -0.005829   0.002926   0.000089
     2  H   -0.000064   0.000073  -0.005149   0.001633   0.000044   0.000003
     3  H    0.001935  -0.000214   0.003582   0.000136  -0.000090  -0.000001
     4  C   -0.041508  -0.044561   0.696256  -0.043546  -0.044369   0.000013
     5  C    0.398239   0.402450  -0.044476   0.003552  -0.008063  -0.002029
     6  H   -0.027773  -0.026514  -0.002745   0.000029  -0.002206  -0.001398
     7  H    0.587538  -0.033706  -0.000757  -0.000120   0.000349  -0.000067
     8  H   -0.033706   0.567128   0.000359  -0.000129   0.000224  -0.000036
     9  C   -0.000757   0.000359   4.944770   0.406231   0.342077  -0.043749
    10  H   -0.000120  -0.000129   0.406231   0.566079  -0.041811   0.003414
    11  C    0.000349   0.000224   0.342077  -0.041811   4.890777   0.408309
    12  H   -0.000067  -0.000036  -0.043749   0.003414   0.408309   0.576306
    13  H   -0.000029   0.000035  -0.042663  -0.001459   0.401396  -0.028244
    14  H    0.000068  -0.000020  -0.042399  -0.001010   0.401792  -0.028311
    15  C   -0.000002   0.000073  -0.000000  -0.000000   0.000000  -0.000000
    16  H   -0.000000   0.000092  -0.000001   0.000000   0.000000   0.000000
    17  H   -0.000002  -0.000082  -0.000000  -0.000000   0.000000   0.000000
    18  H    0.000000   0.000012  -0.000000  -0.000000   0.000000  -0.000000
    19  C    0.000061   0.002148   0.000013   0.000001  -0.000000  -0.000000
    20  C   -0.000001  -0.000029  -0.000000   0.000000  -0.000000   0.000000
    21  H   -0.000000  -0.000000   0.000000   0.000000  -0.000000   0.000000
    22  H    0.000000   0.000004   0.000000   0.000000  -0.000000  -0.000000
    23  H   -0.000002  -0.000048   0.000000  -0.000000   0.000000   0.000000
    24  C    0.000169   0.005618  -0.000519   0.000098   0.000001   0.000001
    25  H    0.000067  -0.001750   0.000990  -0.000001  -0.000012   0.000001
    26  C    0.000062  -0.000409  -0.005989  -0.000076  -0.000069  -0.000006
    27  H    0.000006   0.000040   0.002758   0.000640  -0.000067   0.000000
    28  H    0.000012  -0.000053   0.000106  -0.000048   0.000002   0.000000
              13         14         15         16         17         18
     1  C   -0.000075  -0.000114  -0.000106  -0.000003   0.000024  -0.000004
     2  H   -0.000013   0.000014   0.000002   0.000000  -0.000000   0.000000
     3  H   -0.000000   0.000006  -0.000027  -0.000002  -0.000004   0.000001
     4  C   -0.000304  -0.001110  -0.000001  -0.000007   0.000001  -0.000000
     5  C    0.000279   0.000274   0.000027   0.000002   0.000052  -0.000002
     6  H    0.000034  -0.000044  -0.000001   0.000000  -0.000002   0.000000
     7  H   -0.000029   0.000068  -0.000002  -0.000000  -0.000002   0.000000
     8  H    0.000035  -0.000020   0.000073   0.000092  -0.000082   0.000012
     9  C   -0.042663  -0.042399  -0.000000  -0.000001  -0.000000  -0.000000
    10  H   -0.001459  -0.001010  -0.000000   0.000000  -0.000000  -0.000000
    11  C    0.401396   0.401792   0.000000   0.000000   0.000000   0.000000
    12  H   -0.028244  -0.028311  -0.000000   0.000000   0.000000  -0.000000
    13  H    0.589167  -0.036423   0.000000   0.000000   0.000000   0.000000
    14  H   -0.036423   0.587769  -0.000000  -0.000000  -0.000000   0.000000
    15  C    0.000000  -0.000000   4.900249   0.406204   0.398089   0.399132
    16  H    0.000000  -0.000000   0.406204   0.565687  -0.026850  -0.026320
    17  H    0.000000  -0.000000   0.398089  -0.026850   0.596186  -0.037809
    18  H    0.000000   0.000000   0.399132  -0.026320  -0.037809   0.592709
    19  C   -0.000000   0.000000   0.353284  -0.041844  -0.044393  -0.044069
    20  C    0.000000  -0.000000  -0.064956   0.003793  -0.001972  -0.001229
    21  H    0.000000  -0.000000   0.003750  -0.000114  -0.000071  -0.000030
    22  H   -0.000000   0.000000  -0.002265  -0.000049  -0.000483   0.002796
    23  H   -0.000000  -0.000000  -0.002579  -0.000037   0.002763  -0.000464
    24  C    0.000002  -0.000000  -0.044770  -0.002488  -0.000324  -0.001279
    25  H   -0.000011   0.000001  -0.006582   0.002251   0.000191   0.000153
    26  C    0.000031  -0.000006   0.003147   0.000151  -0.000071  -0.000131
    27  H   -0.000006   0.000003  -0.000096  -0.000010  -0.000002   0.000009
    28  H   -0.000001   0.000000   0.000047   0.000005  -0.000006   0.000008
              19         20         21         22         23         24
     1  C   -0.002995   0.000261  -0.000204  -0.000043   0.000137  -0.059943
     2  H   -0.000016  -0.000008   0.000024   0.000001  -0.000004   0.005612
     3  H    0.001692   0.000057   0.000301   0.000013  -0.000070  -0.002726
     4  C   -0.000056   0.000002  -0.000004  -0.000000   0.000002  -0.009648
     5  C   -0.001613   0.000007  -0.000000  -0.000001   0.000025  -0.005141
     6  H    0.000040  -0.000000  -0.000000   0.000000  -0.000000   0.000190
     7  H    0.000061  -0.000001  -0.000000   0.000000  -0.000002   0.000169
     8  H    0.002148  -0.000029  -0.000000   0.000004  -0.000048   0.005618
     9  C    0.000013  -0.000000   0.000000   0.000000   0.000000  -0.000519
    10  H    0.000001   0.000000   0.000000   0.000000  -0.000000   0.000098
    11  C   -0.000000  -0.000000  -0.000000  -0.000000   0.000000   0.000001
    12  H   -0.000000   0.000000   0.000000  -0.000000   0.000000   0.000001
    13  H   -0.000000   0.000000   0.000000  -0.000000  -0.000000   0.000002
    14  H    0.000000  -0.000000  -0.000000   0.000000  -0.000000  -0.000000
    15  C    0.353284  -0.064956   0.003750  -0.002265  -0.002579  -0.044770
    16  H   -0.041844   0.003793  -0.000114  -0.000049  -0.000037  -0.002488
    17  H   -0.044393  -0.001972  -0.000071  -0.000483   0.002763  -0.000324
    18  H   -0.044069  -0.001229  -0.000030   0.002796  -0.000464  -0.001279
    19  C    4.928596   0.350279  -0.037787  -0.044069  -0.043457   0.691242
    20  C    0.350279   4.904282   0.407233   0.400448   0.400921  -0.043783
    21  H   -0.037787   0.407233   0.567996  -0.026564  -0.028113  -0.002998
    22  H   -0.044069   0.400448  -0.026564   0.586157  -0.035881  -0.000398
    23  H   -0.043457   0.400921  -0.028113  -0.035881   0.587508  -0.000041
    24  C    0.691242  -0.043783  -0.002998  -0.000398  -0.000041   4.974246
    25  H   -0.040965   0.003404   0.000051  -0.000122  -0.000113   0.406209
    26  C   -0.050798  -0.007270  -0.002531   0.000118   0.000309   0.342693
    27  H    0.002292   0.000152   0.000079   0.000022  -0.000014  -0.042616
    28  H   -0.001000  -0.002473  -0.001615   0.000142  -0.000088  -0.045015
              25         26         27         28
     1  C   -0.000576   0.340291  -0.045850  -0.042495
     2  H   -0.000093  -0.040654  -0.002900  -0.002749
     3  H    0.000131  -0.042352   0.004805  -0.003108
     4  C    0.004132  -0.053424  -0.003495   0.005768
     5  C   -0.001193   0.000841   0.000122  -0.000147
     6  H    0.000064  -0.000146   0.000006   0.000003
     7  H    0.000067   0.000062   0.000006   0.000012
     8  H   -0.001750  -0.000409   0.000040  -0.000053
     9  C    0.000990  -0.005989   0.002758   0.000106
    10  H   -0.000001  -0.000076   0.000640  -0.000048
    11  C   -0.000012  -0.000069  -0.000067   0.000002
    12  H    0.000001  -0.000006   0.000000   0.000000
    13  H   -0.000011   0.000031  -0.000006  -0.000001
    14  H    0.000001  -0.000006   0.000003   0.000000
    15  C   -0.006582   0.003147  -0.000096   0.000047
    16  H    0.002251   0.000151  -0.000010   0.000005
    17  H    0.000191  -0.000071  -0.000002  -0.000006
    18  H    0.000153  -0.000131   0.000009   0.000008
    19  C   -0.040965  -0.050798   0.002292  -0.001000
    20  C    0.003404  -0.007270   0.000152  -0.002473
    21  H    0.000051  -0.002531   0.000079  -0.001615
    22  H   -0.000122   0.000118   0.000022   0.000142
    23  H   -0.000113   0.000309  -0.000014  -0.000088
    24  C    0.406209   0.342693  -0.042616  -0.045015
    25  H    0.546653  -0.038620  -0.003815   0.003483
    26  C   -0.038620   4.961126   0.411457   0.411299
    27  H   -0.003815   0.411457   0.586045  -0.028839
    28  H    0.003483   0.411299  -0.028839   0.593428
 Mulliken charges:
               1
     1  C   -0.226031
     2  H    0.119467
     3  H    0.112599
     4  C    0.009455
     5  C   -0.348594
     6  H    0.112831
     7  H    0.119214
     8  H    0.130109
     9  C   -0.151396
    10  H    0.112215
    11  C   -0.351207
    12  H    0.115705
    13  H    0.118283
    14  H    0.119511
    15  C   -0.342616
    16  H    0.119539
    17  H    0.114765
    18  H    0.116517
    19  C    0.023413
    20  C   -0.349115
    21  H    0.120599
    22  H    0.120174
    23  H    0.119246
    24  C   -0.164393
    25  H    0.126073
    26  C   -0.228971
    27  H    0.119274
    28  H    0.113335
 Sum of Mulliken charges =  -0.00000
 Mulliken charges with hydrogens summed into heavy atoms:
               1
     1  C    0.006035
     4  C    0.009455
     5  C    0.013560
     9  C   -0.039181
    11  C    0.002292
    15  C    0.008205
    19  C    0.023413
    20  C    0.010904
    24  C   -0.038321
    26  C    0.003638
 Electronic spatial extent (au):  <R**2>=           2248.9416
 Charge=              0.0000 electrons
 Dipole moment (field-independent basis, Debye):
    X=             -0.4063    Y=             -0.0415    Z=              0.1927  Tot=              0.4515
 Quadrupole moment (field-independent basis, Debye-Ang):
   XX=            -64.1237   YY=            -64.2712   ZZ=            -66.2527
   XY=             -0.2461   XZ=             -1.9653   YZ=             -0.1500
 Traceless Quadrupole moment (field-independent basis, Debye-Ang):
   XX=              0.7588   YY=              0.6113   ZZ=             -1.3702
   XY=             -0.2461   XZ=             -1.9653   YZ=             -0.1500
 Octapole moment (field-independent basis, Debye-Ang**2):
  XXX=             -6.9900  YYY=              1.3729  ZZZ=              2.3185  XYY=              0.9452
  XXY=             -1.8549  XXZ=             -2.1222  XZZ=              1.1274  YZZ=             -1.1704
  YYZ=             -1.0164  XYZ=             -2.1591
 Hexadecapole moment (field-independent basis, Debye-Ang**3):
 XXXX=          -2293.6764 YYYY=           -512.3213 ZZZZ=           -297.2677 XXXY=              0.9218
 XXXZ=             -9.8553 YYYX=             -3.4319 YYYZ=             -0.0447 ZZZX=             -9.6399
 ZZZY=              0.9358 XXYY=           -474.0335 XXZZ=           -443.0047 YYZZ=           -137.2080
 XXYZ=             -6.5841 YYXZ=             -1.6647 ZZXY=              2.0957
 N-N= 5.257876685346D+02 E-N=-1.956373173047D+03  KE= 3.887490231039D+02
 No NMR shielding tensors so no spin-rotation constants.
 Leave Link  601 at Fri Sep 17 22:44:55 2021, MaxMem=   524288000 cpu:               0.3 elap:               1.0
 (Enter /opt/gaussian/g16_legacy/l9999.exe)
 1\1\GINC-TRUENO90\FOpt\RMP2-FC\6-31G(d,p)\C10H18\JRAMOS\17-Sep-2021\0\
 \#p opt mp2/6-31g(d,p)\\Conformer number 030. Energy MM = 27.340 kcal/
 mol\\0,1\C,2.4090156209,1.1069962105,-9.149562802\H,2.0808706566,0.076
 0999467,-9.3059130204\H,2.3524963213,1.6116072325,-10.1179956331\C,3.8
 37606976,1.1201424646,-8.6505744652\C,4.7002774562,2.2328867508,-9.179
 9174573\H,5.6730678085,2.2859942821,-8.6971291413\H,4.86287597,2.10132
 36485,-10.2522599316\H,4.1987432489,3.1920909269,-9.04912881\C,4.24259
 91743,0.1717996769,-7.7848716179\H,3.5117801105,-0.5846563589,-7.50757
 2085\C,5.5879726172,0.0149693912,-7.1441655077\H,6.2871658575,0.792077
 4408,-7.4419060642\H,5.5030148342,0.0399365554,-6.0562009799\H,6.02964
 4287,-0.9484290967,-7.4055702306\C,1.8425063308,5.6804088104,-7.986285
 9903\H,2.5807247144,5.5971914322,-7.1900108194\H,2.2979830502,6.216894
 9903,-8.8218162209\H,1.0176937373,6.2991569191,-7.6253243893\C,1.34645
 00695,4.3292399374,-8.4223539535\C,0.3211766638,4.3599369319,-9.521427
 135\H,-0.0000432897,3.3682978073,-9.8295261889\H,-0.5603294156,4.92330
 72361,-9.2072113034\H,0.7251449501,4.8697842512,-10.3987430017\C,1.811
 2686682,3.2040969279,-7.8459738844\H,2.5660571475,3.3142223901,-7.0723
 332371\C,1.4285275629,1.7910864366,-8.1765239752\H,1.4102461784,1.2069
 044748,-7.2528667186\H,0.4213626931,1.7458323834,-8.595135436\\Version
 =EM64L-G16RevA.03\State=1-A\HF=-389.1537971\MP2=-390.5726197\RMSD=5.29
 4e-09\RMSF=2.245e-06\Dipole=-0.0460638,0.1063715,-0.0649661\PG=C01 [X(
 C10H18)]\\@


 ...THE PHYSICISTS HAVE MADE THEIR UNIVERSE, AND IF YOU DO NOT LIKE
 IT, YOU MUST MAKE YOUR OWN.
                               -- E. R. HARRISON IN "COSMOLOGY" (1980)
 Job cpu time:       0 days  2 hours 35 minutes 13.8 seconds.
 Elapsed time:       0 days  2 hours 35 minutes 22.3 seconds.
 File lengths (MBytes):  RWF=     37 Int=      0 D2E=      0 Chk=      7 Scr=      1
 Normal termination of Gaussian 16 at Fri Sep 17 22:44:56 2021.
