 Entering Gaussian System, Link 0=/opt/gaussian/g16_legacy/g16
 Input=02-IsoP_039_gaussian.com
 Output=02-IsoP_039_gaussian.log
 Initial command:
 /opt/gaussian/g16_legacy/l1.exe "/scratch-local/jramos/2661527/Gau-12071.inp" -scrdir="/scratch-local/jramos/2661527/"
 Entering Link 1 = /opt/gaussian/g16_legacy/l1.exe PID=     12072.
  
 Copyright (c) 1988,1990,1992,1993,1995,1998,2003,2009,2016,
            Gaussian, Inc.  All Rights Reserved.
  
 This is part of the Gaussian(R) 16 program.  It is based on
 the Gaussian(R) 09 system (copyright 2009, Gaussian, Inc.),
 the Gaussian(R) 03 system (copyright 2003, Gaussian, Inc.),
 the Gaussian(R) 98 system (copyright 1998, Gaussian, Inc.),
 the Gaussian(R) 94 system (copyright 1995, Gaussian, Inc.),
 the Gaussian 92(TM) system (copyright 1992, Gaussian, Inc.),
 the Gaussian 90(TM) system (copyright 1990, Gaussian, Inc.),
 the Gaussian 88(TM) system (copyright 1988, Gaussian, Inc.),
 the Gaussian 86(TM) system (copyright 1986, Carnegie Mellon
 University), and the Gaussian 82(TM) system (copyright 1983,
 Carnegie Mellon University). Gaussian is a federally registered
 trademark of Gaussian, Inc.
  
 This software contains proprietary and confidential information,
 including trade secrets, belonging to Gaussian, Inc.
  
 This software is provided under written license and may be
 used, copied, transmitted, or stored only in accord with that
 written license.
  
 The following legend is applicable only to US Government
 contracts under FAR:
  
                    RESTRICTED RIGHTS LEGEND
  
 Use, reproduction and disclosure by the US Government is
 subject to restrictions as set forth in subparagraphs (a)
 and (c) of the Commercial Computer Software - Restricted
 Rights clause in FAR 52.227-19.
  
 Gaussian, Inc.
 340 Quinnipiac St., Bldg. 40, Wallingford CT 06492
  
  
 ---------------------------------------------------------------
 Warning -- This program may not be used in any manner that
 competes with the business of Gaussian, Inc. or will provide
 assistance to any competitor of Gaussian, Inc.  The licensee
 of this program is prohibited from giving any competitor of
 Gaussian, Inc. access to this program.  By using this program,
 the user acknowledges that Gaussian, Inc. is engaged in the
 business of creating and licensing software in the field of
 computational chemistry and represents and warrants to the
 licensee that it is not a competitor of Gaussian, Inc. and that
 it will not use this program in any manner prohibited above.
 ---------------------------------------------------------------
  

 Cite this work as:
 Gaussian 16, Revision A.03,
 M. J. Frisch, G. W. Trucks, H. B. Schlegel, G. E. Scuseria, 
 M. A. Robb, J. R. Cheeseman, G. Scalmani, V. Barone, 
 G. A. Petersson, H. Nakatsuji, X. Li, M. Caricato, A. V. Marenich, 
 J. Bloino, B. G. Janesko, R. Gomperts, B. Mennucci, H. P. Hratchian, 
 J. V. Ortiz, A. F. Izmaylov, J. L. Sonnenberg, D. Williams-Young, 
 F. Ding, F. Lipparini, F. Egidi, J. Goings, B. Peng, A. Petrone, 
 T. Henderson, D. Ranasinghe, V. G. Zakrzewski, J. Gao, N. Rega, 
 G. Zheng, W. Liang, M. Hada, M. Ehara, K. Toyota, R. Fukuda, 
 J. Hasegawa, M. Ishida, T. Nakajima, Y. Honda, O. Kitao, H. Nakai, 
 T. Vreven, K. Throssell, J. A. Montgomery, Jr., J. E. Peralta, 
 F. Ogliaro, M. J. Bearpark, J. J. Heyd, E. N. Brothers, K. N. Kudin, 
 V. N. Staroverov, T. A. Keith, R. Kobayashi, J. Normand, 
 K. Raghavachari, A. P. Rendell, J. C. Burant, S. S. Iyengar, 
 J. Tomasi, M. Cossi, J. M. Millam, M. Klene, C. Adamo, R. Cammi, 
 J. W. Ochterski, R. L. Martin, K. Morokuma, O. Farkas, 
 J. B. Foresman, and D. J. Fox, Gaussian, Inc., Wallingford CT, 2016.
 
 ******************************************
 Gaussian 16:  EM64L-G16RevA.03 25-Dec-2016
                17-Sep-2021 
 ******************************************
 %chk=02-IsoP_039_gaussian.chk
 %nproc=1
 Will use up to    1 processors via shared memory.
 %mem=4000Mb
 ---------------------
 #p opt mp2/6-31g(d,p)
 ---------------------
 1/18=20,19=15,38=1/1,3;
 2/9=110,12=2,17=6,18=5,40=1/2;
 3/5=1,6=6,7=101,11=9,25=1,30=1,71=1/1,2,3;
 4//1;
 5/5=2,38=5/2;
 8/6=4,10=2/1;
 9/15=2,16=-3/6;
 10/5=1/2;
 6/7=2,8=2,9=2,10=2/1;
 7/12=2/1,2,3,16;
 1/18=20,19=15/3(2);
 2/9=110/2;
 99//99;
 2/9=110/2;
 3/5=1,6=6,7=101,11=9,25=1,30=1,71=1/1,2,3;
 4/5=5,16=3,69=1/1;
 5/5=2,38=5/2;
 8/6=4,10=2/1;
 9/15=2,16=-3/6;
 10/5=1/2;
 7/12=2/1,2,3,16;
 1/18=20,19=15/3(-8);
 2/9=110/2;
 6/7=2,8=2,9=2,10=2/1;
 99//99;
 Leave Link    1 at Fri Sep 17 20:09:28 2021, MaxMem=   524288000 cpu:               0.0 elap:               0.3
 (Enter /opt/gaussian/g16_legacy/l101.exe)
 -------------------------------------------------
 Conformer number 039. Energy MM = 27.337 kcal/mol
 -------------------------------------------------
 Symbolic Z-matrix:
 Charge =  0 Multiplicity = 1
 C                     2.2328    1.4141   -8.8946 
 H                     1.9536    0.4166   -9.261 
 H                     2.0804    2.103    -9.7347 
 C                     3.7258    1.3977   -8.5793 
 C                     4.5611    0.7508   -9.6572 
 H                     5.4311    0.2269   -9.2522 
 H                     3.9842    0.0011   -10.2093 
 H                     4.9002    1.5079   -10.3714 
 C                     4.2639    1.8967   -7.4477 
 H                     3.6208    2.3824   -6.7191 
 C                     5.6993    1.8826   -7.028 
 H                     6.3819    1.5396   -7.807 
 H                     6.0069    2.8931   -6.7391 
 H                     5.8154    1.2316   -6.1559 
 C                     0.6484   -1.0859   -5.1791 
 H                     1.4467   -0.7086   -4.5294 
 H                    -0.2745   -1.1124   -4.593 
 H                     0.9164   -2.1102   -5.4619 
 C                     0.4671   -0.2395   -6.4089 
 C                    -0.5982   -0.7032   -7.3592 
 H                    -0.4102   -0.3824   -8.3879 
 H                    -0.6476   -1.7983   -7.3772 
 H                    -1.575    -0.3216   -7.0457 
 C                     1.2515    0.8357   -6.6187 
 H                     1.9982    1.071    -5.8593 
 C                     1.2262    1.784    -7.7877 
 H                     0.2217    1.8159   -8.2253 
 H                     1.4156    2.8028   -7.4276 
 
 ITRead=  0  0  0  0  0  0  0  0  0  0  0  0  0  0  0  0  0  0  0  0
 ITRead=  0  0  0  0  0  0  0  0
 MicOpt= -1 -1 -1 -1 -1 -1 -1 -1 -1 -1 -1 -1 -1 -1 -1 -1 -1 -1 -1 -1
 MicOpt= -1 -1 -1 -1 -1 -1 -1 -1
 NAtoms=     28 NQM=       28 NQMF=       0 NMMI=      0 NMMIF=      0
                NMic=       0 NMicF=      0.
                    Isotopes and Nuclear Properties:
 (Nuclear quadrupole moments (NQMom) in fm**2, nuclear magnetic moments (NMagM)
  in nuclear magnetons)

  Atom         1           2           3           4           5           6           7           8           9          10
 IAtWgt=          12           1           1          12          12           1           1           1          12           1
 AtmWgt=  12.0000000   1.0078250   1.0078250  12.0000000  12.0000000   1.0078250   1.0078250   1.0078250  12.0000000   1.0078250
 NucSpn=           0           1           1           0           0           1           1           1           0           1
 AtZEff=  -0.0000000  -0.0000000  -0.0000000  -0.0000000  -0.0000000  -0.0000000  -0.0000000  -0.0000000  -0.0000000  -0.0000000
 NQMom=    0.0000000   0.0000000   0.0000000   0.0000000   0.0000000   0.0000000   0.0000000   0.0000000   0.0000000   0.0000000
 NMagM=    0.0000000   2.7928460   2.7928460   0.0000000   0.0000000   2.7928460   2.7928460   2.7928460   0.0000000   2.7928460
 AtZNuc=   6.0000000   1.0000000   1.0000000   6.0000000   6.0000000   1.0000000   1.0000000   1.0000000   6.0000000   1.0000000

  Atom        11          12          13          14          15          16          17          18          19          20
 IAtWgt=          12           1           1           1          12           1           1           1          12          12
 AtmWgt=  12.0000000   1.0078250   1.0078250   1.0078250  12.0000000   1.0078250   1.0078250   1.0078250  12.0000000  12.0000000
 NucSpn=           0           1           1           1           0           1           1           1           0           0
 AtZEff=  -0.0000000  -0.0000000  -0.0000000  -0.0000000  -0.0000000  -0.0000000  -0.0000000  -0.0000000  -0.0000000  -0.0000000
 NQMom=    0.0000000   0.0000000   0.0000000   0.0000000   0.0000000   0.0000000   0.0000000   0.0000000   0.0000000   0.0000000
 NMagM=    0.0000000   2.7928460   2.7928460   2.7928460   0.0000000   2.7928460   2.7928460   2.7928460   0.0000000   0.0000000
 AtZNuc=   6.0000000   1.0000000   1.0000000   1.0000000   6.0000000   1.0000000   1.0000000   1.0000000   6.0000000   6.0000000

  Atom        21          22          23          24          25          26          27          28
 IAtWgt=           1           1           1          12           1          12           1           1
 AtmWgt=   1.0078250   1.0078250   1.0078250  12.0000000   1.0078250  12.0000000   1.0078250   1.0078250
 NucSpn=           1           1           1           0           1           0           1           1
 AtZEff=  -0.0000000  -0.0000000  -0.0000000  -0.0000000  -0.0000000  -0.0000000  -0.0000000  -0.0000000
 NQMom=    0.0000000   0.0000000   0.0000000   0.0000000   0.0000000   0.0000000   0.0000000   0.0000000
 NMagM=    2.7928460   2.7928460   2.7928460   0.0000000   2.7928460   0.0000000   2.7928460   2.7928460
 AtZNuc=   1.0000000   1.0000000   1.0000000   6.0000000   1.0000000   6.0000000   1.0000000   1.0000000
 Leave Link  101 at Fri Sep 17 20:09:28 2021, MaxMem=   524288000 cpu:               0.3 elap:               0.4
 (Enter /opt/gaussian/g16_legacy/l103.exe)

 GradGradGradGradGradGradGradGradGradGradGradGradGradGradGradGradGradGrad
 Berny optimization.
 Initialization pass.
                           ----------------------------
                           !    Initial Parameters    !
                           ! (Angstroms and Degrees)  !
 --------------------------                            --------------------------
 ! Name  Definition              Value          Derivative Info.                !
 --------------------------------------------------------------------------------
 ! R1    R(1,2)                  1.0987         estimate D2E/DX2                !
 ! R2    R(1,3)                  1.0971         estimate D2E/DX2                !
 ! R3    R(1,4)                  1.526          estimate D2E/DX2                !
 ! R4    R(1,26)                 1.5412         estimate D2E/DX2                !
 ! R5    R(4,5)                  1.5093         estimate D2E/DX2                !
 ! R6    R(4,9)                  1.3487         estimate D2E/DX2                !
 ! R7    R(5,6)                  1.0933         estimate D2E/DX2                !
 ! R8    R(5,7)                  1.0953         estimate D2E/DX2                !
 ! R9    R(5,8)                  1.0947         estimate D2E/DX2                !
 ! R10   R(9,10)                 1.0864         estimate D2E/DX2                !
 ! R11   R(9,11)                 1.4956         estimate D2E/DX2                !
 ! R12   R(11,12)                1.0911         estimate D2E/DX2                !
 ! R13   R(11,13)                1.0951         estimate D2E/DX2                !
 ! R14   R(11,14)                1.0945         estimate D2E/DX2                !
 ! R15   R(15,16)                1.0962         estimate D2E/DX2                !
 ! R16   R(15,17)                1.0936         estimate D2E/DX2                !
 ! R17   R(15,18)                1.0959         estimate D2E/DX2                !
 ! R18   R(15,19)                1.5039         estimate D2E/DX2                !
 ! R19   R(19,20)                1.501          estimate D2E/DX2                !
 ! R20   R(19,24)                1.3474         estimate D2E/DX2                !
 ! R21   R(20,21)                1.0938         estimate D2E/DX2                !
 ! R22   R(20,22)                1.0964         estimate D2E/DX2                !
 ! R23   R(20,23)                1.0945         estimate D2E/DX2                !
 ! R24   R(24,25)                1.0907         estimate D2E/DX2                !
 ! R25   R(24,26)                1.5055         estimate D2E/DX2                !
 ! R26   R(26,27)                1.0961         estimate D2E/DX2                !
 ! R27   R(26,28)                1.097          estimate D2E/DX2                !
 ! A1    A(2,1,3)              106.2258         estimate D2E/DX2                !
 ! A2    A(2,1,4)              107.9242         estimate D2E/DX2                !
 ! A3    A(2,1,26)             106.9437         estimate D2E/DX2                !
 ! A4    A(3,1,4)              107.5102         estimate D2E/DX2                !
 ! A5    A(3,1,26)             107.971          estimate D2E/DX2                !
 ! A6    A(4,1,26)             119.5499         estimate D2E/DX2                !
 ! A7    A(1,4,5)              113.4844         estimate D2E/DX2                !
 ! A8    A(1,4,9)              124.0359         estimate D2E/DX2                !
 ! A9    A(5,4,9)              122.477          estimate D2E/DX2                !
 ! A10   A(4,5,6)              112.4085         estimate D2E/DX2                !
 ! A11   A(4,5,7)              111.2141         estimate D2E/DX2                !
 ! A12   A(4,5,8)              109.9349         estimate D2E/DX2                !
 ! A13   A(6,5,7)              106.132          estimate D2E/DX2                !
 ! A14   A(6,5,8)              109.0622         estimate D2E/DX2                !
 ! A15   A(7,5,8)              107.9202         estimate D2E/DX2                !
 ! A16   A(4,9,10)             119.4661         estimate D2E/DX2                !
 ! A17   A(4,9,11)             127.9433         estimate D2E/DX2                !
 ! A18   A(10,9,11)            112.5902         estimate D2E/DX2                !
 ! A19   A(9,11,12)            113.7694         estimate D2E/DX2                !
 ! A20   A(9,11,13)            109.5682         estimate D2E/DX2                !
 ! A21   A(9,11,14)            109.3316         estimate D2E/DX2                !
 ! A22   A(12,11,13)           107.6208         estimate D2E/DX2                !
 ! A23   A(12,11,14)           108.3948         estimate D2E/DX2                !
 ! A24   A(13,11,14)           107.9906         estimate D2E/DX2                !
 ! A25   A(16,15,17)           107.7738         estimate D2E/DX2                !
 ! A26   A(16,15,18)           107.2502         estimate D2E/DX2                !
 ! A27   A(16,15,19)           112.2552         estimate D2E/DX2                !
 ! A28   A(17,15,18)           108.7856         estimate D2E/DX2                !
 ! A29   A(17,15,19)           110.4972         estimate D2E/DX2                !
 ! A30   A(18,15,19)           110.1512         estimate D2E/DX2                !
 ! A31   A(15,19,20)           115.431          estimate D2E/DX2                !
 ! A32   A(15,19,24)           120.4162         estimate D2E/DX2                !
 ! A33   A(20,19,24)           124.1345         estimate D2E/DX2                !
 ! A34   A(19,20,21)           112.5091         estimate D2E/DX2                !
 ! A35   A(19,20,22)           110.5454         estimate D2E/DX2                !
 ! A36   A(19,20,23)           110.1416         estimate D2E/DX2                !
 ! A37   A(21,20,22)           106.5736         estimate D2E/DX2                !
 ! A38   A(21,20,23)           108.693          estimate D2E/DX2                !
 ! A39   A(22,20,23)           108.2236         estimate D2E/DX2                !
 ! A40   A(19,24,25)           117.5361         estimate D2E/DX2                !
 ! A41   A(19,24,26)           127.8642         estimate D2E/DX2                !
 ! A42   A(25,24,26)           114.5982         estimate D2E/DX2                !
 ! A43   A(1,26,24)            113.2989         estimate D2E/DX2                !
 ! A44   A(1,26,27)            108.5895         estimate D2E/DX2                !
 ! A45   A(1,26,28)            110.2355         estimate D2E/DX2                !
 ! A46   A(24,26,27)           110.1038         estimate D2E/DX2                !
 ! A47   A(24,26,28)           109.0983         estimate D2E/DX2                !
 ! A48   A(27,26,28)           105.2023         estimate D2E/DX2                !
 ! D1    D(2,1,4,5)             45.7181         estimate D2E/DX2                !
 ! D2    D(2,1,4,9)           -133.707          estimate D2E/DX2                !
 ! D3    D(3,1,4,5)            -68.4865         estimate D2E/DX2                !
 ! D4    D(3,1,4,9)            112.0884         estimate D2E/DX2                !
 ! D5    D(26,1,4,5)           168.0941         estimate D2E/DX2                !
 ! D6    D(26,1,4,9)           -11.331          estimate D2E/DX2                !
 ! D7    D(2,1,26,24)           61.151          estimate D2E/DX2                !
 ! D8    D(2,1,26,27)          -61.5109         estimate D2E/DX2                !
 ! D9    D(2,1,26,28)         -176.2726         estimate D2E/DX2                !
 ! D10   D(3,1,26,24)          175.0988         estimate D2E/DX2                !
 ! D11   D(3,1,26,27)           52.4369         estimate D2E/DX2                !
 ! D12   D(3,1,26,28)          -62.3248         estimate D2E/DX2                !
 ! D13   D(4,1,26,24)          -61.7061         estimate D2E/DX2                !
 ! D14   D(4,1,26,27)          175.6319         estimate D2E/DX2                !
 ! D15   D(4,1,26,28)           60.8703         estimate D2E/DX2                !
 ! D16   D(1,4,5,6)           -146.6497         estimate D2E/DX2                !
 ! D17   D(1,4,5,7)            -27.8044         estimate D2E/DX2                !
 ! D18   D(1,4,5,8)             91.6594         estimate D2E/DX2                !
 ! D19   D(9,4,5,6)             32.7856         estimate D2E/DX2                !
 ! D20   D(9,4,5,7)            151.6308         estimate D2E/DX2                !
 ! D21   D(9,4,5,8)            -88.9053         estimate D2E/DX2                !
 ! D22   D(1,4,9,10)            -2.6935         estimate D2E/DX2                !
 ! D23   D(1,4,9,11)           177.5687         estimate D2E/DX2                !
 ! D24   D(5,4,9,10)           177.9315         estimate D2E/DX2                !
 ! D25   D(5,4,9,11)            -1.8063         estimate D2E/DX2                !
 ! D26   D(4,9,11,12)            8.6196         estimate D2E/DX2                !
 ! D27   D(4,9,11,13)          129.1237         estimate D2E/DX2                !
 ! D28   D(4,9,11,14)         -112.7071         estimate D2E/DX2                !
 ! D29   D(10,9,11,12)        -171.1331         estimate D2E/DX2                !
 ! D30   D(10,9,11,13)         -50.629          estimate D2E/DX2                !
 ! D31   D(10,9,11,14)          67.5402         estimate D2E/DX2                !
 ! D32   D(16,15,19,20)        179.2353         estimate D2E/DX2                !
 ! D33   D(16,15,19,24)          0.7269         estimate D2E/DX2                !
 ! D34   D(17,15,19,20)        -60.4267         estimate D2E/DX2                !
 ! D35   D(17,15,19,24)        121.0649         estimate D2E/DX2                !
 ! D36   D(18,15,19,20)         59.7979         estimate D2E/DX2                !
 ! D37   D(18,15,19,24)       -118.7104         estimate D2E/DX2                !
 ! D38   D(15,19,20,21)       -153.8639         estimate D2E/DX2                !
 ! D39   D(15,19,20,22)        -34.8479         estimate D2E/DX2                !
 ! D40   D(15,19,20,23)         84.7022         estimate D2E/DX2                !
 ! D41   D(24,19,20,21)         24.582          estimate D2E/DX2                !
 ! D42   D(24,19,20,22)        143.598          estimate D2E/DX2                !
 ! D43   D(24,19,20,23)        -96.8519         estimate D2E/DX2                !
 ! D44   D(15,19,24,25)         -1.1322         estimate D2E/DX2                !
 ! D45   D(15,19,24,26)        179.3329         estimate D2E/DX2                !
 ! D46   D(20,19,24,25)       -179.5047         estimate D2E/DX2                !
 ! D47   D(20,19,24,26)          0.9603         estimate D2E/DX2                !
 ! D48   D(19,24,26,1)         -94.5698         estimate D2E/DX2                !
 ! D49   D(19,24,26,27)         27.2491         estimate D2E/DX2                !
 ! D50   D(19,24,26,28)        142.2253         estimate D2E/DX2                !
 ! D51   D(25,24,26,1)          85.8837         estimate D2E/DX2                !
 ! D52   D(25,24,26,27)       -152.2974         estimate D2E/DX2                !
 ! D53   D(25,24,26,28)        -37.3212         estimate D2E/DX2                !
 --------------------------------------------------------------------------------
 Trust Radius=3.00D-01 FncErr=1.00D-07 GrdErr=1.00D-07 EigMax=2.50D+02 EigMin=1.00D-04
 Number of steps in this run=    138 maximum allowed number of steps=    168.
 GradGradGradGradGradGradGradGradGradGradGradGradGradGradGradGradGradGrad

 Leave Link  103 at Fri Sep 17 20:09:28 2021, MaxMem=   524288000 cpu:               0.1 elap:               0.1
 (Enter /opt/gaussian/g16_legacy/l202.exe)
                          Input orientation:                          
 ---------------------------------------------------------------------
 Center     Atomic      Atomic             Coordinates (Angstroms)
 Number     Number       Type             X           Y           Z
 ---------------------------------------------------------------------
      1          6           0        2.232800    1.414100   -8.894600
      2          1           0        1.953600    0.416600   -9.261000
      3          1           0        2.080400    2.103000   -9.734700
      4          6           0        3.725800    1.397700   -8.579300
      5          6           0        4.561100    0.750800   -9.657200
      6          1           0        5.431100    0.226900   -9.252200
      7          1           0        3.984200    0.001100  -10.209300
      8          1           0        4.900200    1.507900  -10.371400
      9          6           0        4.263900    1.896700   -7.447700
     10          1           0        3.620800    2.382400   -6.719100
     11          6           0        5.699300    1.882600   -7.028000
     12          1           0        6.381900    1.539600   -7.807000
     13          1           0        6.006900    2.893100   -6.739100
     14          1           0        5.815400    1.231600   -6.155900
     15          6           0        0.648400   -1.085900   -5.179100
     16          1           0        1.446700   -0.708600   -4.529400
     17          1           0       -0.274500   -1.112400   -4.593000
     18          1           0        0.916400   -2.110200   -5.461900
     19          6           0        0.467100   -0.239500   -6.408900
     20          6           0       -0.598200   -0.703200   -7.359200
     21          1           0       -0.410200   -0.382400   -8.387900
     22          1           0       -0.647600   -1.798300   -7.377200
     23          1           0       -1.575000   -0.321600   -7.045700
     24          6           0        1.251500    0.835700   -6.618700
     25          1           0        1.998200    1.071000   -5.859300
     26          6           0        1.226200    1.784000   -7.787700
     27          1           0        0.221700    1.815900   -8.225300
     28          1           0        1.415600    2.802800   -7.427600
 ---------------------------------------------------------------------
                    Distance matrix (angstroms):
                    1          2          3          4          5
     1  C    0.000000
     2  H    1.098730   0.000000
     3  H    1.097077   1.756250   0.000000
     4  C    1.526018   2.137280   2.130666   0.000000
     5  C    2.538209   2.658518   2.826362   1.509329   0.000000
     6  H    3.430225   3.482681   3.870368   2.175228   1.093342
     7  H    2.606225   2.279309   2.875358   2.161981   1.095298
     8  H    3.050370   3.332623   2.951407   2.145456   1.094656
     9  C    2.540037   3.288805   3.168691   1.348729   2.506652
    10  H    2.756256   3.620108   3.397755   2.107369   3.489801
    11  C    3.964885   4.600621   4.524515   2.556631   3.080449
    12  H    4.291113   4.794276   4.747246   2.769738   2.713072
    13  H    4.591019   5.377943   5.001528   3.290285   3.898089
    14  H    4.513181   5.021889   5.245700   3.204198   3.750139
    15  C    4.750291   4.541251   5.742229   5.215364   6.223831
    16  H    4.917192   4.889894   5.949943   5.102204   6.174437
    17  H    5.583325   5.393746   6.505492   6.180096   7.245734
    18  H    5.092841   4.679066   6.112509   5.469577   6.250576
    19  C    3.468543   3.282472   4.376184   4.243841   5.319115
    20  C    3.854215   3.373793   4.548918   4.959778   5.832092
    21  H    3.235677   2.643531   3.767515   4.506871   5.254435
    22  H    4.573699   3.901375   5.312244   5.548521   6.231121
    23  H    4.574978   4.231254   5.145032   5.779827   6.754384
    24  C    2.545038   2.765925   3.464474   3.206549   4.493678
    25  H    3.063625   3.464360   4.011297   3.238786   4.592932
    26  C    1.541200   2.137640   2.149937   2.650256   3.960314
    27  H    2.157297   2.455645   2.411531   3.546678   4.692032
    28  H    2.179081   3.056918   2.500878   2.939004   4.367607
                    6          7          8          9         10
     6  H    0.000000
     7  H    1.749442   0.000000
     8  H    1.781972   1.770813   0.000000
     9  C    2.721545   3.361245   3.017294   0.000000
    10  H    3.786814   4.240772   3.967482   1.086435   0.000000
    11  C    2.785739   4.074590   3.457931   1.495567   2.159949
    12  H    2.171590   3.726526   2.961855   2.177738   3.085046
    13  H    3.708887   4.949471   4.041926   2.129079   2.440223
    14  H    3.277832   4.614919   4.322542   2.125619   2.541221
    15  C    6.417773   6.132866   7.194830   5.207138   4.820360
    16  H    6.249435   6.261297   7.139223   4.820859   4.367583
    17  H    7.487038   7.135771   8.187393   6.148257   5.648654
    18  H    6.341209   6.033804   7.284538   5.586090   5.392382
    19  C    5.739615   5.183717   6.197353   4.478632   4.112956
    20  C    6.387566   5.442196   6.647911   5.514284   5.265987
    21  H    5.936249   4.772350   5.975605   5.284457   5.165072
    22  H    6.675901   5.719458   7.118587   6.146611   6.010872
    23  H    7.365795   6.404468   7.505702   6.259010   5.866398
    24  C    4.977451   4.588749   5.277085   3.299624   2.831244
    25  H    4.899906   4.900141   5.382521   2.887593   2.256514
    26  C    4.717044   4.080373   4.500001   3.058745   2.689628
    27  H    5.542318   4.624517   5.156450   4.117107   3.760777
    28  H    5.107707   4.710104   4.741852   2.989019   2.354064
                   11         12         13         14         15
    11  C    0.000000
    12  H    1.091070   0.000000
    13  H    1.095076   1.764369   0.000000
    14  H    1.094458   1.772545   1.771264   0.000000
    15  C    6.143453   6.831700   6.854164   5.746550   0.000000
    16  H    5.571528   6.336660   6.216948   5.049299   1.096243
    17  H    7.112351   7.853061   7.752791   6.709983   1.093600
    18  H    6.424271   6.977981   7.251030   5.970717   1.095897
    19  C    5.680010   6.332830   6.372723   5.552698   1.503885
    20  C    6.815758   7.345235   7.546207   6.806295   2.540336
    21  H    6.656241   7.082666   7.390982   6.807710   3.451368
    22  H    7.345346   7.793598   8.166932   7.241701   2.649297
    23  H    7.600938   8.207064   8.240965   7.604090   3.001976
    24  C    4.587641   5.313053   5.182781   4.604357   2.475626
    25  H    3.965185   4.819746   4.490409   3.832073   2.633790
    26  C    4.538225   5.161526   5.018442   4.901905   3.921093
    27  H    5.607324   6.180565   6.069406   5.992771   4.228694
    28  H    4.399606   5.138458   4.643514   4.841914   4.557010
                   16         17         18         19         20
    16  H    0.000000
    17  H    1.769076   0.000000
    18  H    1.765009   1.780122   0.000000
    19  C    2.170758   2.146955   2.144341   0.000000
    20  C    3.491334   2.814976   2.805960   1.500984   0.000000
    21  H    4.294474   3.866857   3.647826   2.169451   1.093837
    22  H    3.699122   2.891614   2.492339   2.147095   1.096361
    23  H    3.951228   2.886590   3.451751   2.140660   1.094550
    24  C    2.605406   3.198004   3.182578   1.347351   2.517527
    25  H    2.289053   3.396456   3.383526   2.088956   3.484075
    26  C    4.108308   4.565889   4.546440   2.563567   3.114195
    27  H    4.640410   4.691989   4.851108   2.753942   2.787154
    28  H    4.553072   5.120565   5.315143   3.345593   4.043774
                   21         22         23         24         25
    21  H    0.000000
    22  H    1.755747   0.000000
    23  H    1.778189   1.774995   0.000000
    24  C    2.715710   3.334645   3.083954   0.000000
    25  H    3.782404   4.187739   4.014304   1.090695   0.000000
    26  C    2.780528   4.063559   3.582016   1.505481   2.196151
    27  H    2.293089   3.812794   3.031253   2.145331   3.051030
    28  H    3.794894   5.042763   4.341821   2.133244   2.407928
                   26         27         28
    26  C    0.000000
    27  H    1.096144   0.000000
    28  H    1.097040   1.742324   0.000000
 Stoichiometry    C10H18
 Framework group  C1[X(C10H18)]
 Deg. of freedom    78
 Full point group                 C1      NOp   1
 Largest Abelian subgroup         C1      NOp   1
 Largest concise Abelian subgroup C1      NOp   1
                         Standard orientation:                         
 ---------------------------------------------------------------------
 Center     Atomic      Atomic             Coordinates (Angstroms)
 Number     Number       Type             X           Y           Z
 ---------------------------------------------------------------------
      1          6           0        0.614113   -1.380157   -0.334812
      2          1           0        0.120622   -1.743461    0.577155
      3          1           0        1.030422   -2.265349   -0.831501
      4          6           0        1.784936   -0.496095    0.085117
      5          6           0        2.625646   -1.094478    1.186579
      6          1           0        3.037527   -0.334591    1.856147
      7          1           0        2.033249   -1.766519    1.816742
      8          1           0        3.447762   -1.674539    0.755388
      9          6           0        2.051445    0.710630   -0.455122
     10          1           0        1.434010    1.079831   -1.269250
     11          6           0        3.138010    1.666929   -0.078836
     12          1           0        3.860698    1.255602    0.627537
     13          1           0        3.687271    1.969671   -0.976528
     14          1           0        2.693934    2.563755    0.364264
     15          6           0       -2.962806    1.589936    0.639590
     16          1           0       -2.354361    2.470162    0.401380
     17          1           0       -3.966573    1.759936    0.240202
     18          1           0       -3.024169    1.523175    1.731729
     19          6           0       -2.378861    0.324196    0.075159
     20          6           0       -3.147337   -0.929823    0.374881
     21          1           0       -2.513445   -1.821231    0.367639
     22          1           0       -3.598842   -0.875247    1.372464
     23          1           0       -3.949881   -1.064112   -0.357191
     24          6           0       -1.224929    0.355929   -0.619670
     25          1           0       -0.752089    1.327575   -0.767800
     26          6           0       -0.488861   -0.800572   -1.241910
     27          1           0       -1.191859   -1.603065   -1.493563
     28          1           0       -0.062406   -0.480556   -2.200671
 ---------------------------------------------------------------------
 Rotational constants (GHZ):           1.9809565           0.6201848           0.5496540
 Leave Link  202 at Fri Sep 17 20:09:28 2021, MaxMem=   524288000 cpu:               0.0 elap:               0.2
 (Enter /opt/gaussian/g16_legacy/l301.exe)
 Standard basis: 6-31G(d,p) (6D, 7F)
 Ernie: Thresh=  0.10000D-02 Tol=  0.10000D-05 Strict=F.
 There are   240 symmetry adapted cartesian basis functions of A   symmetry.
 There are   240 symmetry adapted basis functions of A   symmetry.
   240 basis functions,   406 primitive gaussians,   240 cartesian basis functions
    39 alpha electrons       39 beta electrons
       nuclear repulsion energy       520.8802651894 Hartrees.
 IExCor=    0 DFT=F Ex=HF Corr=None ExCW=0 ScaHFX=  1.000000
 ScaDFX=  1.000000  1.000000  1.000000  1.000000 ScalE2=  1.000000  1.000000
 IRadAn=      5 IRanWt=     -1 IRanGd=            0 ICorTp=0 IEmpDi=  4
 NAtoms=   28 NActive=   28 NUniq=   28 SFac= 1.00D+00 NAtFMM=   60 NAOKFM=F Big=F
 Integral buffers will be    131072 words long.
 Raffenetti 1 integral format.
 Two-electron integral symmetry is turned on.
 Leave Link  301 at Fri Sep 17 20:09:29 2021, MaxMem=   524288000 cpu:               0.1 elap:               0.3
 (Enter /opt/gaussian/g16_legacy/l302.exe)
 NPDir=0 NMtPBC=     1 NCelOv=     1 NCel=       1 NClECP=     1 NCelD=      1
         NCelK=      1 NCelE2=     1 NClLst=     1 CellRange=     0.0.
 One-electron integrals computed using PRISM.
 One-electron integral symmetry used in STVInt
 NBasis=   240 RedAO= T EigKep=  2.16D-03  NBF=   240
 NBsUse=   240 1.00D-06 EigRej= -1.00D+00 NBFU=   240
 Leave Link  302 at Fri Sep 17 20:09:30 2021, MaxMem=   524288000 cpu:               0.3 elap:               0.7
 (Enter /opt/gaussian/g16_legacy/l303.exe)
 DipDrv:  MaxL=1.
 Leave Link  303 at Fri Sep 17 20:09:30 2021, MaxMem=   524288000 cpu:               0.1 elap:               0.3
 (Enter /opt/gaussian/g16_legacy/l401.exe)
 ExpMin= 1.61D-01 ExpMax= 3.05D+03 ExpMxC= 4.57D+02 IAcc=3 IRadAn=         5 AccDes= 0.00D+00
 Harris functional with IExCor=  205 and IRadAn=       5 diagonalized for initial guess.
 HarFok:  IExCor=  205 AccDes= 0.00D+00 IRadAn=         5 IDoV= 1 UseB2=F ITyADJ=14
 ICtDFT=  3500011 ScaDFX=  1.000000  1.000000  1.000000  1.000000
 FoFCou: FMM=F IPFlag=           0 FMFlag=      100000 FMFlg1=           0
         NFxFlg=           0 DoJE=T BraDBF=F KetDBF=T FulRan=T
         wScrn=  0.000000 ICntrl=       500 IOpCl=  0 I1Cent=   200000004 NGrid=           0
         NMat0=    1 NMatS0=      1 NMatT0=    0 NMatD0=    1 NMtDS0=    0 NMtDT0=    0
 Petite list used in FoFCou.
 Harris En= -390.105504768748    
 JPrj=0 DoOrth=F DoCkMO=F.
 Leave Link  401 at Fri Sep 17 20:09:41 2021, MaxMem=   524288000 cpu:              11.1 elap:              11.5
 (Enter /opt/gaussian/g16_legacy/l502.exe)
 Keep R1 ints in memory in canonical form, NReq=425198025.
 FoFCou: FMM=F IPFlag=           0 FMFlag=           0 FMFlg1=           0
         NFxFlg=           0 DoJE=F BraDBF=F KetDBF=F FulRan=T
         wScrn=  0.000000 ICntrl=       600 IOpCl=  0 I1Cent=           0 NGrid=           0
         NMat0=    1 NMatS0=  28920 NMatT0=    0 NMatD0=    1 NMtDS0=    0 NMtDT0=    0
 Symmetry not used in FoFCou.
 Two-electron integral symmetry not used.
 Closed shell SCF:
 Using DIIS extrapolation, IDIIS=  1040.
 NGot=   524288000 LenX=   105970886 LenY=   105912845
 Requested convergence on RMS density matrix=1.00D-08 within 128 cycles.
 Requested convergence on MAX density matrix=1.00D-06.
 Requested convergence on             energy=1.00D-06.
 No special actions if energy rises.

 Cycle   1  Pass 1  IDiag  1:
 E= -388.524676062350    
 DIIS: error= 4.92D-02 at cycle   1 NSaved=   1.
 NSaved= 1 IEnMin= 1 EnMin= -388.524676062350     IErMin= 1 ErrMin= 4.92D-02
 ErrMax= 4.92D-02  0.00D+00 EMaxC= 1.00D-01 BMatC= 8.09D-01 BMatP= 8.09D-01
 IDIUse=3 WtCom= 5.08D-01 WtEn= 4.92D-01
 Coeff-Com:  0.100D+01
 Coeff-En:   0.100D+01
 Coeff:      0.100D+01
 Gap=     0.520 Goal=   None    Shift=    0.000
 GapD=    0.520 DampG=2.000 DampE=0.500 DampFc=1.0000 IDamp=-1.
 RMSDP=4.05D-03 MaxDP=1.14D-01              OVMax= 1.40D-01

 Cycle   2  Pass 1  IDiag  1:
 E= -389.064323178524     Delta-E=       -0.539647116174 Rises=F Damp=F
 DIIS: error= 1.51D-02 at cycle   2 NSaved=   2.
 NSaved= 2 IEnMin= 2 EnMin= -389.064323178524     IErMin= 2 ErrMin= 1.51D-02
 ErrMax= 1.51D-02  0.00D+00 EMaxC= 1.00D-01 BMatC= 8.94D-02 BMatP= 8.09D-01
 IDIUse=3 WtCom= 8.49D-01 WtEn= 1.51D-01
 Coeff-Com:  0.186D+00 0.814D+00
 Coeff-En:   0.000D+00 0.100D+01
 Coeff:      0.158D+00 0.842D+00
 Gap=     0.558 Goal=   None    Shift=    0.000
 RMSDP=1.74D-03 MaxDP=3.09D-02 DE=-5.40D-01 OVMax= 4.61D-02

 Cycle   3  Pass 1  IDiag  1:
 E= -389.144737705769     Delta-E=       -0.080414527245 Rises=F Damp=F
 DIIS: error= 3.46D-03 at cycle   3 NSaved=   3.
 NSaved= 3 IEnMin= 3 EnMin= -389.144737705769     IErMin= 3 ErrMin= 3.46D-03
 ErrMax= 3.46D-03  0.00D+00 EMaxC= 1.00D-01 BMatC= 3.19D-03 BMatP= 8.94D-02
 IDIUse=3 WtCom= 9.65D-01 WtEn= 3.46D-02
 Coeff-Com: -0.249D-01 0.106D+00 0.919D+00
 Coeff-En:   0.000D+00 0.000D+00 0.100D+01
 Coeff:     -0.240D-01 0.102D+00 0.922D+00
 Gap=     0.505 Goal=   None    Shift=    0.000
 RMSDP=2.67D-04 MaxDP=5.88D-03 DE=-8.04D-02 OVMax= 1.10D-02

 Cycle   4  Pass 1  IDiag  1:
 E= -389.148487251285     Delta-E=       -0.003749545515 Rises=F Damp=F
 DIIS: error= 5.23D-04 at cycle   4 NSaved=   4.
 NSaved= 4 IEnMin= 4 EnMin= -389.148487251285     IErMin= 4 ErrMin= 5.23D-04
 ErrMax= 5.23D-04  0.00D+00 EMaxC= 1.00D-01 BMatC= 6.64D-05 BMatP= 3.19D-03
 IDIUse=3 WtCom= 9.95D-01 WtEn= 5.23D-03
 Coeff-Com: -0.192D-02-0.120D-01 0.101D-01 0.100D+01
 Coeff-En:   0.000D+00 0.000D+00 0.000D+00 0.100D+01
 Coeff:     -0.191D-02-0.119D-01 0.100D-01 0.100D+01
 Gap=     0.505 Goal=   None    Shift=    0.000
 RMSDP=8.20D-05 MaxDP=1.77D-03 DE=-3.75D-03 OVMax= 2.30D-03

 Cycle   5  Pass 1  IDiag  1:
 E= -389.148595353949     Delta-E=       -0.000108102665 Rises=F Damp=F
 DIIS: error= 1.27D-04 at cycle   5 NSaved=   5.
 NSaved= 5 IEnMin= 5 EnMin= -389.148595353949     IErMin= 5 ErrMin= 1.27D-04
 ErrMax= 1.27D-04  0.00D+00 EMaxC= 1.00D-01 BMatC= 8.92D-06 BMatP= 6.64D-05
 IDIUse=3 WtCom= 9.99D-01 WtEn= 1.27D-03
 Coeff-Com:  0.221D-02-0.129D-01-0.878D-01 0.130D+00 0.968D+00
 Coeff-En:   0.000D+00 0.000D+00 0.000D+00 0.000D+00 0.100D+01
 Coeff:      0.220D-02-0.129D-01-0.877D-01 0.130D+00 0.968D+00
 Gap=     0.505 Goal=   None    Shift=    0.000
 RMSDP=2.44D-05 MaxDP=4.17D-04 DE=-1.08D-04 OVMax= 7.75D-04

 Cycle   6  Pass 1  IDiag  1:
 E= -389.148608937665     Delta-E=       -0.000013583715 Rises=F Damp=F
 DIIS: error= 4.07D-05 at cycle   6 NSaved=   6.
 NSaved= 6 IEnMin= 6 EnMin= -389.148608937665     IErMin= 6 ErrMin= 4.07D-05
 ErrMax= 4.07D-05  0.00D+00 EMaxC= 1.00D-01 BMatC= 3.88D-07 BMatP= 8.92D-06
 IDIUse=1 WtCom= 1.00D+00 WtEn= 0.00D+00
 Coeff-Com:  0.503D-03-0.214D-02-0.170D-01-0.191D-01 0.169D+00 0.868D+00
 Coeff:      0.503D-03-0.214D-02-0.170D-01-0.191D-01 0.169D+00 0.868D+00
 Gap=     0.505 Goal=   None    Shift=    0.000
 RMSDP=4.81D-06 MaxDP=1.20D-04 DE=-1.36D-05 OVMax= 2.92D-04

 Cycle   7  Pass 1  IDiag  1:
 E= -389.148609568373     Delta-E=       -0.000000630708 Rises=F Damp=F
 DIIS: error= 1.28D-05 at cycle   7 NSaved=   7.
 NSaved= 7 IEnMin= 7 EnMin= -389.148609568373     IErMin= 7 ErrMin= 1.28D-05
 ErrMax= 1.28D-05  0.00D+00 EMaxC= 1.00D-01 BMatC= 5.59D-08 BMatP= 3.88D-07
 IDIUse=1 WtCom= 1.00D+00 WtEn= 0.00D+00
 Coeff-Com: -0.655D-04 0.516D-03 0.348D-02-0.125D-01-0.483D-01 0.182D+00
 Coeff-Com:  0.875D+00
 Coeff:     -0.655D-04 0.516D-03 0.348D-02-0.125D-01-0.483D-01 0.182D+00
 Coeff:      0.875D+00
 Gap=     0.505 Goal=   None    Shift=    0.000
 RMSDP=1.68D-06 MaxDP=4.50D-05 DE=-6.31D-07 OVMax= 9.67D-05

 Cycle   8  Pass 1  IDiag  1:
 E= -389.148609661011     Delta-E=       -0.000000092638 Rises=F Damp=F
 DIIS: error= 4.16D-06 at cycle   8 NSaved=   8.
 NSaved= 8 IEnMin= 8 EnMin= -389.148609661011     IErMin= 8 ErrMin= 4.16D-06
 ErrMax= 4.16D-06  0.00D+00 EMaxC= 1.00D-01 BMatC= 6.19D-09 BMatP= 5.59D-08
 IDIUse=1 WtCom= 1.00D+00 WtEn= 0.00D+00
 Coeff-Com: -0.680D-04 0.286D-03 0.240D-02 0.369D-02-0.274D-01-0.108D+00
 Coeff-Com: -0.574D-01 0.119D+01
 Coeff:     -0.680D-04 0.286D-03 0.240D-02 0.369D-02-0.274D-01-0.108D+00
 Coeff:     -0.574D-01 0.119D+01
 Gap=     0.505 Goal=   None    Shift=    0.000
 RMSDP=9.01D-07 MaxDP=2.48D-05 DE=-9.26D-08 OVMax= 7.77D-05

 Cycle   9  Pass 1  IDiag  1:
 E= -389.148609682449     Delta-E=       -0.000000021438 Rises=F Damp=F
 DIIS: error= 1.99D-06 at cycle   9 NSaved=   9.
 NSaved= 9 IEnMin= 9 EnMin= -389.148609682449     IErMin= 9 ErrMin= 1.99D-06
 ErrMax= 1.99D-06  0.00D+00 EMaxC= 1.00D-01 BMatC= 8.77D-10 BMatP= 6.19D-09
 IDIUse=1 WtCom= 1.00D+00 WtEn= 0.00D+00
 Coeff-Com:  0.121D-04-0.871D-04-0.613D-03 0.170D-02 0.693D-02-0.860D-02
 Coeff-Com: -0.125D+00-0.820D-01 0.121D+01
 Coeff:      0.121D-04-0.871D-04-0.613D-03 0.170D-02 0.693D-02-0.860D-02
 Coeff:     -0.125D+00-0.820D-01 0.121D+01
 Gap=     0.505 Goal=   None    Shift=    0.000
 RMSDP=3.81D-07 MaxDP=1.04D-05 DE=-2.14D-08 OVMax= 3.23D-05

 Cycle  10  Pass 1  IDiag  1:
 E= -389.148609685564     Delta-E=       -0.000000003116 Rises=F Damp=F
 DIIS: error= 4.91D-07 at cycle  10 NSaved=  10.
 NSaved=10 IEnMin=10 EnMin= -389.148609685564     IErMin=10 ErrMin= 4.91D-07
 ErrMax= 4.91D-07  0.00D+00 EMaxC= 1.00D-01 BMatC= 6.50D-11 BMatP= 8.77D-10
 IDIUse=1 WtCom= 1.00D+00 WtEn= 0.00D+00
 Coeff-Com:  0.707D-05-0.302D-04-0.253D-03-0.428D-03 0.253D-02 0.144D-01
 Coeff-Com:  0.875D-02-0.133D+00-0.566D-01 0.116D+01
 Coeff:      0.707D-05-0.302D-04-0.253D-03-0.428D-03 0.253D-02 0.144D-01
 Coeff:      0.875D-02-0.133D+00-0.566D-01 0.116D+01
 Gap=     0.505 Goal=   None    Shift=    0.000
 RMSDP=1.14D-07 MaxDP=3.04D-06 DE=-3.12D-09 OVMax= 9.36D-06

 Cycle  11  Pass 1  IDiag  1:
 E= -389.148609685797     Delta-E=       -0.000000000233 Rises=F Damp=F
 DIIS: error= 1.30D-07 at cycle  11 NSaved=  11.
 NSaved=11 IEnMin=11 EnMin= -389.148609685797     IErMin=11 ErrMin= 1.30D-07
 ErrMax= 1.30D-07  0.00D+00 EMaxC= 1.00D-01 BMatC= 3.17D-12 BMatP= 6.50D-11
 IDIUse=1 WtCom= 1.00D+00 WtEn= 0.00D+00
 Coeff-Com: -0.117D-05 0.729D-05 0.550D-04-0.593D-04-0.665D-03-0.458D-03
 Coeff-Com:  0.642D-02 0.171D-01-0.675D-01-0.876D-01 0.113D+01
 Coeff:     -0.117D-05 0.729D-05 0.550D-04-0.593D-04-0.665D-03-0.458D-03
 Coeff:      0.642D-02 0.171D-01-0.675D-01-0.876D-01 0.113D+01
 Gap=     0.505 Goal=   None    Shift=    0.000
 RMSDP=2.04D-08 MaxDP=5.29D-07 DE=-2.33D-10 OVMax= 1.55D-06

 Cycle  12  Pass 1  IDiag  1:
 E= -389.148609685804     Delta-E=       -0.000000000007 Rises=F Damp=F
 DIIS: error= 3.37D-08 at cycle  12 NSaved=  12.
 NSaved=12 IEnMin=12 EnMin= -389.148609685804     IErMin=12 ErrMin= 3.37D-08
 ErrMax= 3.37D-08  0.00D+00 EMaxC= 1.00D-01 BMatC= 3.63D-13 BMatP= 3.17D-12
 IDIUse=1 WtCom= 1.00D+00 WtEn= 0.00D+00
 Coeff-Com: -0.708D-06 0.351D-05 0.279D-04 0.230D-04-0.305D-03-0.120D-02
 Coeff-Com:  0.237D-03 0.122D-01-0.795D-02-0.108D+00 0.180D+00 0.924D+00
 Coeff:     -0.708D-06 0.351D-05 0.279D-04 0.230D-04-0.305D-03-0.120D-02
 Coeff:      0.237D-03 0.122D-01-0.795D-02-0.108D+00 0.180D+00 0.924D+00
 Gap=     0.505 Goal=   None    Shift=    0.000
 RMSDP=6.25D-09 MaxDP=1.39D-07 DE=-7.28D-12 OVMax= 2.90D-07

 SCF Done:  E(RHF) =  -389.148609686     A.U. after   12 cycles
            NFock= 12  Conv=0.63D-08     -V/T= 2.0014
 KE= 3.885904167638D+02 PE=-1.946456546406D+03 EE= 6.478372547669D+02
 Leave Link  502 at Fri Sep 17 20:10:17 2021, MaxMem=   524288000 cpu:              35.6 elap:              35.9
 (Enter /opt/gaussian/g16_legacy/l801.exe)
 ExpMin= 1.61D-01 ExpMax= 3.05D+03 ExpMxC= 4.57D+02 IAcc=3 IRadAn=         5 AccDes= 0.00D+00
 HarFok:  IExCor=  205 AccDes= 0.00D+00 IRadAn=         5 IDoV=-2 UseB2=F ITyADJ=14
 ICtDFT= 12500011 ScaDFX=  1.000000  1.000000  1.000000  1.000000
 Largest valence mixing into a core orbital is  1.98D-04
 Largest core mixing into a valence orbital is  3.53D-05
 Range of M.O.s used for correlation:    11   240
 NBasis=   240 NAE=    39 NBE=    39 NFC=    10 NFV=     0
 NROrb=    230 NOA=    29 NOB=    29 NVA=   201 NVB=   201
 Leave Link  801 at Fri Sep 17 20:10:20 2021, MaxMem=   524288000 cpu:               1.7 elap:               2.0
 (Enter /opt/gaussian/g16_legacy/l906.exe)
 Frozen-core derivative calculation, NFC=  10 NFV=   0.
 FulOut=F Deriv=T AODrv=T NAtomX=    28
   MMem=          88  MDisk=          29 MDiskD=          29
  W3Min=     2246400 MinDsk=     2795480 NBas6D=         240
 NBas2D=       29244    NTT=       28920    LW2=     2040000
    MDV=   523626048 MDiskM=       30186 NBas2p=       24314
 Fully direct method using O(ONN) memory.
 IMap=   1   2   3   4   5   6   7   8   9  10  11  12  13  14  15  16  17  18  19  20
 IMap=  21  22  23  24  25  26  27  28  29  30  31  32  33  34  35  36  37  38  39
 JobTyp=1 Pass  1:  I=  11 to  39 NPSUse=  1 ParTrn=F ParDer=F DoDerP=T.
 Spin components of T(2) and E(2):
     alpha-alpha T2 =       0.5724140595D-01 E2=     -0.1639751784D+00
     alpha-beta  T2 =       0.3624646305D+00 E2=     -0.1090300249D+01
     beta-beta   T2 =       0.5724140595D-01 E2=     -0.1639751784D+00
 The integrals were generated   1 times.
 ANorm=    0.1215297265D+01
 E2 =    -0.1418250606D+01 EUMP2 =    -0.39056686029170D+03
 Leave Link  906 at Fri Sep 17 20:14:57 2021, MaxMem=   524288000 cpu:             277.4 elap:             277.6
 (Enter /opt/gaussian/g16_legacy/l1002.exe)
 Minotr:  Closed shell wavefunction.
          Computing MP2/KS-MP2 derivatives.
          Using Z-Vector for PSCF gradient.
          Skipping F1 and S1 gradient terms here.
          IDoAtm=1111111111111111111111111111
          Frozen-core window.
          Direct CPHF calculation.
          Differentiating once with respect to electric field.
                with respect to dipole field.
          Differentiating once with respect to nuclear coordinates.
          Requested convergence is 1.0D-10 RMS, and 1.0D-09 maximum.
          NewPWx=F KeepS1=T KeepF1=T KeepIn=T MapXYZ=F SortEE=F KeepMc=T.
 Keep R1 ints in memory in canonical form, NReq=425201067.
 FoFCou: FMM=F IPFlag=           0 FMFlag=           0 FMFlg1=           0
         NFxFlg=           0 DoJE=F BraDBF=F KetDBF=F FulRan=T
         wScrn=  0.000000 ICntrl=       600 IOpCl=  0 I1Cent=           0 NGrid=           0
         NMat0=    1 NMatS0=  28920 NMatT0=    0 NMatD0=    1 NMtDS0=    0 NMtDT0=    0
 Symmetry not used in FoFCou.
 Two-electron integral symmetry not used.
          MDV=     524288000 using IRadAn=       5.
          Solving linear equations separately, MaxMat=       0.
          There are     1 degrees of freedom in the 1st order CPHF.  IDoFFX=0 NUNeed=     1.
 LinEq1:  Iter=  0 NonCon=     1 RMS=2.54D-03 Max=3.48D-02 NDo=     1
 AX will form     1 AO Fock derivatives at one time.
 LinEq1:  Iter=  1 NonCon=     1 RMS=6.89D-04 Max=1.19D-02 NDo=     1
 LinEq1:  Iter=  2 NonCon=     1 RMS=1.61D-04 Max=3.56D-03 NDo=     1
 LinEq1:  Iter=  3 NonCon=     1 RMS=3.89D-05 Max=3.74D-04 NDo=     1
 LinEq1:  Iter=  4 NonCon=     1 RMS=1.94D-05 Max=8.30D-04 NDo=     1
 LinEq1:  Iter=  5 NonCon=     1 RMS=5.25D-06 Max=6.03D-05 NDo=     1
 LinEq1:  Iter=  6 NonCon=     1 RMS=1.65D-06 Max=2.98D-05 NDo=     1
 LinEq1:  Iter=  7 NonCon=     1 RMS=4.07D-07 Max=4.68D-06 NDo=     1
 LinEq1:  Iter=  8 NonCon=     1 RMS=1.03D-07 Max=1.61D-06 NDo=     1
 LinEq1:  Iter=  9 NonCon=     1 RMS=2.45D-08 Max=3.87D-07 NDo=     1
 LinEq1:  Iter= 10 NonCon=     1 RMS=9.11D-09 Max=2.97D-07 NDo=     1
 LinEq1:  Iter= 11 NonCon=     1 RMS=2.84D-09 Max=4.80D-08 NDo=     1
 LinEq1:  Iter= 12 NonCon=     1 RMS=7.57D-10 Max=1.67D-08 NDo=     1
 LinEq1:  Iter= 13 NonCon=     1 RMS=2.10D-10 Max=4.06D-09 NDo=     1
 LinEq1:  Iter= 14 NonCon=     1 RMS=6.44D-11 Max=1.14D-09 NDo=     1
 LinEq1:  Iter= 15 NonCon=     0 RMS=1.66D-11 Max=2.62D-10 NDo=     1
 Linear equations converged to 1.000D-10 1.000D-09 after    15 iterations.
 End of Minotr F.D. properties file   721 does not exist.
 End of Minotr F.D. properties file   722 does not exist.
 End of Minotr F.D. properties file   788 does not exist.
 Leave Link 1002 at Fri Sep 17 20:15:32 2021, MaxMem=   524288000 cpu:              34.3 elap:              34.4
 (Enter /opt/gaussian/g16_legacy/l601.exe)
 Copying SCF densities to generalized density rwf, IOpCl= 0 IROHF=0.

 **********************************************************************

            Population analysis using the SCF density.

 **********************************************************************

 Orbital symmetries:
       Occupied  (A) (A) (A) (A) (A) (A) (A) (A) (A) (A) (A) (A)
                 (A) (A) (A) (A) (A) (A) (A) (A) (A) (A) (A) (A)
                 (A) (A) (A) (A) (A) (A) (A) (A) (A) (A) (A) (A)
                 (A) (A) (A)
       Virtual   (A) (A) (A) (A) (A) (A) (A) (A) (A) (A) (A) (A)
                 (A) (A) (A) (A) (A) (A) (A) (A) (A) (A) (A) (A)
                 (A) (A) (A) (A) (A) (A) (A) (A) (A) (A) (A) (A)
                 (A) (A) (A) (A) (A) (A) (A) (A) (A) (A) (A) (A)
                 (A) (A) (A) (A) (A) (A) (A) (A) (A) (A) (A) (A)
                 (A) (A) (A) (A) (A) (A) (A) (A) (A) (A) (A) (A)
                 (A) (A) (A) (A) (A) (A) (A) (A) (A) (A) (A) (A)
                 (A) (A) (A) (A) (A) (A) (A) (A) (A) (A) (A) (A)
                 (A) (A) (A) (A) (A) (A) (A) (A) (A) (A) (A) (A)
                 (A) (A) (A) (A) (A) (A) (A) (A) (A) (A) (A) (A)
                 (A) (A) (A) (A) (A) (A) (A) (A) (A) (A) (A) (A)
                 (A) (A) (A) (A) (A) (A) (A) (A) (A) (A) (A) (A)
                 (A) (A) (A) (A) (A) (A) (A) (A) (A) (A) (A) (A)
                 (A) (A) (A) (A) (A) (A) (A) (A) (A) (A) (A) (A)
                 (A) (A) (A) (A) (A) (A) (A) (A) (A) (A) (A) (A)
                 (A) (A) (A) (A) (A) (A) (A) (A) (A) (A) (A) (A)
                 (A) (A) (A) (A) (A) (A) (A) (A) (A)
 The electronic state is 1-A.
 Alpha  occ. eigenvalues --  -11.22835 -11.22605 -11.22235 -11.21926 -11.21670
 Alpha  occ. eigenvalues --  -11.21501 -11.21460 -11.21411 -11.21359 -11.20958
 Alpha  occ. eigenvalues --   -1.10348  -1.08010  -1.01794  -0.97668  -0.93506
 Alpha  occ. eigenvalues --   -0.91598  -0.87436  -0.82437  -0.69970  -0.69058
 Alpha  occ. eigenvalues --   -0.63703  -0.61518  -0.60794  -0.58501  -0.57706
 Alpha  occ. eigenvalues --   -0.57402  -0.55355  -0.54382  -0.53648  -0.52629
 Alpha  occ. eigenvalues --   -0.52387  -0.50962  -0.50109  -0.49036  -0.47221
 Alpha  occ. eigenvalues --   -0.45999  -0.44275  -0.32363  -0.31806
 Alpha virt. eigenvalues --    0.18729   0.18962   0.23121   0.24598   0.25460
 Alpha virt. eigenvalues --    0.26536   0.28855   0.29629   0.29826   0.31291
 Alpha virt. eigenvalues --    0.31914   0.32442   0.33019   0.33475   0.34109
 Alpha virt. eigenvalues --    0.34939   0.35865   0.37186   0.38146   0.40388
 Alpha virt. eigenvalues --    0.41389   0.42289   0.43679   0.44037   0.46194
 Alpha virt. eigenvalues --    0.51556   0.53140   0.58493   0.65137   0.69725
 Alpha virt. eigenvalues --    0.70892   0.73264   0.73620   0.75033   0.75874
 Alpha virt. eigenvalues --    0.77865   0.78976   0.80751   0.81385   0.83335
 Alpha virt. eigenvalues --    0.84307   0.85714   0.89416   0.89672   0.92483
 Alpha virt. eigenvalues --    0.94146   0.95033   0.97409   0.98267   0.98563
 Alpha virt. eigenvalues --    1.00429   1.01174   1.02866   1.05419   1.06617
 Alpha virt. eigenvalues --    1.08354   1.08794   1.11715   1.11813   1.12468
 Alpha virt. eigenvalues --    1.13287   1.14297   1.14743   1.15243   1.15476
 Alpha virt. eigenvalues --    1.16127   1.17682   1.17939   1.19569   1.19697
 Alpha virt. eigenvalues --    1.21169   1.22273   1.23586   1.24346   1.26811
 Alpha virt. eigenvalues --    1.27484   1.33833   1.35798   1.41754   1.44463
 Alpha virt. eigenvalues --    1.47804   1.49992   1.55327   1.57255   1.59677
 Alpha virt. eigenvalues --    1.60584   1.65133   1.68176   1.70893   1.72276
 Alpha virt. eigenvalues --    1.77197   1.84121   1.87947   1.92716   1.95192
 Alpha virt. eigenvalues --    1.99027   2.00901   2.03027   2.06406   2.07455
 Alpha virt. eigenvalues --    2.09302   2.10580   2.11341   2.13339   2.14640
 Alpha virt. eigenvalues --    2.16247   2.18835   2.22115   2.26458   2.27525
 Alpha virt. eigenvalues --    2.28624   2.31500   2.34837   2.35330   2.35627
 Alpha virt. eigenvalues --    2.36103   2.36719   2.37375   2.40037   2.40405
 Alpha virt. eigenvalues --    2.40951   2.41583   2.43555   2.44413   2.45099
 Alpha virt. eigenvalues --    2.46349   2.48170   2.49391   2.50581   2.52112
 Alpha virt. eigenvalues --    2.55324   2.57726   2.59852   2.61230   2.64124
 Alpha virt. eigenvalues --    2.65931   2.67717   2.70854   2.73864   2.75426
 Alpha virt. eigenvalues --    2.76518   2.79559   2.80810   2.82803   2.84380
 Alpha virt. eigenvalues --    2.86785   2.89075   2.90173   2.92308   2.94137
 Alpha virt. eigenvalues --    2.94764   2.99182   3.00887   3.03006   3.03974
 Alpha virt. eigenvalues --    3.05532   3.05850   3.07321   3.10962   3.13208
 Alpha virt. eigenvalues --    3.15844   3.19544   3.20155   3.20870   3.22383
 Alpha virt. eigenvalues --    3.22807   3.24818   3.25702   3.27626   3.37814
 Alpha virt. eigenvalues --    3.40245   3.43036   3.46786   3.55843   3.56275
 Alpha virt. eigenvalues --    3.60375   3.61014   3.68394   3.71730   3.78934
 Alpha virt. eigenvalues --    3.79248   3.80695   3.81113   3.82235   3.82529
 Alpha virt. eigenvalues --    3.83253   3.85657   3.87004   3.90136   3.91885
 Alpha virt. eigenvalues --    3.94370   4.58274   4.60828   4.75734   4.82097
 Alpha virt. eigenvalues --    4.90279   4.92144   4.92276   5.03215   5.11180
 Alpha virt. eigenvalues --    5.17346
          Condensed to atoms (all electrons):
               1          2          3          4          5          6
     1  C    4.949501   0.403556   0.403545   0.354626  -0.056773   0.003199
     2  H    0.403556   0.605500  -0.034487  -0.044382  -0.007147   0.000073
     3  H    0.403545  -0.034487   0.605011  -0.048033   0.000495  -0.000027
     4  C    0.354626  -0.044382  -0.048033   4.937985   0.341823  -0.036877
     5  C   -0.056773  -0.007147   0.000495   0.341823   4.923774   0.405309
     6  H    0.003199   0.000073  -0.000027  -0.036877   0.405309   0.567382
     7  H   -0.005317   0.002136  -0.000155  -0.042589   0.405613  -0.030059
     8  H    0.000662   0.000023   0.000808  -0.041180   0.398011  -0.026234
     9  C   -0.044436   0.001728  -0.002123   0.693839  -0.053064  -0.002879
    10  H   -0.005199   0.000132   0.000031  -0.036728   0.003374   0.000038
    11  C    0.002898  -0.000083  -0.000098  -0.047598  -0.007276  -0.002329
    12  H    0.000083  -0.000002  -0.000001  -0.000531  -0.001605  -0.001708
    13  H   -0.000099  -0.000002   0.000015   0.001012   0.000171  -0.000069
    14  H   -0.000087   0.000015  -0.000005  -0.002307   0.000361   0.000378
    15  C   -0.000111  -0.000034   0.000002   0.000002  -0.000000   0.000000
    16  H   -0.000003  -0.000001   0.000000  -0.000000   0.000000   0.000000
    17  H   -0.000004   0.000002   0.000000  -0.000000  -0.000000   0.000000
    18  H    0.000026  -0.000005  -0.000000   0.000000   0.000000  -0.000000
    19  C   -0.003327   0.002248   0.000021   0.000168  -0.000024   0.000001
    20  C    0.000102  -0.000483  -0.000006   0.000031   0.000001  -0.000000
    21  H    0.000265   0.000342  -0.000028  -0.000010   0.000001  -0.000000
    22  H    0.000051  -0.000051  -0.000002   0.000000   0.000000  -0.000000
    23  H   -0.000083   0.000033   0.000004  -0.000001  -0.000000   0.000000
    24  C   -0.063332  -0.004256   0.005977  -0.000779  -0.000205   0.000010
    25  H    0.000732  -0.000019  -0.000092   0.000985  -0.000005  -0.000002
    26  C    0.344374  -0.040495  -0.040196  -0.041927   0.003193  -0.000089
    27  H   -0.039525  -0.003509  -0.003556   0.003764  -0.000078   0.000001
    28  H   -0.042620   0.004971  -0.002905  -0.002247  -0.000077   0.000001
               7          8          9         10         11         12
     1  C   -0.005317   0.000662  -0.044436  -0.005199   0.002898   0.000083
     2  H    0.002136   0.000023   0.001728   0.000132  -0.000083  -0.000002
     3  H   -0.000155   0.000808  -0.002123   0.000031  -0.000098  -0.000001
     4  C   -0.042589  -0.041180   0.693839  -0.036728  -0.047598  -0.000531
     5  C    0.405613   0.398011  -0.053064   0.003374  -0.007276  -0.001605
     6  H   -0.030059  -0.026234  -0.002879   0.000038  -0.002329  -0.001708
     7  H    0.583151  -0.031062   0.003057  -0.000096   0.000167   0.000004
     8  H   -0.031062   0.576198  -0.004471  -0.000154   0.000592  -0.000017
     9  C    0.003057  -0.004471   4.948664   0.406120   0.341319  -0.041767
    10  H   -0.000096  -0.000154   0.406120   0.566041  -0.044627   0.003477
    11  C    0.000167   0.000592   0.341319  -0.044627   4.899985   0.408215
    12  H    0.000004  -0.000017  -0.041767   0.003477   0.408215   0.572847
    13  H   -0.000010   0.000123  -0.042635  -0.002782   0.401408  -0.028681
    14  H    0.000017  -0.000078  -0.046015  -0.000411   0.402480  -0.027822
    15  C    0.000000  -0.000000   0.000001   0.000001  -0.000000   0.000000
    16  H    0.000000  -0.000000  -0.000002  -0.000000  -0.000000  -0.000000
    17  H   -0.000000   0.000000  -0.000000  -0.000000  -0.000000  -0.000000
    18  H    0.000000  -0.000000  -0.000001   0.000000   0.000000   0.000000
    19  C   -0.000001   0.000000   0.000234   0.000006  -0.000003   0.000000
    20  C   -0.000000   0.000000  -0.000004   0.000000   0.000000  -0.000000
    21  H    0.000000  -0.000000  -0.000001   0.000000  -0.000000  -0.000000
    22  H   -0.000000   0.000000   0.000000   0.000000   0.000000   0.000000
    23  H    0.000000   0.000000   0.000000  -0.000000  -0.000000  -0.000000
    24  C   -0.000017   0.000003  -0.001067  -0.002710  -0.000027  -0.000002
    25  H   -0.000002   0.000001  -0.001317  -0.000755   0.000071  -0.000001
    26  C    0.000205  -0.000120  -0.004530   0.000147  -0.000004   0.000000
    27  H   -0.000008   0.000002   0.000030   0.000028   0.000001   0.000000
    28  H    0.000003  -0.000001   0.000168  -0.000245  -0.000036  -0.000001
              13         14         15         16         17         18
     1  C   -0.000099  -0.000087  -0.000111  -0.000003  -0.000004   0.000026
     2  H   -0.000002   0.000015  -0.000034  -0.000001   0.000002  -0.000005
     3  H    0.000015  -0.000005   0.000002   0.000000   0.000000  -0.000000
     4  C    0.001012  -0.002307   0.000002  -0.000000  -0.000000   0.000000
     5  C    0.000171   0.000361  -0.000000   0.000000  -0.000000   0.000000
     6  H   -0.000069   0.000378   0.000000   0.000000   0.000000  -0.000000
     7  H   -0.000010   0.000017   0.000000   0.000000  -0.000000   0.000000
     8  H    0.000123  -0.000078  -0.000000  -0.000000   0.000000  -0.000000
     9  C   -0.042635  -0.046015   0.000001  -0.000002  -0.000000  -0.000001
    10  H   -0.002782  -0.000411   0.000001  -0.000000  -0.000000   0.000000
    11  C    0.401408   0.402480  -0.000000  -0.000000  -0.000000   0.000000
    12  H   -0.028681  -0.027822   0.000000  -0.000000  -0.000000   0.000000
    13  H    0.587635  -0.033865   0.000000  -0.000000  -0.000000   0.000000
    14  H   -0.033865   0.585659  -0.000000   0.000000   0.000000  -0.000000
    15  C    0.000000  -0.000000   4.895228   0.405872   0.399401   0.397473
    16  H   -0.000000   0.000000   0.405872   0.570041  -0.027694  -0.028084
    17  H   -0.000000   0.000000   0.399401  -0.027694   0.596047  -0.034836
    18  H    0.000000  -0.000000   0.397473  -0.028084  -0.034836   0.595095
    19  C    0.000000  -0.000000   0.354152  -0.041340  -0.047431  -0.043544
    20  C    0.000000   0.000000  -0.060583   0.003740   0.000214  -0.003048
    21  H   -0.000000   0.000000   0.003476  -0.000117  -0.000033  -0.000038
    22  H    0.000000  -0.000000  -0.004785   0.000101  -0.000607   0.002593
    23  H   -0.000000   0.000000   0.000255  -0.000125   0.001570  -0.000182
    24  C    0.000004   0.000001  -0.044938  -0.002377  -0.001312  -0.000518
    25  H   -0.000001   0.000038  -0.007260   0.002204   0.000146   0.000270
    26  C   -0.000001   0.000005   0.003180   0.000148  -0.000121  -0.000092
    27  H   -0.000000  -0.000000   0.000069   0.000004   0.000008  -0.000005
    28  H   -0.000006   0.000008  -0.000090  -0.000010   0.000009  -0.000001
              19         20         21         22         23         24
     1  C   -0.003327   0.000102   0.000265   0.000051  -0.000083  -0.063332
     2  H    0.002248  -0.000483   0.000342  -0.000051   0.000033  -0.004256
     3  H    0.000021  -0.000006  -0.000028  -0.000002   0.000004   0.005977
     4  C    0.000168   0.000031  -0.000010   0.000000  -0.000001  -0.000779
     5  C   -0.000024   0.000001   0.000001   0.000000  -0.000000  -0.000205
     6  H    0.000001  -0.000000  -0.000000  -0.000000   0.000000   0.000010
     7  H   -0.000001  -0.000000   0.000000  -0.000000   0.000000  -0.000017
     8  H    0.000000   0.000000  -0.000000   0.000000   0.000000   0.000003
     9  C    0.000234  -0.000004  -0.000001   0.000000   0.000000  -0.001067
    10  H    0.000006   0.000000   0.000000   0.000000  -0.000000  -0.002710
    11  C   -0.000003   0.000000  -0.000000   0.000000  -0.000000  -0.000027
    12  H    0.000000  -0.000000  -0.000000   0.000000  -0.000000  -0.000002
    13  H    0.000000   0.000000  -0.000000   0.000000  -0.000000   0.000004
    14  H   -0.000000   0.000000   0.000000  -0.000000   0.000000   0.000001
    15  C    0.354152  -0.060583   0.003476  -0.004785   0.000255  -0.044938
    16  H   -0.041340   0.003740  -0.000117   0.000101  -0.000125  -0.002377
    17  H   -0.047431   0.000214  -0.000033  -0.000607   0.001570  -0.001312
    18  H   -0.043544  -0.003048  -0.000038   0.002593  -0.000182  -0.000518
    19  C    4.931560   0.340324  -0.037636  -0.043284  -0.042636   0.700264
    20  C    0.340324   4.916449   0.406118   0.404984   0.398018  -0.049156
    21  H   -0.037636   0.406118   0.570353  -0.030080  -0.026484  -0.003687
    22  H   -0.043284   0.404984  -0.030080   0.584231  -0.031422   0.002297
    23  H   -0.042636   0.398018  -0.026484  -0.031422   0.577404  -0.003031
    24  C    0.700264  -0.049156  -0.003687   0.002297  -0.003031   4.955341
    25  H   -0.036567   0.003457   0.000051  -0.000106  -0.000134   0.406781
    26  C   -0.050540  -0.005350  -0.001890   0.000138   0.000302   0.337076
    27  H   -0.001675  -0.001018  -0.001650  -0.000030   0.000291  -0.044969
    28  H    0.002095   0.000025   0.000015  -0.000006   0.000046  -0.043153
              25         26         27         28
     1  C    0.000732   0.344374  -0.039525  -0.042620
     2  H   -0.000019  -0.040495  -0.003509   0.004971
     3  H   -0.000092  -0.040196  -0.003556  -0.002905
     4  C    0.000985  -0.041927   0.003764  -0.002247
     5  C   -0.000005   0.003193  -0.000078  -0.000077
     6  H   -0.000002  -0.000089   0.000001   0.000001
     7  H   -0.000002   0.000205  -0.000008   0.000003
     8  H    0.000001  -0.000120   0.000002  -0.000001
     9  C   -0.001317  -0.004530   0.000030   0.000168
    10  H   -0.000755   0.000147   0.000028  -0.000245
    11  C    0.000071  -0.000004   0.000001  -0.000036
    12  H   -0.000001   0.000000   0.000000  -0.000001
    13  H   -0.000001  -0.000001  -0.000000  -0.000006
    14  H    0.000038   0.000005  -0.000000   0.000008
    15  C   -0.007260   0.003180   0.000069  -0.000090
    16  H    0.002204   0.000148   0.000004  -0.000010
    17  H    0.000146  -0.000121   0.000008   0.000009
    18  H    0.000270  -0.000092  -0.000005  -0.000001
    19  C   -0.036567  -0.050540  -0.001675   0.002095
    20  C    0.003457  -0.005350  -0.001018   0.000025
    21  H    0.000051  -0.001890  -0.001650   0.000015
    22  H   -0.000106   0.000138  -0.000030  -0.000006
    23  H   -0.000134   0.000302   0.000291   0.000046
    24  C    0.406781   0.337076  -0.044969  -0.043153
    25  H    0.557869  -0.041069   0.003336  -0.004600
    26  C   -0.041069   4.964639   0.419314   0.411721
    27  H    0.003336   0.419314   0.580110  -0.031190
    28  H   -0.004600   0.411721  -0.031190   0.589770
 Mulliken charges:
               1
     1  C   -0.202703
     2  H    0.114200
     3  H    0.115805
     4  C    0.010953
     5  C   -0.355873
     6  H    0.123882
     7  H    0.114966
     8  H    0.126895
     9  C   -0.150848
    10  H    0.114311
    11  C   -0.355054
    12  H    0.117514
    13  H    0.117782
    14  H    0.121629
    15  C   -0.341309
    16  H    0.117644
    17  H    0.114642
    18  H    0.114897
    19  C    0.016933
    20  C   -0.353815
    21  H    0.121033
    22  H    0.115977
    23  H    0.126176
    24  C   -0.142217
    25  H    0.115989
    26  C   -0.258020
    27  H    0.120255
    28  H    0.118357
 Sum of Mulliken charges =  -0.00000
 Mulliken charges with hydrogens summed into heavy atoms:
               1
     1  C    0.027302
     4  C    0.010953
     5  C    0.009869
     9  C   -0.036537
    11  C    0.001871
    15  C    0.005874
    19  C    0.016933
    20  C    0.009371
    24  C   -0.026228
    26  C   -0.019408
 Electronic spatial extent (au):  <R**2>=           2282.8046
 Charge=              0.0000 electrons
 Dipole moment (field-independent basis, Debye):
    X=             -0.0749    Y=             -0.2677    Z=              0.2352  Tot=              0.3642
 Quadrupole moment (field-independent basis, Debye-Ang):
   XX=            -64.1902   YY=            -64.0235   ZZ=            -65.7347
   XY=              0.7818   XZ=             -0.2303   YZ=             -0.4906
 Traceless Quadrupole moment (field-independent basis, Debye-Ang):
   XX=              0.4593   YY=              0.6260   ZZ=             -1.0853
   XY=              0.7818   XZ=             -0.2303   YZ=             -0.4906
 Octapole moment (field-independent basis, Debye-Ang**2):
  XXX=             -4.0354  YYY=              0.6298  ZZZ=              1.9830  XYY=              1.2062
  XXY=             -0.5207  XXZ=              5.3138  XZZ=              1.0338  YZZ=              0.0198
  YYZ=             -1.1630  XYZ=             -1.6940
 Hexadecapole moment (field-independent basis, Debye-Ang**3):
 XXXX=          -2227.0345 YYYY=           -632.2902 ZZZZ=           -310.2221 XXXY=              1.1732
 XXXZ=              8.6883 YYYX=             -0.4612 YYYZ=              0.5051 ZZZX=             -6.1628
 ZZZY=             -1.1475 XXYY=           -484.2162 XXZZ=           -427.0168 YYZZ=           -157.3550
 XXYZ=              0.8431 YYXZ=             -1.0761 ZZXY=              6.0820
 N-N= 5.208802651894D+02 E-N=-1.946456545654D+03  KE= 3.885904167638D+02
 No NMR shielding tensors so no spin-rotation constants.
 Leave Link  601 at Fri Sep 17 20:15:32 2021, MaxMem=   524288000 cpu:               0.3 elap:               0.3
 (Enter /opt/gaussian/g16_legacy/l701.exe)
 ... and contract with generalized density number  2.
 Compute integral first derivatives.
 Leave Link  701 at Fri Sep 17 20:15:32 2021, MaxMem=   524288000 cpu:               0.3 elap:               0.3
 (Enter /opt/gaussian/g16_legacy/l702.exe)
 L702 exits ... SP integral derivatives will be done elsewhere.
 Leave Link  702 at Fri Sep 17 20:15:32 2021, MaxMem=   524288000 cpu:               0.0 elap:               0.1
 (Enter /opt/gaussian/g16_legacy/l703.exe)
 Integral derivatives from FoFJK, PRISM(SPDF).
 Compute integral first derivatives, UseDBF=F ICtDFT=           0.
 Calling FoFJK, ICntrl=  10002127 FMM=F ISym2X=0 I1Cent= 0 IOpClX= 0 NMat=1 NMatS=1 NMatT=0.
 FoFJK:  IHMeth= 1 ICntrl=10002127 DoSepK=F KAlg= 0 I1Cent=           0 FoldK=F
 IRaf=         0 NMat=       1 IRICut=       1 DoRegI=T DoRafI=F ISym2E= 0 IDoP0=0 IntGTp=1.
 FoFCou: FMM=F IPFlag=           0 FMFlag=      100000 FMFlg1=         800
         NFxFlg=           0 DoJE=F BraDBF=F KetDBF=F FulRan=T
         wScrn=  0.000000 ICntrl=  10002127 IOpCl=  0 I1Cent=           0 NGrid=           0
         NMat0=    1 NMatS0=      1 NMatT0=    0 NMatD0=    1 NMtDS0=    0 NMtDT0=    0
 Symmetry not used in FoFCou.
 Leave Link  703 at Fri Sep 17 20:16:08 2021, MaxMem=   524288000 cpu:              35.8 elap:              35.8
 (Enter /opt/gaussian/g16_legacy/l716.exe)
 Dipole        =-8.51267867D-03-7.70276722D-02 7.87455612D-02
 ***** Axes restored to original set *****
 -------------------------------------------------------------------
 Center     Atomic                   Forces (Hartrees/Bohr)
 Number     Number              X              Y              Z
 -------------------------------------------------------------------
      1        6           0.001057172    0.003604639    0.000023622
      2        1           0.002050810    0.002574895    0.000362814
      3        1          -0.000473982   -0.001716227   -0.001799559
      4        6          -0.006729223   -0.005999422    0.007638894
      5        6           0.001502390   -0.002573284   -0.001265888
      6        1          -0.001102171    0.004333675   -0.001457086
      7        1           0.000428926    0.004085729    0.001424937
      8        1           0.001055818   -0.003484133   -0.000296791
      9        6          -0.006611731    0.002106819   -0.002558910
     10        1          -0.003148798   -0.002322507   -0.002453218
     11        6           0.003423837    0.001006636   -0.001671652
     12        1          -0.002321832    0.000297483    0.001575703
     13        1           0.000746929   -0.003445265    0.000576471
     14        1           0.002203645    0.002303232   -0.000822225
     15        6           0.003290591    0.000840587    0.002840020
     16        1          -0.003603176    0.000309927   -0.003591506
     17        1           0.000757919   -0.003127116   -0.000635551
     18        1          -0.003416903    0.001454036    0.001935595
     19        6           0.009245351    0.001300763   -0.001008539
     20        6          -0.001597648   -0.001277166   -0.005057108
     21        1          -0.001686145    0.001362662    0.003960629
     22        1          -0.000983814    0.003993168    0.001615099
     23        1           0.000041118   -0.002666839   -0.001993575
     24        6           0.003649431    0.004110194    0.004297671
     25        1          -0.003068201   -0.003344385   -0.001760610
     26        6           0.000647838    0.000030775    0.001923611
     27        1           0.003431431   -0.001225885   -0.000919158
     28        1           0.001210418   -0.002532992   -0.000883689
 -------------------------------------------------------------------
 Cartesian Forces:  Max     0.009245351 RMS     0.002889186
 Leave Link  716 at Fri Sep 17 20:16:08 2021, MaxMem=   524288000 cpu:               0.1 elap:               0.1
 (Enter /opt/gaussian/g16_legacy/l103.exe)

 GradGradGradGradGradGradGradGradGradGradGradGradGradGradGradGradGradGrad
 Berny optimization.
 FormGI is forming the generalized inverse of G from B-inverse, IUseBI=4.
 Internal  Forces:  Max     0.010363412 RMS     0.002704472
 Search for a local minimum.
 Step number   1 out of a maximum of  138
 All quantities printed in internal units (Hartrees-Bohrs-Radians)
 RMS Force = .27045D-02 SwitMx=.10000D-02 MixMth= 1
 Mixed Optimization -- RFO/linear search
 Second derivative matrix not updated -- first step.
 ITU=  0
     Eigenvalues ---    0.00230   0.00422   0.00643   0.00693   0.00715
     Eigenvalues ---    0.00753   0.00825   0.01171   0.01301   0.01556
     Eigenvalues ---    0.01657   0.02767   0.02785   0.03305   0.03917
     Eigenvalues ---    0.05216   0.05325   0.07018   0.07021   0.07092
     Eigenvalues ---    0.07122   0.07231   0.07302   0.07335   0.07542
     Eigenvalues ---    0.09522   0.10349   0.12949   0.13492   0.16000
     Eigenvalues ---    0.16000   0.16000   0.16000   0.16000   0.16000
     Eigenvalues ---    0.16000   0.16000   0.16000   0.16000   0.16000
     Eigenvalues ---    0.16000   0.16000   0.16000   0.21897   0.22000
     Eigenvalues ---    0.22000   0.22072   0.24990   0.24995   0.24998
     Eigenvalues ---    0.24999   0.28413   0.29794   0.31418   0.31809
     Eigenvalues ---    0.31973   0.32274   0.32847   0.33823   0.34007
     Eigenvalues ---    0.34012   0.34088   0.34101   0.34112   0.34140
     Eigenvalues ---    0.34207   0.34233   0.34280   0.34292   0.34302
     Eigenvalues ---    0.34373   0.34400   0.34429   0.34689   0.34732
     Eigenvalues ---    0.35228   0.55293   0.55589
 RFO step:  Lambda=-5.51497925D-03 EMin= 2.30000000D-03
 Linear search not attempted -- first point.
 Iteration  1 RMS(Cart)=  0.13356303 RMS(Int)=  0.00385498
 Iteration  2 RMS(Cart)=  0.00743188 RMS(Int)=  0.00028046
 Iteration  3 RMS(Cart)=  0.00001790 RMS(Int)=  0.00028026
 Iteration  4 RMS(Cart)=  0.00000000 RMS(Int)=  0.00028026
 ITry= 1 IFail=0 DXMaxC= 4.27D-01 DCOld= 1.00D+10 DXMaxT= 3.00D-01 DXLimC= 3.00D+00 Rises=F
 Variable       Old X    -DE/DX   Delta X   Delta X   Delta X     New X
                                 (Linear)    (Quad)   (Total)
    R1        2.07630  -0.00298   0.00000  -0.00867  -0.00867   2.06763
    R2        2.07317   0.00037   0.00000   0.00106   0.00106   2.07423
    R3        2.88376  -0.01014   0.00000  -0.03342  -0.03342   2.85034
    R4        2.91245  -0.00484   0.00000  -0.01670  -0.01670   2.89574
    R5        2.85222   0.00117   0.00000   0.00366   0.00366   2.85588
    R6        2.54873  -0.00679   0.00000  -0.01216  -0.01216   2.53657
    R7        2.06612  -0.00349   0.00000  -0.00999  -0.00999   2.05613
    R8        2.06981  -0.00374   0.00000  -0.01076  -0.01076   2.05905
    R9        2.06860  -0.00189   0.00000  -0.00542  -0.00542   2.06318
   R10        2.05306  -0.00082   0.00000  -0.00229  -0.00229   2.05077
   R11        2.82621   0.00379   0.00000   0.01135   0.01135   2.83757
   R12        2.06182  -0.00267   0.00000  -0.00758  -0.00758   2.05424
   R13        2.06939  -0.00282   0.00000  -0.00810  -0.00810   2.06129
   R14        2.06823  -0.00179   0.00000  -0.00514  -0.00514   2.06309
   R15        2.07160  -0.00465   0.00000  -0.01341  -0.01341   2.05819
   R16        2.06660  -0.00090   0.00000  -0.00259  -0.00259   2.06402
   R17        2.07095  -0.00269   0.00000  -0.00777  -0.00777   2.06318
   R18        2.84193   0.00038   0.00000   0.00118   0.00118   2.84311
   R19        2.83645   0.00350   0.00000   0.01065   0.01065   2.84710
   R20        2.54612  -0.00324   0.00000  -0.00577  -0.00577   2.54035
   R21        2.06705  -0.00361   0.00000  -0.01035  -0.01035   2.05670
   R22        2.07182  -0.00397   0.00000  -0.01146  -0.01146   2.06036
   R23        2.06840  -0.00154   0.00000  -0.00441  -0.00441   2.06399
   R24        2.06111  -0.00405   0.00000  -0.01147  -0.01147   2.04964
   R25        2.84495  -0.00135   0.00000  -0.00417  -0.00417   2.84078
   R26        2.07141  -0.00281   0.00000  -0.00812  -0.00812   2.06330
   R27        2.07311  -0.00243   0.00000  -0.00704  -0.00704   2.06607
    A1        1.85399  -0.00210   0.00000  -0.00605  -0.00633   1.84767
    A2        1.88363   0.00231   0.00000   0.00308   0.00312   1.88675
    A3        1.86652   0.00392   0.00000   0.01816   0.01790   1.88442
    A4        1.87641   0.00304   0.00000   0.01304   0.01328   1.88969
    A5        1.88445   0.00378   0.00000   0.02158   0.02159   1.90603
    A6        2.08654  -0.01036   0.00000  -0.04666  -0.04656   2.03998
    A7        1.98068   0.00421   0.00000   0.01668   0.01545   1.99612
    A8        2.16484  -0.00668   0.00000  -0.02587  -0.02697   2.13787
    A9        2.13763   0.00249   0.00000   0.01000   0.00875   2.14637
   A10        1.96190  -0.00041   0.00000  -0.00137  -0.00135   1.96055
   A11        1.94105  -0.00212   0.00000  -0.01095  -0.01091   1.93014
   A12        1.91873   0.00418   0.00000   0.02230   0.02235   1.94107
   A13        1.85235   0.00235   0.00000   0.01964   0.01965   1.87200
   A14        1.90349  -0.00269   0.00000  -0.01957  -0.01955   1.88394
   A15        1.88356  -0.00150   0.00000  -0.01121  -0.01115   1.87242
   A16        2.08508  -0.00307   0.00000  -0.02079  -0.02080   2.06427
   A17        2.23303  -0.00274   0.00000  -0.01217  -0.01218   2.22085
   A18        1.96507   0.00582   0.00000   0.03293   0.03292   1.99799
   A19        1.98565  -0.00220   0.00000  -0.01346  -0.01340   1.97225
   A20        1.91233   0.00255   0.00000   0.01566   0.01560   1.92793
   A21        1.90820   0.00347   0.00000   0.02087   0.02082   1.92901
   A22        1.87834  -0.00024   0.00000  -0.00123  -0.00118   1.87716
   A23        1.89185  -0.00090   0.00000  -0.00592  -0.00585   1.88599
   A24        1.88479  -0.00287   0.00000  -0.01704  -0.01720   1.86759
   A25        1.88101   0.00066   0.00000   0.00578   0.00582   1.88682
   A26        1.87187   0.00151   0.00000   0.01448   0.01451   1.88638
   A27        1.95922  -0.00287   0.00000  -0.01362  -0.01358   1.94564
   A28        1.89867  -0.00347   0.00000  -0.02823  -0.02822   1.87045
   A29        1.92854   0.00221   0.00000   0.01056   0.01059   1.93913
   A30        1.92250   0.00184   0.00000   0.01019   0.01021   1.93271
   A31        2.01465   0.00021   0.00000   0.00116   0.00077   2.01542
   A32        2.10166   0.00303   0.00000   0.01224   0.01185   2.11351
   A33        2.16656  -0.00321   0.00000  -0.01219  -0.01256   2.15399
   A34        1.96365  -0.00080   0.00000  -0.00263  -0.00262   1.96103
   A35        1.92938  -0.00058   0.00000  -0.00261  -0.00259   1.92679
   A36        1.92233   0.00351   0.00000   0.01813   0.01815   1.94049
   A37        1.86006   0.00181   0.00000   0.01667   0.01667   1.87673
   A38        1.89705  -0.00179   0.00000  -0.01235  -0.01233   1.88472
   A39        1.88886  -0.00233   0.00000  -0.01837  -0.01834   1.87052
   A40        2.05139   0.00121   0.00000   0.00109   0.00104   2.05243
   A41        2.23165  -0.00780   0.00000  -0.03454  -0.03460   2.19705
   A42        2.00012   0.00659   0.00000   0.03358   0.03352   2.03364
   A43        1.97744   0.00082   0.00000   0.00118   0.00115   1.97858
   A44        1.89524  -0.00185   0.00000  -0.01960  -0.01964   1.87560
   A45        1.92397  -0.00095   0.00000  -0.00480  -0.00482   1.91915
   A46        1.92167   0.00025   0.00000  -0.00104  -0.00114   1.92054
   A47        1.90413   0.00055   0.00000   0.01067   0.01066   1.91478
   A48        1.83613   0.00120   0.00000   0.01443   0.01437   1.85049
    D1        0.79793   0.00106   0.00000   0.05857   0.05810   0.85604
    D2       -2.33363  -0.00050   0.00000  -0.03069  -0.03042  -2.36404
    D3       -1.19531   0.00085   0.00000   0.05760   0.05724  -1.13807
    D4        1.95631  -0.00071   0.00000  -0.03166  -0.03128   1.92503
    D5        2.93380   0.00076   0.00000   0.05148   0.05119   2.98498
    D6       -0.19776  -0.00080   0.00000  -0.03778  -0.03733  -0.23510
    D7        1.06729  -0.00167   0.00000  -0.08774  -0.08784   0.97945
    D8       -1.07357  -0.00120   0.00000  -0.07295  -0.07310  -1.14667
    D9       -3.07654  -0.00108   0.00000  -0.07661  -0.07675   3.12990
   D10        3.05605  -0.00037   0.00000  -0.07551  -0.07534   2.98071
   D11        0.91520   0.00010   0.00000  -0.06073  -0.06060   0.85460
   D12       -1.08777   0.00022   0.00000  -0.06438  -0.06425  -1.15202
   D13       -1.07698  -0.00068   0.00000  -0.07375  -0.07374  -1.15071
   D14        3.06536  -0.00020   0.00000  -0.05897  -0.05900   3.00636
[...]
                 (A) (A) (A) (A) (A) (A) (A) (A) (A)
 The electronic state is 1-A.
 Alpha  occ. eigenvalues --  -11.22664 -11.22647 -11.21912 -11.21714 -11.21527
 Alpha  occ. eigenvalues --  -11.21395 -11.21386 -11.21328 -11.21293 -11.21025
 Alpha  occ. eigenvalues --   -1.10790  -1.08154  -1.01820  -0.97834  -0.93623
 Alpha  occ. eigenvalues --   -0.91831  -0.87676  -0.82717  -0.70143  -0.68967
 Alpha  occ. eigenvalues --   -0.64225  -0.61947  -0.61075  -0.58531  -0.57954
 Alpha  occ. eigenvalues --   -0.57560  -0.55329  -0.53992  -0.53090  -0.52760
 Alpha  occ. eigenvalues --   -0.52457  -0.51400  -0.50568  -0.49406  -0.47113
 Alpha  occ. eigenvalues --   -0.46127  -0.44594  -0.32470  -0.32041
 Alpha virt. eigenvalues --    0.18743   0.19400   0.23222   0.24724   0.25706
 Alpha virt. eigenvalues --    0.26453   0.28547   0.29750   0.30575   0.31011
 Alpha virt. eigenvalues --    0.31979   0.32367   0.33238   0.33899   0.34472
 Alpha virt. eigenvalues --    0.35259   0.36957   0.38086   0.39255   0.39833
 Alpha virt. eigenvalues --    0.41085   0.41633   0.43914   0.45282   0.46438
 Alpha virt. eigenvalues --    0.52025   0.52512   0.60715   0.65681   0.69644
 Alpha virt. eigenvalues --    0.71650   0.72336   0.74272   0.74542   0.75768
 Alpha virt. eigenvalues --    0.77066   0.79028   0.80101   0.81396   0.83209
 Alpha virt. eigenvalues --    0.84906   0.86278   0.86966   0.89576   0.92018
 Alpha virt. eigenvalues --    0.94866   0.96470   0.96841   0.97249   0.99544
 Alpha virt. eigenvalues --    1.00477   1.01713   1.03291   1.04939   1.06695
 Alpha virt. eigenvalues --    1.08281   1.08686   1.10076   1.12448   1.12889
 Alpha virt. eigenvalues --    1.13384   1.15100   1.15576   1.15942   1.16472
 Alpha virt. eigenvalues --    1.16877   1.18254   1.18738   1.19760   1.20702
 Alpha virt. eigenvalues --    1.22008   1.22438   1.23050   1.25544   1.25899
 Alpha virt. eigenvalues --    1.28075   1.36075   1.36809   1.42564   1.45947
 Alpha virt. eigenvalues --    1.47427   1.49869   1.56000   1.57949   1.58423
 Alpha virt. eigenvalues --    1.61144   1.65309   1.68695   1.71222   1.73479
 Alpha virt. eigenvalues --    1.77410   1.85211   1.87828   1.92474   1.96565
 Alpha virt. eigenvalues --    2.00246   2.01235   2.02336   2.06739   2.07532
 Alpha virt. eigenvalues --    2.09071   2.10235   2.10876   2.13297   2.15356
 Alpha virt. eigenvalues --    2.15801   2.19401   2.21774   2.26463   2.27909
 Alpha virt. eigenvalues --    2.28305   2.31881   2.34569   2.35166   2.35725
 Alpha virt. eigenvalues --    2.35978   2.36170   2.36754   2.40419   2.41062
 Alpha virt. eigenvalues --    2.42737   2.43351   2.43535   2.44671   2.46269
 Alpha virt. eigenvalues --    2.47062   2.49246   2.49911   2.51828   2.53077
 Alpha virt. eigenvalues --    2.56862   2.58216   2.60552   2.61737   2.64401
 Alpha virt. eigenvalues --    2.68205   2.69072   2.71706   2.73509   2.74585
 Alpha virt. eigenvalues --    2.75910   2.79728   2.81053   2.83160   2.84298
 Alpha virt. eigenvalues --    2.86173   2.88465   2.89958   2.93304   2.94926
 Alpha virt. eigenvalues --    2.96875   2.99333   3.01340   3.03958   3.04854
 Alpha virt. eigenvalues --    3.07160   3.07958   3.08862   3.12884   3.15399
 Alpha virt. eigenvalues --    3.17467   3.18640   3.19024   3.21533   3.22342
 Alpha virt. eigenvalues --    3.24941   3.26221   3.26797   3.28218   3.39339
 Alpha virt. eigenvalues --    3.40738   3.43686   3.47457   3.56503   3.57429
 Alpha virt. eigenvalues --    3.61870   3.62588   3.69521   3.72452   3.79413
 Alpha virt. eigenvalues --    3.80204   3.81398   3.82148   3.83577   3.84410
 Alpha virt. eigenvalues --    3.84559   3.87113   3.88501   3.90537   3.91550
 Alpha virt. eigenvalues --    3.95782   4.58854   4.60907   4.75814   4.82822
 Alpha virt. eigenvalues --    4.89887   4.92602   4.93069   5.03645   5.11601
 Alpha virt. eigenvalues --    5.18403
          Condensed to atoms (all electrons):
               1          2          3          4          5          6
     1  C    4.966479   0.407603   0.399785   0.352285  -0.061987   0.003896
     2  H    0.407603   0.605866  -0.035524  -0.050558  -0.004206   0.000116
     3  H    0.399785  -0.035524   0.600438  -0.041112  -0.002400  -0.000135
     4  C    0.352285  -0.050558  -0.041112   4.920415   0.352632  -0.038159
     5  C   -0.061987  -0.004206  -0.002400   0.352632   4.906399   0.406382
     6  H    0.003896   0.000116  -0.000135  -0.038159   0.406382   0.571679
     7  H   -0.003060   0.002621  -0.000040  -0.041471   0.398335  -0.026910
     8  H   -0.002488  -0.000874   0.002326  -0.045484   0.402776  -0.028121
     9  C   -0.049533   0.001787  -0.002092   0.701798  -0.043935  -0.002175
    10  H   -0.006710   0.000073   0.000183  -0.040997   0.003551   0.000034
    11  C    0.003129  -0.000077  -0.000112  -0.043800  -0.008791  -0.002560
    12  H    0.000070  -0.000004  -0.000000   0.000161  -0.002208  -0.001701
    13  H   -0.000126  -0.000003   0.000022  -0.000954   0.000358   0.000033
    14  H   -0.000068   0.000011  -0.000005  -0.000640   0.000223  -0.000015
    15  C   -0.000118  -0.000049   0.000002   0.000003   0.000000   0.000000
    16  H   -0.000003  -0.000001   0.000000  -0.000001  -0.000000   0.000000
    17  H   -0.000006   0.000003   0.000000  -0.000000  -0.000000   0.000000
    18  H    0.000030  -0.000008  -0.000000  -0.000000   0.000000  -0.000000
    19  C   -0.004756   0.002456   0.000042   0.000390  -0.000049   0.000000
    20  C    0.000252  -0.000185  -0.000012   0.000005   0.000001  -0.000000
    21  H   -0.000441   0.000178   0.000052   0.000002  -0.000000  -0.000000
    22  H    0.000211  -0.000152  -0.000010  -0.000001   0.000001  -0.000000
    23  H   -0.000051   0.000035   0.000002  -0.000001  -0.000000   0.000000
    24  C   -0.066445  -0.004263   0.005902  -0.000692  -0.000369   0.000001
    25  H    0.000951  -0.000008  -0.000084   0.001007  -0.000007  -0.000000
    26  C    0.346504  -0.040591  -0.037563  -0.043825   0.003489  -0.000092
    27  H   -0.041889  -0.003277  -0.003605   0.004203  -0.000089   0.000001
    28  H   -0.042743   0.005145  -0.002641  -0.003615  -0.000078   0.000001
               7          8          9         10         11         12
     1  C   -0.003060  -0.002488  -0.049533  -0.006710   0.003129   0.000070
     2  H    0.002621  -0.000874   0.001787   0.000073  -0.000077  -0.000004
     3  H   -0.000040   0.002326  -0.002092   0.000183  -0.000112  -0.000000
     4  C   -0.041471  -0.045484   0.701798  -0.040997  -0.043800   0.000161
     5  C    0.398335   0.402776  -0.043935   0.003551  -0.008791  -0.002208
     6  H   -0.026910  -0.028121  -0.002175   0.000034  -0.002560  -0.001701
     7  H    0.583354  -0.035604  -0.000530  -0.000115   0.000386  -0.000046
     8  H   -0.035604   0.590396   0.000112  -0.000133   0.000224  -0.000029
     9  C   -0.000530   0.000112   4.936272   0.408514   0.342446  -0.044044
    10  H   -0.000115  -0.000133   0.408514   0.567831  -0.041890   0.003406
    11  C    0.000386   0.000224   0.342446  -0.041890   4.890986   0.408865
    12  H   -0.000046  -0.000029  -0.044044   0.003406   0.408865   0.576793
    13  H   -0.000033   0.000046  -0.041909  -0.001074   0.400274  -0.028096
    14  H    0.000060  -0.000021  -0.043352  -0.001424   0.403130  -0.028563
    15  C    0.000000  -0.000000  -0.000000   0.000002  -0.000000   0.000000
    16  H    0.000000  -0.000000  -0.000004  -0.000001  -0.000000  -0.000000
    17  H    0.000000  -0.000000   0.000000  -0.000000   0.000000  -0.000000
    18  H   -0.000000  -0.000000  -0.000001   0.000000   0.000000   0.000000
    19  C    0.000015   0.000000   0.000242  -0.000034  -0.000001   0.000000
    20  C   -0.000001   0.000000  -0.000006  -0.000000   0.000000  -0.000000
    21  H    0.000000  -0.000000  -0.000001   0.000000  -0.000000   0.000000
    22  H   -0.000001   0.000000   0.000000   0.000000   0.000000   0.000000
    23  H    0.000000  -0.000000   0.000000  -0.000000  -0.000000  -0.000000
    24  C    0.000048   0.000011  -0.001057  -0.002576  -0.000023  -0.000002
    25  H   -0.000005   0.000000  -0.000487  -0.000478   0.000052  -0.000002
    26  C   -0.000073   0.000027  -0.006375  -0.000612   0.000009  -0.000001
    27  H   -0.000001  -0.000000   0.000144   0.000097   0.000000   0.000000
    28  H    0.000006  -0.000007  -0.001136  -0.001940  -0.000014  -0.000002
              13         14         15         16         17         18
     1  C   -0.000126  -0.000068  -0.000118  -0.000003  -0.000006   0.000030
     2  H   -0.000003   0.000011  -0.000049  -0.000001   0.000003  -0.000008
     3  H    0.000022  -0.000005   0.000002   0.000000   0.000000  -0.000000
     4  C   -0.000954  -0.000640   0.000003  -0.000001  -0.000000  -0.000000
     5  C    0.000358   0.000223   0.000000  -0.000000  -0.000000   0.000000
     6  H    0.000033  -0.000015   0.000000   0.000000   0.000000  -0.000000
     7  H   -0.000033   0.000060   0.000000   0.000000   0.000000  -0.000000
     8  H    0.000046  -0.000021  -0.000000  -0.000000  -0.000000  -0.000000
     9  C   -0.041909  -0.043352  -0.000000  -0.000004   0.000000  -0.000001
    10  H   -0.001074  -0.001424   0.000002  -0.000001  -0.000000   0.000000
    11  C    0.400274   0.403130  -0.000000  -0.000000   0.000000   0.000000
    12  H   -0.028096  -0.028563   0.000000  -0.000000  -0.000000   0.000000
    13  H    0.588503  -0.036379   0.000000  -0.000000  -0.000000   0.000000
    14  H   -0.036379   0.588146  -0.000000   0.000000   0.000000  -0.000000
    15  C    0.000000  -0.000000   4.898826   0.406059   0.398475   0.398321
    16  H   -0.000000   0.000000   0.406059   0.566230  -0.026591  -0.026751
    17  H   -0.000000   0.000000   0.398475  -0.026591   0.596514  -0.038186
    18  H    0.000000  -0.000000   0.398321  -0.026751  -0.038186   0.596252
    19  C    0.000000  -0.000001   0.354737  -0.041439  -0.044484  -0.044155
    20  C   -0.000000   0.000000  -0.065415   0.003828  -0.001372  -0.001802
    21  H   -0.000000   0.000000   0.003788  -0.000115  -0.000036  -0.000068
    22  H    0.000000  -0.000000  -0.002464  -0.000043  -0.000455   0.002720
    23  H   -0.000000   0.000000  -0.002461  -0.000043   0.002839  -0.000482
    24  C    0.000003   0.000002  -0.044445  -0.002671  -0.001121  -0.000523
    25  H    0.000000   0.000037  -0.007060   0.002400   0.000161   0.000203
    26  C    0.000005  -0.000004   0.003203   0.000138  -0.000121  -0.000084
    27  H    0.000000  -0.000000   0.000050   0.000006   0.000011  -0.000007
    28  H   -0.000013   0.000015  -0.000090  -0.000009   0.000008  -0.000001
              19         20         21         22         23         24
     1  C   -0.004756   0.000252  -0.000441   0.000211  -0.000051  -0.066445
     2  H    0.002456  -0.000185   0.000178  -0.000152   0.000035  -0.004263
     3  H    0.000042  -0.000012   0.000052  -0.000010   0.000002   0.005902
     4  C    0.000390   0.000005   0.000002  -0.000001  -0.000001  -0.000692
     5  C   -0.000049   0.000001  -0.000000   0.000001  -0.000000  -0.000369
     6  H    0.000000  -0.000000  -0.000000  -0.000000   0.000000   0.000001
     7  H    0.000015  -0.000001   0.000000  -0.000001   0.000000   0.000048
     8  H    0.000000   0.000000  -0.000000   0.000000  -0.000000   0.000011
     9  C    0.000242  -0.000006  -0.000001   0.000000   0.000000  -0.001057
    10  H   -0.000034  -0.000000   0.000000   0.000000  -0.000000  -0.002576
    11  C   -0.000001   0.000000  -0.000000   0.000000  -0.000000  -0.000023
    12  H    0.000000  -0.000000   0.000000   0.000000  -0.000000  -0.000002
    13  H    0.000000  -0.000000  -0.000000   0.000000  -0.000000   0.000003
    14  H   -0.000001   0.000000   0.000000  -0.000000   0.000000   0.000002
    15  C    0.354737  -0.065415   0.003788  -0.002464  -0.002461  -0.044445
    16  H   -0.041439   0.003828  -0.000115  -0.000043  -0.000043  -0.002671
    17  H   -0.044484  -0.001372  -0.000036  -0.000455   0.002839  -0.001121
    18  H   -0.044155  -0.001802  -0.000068   0.002720  -0.000482  -0.000523
    19  C    4.914988   0.350252  -0.037860  -0.043315  -0.043763   0.702053
    20  C    0.350252   4.906739   0.407076   0.400967   0.400378  -0.044721
    21  H   -0.037860   0.407076   0.570893  -0.028261  -0.026869  -0.003037
    22  H   -0.043315   0.400967  -0.028261   0.587521  -0.035875  -0.000224
    23  H   -0.043763   0.400378  -0.026869  -0.035875   0.587203  -0.000183
    24  C    0.702053  -0.044721  -0.003037  -0.000224  -0.000183   4.954432
    25  H   -0.037310   0.003507   0.000054  -0.000115  -0.000122   0.406790
    26  C   -0.050982  -0.007635  -0.002454   0.000291   0.000164   0.338032
    27  H   -0.000998  -0.002561  -0.001488  -0.000097   0.000166  -0.044292
    28  H    0.002072   0.000145   0.000070  -0.000013   0.000019  -0.043243
              25         26         27         28
     1  C    0.000951   0.346504  -0.041889  -0.042743
     2  H   -0.000008  -0.040591  -0.003277   0.005145
     3  H   -0.000084  -0.037563  -0.003605  -0.002641
     4  C    0.001007  -0.043825   0.004203  -0.003615
     5  C   -0.000007   0.003489  -0.000089  -0.000078
     6  H   -0.000000  -0.000092   0.000001   0.000001
     7  H   -0.000005  -0.000073  -0.000001   0.000006
     8  H    0.000000   0.000027  -0.000000  -0.000007
     9  C   -0.000487  -0.006375   0.000144  -0.001136
    10  H   -0.000478  -0.000612   0.000097  -0.001940
    11  C    0.000052   0.000009   0.000000  -0.000014
    12  H   -0.000002  -0.000001   0.000000  -0.000002
    13  H    0.000000   0.000005   0.000000  -0.000013
    14  H    0.000037  -0.000004  -0.000000   0.000015
    15  C   -0.007060   0.003203   0.000050  -0.000090
    16  H    0.002400   0.000138   0.000006  -0.000009
    17  H    0.000161  -0.000121   0.000011   0.000008
    18  H    0.000203  -0.000084  -0.000007  -0.000001
    19  C   -0.037310  -0.050982  -0.000998   0.002072
    20  C    0.003507  -0.007635  -0.002561   0.000145
    21  H    0.000054  -0.002454  -0.001488   0.000070
    22  H   -0.000115   0.000291  -0.000097  -0.000013
    23  H   -0.000122   0.000164   0.000166   0.000019
    24  C    0.406790   0.338032  -0.044292  -0.043243
    25  H    0.549702  -0.038412   0.003113  -0.004273
    26  C   -0.038412   4.967812   0.421264   0.413226
    27  H    0.003113   0.421264   0.578955  -0.030228
    28  H   -0.004273   0.413226  -0.030228   0.590072
 Mulliken charges:
               1
     1  C   -0.200772
     2  H    0.113888
     3  H    0.116582
     4  C    0.018409
     5  C   -0.350028
     6  H    0.117726
     7  H    0.123064
     8  H    0.116840
     9  C   -0.154680
    10  H    0.114292
    11  C   -0.352233
    12  H    0.115404
    13  H    0.119342
    14  H    0.118847
    15  C   -0.341364
    16  H    0.119012
    17  H    0.114362
    18  H    0.114540
    19  C    0.021899
    20  C   -0.349442
    21  H    0.118517
    22  H    0.119314
    23  H    0.119043
    24  C   -0.147391
    25  H    0.120384
    26  C   -0.265343
    27  H    0.120522
    28  H    0.119264
 Sum of Mulliken charges =  -0.00000
 Mulliken charges with hydrogens summed into heavy atoms:
               1
     1  C    0.029698
     4  C    0.018409
     5  C    0.007603
     9  C   -0.040388
    11  C    0.001360
    15  C    0.006550
    19  C    0.021899
    20  C    0.007431
    24  C   -0.027006
    26  C   -0.025556
 Electronic spatial extent (au):  <R**2>=           2254.7668
 Charge=             -0.0000 electrons
 Dipole moment (field-independent basis, Debye):
    X=             -0.1080    Y=             -0.2847    Z=              0.2341  Tot=              0.3841
 Quadrupole moment (field-independent basis, Debye-Ang):
   XX=            -64.2692   YY=            -64.0249   ZZ=            -65.7839
   XY=              0.9126   XZ=             -0.3587   YZ=             -0.3841
 Traceless Quadrupole moment (field-independent basis, Debye-Ang):
   XX=              0.4234   YY=              0.6678   ZZ=             -1.0912
   XY=              0.9126   XZ=             -0.3587   YZ=             -0.3841
 Octapole moment (field-independent basis, Debye-Ang**2):
  XXX=             -4.7722  YYY=              0.4568  ZZZ=              2.0987  XYY=              1.3788
  XXY=              0.6606  XXZ=              5.9680  XZZ=              1.3248  YZZ=             -0.7572
  YYZ=             -1.5988  XYZ=             -2.2048
 Hexadecapole moment (field-independent basis, Debye-Ang**3):
 XXXX=          -2192.6058 YYYY=           -595.2880 ZZZZ=           -326.9706 XXXY=              5.9926
 XXXZ=              9.1553 YYYX=             -1.8996 YYYZ=              2.8920 ZZZX=             -7.4648
 ZZZY=             -1.7913 XXYY=           -475.2021 XXZZ=           -427.3532 YYZZ=           -156.8558
 XXYZ=             -0.9239 YYXZ=             -0.9462 ZZXY=              5.8777
 N-N= 5.236352453374D+02 E-N=-1.952056439633D+03  KE= 3.887416744126D+02
 No NMR shielding tensors so no spin-rotation constants.
 Leave Link  601 at Fri Sep 17 22:41:22 2021, MaxMem=   524288000 cpu:               0.3 elap:               0.6
 (Enter /opt/gaussian/g16_legacy/l9999.exe)
 1\1\GINC-TRUENO91\FOpt\RMP2-FC\6-31G(d,p)\C10H18\JRAMOS\17-Sep-2021\0\
 \#p opt mp2/6-31g(d,p)\\Conformer number 039. Energy MM = 27.337 kcal/
 mol\\0,1\C,2.2455946518,1.4083214352,-8.8462645194\H,1.934998681,0.417
 1772698,-9.19409853\H,2.0947449798,2.0814496845,-9.6993383944\C,3.7263
 290568,1.3549548649,-8.5408732548\C,4.5147460107,0.6188593411,-9.59048
 39673\H,5.5901196188,0.6978935937,-9.457043484\H,4.2491069395,-0.44055
 1679,-9.591916179\H,4.2712766612,1.007665911,-10.5815647017\C,4.264652
 5112,1.9406318679,-7.4560403336\H,3.596293108,2.4546162203,-6.77457535
 48\C,5.7082886905,1.9805059584,-7.0527648367\H,6.3537242405,1.42845437
 09,-7.7306363628\H,6.0688075313,3.0100644182,-7.0103457755\H,5.8373860
 145,1.558267416,-6.0546272073\C,0.6043448619,-1.162114364,-5.264556220
 4\H,1.4000694815,-0.8505126352,-4.5896535277\H,-0.3301868388,-1.197058
 565,-4.6998296041\H,0.8139685405,-2.1827157638,-5.5928169675\C,0.48436
 35018,-0.2338619933,-6.44161652\C,-0.5959896816,-0.5998942895,-7.42129
 49057\H,-0.6559611624,0.0844748552,-8.2636752281\H,-0.4228450828,-1.60
 34063543,-7.8161878754\H,-1.5697960691,-0.619484278,-6.9268149324\C,1.
 3043116208,0.8263248661,-6.5711221334\H,2.057411242,0.9668456402,-5.80
 30611359\C,1.30827295,1.8150596281,-7.7029529634\H,0.3034813372,1.9261
 323314,-8.1135531814\H,1.5861866034,2.8033002491,-7.3296919031\\Versio
 n=EM64L-G16RevA.03\State=1-A\HF=-389.1530042\MP2=-390.5711268\RMSD=9.5
 36e-09\RMSF=6.575e-07\Dipole=-0.0250681,-0.0814536,-0.0861568\PG=C01 [
 X(C10H18)]\\@


 I WOULD TAKE COUNSEL OF MYSELF.
 I WOULD STOP AND LOOK WITHIN
 AND LOOKING WITHIN, LOOK BACK, ALSO
 THAT I MAY LOOK AHEAD WITH CLEARER UNDERSTANDING
 OF THE WAY I HAVE BEEN MOVING, AND IN WHAT DIRECTION.
 I NEED TO KNOW IF I AM GOING FORWARD OR RETREATING,
 WHETHER I HAVE BEEN WASTING, OR ENJOYING
 THE PRECIOUS MOMENTS OF LIFE.  THERE HAVE BEEN FRICTIONS,
 ANNOYANCES AND SOMETIMES WRATH,
 BUT WERE THEY BECAUSE I WAS RIGHT AND OTHERS WRONG.....
 HAVE I HAD MY THOUGHTS TOO SHARPLY FOCUSED
 ON THAT WHICH PLEASED ME, SERVED MY SELF-ESTEEM,
 UNDERGIRDED MY SECURITY,
 OF WHICH I DID NOT INQUIRE WHETHER IT SERVED OR HAMPERED OTHERS.....
 HAVE I BEEN TRYING TO STOP THE CLOCK
 TO HOLD THE WORLD
 IN PERPETUATION OF WHAT WAS AN IS ALREADY SLIPPING AWAY.....
 HAVE I BEEN CRITICAL OF OTHERS FOR WHAT REALLY NEEDED CHANGING IN ME...
 LET ME INDEED TAKE COUNSEL OF MYSELF
 AND SET MY DIRECTIONS STRAIGHT.

                          R.T. WESTON AS ADAPTED BY D. OSBORN 1967
 Job cpu time:       0 days  2 hours 31 minutes 40.7 seconds.
 Elapsed time:       0 days  2 hours 31 minutes 49.1 seconds.
 File lengths (MBytes):  RWF=     32 Int=      0 D2E=      0 Chk=      7 Scr=      1
 Normal termination of Gaussian 16 at Fri Sep 17 22:41:22 2021.
