 Entering Gaussian System, Link 0=/opt/g16/g16
 Input=03-IsoP_005_gaussian.com
 Output=03-IsoP_005_gaussian.log
 Initial command:
 /opt/g16/l1.exe "/tmp/Gau-1501489.inp" -scrdir="/tmp/"
 Entering Link 1 = /opt/g16/l1.exe PID=   1501491.
  
 Copyright (c) 1988,1990,1992,1993,1995,1998,2003,2009,2016,
            Gaussian, Inc.  All Rights Reserved.
  
 This is part of the Gaussian(R) 16 program.  It is based on
 the Gaussian(R) 09 system (copyright 2009, Gaussian, Inc.),
 the Gaussian(R) 03 system (copyright 2003, Gaussian, Inc.),
 the Gaussian(R) 98 system (copyright 1998, Gaussian, Inc.),
 the Gaussian(R) 94 system (copyright 1995, Gaussian, Inc.),
 the Gaussian 92(TM) system (copyright 1992, Gaussian, Inc.),
 the Gaussian 90(TM) system (copyright 1990, Gaussian, Inc.),
 the Gaussian 88(TM) system (copyright 1988, Gaussian, Inc.),
 the Gaussian 86(TM) system (copyright 1986, Carnegie Mellon
 University), and the Gaussian 82(TM) system (copyright 1983,
 Carnegie Mellon University). Gaussian is a federally registered
 trademark of Gaussian, Inc.
  
 This software contains proprietary and confidential information,
 including trade secrets, belonging to Gaussian, Inc.
  
 This software is provided under written license and may be
 used, copied, transmitted, or stored only in accord with that
 written license.
  
 The following legend is applicable only to US Government
 contracts under FAR:
  
                    RESTRICTED RIGHTS LEGEND
  
 Use, reproduction and disclosure by the US Government is
 subject to restrictions as set forth in subparagraphs (a)
 and (c) of the Commercial Computer Software - Restricted
 Rights clause in FAR 52.227-19.
  
 Gaussian, Inc.
 340 Quinnipiac St., Bldg. 40, Wallingford CT 06492
  
  
 ---------------------------------------------------------------
 Warning -- This program may not be used in any manner that
 competes with the business of Gaussian, Inc. or will provide
 assistance to any competitor of Gaussian, Inc.  The licensee
 of this program is prohibited from giving any competitor of
 Gaussian, Inc. access to this program.  By using this program,
 the user acknowledges that Gaussian, Inc. is engaged in the
 business of creating and licensing software in the field of
 computational chemistry and represents and warrants to the
 licensee that it is not a competitor of Gaussian, Inc. and that
 it will not use this program in any manner prohibited above.
 ---------------------------------------------------------------
  

 Cite this work as:
 Gaussian 16, Revision A.03,
 M. J. Frisch, G. W. Trucks, H. B. Schlegel, G. E. Scuseria, 
 M. A. Robb, J. R. Cheeseman, G. Scalmani, V. Barone, 
 G. A. Petersson, H. Nakatsuji, X. Li, M. Caricato, A. V. Marenich, 
 J. Bloino, B. G. Janesko, R. Gomperts, B. Mennucci, H. P. Hratchian, 
 J. V. Ortiz, A. F. Izmaylov, J. L. Sonnenberg, D. Williams-Young, 
 F. Ding, F. Lipparini, F. Egidi, J. Goings, B. Peng, A. Petrone, 
 T. Henderson, D. Ranasinghe, V. G. Zakrzewski, J. Gao, N. Rega, 
 G. Zheng, W. Liang, M. Hada, M. Ehara, K. Toyota, R. Fukuda, 
 J. Hasegawa, M. Ishida, T. Nakajima, Y. Honda, O. Kitao, H. Nakai, 
 T. Vreven, K. Throssell, J. A. Montgomery, Jr., J. E. Peralta, 
 F. Ogliaro, M. J. Bearpark, J. J. Heyd, E. N. Brothers, K. N. Kudin, 
 V. N. Staroverov, T. A. Keith, R. Kobayashi, J. Normand, 
 K. Raghavachari, A. P. Rendell, J. C. Burant, S. S. Iyengar, 
 J. Tomasi, M. Cossi, J. M. Millam, M. Klene, C. Adamo, R. Cammi, 
 J. W. Ochterski, R. L. Martin, K. Morokuma, O. Farkas, 
 J. B. Foresman, and D. J. Fox, Gaussian, Inc., Wallingford CT, 2016.
 
 ******************************************
 Gaussian 16:  ES64L-G16RevA.03 25-Dec-2016
                16-Sep-2021 
 ******************************************
 %chk=03-IsoP_005_gaussian.chk
 %nproc=1
 Will use up to    1 processors via shared memory.
 %mem=1000Mb
 ----------
 #p opt pm3
 ----------
 1/18=20,19=15,26=1,38=1/1,3;
 2/9=110,12=2,17=6,18=5,40=1/2;
 3/5=2,25=1,41=800000,71=1/1,2,3;
 4/35=1/1;
 5/5=2,35=1,38=5/2;
 6/7=2,8=2,9=2,10=2,28=1/1;
 7//1,2,3,16;
 1/18=20,19=15,26=1/3(2);
 2/9=110/2;
 99//99;
 2/9=110/2;
 3/5=2,25=1,41=800000,71=1,135=20/1,2,3;
 4/5=5,16=3,35=1/1;
 5/5=2,35=1,38=5/2;
 7//1,2,3,16;
 1/18=20,19=15,26=1/3(-5);
 2/9=110/2;
 6/7=2,8=2,9=2,10=2,19=2,28=1/1;
 99/9=1/99;
 Leave Link    1 at Thu Sep 16 16:24:46 2021, MaxMem=   131072000 cpu:               0.0 elap:               0.0
 (Enter /opt/g16/l101.exe)
 -------------------------------------------------
 Conformer number 005. Energy MM = 23.242 kcal/mol
 -------------------------------------------------
 Symbolic Z-matrix:
 Charge =  0 Multiplicity = 1
 C                    -0.6331   -0.4522   -0.7035 
 H                    -0.5878   -1.2445    0.0532 
 H                    -0.3069   -0.9338   -1.6352 
 C                    -2.0554    0.0405   -0.8743 
 C                    -2.3848    0.5782   -2.2433 
 H                    -1.7457    1.434    -2.4824 
 H                    -2.23     -0.1955   -3.0024 
 H                    -3.4252    0.9119   -2.3185 
 C                    -2.9962   -0.0017    0.0898 
 H                    -3.998     0.3581   -0.1433 
 C                    -2.8348   -0.4761    1.4994 
 H                    -1.7986   -0.6886    1.7718 
 H                    -3.427    -1.3826    1.6565 
 H                    -3.2009    0.2933    2.1869 
 C                     3.8382   -0.5355    0.941 
 H                     4.4852    0.1747    1.4663 
 H                     3.9213   -1.5111    1.4311 
 H                     4.2217   -0.6423   -0.0792 
 C                     2.41     -0.057     0.9686 
 C                     1.8413    0.1134    2.3503 
 H                     0.7709    0.3313    2.3556 
 H                     1.9798   -0.8059    2.9296 
 H                     2.3545    0.9287    2.8705 
 C                     1.74      0.172    -0.1778 
 H                     2.253    -0.0054   -1.1232 
 C                     0.331     0.6792   -0.3328 
 H                    -0.0132    1.192     0.5714 
 H                     0.3352    1.4434   -1.1204 
 
 ITRead=  0  0  0  0  0  0  0  0  0  0  0  0  0  0  0  0  0  0  0  0
 ITRead=  0  0  0  0  0  0  0  0
 MicOpt= -1 -1 -1 -1 -1 -1 -1 -1 -1 -1 -1 -1 -1 -1 -1 -1 -1 -1 -1 -1
 MicOpt= -1 -1 -1 -1 -1 -1 -1 -1
 NAtoms=     28 NQM=       28 NQMF=       0 NMMI=      0 NMMIF=      0
                NMic=       0 NMicF=      0.
                    Isotopes and Nuclear Properties:
 (Nuclear quadrupole moments (NQMom) in fm**2, nuclear magnetic moments (NMagM)
  in nuclear magnetons)

  Atom         1           2           3           4           5           6           7           8           9          10
 IAtWgt=          12           1           1          12          12           1           1           1          12           1
 AtmWgt=  12.0000000   1.0078250   1.0078250  12.0000000  12.0000000   1.0078250   1.0078250   1.0078250  12.0000000   1.0078250
 NucSpn=           0           1           1           0           0           1           1           1           0           1
 AtZEff=  -0.0000000  -0.0000000  -0.0000000  -0.0000000  -0.0000000  -0.0000000  -0.0000000  -0.0000000  -0.0000000  -0.0000000
 NQMom=    0.0000000   0.0000000   0.0000000   0.0000000   0.0000000   0.0000000   0.0000000   0.0000000   0.0000000   0.0000000
 NMagM=    0.0000000   2.7928460   2.7928460   0.0000000   0.0000000   2.7928460   2.7928460   2.7928460   0.0000000   2.7928460
 AtZNuc=   6.0000000   1.0000000   1.0000000   6.0000000   6.0000000   1.0000000   1.0000000   1.0000000   6.0000000   1.0000000

  Atom        11          12          13          14          15          16          17          18          19          20
 IAtWgt=          12           1           1           1          12           1           1           1          12          12
 AtmWgt=  12.0000000   1.0078250   1.0078250   1.0078250  12.0000000   1.0078250   1.0078250   1.0078250  12.0000000  12.0000000
 NucSpn=           0           1           1           1           0           1           1           1           0           0
 AtZEff=  -0.0000000  -0.0000000  -0.0000000  -0.0000000  -0.0000000  -0.0000000  -0.0000000  -0.0000000  -0.0000000  -0.0000000
 NQMom=    0.0000000   0.0000000   0.0000000   0.0000000   0.0000000   0.0000000   0.0000000   0.0000000   0.0000000   0.0000000
 NMagM=    0.0000000   2.7928460   2.7928460   2.7928460   0.0000000   2.7928460   2.7928460   2.7928460   0.0000000   0.0000000
 AtZNuc=   6.0000000   1.0000000   1.0000000   1.0000000   6.0000000   1.0000000   1.0000000   1.0000000   6.0000000   6.0000000

  Atom        21          22          23          24          25          26          27          28
 IAtWgt=           1           1           1          12           1          12           1           1
 AtmWgt=   1.0078250   1.0078250   1.0078250  12.0000000   1.0078250  12.0000000   1.0078250   1.0078250
 NucSpn=           1           1           1           0           1           0           1           1
 AtZEff=  -0.0000000  -0.0000000  -0.0000000  -0.0000000  -0.0000000  -0.0000000  -0.0000000  -0.0000000
 NQMom=    0.0000000   0.0000000   0.0000000   0.0000000   0.0000000   0.0000000   0.0000000   0.0000000
 NMagM=    2.7928460   2.7928460   2.7928460   0.0000000   2.7928460   0.0000000   2.7928460   2.7928460
 AtZNuc=   1.0000000   1.0000000   1.0000000   6.0000000   1.0000000   6.0000000   1.0000000   1.0000000
 Leave Link  101 at Thu Sep 16 16:24:46 2021, MaxMem=   131072000 cpu:               0.2 elap:               0.2
 (Enter /opt/g16/l103.exe)

 GradGradGradGradGradGradGradGradGradGradGradGradGradGradGradGradGradGrad
 Berny optimization.
 Initialization pass.
                           ----------------------------
                           !    Initial Parameters    !
                           ! (Angstroms and Degrees)  !
 --------------------------                            --------------------------
 ! Name  Definition              Value          Derivative Info.                !
 --------------------------------------------------------------------------------
 ! R1    R(1,2)                  1.0965         estimate D2E/DX2                !
 ! R2    R(1,3)                  1.0984         estimate D2E/DX2                !
 ! R3    R(1,4)                  1.5149         estimate D2E/DX2                !
 ! R4    R(1,26)                 1.532          estimate D2E/DX2                !
 ! R5    R(4,5)                  1.5072         estimate D2E/DX2                !
 ! R6    R(4,9)                  1.3477         estimate D2E/DX2                !
 ! R7    R(5,6)                  1.0945         estimate D2E/DX2                !
 ! R8    R(5,7)                  1.0949         estimate D2E/DX2                !
 ! R9    R(5,8)                  1.0952         estimate D2E/DX2                !
 ! R10   R(9,10)                 1.0897         estimate D2E/DX2                !
 ! R11   R(9,11)                 1.496          estimate D2E/DX2                !
 ! R12   R(11,12)                1.0923         estimate D2E/DX2                !
 ! R13   R(11,13)                1.0941         estimate D2E/DX2                !
 ! R14   R(11,14)                1.0948         estimate D2E/DX2                !
 ! R15   R(15,16)                1.095          estimate D2E/DX2                !
 ! R16   R(15,17)                1.0949         estimate D2E/DX2                !
 ! R17   R(15,18)                1.0951         estimate D2E/DX2                !
 ! R18   R(15,19)                1.5065         estimate D2E/DX2                !
 ! R19   R(19,20)                1.5038         estimate D2E/DX2                !
 ! R20   R(19,24)                1.3474         estimate D2E/DX2                !
 ! R21   R(20,21)                1.0924         estimate D2E/DX2                !
 ! R22   R(20,22)                1.0954         estimate D2E/DX2                !
 ! R23   R(20,23)                1.0948         estimate D2E/DX2                !
 ! R24   R(24,25)                1.0901         estimate D2E/DX2                !
 ! R25   R(24,26)                1.5055         estimate D2E/DX2                !
 ! R26   R(26,27)                1.095          estimate D2E/DX2                !
 ! R27   R(26,28)                1.0974         estimate D2E/DX2                !
 ! A1    A(2,1,3)              104.8497         estimate D2E/DX2                !
 ! A2    A(2,1,4)              110.5849         estimate D2E/DX2                !
 ! A3    A(2,1,26)             109.9157         estimate D2E/DX2                !
 ! A4    A(3,1,4)              109.0143         estimate D2E/DX2                !
 ! A5    A(3,1,26)             110.0096         estimate D2E/DX2                !
 ! A6    A(4,1,26)             112.2062         estimate D2E/DX2                !
 ! A7    A(1,4,5)              115.0635         estimate D2E/DX2                !
 ! A8    A(1,4,9)              124.372          estimate D2E/DX2                !
 ! A9    A(5,4,9)              120.5541         estimate D2E/DX2                !
 ! A10   A(4,5,6)              110.4712         estimate D2E/DX2                !
 ! A11   A(4,5,7)              110.2873         estimate D2E/DX2                !
 ! A12   A(4,5,8)              112.2516         estimate D2E/DX2                !
 ! A13   A(6,5,7)              108.5725         estimate D2E/DX2                !
 ! A14   A(6,5,8)              107.5448         estimate D2E/DX2                !
 ! A15   A(7,5,8)              107.5786         estimate D2E/DX2                !
 ! A16   A(4,9,10)             118.5812         estimate D2E/DX2                !
 ! A17   A(4,9,11)             127.4916         estimate D2E/DX2                !
 ! A18   A(10,9,11)            113.9194         estimate D2E/DX2                !
 ! A19   A(9,11,12)            113.517          estimate D2E/DX2                !
 ! A20   A(9,11,13)            109.8539         estimate D2E/DX2                !
 ! A21   A(9,11,14)            109.4357         estimate D2E/DX2                !
 ! A22   A(12,11,13)           108.4496         estimate D2E/DX2                !
 ! A23   A(12,11,14)           107.2978         estimate D2E/DX2                !
 ! A24   A(13,11,14)           108.1248         estimate D2E/DX2                !
 ! A25   A(16,15,17)           108.5622         estimate D2E/DX2                !
 ! A26   A(16,15,18)           107.6532         estimate D2E/DX2                !
 ! A27   A(16,15,19)           110.205          estimate D2E/DX2                !
 ! A28   A(17,15,18)           107.6686         estimate D2E/DX2                !
 ! A29   A(17,15,19)           110.2892         estimate D2E/DX2                !
 ! A30   A(18,15,19)           112.336          estimate D2E/DX2                !
 ! A31   A(15,19,20)           114.2888         estimate D2E/DX2                !
 ! A32   A(15,19,24)           120.6504         estimate D2E/DX2                !
 ! A33   A(20,19,24)           125.0578         estimate D2E/DX2                !
 ! A34   A(19,20,21)           113.4294         estimate D2E/DX2                !
 ! A35   A(19,20,22)           110.0591         estimate D2E/DX2                !
 ! A36   A(19,20,23)           110.1            estimate D2E/DX2                !
 ! A37   A(21,20,22)           106.7824         estimate D2E/DX2                !
 ! A38   A(21,20,23)           107.9668         estimate D2E/DX2                !
 ! A39   A(22,20,23)           108.3255         estimate D2E/DX2                !
 ! A40   A(19,24,25)           118.4367         estimate D2E/DX2                !
 ! A41   A(19,24,26)           127.6053         estimate D2E/DX2                !
 ! A42   A(25,24,26)           113.9507         estimate D2E/DX2                !
 ! A43   A(1,26,24)            111.4126         estimate D2E/DX2                !
 ! A44   A(1,26,27)            110.3559         estimate D2E/DX2                !
 ! A45   A(1,26,28)            110.0612         estimate D2E/DX2                !
 ! A46   A(24,26,27)           111.5274         estimate D2E/DX2                !
 ! A47   A(24,26,28)           107.7526         estimate D2E/DX2                !
 ! A48   A(27,26,28)           105.5287         estimate D2E/DX2                !
 ! D1    D(2,1,4,5)           -151.4151         estimate D2E/DX2                !
 ! D2    D(2,1,4,9)             27.4114         estimate D2E/DX2                !
 ! D3    D(3,1,4,5)            -36.6443         estimate D2E/DX2                !
 ! D4    D(3,1,4,9)            142.1822         estimate D2E/DX2                !
 ! D5    D(26,1,4,5)            85.4689         estimate D2E/DX2                !
 ! D6    D(26,1,4,9)           -95.7046         estimate D2E/DX2                !
 ! D7    D(2,1,26,24)           56.9396         estimate D2E/DX2                !
 ! D8    D(2,1,26,27)          -67.5254         estimate D2E/DX2                !
 ! D9    D(2,1,26,28)          176.4035         estimate D2E/DX2                !
 ! D10   D(3,1,26,24)          -58.0236         estimate D2E/DX2                !
 ! D11   D(3,1,26,27)          177.5115         estimate D2E/DX2                !
 ! D12   D(3,1,26,28)           61.4403         estimate D2E/DX2                !
 ! D13   D(4,1,26,24)         -179.5686         estimate D2E/DX2                !
 ! D14   D(4,1,26,27)           55.9664         estimate D2E/DX2                !
 ! D15   D(4,1,26,28)          -60.1047         estimate D2E/DX2                !
 ! D16   D(1,4,5,6)            -60.5345         estimate D2E/DX2                !
 ! D17   D(1,4,5,7)             59.4957         estimate D2E/DX2                !
 ! D18   D(1,4,5,8)            179.4389         estimate D2E/DX2                !
 ! D19   D(9,4,5,6)            120.5903         estimate D2E/DX2                !
 ! D20   D(9,4,5,7)           -119.3795         estimate D2E/DX2                !
 ! D21   D(9,4,5,8)              0.5637         estimate D2E/DX2                !
 ! D22   D(1,4,9,10)          -178.5964         estimate D2E/DX2                !
 ! D23   D(1,4,9,11)             2.4858         estimate D2E/DX2                !
 ! D24   D(5,4,9,10)             0.1692         estimate D2E/DX2                !
 ! D25   D(5,4,9,11)          -178.7486         estimate D2E/DX2                !
 ! D26   D(4,9,11,12)            7.9226         estimate D2E/DX2                !
 ! D27   D(4,9,11,13)         -113.6838         estimate D2E/DX2                !
 ! D28   D(4,9,11,14)          127.7519         estimate D2E/DX2                !
 ! D29   D(10,9,11,12)        -171.0378         estimate D2E/DX2                !
 ! D30   D(10,9,11,13)          67.3559         estimate D2E/DX2                !
 ! D31   D(10,9,11,14)         -51.2085         estimate D2E/DX2                !
 ! D32   D(16,15,19,20)        -59.5977         estimate D2E/DX2                !
 ! D33   D(16,15,19,24)        120.9883         estimate D2E/DX2                !
 ! D34   D(17,15,19,20)         60.2506         estimate D2E/DX2                !
 ! D35   D(17,15,19,24)       -119.1634         estimate D2E/DX2                !
 ! D36   D(18,15,19,20)       -179.6349         estimate D2E/DX2                !
 ! D37   D(18,15,19,24)          0.9511         estimate D2E/DX2                !
 ! D38   D(15,19,20,21)       -172.3387         estimate D2E/DX2                !
 ! D39   D(15,19,20,22)        -52.7851         estimate D2E/DX2                !
 ! D40   D(15,19,20,23)         66.5588         estimate D2E/DX2                !
 ! D41   D(24,19,20,21)          7.0454         estimate D2E/DX2                !
 ! D42   D(24,19,20,22)        126.5991         estimate D2E/DX2                !
 ! D43   D(24,19,20,23)       -114.0571         estimate D2E/DX2                !
 ! D44   D(15,19,24,25)          0.5201         estimate D2E/DX2                !
 ! D45   D(15,19,24,26)       -178.432          estimate D2E/DX2                !
 ! D46   D(20,19,24,25)       -178.8274         estimate D2E/DX2                !
 ! D47   D(20,19,24,26)          2.2206         estimate D2E/DX2                !
 ! D48   D(19,24,26,1)        -103.3661         estimate D2E/DX2                !
 ! D49   D(19,24,26,27)         20.4375         estimate D2E/DX2                !
 ! D50   D(19,24,26,28)        135.8083         estimate D2E/DX2                !
 ! D51   D(25,24,26,1)          77.6422         estimate D2E/DX2                !
 ! D52   D(25,24,26,27)       -158.5541         estimate D2E/DX2                !
 ! D53   D(25,24,26,28)        -43.1834         estimate D2E/DX2                !
 --------------------------------------------------------------------------------
 Trust Radius=3.00D-01 FncErr=1.00D-07 GrdErr=1.00D-07 EigMax=2.50D+02 EigMin=1.00D-04
 Number of steps in this run=    138 maximum allowed number of steps=    168.
 GradGradGradGradGradGradGradGradGradGradGradGradGradGradGradGradGradGrad

 Leave Link  103 at Thu Sep 16 16:24:46 2021, MaxMem=   131072000 cpu:               0.0 elap:               0.0
 (Enter /opt/g16/l202.exe)
                          Input orientation:                          
 ---------------------------------------------------------------------
 Center     Atomic      Atomic             Coordinates (Angstroms)
 Number     Number       Type             X           Y           Z
 ---------------------------------------------------------------------
      1          6           0       -0.633100   -0.452200   -0.703500
      2          1           0       -0.587800   -1.244500    0.053200
      3          1           0       -0.306900   -0.933800   -1.635200
      4          6           0       -2.055400    0.040500   -0.874300
      5          6           0       -2.384800    0.578200   -2.243300
      6          1           0       -1.745700    1.434000   -2.482400
      7          1           0       -2.230000   -0.195500   -3.002400
      8          1           0       -3.425200    0.911900   -2.318500
      9          6           0       -2.996200   -0.001700    0.089800
     10          1           0       -3.998000    0.358100   -0.143300
     11          6           0       -2.834800   -0.476100    1.499400
     12          1           0       -1.798600   -0.688600    1.771800
     13          1           0       -3.427000   -1.382600    1.656500
     14          1           0       -3.200900    0.293300    2.186900
     15          6           0        3.838200   -0.535500    0.941000
     16          1           0        4.485200    0.174700    1.466300
     17          1           0        3.921300   -1.511100    1.431100
     18          1           0        4.221700   -0.642300   -0.079200
     19          6           0        2.410000   -0.057000    0.968600
     20          6           0        1.841300    0.113400    2.350300
     21          1           0        0.770900    0.331300    2.355600
     22          1           0        1.979800   -0.805900    2.929600
     23          1           0        2.354500    0.928700    2.870500
     24          6           0        1.740000    0.172000   -0.177800
     25          1           0        2.253000   -0.005400   -1.123200
     26          6           0        0.331000    0.679200   -0.332800
     27          1           0       -0.013200    1.192000    0.571400
     28          1           0        0.335200    1.443400   -1.120400
 ---------------------------------------------------------------------
                    Distance matrix (angstroms):
                    1          2          3          4          5
     1  C    0.000000
     2  H    1.096534   0.000000
     3  H    1.098367   1.739579   0.000000
     4  C    1.514881   2.159938   2.141374   0.000000
     5  C    2.549737   3.438802   2.640757   1.507245   0.000000
     6  H    2.821367   3.865794   2.897304   2.150289   1.094537
     7  H    2.810859   3.624074   2.472375   2.148253   1.094901
     8  H    3.502116   4.280871   3.687452   2.172879   1.095191
     9  C    2.533084   2.710403   3.328178   1.347729   2.480615
    10  H    3.506132   3.773116   4.185569   2.099744   2.657228
    11  C    3.114614   2.780457   4.052837   2.551233   3.914314
    12  H    2.746158   2.174545   3.727324   2.756697   4.250816
    13  H    3.773741   3.263541   4.557602   3.211144   4.487690
    14  H    3.937484   3.707532   4.948683   3.278265   4.513741
    15  C    4.764855   4.569502   4.896662   6.193675   7.078547
    16  H    5.594464   5.454018   5.814834   6.948084   7.817982
    17  H    5.140073   4.722464   5.254821   6.591151   7.591659
    18  H    4.898466   4.848862   4.797325   6.363991   7.058243
    19  C    3.494647   3.351853   3.863949   4.831727   5.806022
    20  C    3.970926   3.608474   4.647107   5.058422   6.259163
    21  H    3.455891   3.103266   4.323033   4.301719   5.582946
    22  H    4.489072   3.880543   5.107128   5.609714   6.908282
    23  H    4.858612   4.617045   5.554574   5.853174   6.981029
    24  C    2.509500   2.734682   2.745288   3.861019   4.630903
    25  H    2.950483   3.315031   2.770769   4.315828   4.806704
    26  C    1.531983   2.166521   2.169085   2.529044   3.322015
    27  H    2.170954   2.556409   3.078046   2.754375   3.731457
    28  H    2.169034   3.074748   2.515629   2.782744   3.067226
                    6          7          8          9         10
     6  H    0.000000
     7  H    1.777700   0.000000
     8  H    1.766401   1.767076   0.000000
     9  C    3.200187   3.191602   2.611248   0.000000
    10  H    3.420790   3.406868   2.316525   1.089677   0.000000
    11  C    4.548555   4.550903   4.105055   1.496021   2.178850
    12  H    4.754624   4.818946   4.683800   2.176052   3.098475
    13  H    5.281146   4.954530   4.589701   2.132375   2.568143
    14  H    5.022068   5.301925   4.553197   2.127617   2.463615
    15  C    6.839484   7.244933   8.091742   6.907858   7.961172
    16  H    7.483461   8.074666   8.800148   7.609022   8.636500
    17  H    7.490259   7.695792   8.596598   7.206190   8.287820
    18  H    6.759900   7.097123   8.118194   7.248242   8.280602
    19  C    5.603778   6.108815   6.767079   5.477440   6.516985
    20  C    6.161619   6.732184   7.083171   5.340835   6.354160
    21  H    5.563764   6.163691   6.308055   4.408603   5.384016
    22  H    6.941631   7.299564   7.727057   5.785480   6.821415
    23  H    6.761694   7.534748   7.767299   6.101469   7.054278
    24  C    4.365081   4.886136   5.639977   4.746933   5.741121
    25  H    4.461939   4.864650   5.874703   5.387530   6.337771
    26  C    3.082724   3.801393   4.255137   3.422349   4.345027
    27  H    3.519349   4.428477   4.480148   3.248869   4.133378
    28  H    2.487022   3.578850   3.982279   3.827679   4.572660
                   11         12         13         14         15
    11  C    0.000000
    12  H    1.092277   0.000000
    13  H    1.094131   1.773871   0.000000
    14  H    1.094834   1.761500   1.772311   0.000000
    15  C    6.696586   5.699753   7.349330   7.196395   0.000000
    16  H    7.348948   6.350178   8.066243   7.720717   1.094958
    17  H    6.835260   5.788768   7.352879   7.385988   1.094942
    18  H    7.232827   6.298600   7.878027   7.817004   1.095119
    19  C    5.288225   4.330862   6.025030   5.752318   1.506479
    20  C    4.789306   3.771835   5.520359   5.048054   2.528796
    21  H    3.792894   2.825482   4.587871   3.975563   3.487229
    22  H    5.033350   3.953551   5.584519   5.347850   2.735196
    23  H    5.548172   4.590320   6.343630   5.633251   2.840461
    24  C    4.915468   4.130770   5.699064   5.478961   2.480869
    25  H    5.743283   5.026256   6.471925   6.386784   2.656085
    26  C    3.835879   3.291719   4.725558   4.355700   3.924094
    27  H    3.406636   2.857494   4.411353   3.684960   4.237233
    28  H    4.538362   4.178917   5.463662   4.976441   4.520666
                   16         17         18         19         20
    16  H    0.000000
    17  H    1.777961   0.000000
    18  H    1.767906   1.768067   0.000000
    19  C    2.146589   2.147636   2.173181   0.000000
    20  C    2.788444   2.794697   3.484230   1.503845   0.000000
    21  H    3.822486   3.764858   4.334071   2.182016   1.092367
    22  H    3.062654   2.551907   3.755763   2.142766   1.095392
    23  H    2.660860   3.237184   3.828212   2.142874   1.094850
    24  C    3.199874   3.190526   2.613741   1.347432   2.530807
    25  H    3.423545   3.402177   2.317619   2.098318   3.499830
    26  C    4.555070   4.560593   4.116822   2.560835   3.130521
    27  H    4.698015   4.850374   4.660720   2.754935   2.786940
    28  H    5.052041   5.300881   4.532011   3.304530   4.010361
                   21         22         23         24         25
    21  H    0.000000
    22  H    1.756172   0.000000
    23  H    1.769123   1.775593   0.000000
    24  C    2.717103   3.266455   3.200365   0.000000
    25  H    3.796319   4.140124   4.102741   1.090147   0.000000
    26  C    2.746278   3.945544   3.797095   1.505509   2.188034
    27  H    2.130490   3.677603   3.310769   2.162270   3.072637
    28  H    3.675483   4.915950   4.502196   2.116227   2.403536
                   26         27         28
    26  C    0.000000
    27  H    1.094995   0.000000
    28  H    1.097421   1.745500   0.000000
 Stoichiometry    C10H18
 Framework group  C1[X(C10H18)]
 Deg. of freedom    78
 Full point group                 C1      NOp   1
 Largest Abelian subgroup         C1      NOp   1
 Largest concise Abelian subgroup C1      NOp   1
                         Standard orientation:                         
 ---------------------------------------------------------------------
 Center     Atomic      Atomic             Coordinates (Angstroms)
 Number     Number       Type             X           Y           Z
 ---------------------------------------------------------------------
      1          6           0       -0.793772   -0.586470    0.589218
      2          1           0       -0.484654    0.235320    1.246099
      3          1           0       -0.745988   -1.484320    1.220084
      4          6           0       -2.220929   -0.386904    0.122036
      5          6           0       -2.975630   -1.655047   -0.184603
      6          1           0       -2.478682   -2.212236   -0.984974
      7          1           0       -3.025263   -2.291764    0.704743
      8          1           0       -4.003229   -1.458165   -0.508209
      9          6           0       -2.820174    0.813922   -0.001638
     10          1           0       -3.860351    0.846654   -0.324679
     11          6           0       -2.215747    2.161832    0.234758
     12          1           0       -1.137433    2.131950    0.406265
     13          1           0       -2.690813    2.635719    1.098973
     14          1           0       -2.388771    2.797158   -0.639933
     15          6           0        3.965065   -0.407961    0.429684
     16          1           0        4.709052   -0.227428   -0.353147
     17          1           0        4.237046    0.181256    1.311585
     18          1           0        4.023664   -1.466059    0.705876
     19          6           0        2.593411   -0.018221   -0.056264
     20          6           0        2.465988    1.425900   -0.456052
     21          1           0        1.439554    1.725941   -0.678928
     22          1           0        2.815355    2.072771    0.355972
     23          1           0        3.076441    1.626154   -1.342586
     24          6           0        1.596307   -0.923574   -0.097423
     25          1           0        1.804058   -1.940175    0.236917
     26          6           0        0.185973   -0.715589   -0.581424
     27          1           0        0.111290    0.157050   -1.238645
     28          1           0       -0.084219   -1.577144   -1.205165
 ---------------------------------------------------------------------
 Rotational constants (GHZ):           2.2181408           0.5802367           0.4854284
 Leave Link  202 at Thu Sep 16 16:24:46 2021, MaxMem=   131072000 cpu:               0.0 elap:               0.0
 (Enter /opt/g16/l301.exe)
 Standard basis: VSTO-6G (5D, 7F)
 Ernie: Thresh=  0.10000D-02 Tol=  0.10000D-05 Strict=F.
  NNHCO=     0 NNPyr=     0 NCTC=     0               EPep=         0.000000000
    EC=       248.197127563  ECS=         3.524561365   EG=         0.891748391
   EHC=         0.000000000  EAt=       -49.524085099  AtH=         4.217842293
 EPDDG=         0.000000000  ECC=       252.613437319 EAtT=        53.741927392
 There are    58 symmetry adapted cartesian basis functions of A   symmetry.
 There are    58 symmetry adapted basis functions of A   symmetry.
    58 basis functions,   348 primitive gaussians,    58 cartesian basis functions
    29 alpha electrons       29 beta electrons
       nuclear repulsion energy       306.3553647108 Hartrees.
 IExCor=    0 DFT=F Ex=HF Corr=None ExCW=0 ScaHFX=  1.000000
 ScaDFX=  1.000000  1.000000  1.000000  1.000000 ScalE2=  1.000000  1.000000
 IRadAn=      5 IRanWt=     -1 IRanGd=            0 ICorTp=0 IEmpDi=  4
 Integral buffers will be    131072 words long.
 Regular integral format.
 Two-electron integral symmetry is turned off.
 Leave Link  301 at Thu Sep 16 16:24:46 2021, MaxMem=   131072000 cpu:               0.1 elap:               0.1
 (Enter /opt/g16/l302.exe)
 Do NDO integrals.
 NPDir=0 NMtPBC=     1 NCelOv=     1 NCel=       1 NClECP=     1 NCelD=      1
         NCelK=      1 NCelE2=     1 NClLst=     1 CellRange=     0.0.
 One-electron integrals computed using PRISM.
 NBasis=    58 RedAO= F EigKep=  0.00D+00  NBF=    58
 NBsUse=    58 1.00D-04 EigRej=  0.00D+00 NBFU=    58
 Leave Link  302 at Thu Sep 16 16:24:46 2021, MaxMem=   131072000 cpu:               0.1 elap:               0.1
 (Enter /opt/g16/l303.exe)
 DipDrv:  MaxL=1.
 Leave Link  303 at Thu Sep 16 16:24:46 2021, MaxMem=   131072000 cpu:               0.0 elap:               0.0
 (Enter /opt/g16/l401.exe)
 Simple Huckel Guess.
 JPrj=0 DoOrth=F DoCkMO=F.
 Leave Link  401 at Thu Sep 16 16:24:46 2021, MaxMem=   131072000 cpu:               0.1 elap:               0.1
 (Enter /opt/g16/l502.exe)
 Keep J ints in memory in canonical form, NReq=866866.
 FoFCou: FMM=F IPFlag=           0 FMFlag=           0 FMFlg1=           0
         NFxFlg=           0 DoJE=F BraDBF=F KetDBF=F FulRan=T
         wScrn=  0.000000 ICntrl=       600 IOpCl=  2 I1Cent=           0 NGrid=           0
         NMat0=    1 NMatS0=    118 NMatT0=    0 NMatD0=    1 NMtDS0=    0 NMtDT0=    0
 Symmetry not used in FoFCou.
 Two-electron integral symmetry not used.
 Closed shell SCF:
 Using DIIS extrapolation, IDIIS=  1040.
 Overlap will be assumed to be unity.
 NGot=   131072000 LenX=   130997697 LenY=   130993892
 Requested convergence on RMS density matrix=1.00D-08 within 128 cycles.
 Requested convergence on MAX density matrix=1.00D-06.
 Requested convergence on             energy=1.00D-06.
 No special actions if energy rises.

 Cycle   1  Pass 1  IDiag  1:
 E= 0.216068431619021    
 DIIS: error= 2.74D-02 at cycle   1 NSaved=   1.
 NSaved= 1 IEnMin= 1 EnMin= 0.216068431619021     IErMin= 1 ErrMin= 2.74D-02
 ErrMax= 2.74D-02  0.00D+00 EMaxC= 1.00D-01 BMatC= 9.45D-02 BMatP= 9.45D-02
 IDIUse=3 WtCom= 7.26D-01 WtEn= 2.74D-01
 Coeff-Com:  0.100D+01
 Coeff-En:   0.100D+01
 Coeff:      0.100D+01
 GapD=    2.000 DampG=2.000 DampE=0.500 DampFc=1.0000 IDamp=-1.
 RMSDP=7.17D-03 MaxDP=8.49D-02              OVMax= 0.00D+00

 Cycle   2  Pass 1  IDiag  1:
 E=-0.407607807966315E-02 Delta-E=       -0.220144509699 Rises=F Damp=F
 DIIS: error= 7.94D-03 at cycle   2 NSaved=   2.
 NSaved= 2 IEnMin= 2 EnMin=-0.407607807966315E-02 IErMin= 2 ErrMin= 7.94D-03
 ErrMax= 7.94D-03  0.00D+00 EMaxC= 1.00D-01 BMatC= 6.07D-03 BMatP= 9.45D-02
 IDIUse=3 WtCom= 9.21D-01 WtEn= 7.94D-02
 Coeff-Com: -0.318D+00 0.132D+01
 Coeff-En:   0.000D+00 0.100D+01
 Coeff:     -0.292D+00 0.129D+01
 RMSDP=2.60D-03 MaxDP=2.88D-02 DE=-2.20D-01 OVMax= 0.00D+00

 Cycle   3  Pass 1  IDiag  3:
 E=-0.214497318127087E-01 Delta-E=       -0.017373653733 Rises=F Damp=F
 DIIS: error= 9.31D-04 at cycle   3 NSaved=   3.
 NSaved= 3 IEnMin= 3 EnMin=-0.214497318127087E-01 IErMin= 3 ErrMin= 9.31D-04
 ErrMax= 9.31D-04  0.00D+00 EMaxC= 1.00D-01 BMatC= 7.26D-05 BMatP= 6.07D-03
 IDIUse=3 WtCom= 9.91D-01 WtEn= 9.31D-03
 Coeff-Com:  0.108D+00-0.505D+00 0.140D+01
 Coeff-En:   0.000D+00 0.000D+00 0.100D+01
 Coeff:      0.107D+00-0.500D+00 0.139D+01
 Gap=     0.377 Goal=   None    Shift=    0.000
 RMSDP=4.23D-04 MaxDP=4.10D-03 DE=-1.74D-02 OVMax= 6.69D-03

 Cycle   4  Pass 1  IDiag  3:
 E=-0.217801023769653E-01 Delta-E=       -0.000330370564 Rises=F Damp=F
 DIIS: error= 1.89D-04 at cycle   4 NSaved=   4.
 NSaved= 4 IEnMin= 4 EnMin=-0.217801023769653E-01 IErMin= 4 ErrMin= 1.89D-04
 ErrMax= 1.89D-04  0.00D+00 EMaxC= 1.00D-01 BMatC= 3.12D-06 BMatP= 7.26D-05
 IDIUse=3 WtCom= 9.98D-01 WtEn= 1.89D-03
 Coeff-Com: -0.463D-01 0.222D+00-0.721D+00 0.155D+01
 Coeff-En:   0.000D+00 0.000D+00 0.000D+00 0.100D+01
 Coeff:     -0.462D-01 0.222D+00-0.720D+00 0.154D+01
 Gap=     0.377 Goal=   None    Shift=    0.000
 RMSDP=1.06D-04 MaxDP=1.14D-03 DE=-3.30D-04 OVMax= 7.42D-04

 Cycle   5  Pass 1  IDiag  3:
 E=-0.217977287568374E-01 Delta-E=       -0.000017626380 Rises=F Damp=F
 DIIS: error= 5.10D-05 at cycle   5 NSaved=   5.
 NSaved= 5 IEnMin= 5 EnMin=-0.217977287568374E-01 IErMin= 5 ErrMin= 5.10D-05
 ErrMax= 5.10D-05  0.00D+00 EMaxC= 1.00D-01 BMatC= 1.83D-07 BMatP= 3.12D-06
 IDIUse=1 WtCom= 1.00D+00 WtEn= 0.00D+00
 Coeff-Com:  0.121D-01-0.578D-01 0.196D+00-0.571D+00 0.142D+01
 Coeff:      0.121D-01-0.578D-01 0.196D+00-0.571D+00 0.142D+01
 Gap=     0.377 Goal=   None    Shift=    0.000
 RMSDP=2.70D-05 MaxDP=2.89D-04 DE=-1.76D-05 OVMax= 2.11D-04

 Cycle   6  Pass 1  IDiag  3:
 E=-0.217988673601326E-01 Delta-E=       -0.000001138603 Rises=F Damp=F
 DIIS: error= 1.72D-05 at cycle   6 NSaved=   6.
 NSaved= 6 IEnMin= 6 EnMin=-0.217988673601326E-01 IErMin= 6 ErrMin= 1.72D-05
 ErrMax= 1.72D-05  0.00D+00 EMaxC= 1.00D-01 BMatC= 1.62D-08 BMatP= 1.83D-07
 IDIUse=1 WtCom= 1.00D+00 WtEn= 0.00D+00
 Coeff-Com: -0.443D-02 0.212D-01-0.706D-01 0.211D+00-0.746D+00 0.159D+01
 Coeff:     -0.443D-02 0.212D-01-0.706D-01 0.211D+00-0.746D+00 0.159D+01
 Gap=     0.377 Goal=   None    Shift=    0.000
 RMSDP=9.46D-06 MaxDP=1.15D-04 DE=-1.14D-06 OVMax= 9.39D-05

 Cycle   7  Pass 1  IDiag  3:
 E=-0.217989795616518E-01 Delta-E=       -0.000000112202 Rises=F Damp=F
 DIIS: error= 4.09D-06 at cycle   7 NSaved=   7.
 NSaved= 7 IEnMin= 7 EnMin=-0.217989795616518E-01 IErMin= 7 ErrMin= 4.09D-06
 ErrMax= 4.09D-06  0.00D+00 EMaxC= 1.00D-01 BMatC= 1.05D-09 BMatP= 1.62D-08
 IDIUse=1 WtCom= 1.00D+00 WtEn= 0.00D+00
 Coeff-Com:  0.111D-02-0.526D-02 0.172D-01-0.536D-01 0.253D+00-0.775D+00
 Coeff-Com:  0.156D+01
 Coeff:      0.111D-02-0.526D-02 0.172D-01-0.536D-01 0.253D+00-0.775D+00
 Coeff:      0.156D+01
 Gap=     0.377 Goal=   None    Shift=    0.000
 RMSDP=2.43D-06 MaxDP=3.19D-05 DE=-1.12D-07 OVMax= 3.09D-05

 Cycle   8  Pass 1  IDiag  3:
 E=-0.217989865306549E-01 Delta-E=       -0.000000006969 Rises=F Damp=F
 DIIS: error= 1.12D-06 at cycle   8 NSaved=   8.
 NSaved= 8 IEnMin= 8 EnMin=-0.217989865306549E-01 IErMin= 8 ErrMin= 1.12D-06
 ErrMax= 1.12D-06  0.00D+00 EMaxC= 1.00D-01 BMatC= 4.76D-11 BMatP= 1.05D-09
 IDIUse=1 WtCom= 1.00D+00 WtEn= 0.00D+00
 Coeff-Com: -0.115D-03 0.537D-03-0.166D-02 0.580D-02-0.438D-01 0.176D+00
 Coeff-Com: -0.524D+00 0.139D+01
 Coeff:     -0.115D-03 0.537D-03-0.166D-02 0.580D-02-0.438D-01 0.176D+00
 Coeff:     -0.524D+00 0.139D+01
 Gap=     0.377 Goal=   None    Shift=    0.000
 RMSDP=4.66D-07 MaxDP=7.60D-06 DE=-6.97D-09 OVMax= 7.08D-06

 Cycle   9  Pass 1  IDiag  3:
 E=-0.217989868365294E-01 Delta-E=       -0.000000000306 Rises=F Damp=F
 DIIS: error= 2.86D-07 at cycle   9 NSaved=   9.
 NSaved= 9 IEnMin= 9 EnMin=-0.217989868365294E-01 IErMin= 9 ErrMin= 2.86D-07
 ErrMax= 2.86D-07  0.00D+00 EMaxC= 1.00D-01 BMatC= 4.56D-12 BMatP= 4.76D-11
 IDIUse=1 WtCom= 1.00D+00 WtEn= 0.00D+00
 Coeff-Com:  0.340D-04-0.155D-03 0.434D-03-0.159D-02 0.163D-01-0.737D-01
 Coeff-Com:  0.241D+00-0.849D+00 0.167D+01
 Coeff:      0.340D-04-0.155D-03 0.434D-03-0.159D-02 0.163D-01-0.737D-01
 Coeff:      0.241D+00-0.849D+00 0.167D+01
 Gap=     0.377 Goal=   None    Shift=    0.000
 RMSDP=1.64D-07 MaxDP=2.48D-06 DE=-3.06D-10 OVMax= 2.36D-06

 Cycle  10  Pass 1  IDiag  3:
 E=-0.217989868689870E-01 Delta-E=       -0.000000000032 Rises=F Damp=F
 DIIS: error= 7.24D-08 at cycle  10 NSaved=  10.
 NSaved=10 IEnMin=10 EnMin=-0.217989868689870E-01 IErMin=10 ErrMin= 7.24D-08
 ErrMax= 7.24D-08  0.00D+00 EMaxC= 1.00D-01 BMatC= 2.60D-13 BMatP= 4.56D-12
 IDIUse=1 WtCom= 1.00D+00 WtEn= 0.00D+00
 Coeff-Com: -0.454D-05 0.191D-04-0.367D-04 0.216D-03-0.416D-02 0.209D-01
 Coeff-Com: -0.726D-01 0.293D+00-0.782D+00 0.155D+01
 Coeff:     -0.454D-05 0.191D-04-0.367D-04 0.216D-03-0.416D-02 0.209D-01
 Coeff:     -0.726D-01 0.293D+00-0.782D+00 0.155D+01
 Gap=     0.377 Goal=   None    Shift=    0.000
 RMSDP=3.96D-08 MaxDP=5.11D-07 DE=-3.25D-11 OVMax= 4.66D-07

 Cycle  11  Pass 1  IDiag  3:
 E=-0.217989868706923E-01 Delta-E=       -0.000000000002 Rises=F Damp=F
 DIIS: error= 1.14D-08 at cycle  11 NSaved=  11.
 NSaved=11 IEnMin=11 EnMin=-0.217989868706923E-01 IErMin=11 ErrMin= 1.14D-08
 ErrMax= 1.14D-08  0.00D+00 EMaxC= 1.00D-01 BMatC= 8.79D-15 BMatP= 2.60D-13
 IDIUse=1 WtCom= 1.00D+00 WtEn= 0.00D+00
 Coeff-Com:  0.616D-06-0.205D-05-0.223D-05-0.268D-04 0.122D-02-0.657D-02
 Coeff-Com:  0.235D-01-0.988D-01 0.285D+00-0.678D+00 0.147D+01
 Coeff:      0.616D-06-0.205D-05-0.223D-05-0.268D-04 0.122D-02-0.657D-02
 Coeff:      0.235D-01-0.988D-01 0.285D+00-0.678D+00 0.147D+01
 Gap=     0.377 Goal=   None    Shift=    0.000
 RMSDP=6.05D-09 MaxDP=8.26D-08 DE=-1.71D-12 OVMax= 4.89D-08

 Cycle  12  Pass 2  IDiag  1:
 SCF Done:  E(RPM3) = -0.217989868707E-01 A.U. after   12 cycles
            NFock= 11  Conv=0.61D-08     -V/T= 0.9997
 KE=-7.902608144807D+01 PE=-4.950056952245D+02 EE= 2.676546129749D+02
 Leave Link  502 at Thu Sep 16 16:24:46 2021, MaxMem=   131072000 cpu:               0.0 elap:               0.0
 (Enter /opt/g16/l601.exe)
 Copying SCF densities to generalized density rwf, IOpCl= 0 IROHF=0.

 **********************************************************************

            Population analysis using the SCF density.

 **********************************************************************

 Orbital symmetries:
       Occupied  (A) (A) (A) (A) (A) (A) (A) (A) (A) (A) (A) (A)
                 (A) (A) (A) (A) (A) (A) (A) (A) (A) (A) (A) (A)
                 (A) (A) (A) (A) (A)
       Virtual   (A) (A) (A) (A) (A) (A) (A) (A) (A) (A) (A) (A)
                 (A) (A) (A) (A) (A) (A) (A) (A) (A) (A) (A) (A)
                 (A) (A) (A) (A) (A)
 The electronic state is 1-A.
 Alpha  occ. eigenvalues --   -1.45723  -1.34915  -1.17709  -1.10953  -1.01301
 Alpha  occ. eigenvalues --   -0.94686  -0.86487  -0.80548  -0.66820  -0.64732
 Alpha  occ. eigenvalues --   -0.61258  -0.58348  -0.57689  -0.56148  -0.54970
 Alpha  occ. eigenvalues --   -0.53203  -0.51101  -0.50537  -0.49357  -0.48646
 Alpha  occ. eigenvalues --   -0.48322  -0.47416  -0.47360  -0.47127  -0.45565
 Alpha  occ. eigenvalues --   -0.43300  -0.42137  -0.35490  -0.34278
 Alpha virt. eigenvalues --    0.03401   0.04217   0.11786   0.12354   0.13189
 Alpha virt. eigenvalues --    0.13734   0.13963   0.14336   0.14867   0.15013
 Alpha virt. eigenvalues --    0.15512   0.15707   0.15859   0.16103   0.16396
 Alpha virt. eigenvalues --    0.16460   0.16581   0.16691   0.16909   0.16924
 Alpha virt. eigenvalues --    0.17086   0.17191   0.17847   0.17949   0.18174
 Alpha virt. eigenvalues --    0.20786   0.21043   0.22374   0.22420
          Condensed to atoms (all electrons):
               1          2          3          4          5          6
     1  C    4.050226   0.000000   0.000000   0.000000   0.000000   0.000000
     2  H    0.000000   0.943253   0.000000   0.000000   0.000000   0.000000
     3  H    0.000000   0.000000   0.947793   0.000000   0.000000   0.000000
     4  C    0.000000   0.000000   0.000000   4.127130   0.000000   0.000000
     5  C    0.000000   0.000000   0.000000   0.000000   4.066385   0.000000
     6  H    0.000000   0.000000   0.000000   0.000000   0.000000   0.954717
     7  H    0.000000   0.000000   0.000000   0.000000   0.000000   0.000000
     8  H    0.000000   0.000000   0.000000   0.000000   0.000000   0.000000
     9  C    0.000000   0.000000   0.000000   0.000000   0.000000   0.000000
    10  H    0.000000   0.000000   0.000000   0.000000   0.000000   0.000000
    11  C    0.000000   0.000000   0.000000   0.000000   0.000000   0.000000
    12  H    0.000000   0.000000   0.000000   0.000000   0.000000   0.000000
    13  H    0.000000   0.000000   0.000000   0.000000   0.000000   0.000000
    14  H    0.000000   0.000000   0.000000   0.000000   0.000000   0.000000
    15  C    0.000000   0.000000   0.000000   0.000000   0.000000   0.000000
    16  H    0.000000   0.000000   0.000000   0.000000   0.000000   0.000000
    17  H    0.000000   0.000000   0.000000   0.000000   0.000000   0.000000
    18  H    0.000000   0.000000   0.000000   0.000000   0.000000   0.000000
    19  C    0.000000   0.000000   0.000000   0.000000   0.000000   0.000000
    20  C    0.000000   0.000000   0.000000   0.000000   0.000000   0.000000
    21  H    0.000000   0.000000   0.000000   0.000000   0.000000   0.000000
    22  H    0.000000   0.000000   0.000000   0.000000   0.000000   0.000000
    23  H    0.000000   0.000000   0.000000   0.000000   0.000000   0.000000
    24  C    0.000000   0.000000   0.000000   0.000000   0.000000   0.000000
    25  H    0.000000   0.000000   0.000000   0.000000   0.000000   0.000000
    26  C    0.000000   0.000000   0.000000   0.000000   0.000000   0.000000
    27  H    0.000000   0.000000   0.000000   0.000000   0.000000   0.000000
    28  H    0.000000   0.000000   0.000000   0.000000   0.000000   0.000000
               7          8          9         10         11         12
     1  C    0.000000   0.000000   0.000000   0.000000   0.000000   0.000000
     2  H    0.000000   0.000000   0.000000   0.000000   0.000000   0.000000
     3  H    0.000000   0.000000   0.000000   0.000000   0.000000   0.000000
     4  C    0.000000   0.000000   0.000000   0.000000   0.000000   0.000000
     5  C    0.000000   0.000000   0.000000   0.000000   0.000000   0.000000
     6  H    0.000000   0.000000   0.000000   0.000000   0.000000   0.000000
     7  H    0.955863   0.000000   0.000000   0.000000   0.000000   0.000000
     8  H    0.000000   0.960207   0.000000   0.000000   0.000000   0.000000
     9  C    0.000000   0.000000   4.150873   0.000000   0.000000   0.000000
    10  H    0.000000   0.000000   0.000000   0.906220   0.000000   0.000000
    11  C    0.000000   0.000000   0.000000   0.000000   4.069164   0.000000
    12  H    0.000000   0.000000   0.000000   0.000000   0.000000   0.955066
    13  H    0.000000   0.000000   0.000000   0.000000   0.000000   0.000000
    14  H    0.000000   0.000000   0.000000   0.000000   0.000000   0.000000
    15  C    0.000000   0.000000   0.000000   0.000000   0.000000   0.000000
    16  H    0.000000   0.000000   0.000000   0.000000   0.000000   0.000000
    17  H    0.000000   0.000000   0.000000   0.000000   0.000000   0.000000
    18  H    0.000000   0.000000   0.000000   0.000000   0.000000   0.000000
    19  C    0.000000   0.000000   0.000000   0.000000   0.000000   0.000000
    20  C    0.000000   0.000000   0.000000   0.000000   0.000000   0.000000
    21  H    0.000000   0.000000   0.000000   0.000000   0.000000   0.000000
    22  H    0.000000   0.000000   0.000000   0.000000   0.000000   0.000000
    23  H    0.000000   0.000000   0.000000   0.000000   0.000000   0.000000
    24  C    0.000000   0.000000   0.000000   0.000000   0.000000   0.000000
    25  H    0.000000   0.000000   0.000000   0.000000   0.000000   0.000000
    26  C    0.000000   0.000000   0.000000   0.000000   0.000000   0.000000
    27  H    0.000000   0.000000   0.000000   0.000000   0.000000   0.000000
    28  H    0.000000   0.000000   0.000000   0.000000   0.000000   0.000000
              13         14         15         16         17         18
     1  C    0.000000   0.000000   0.000000   0.000000   0.000000   0.000000
     2  H    0.000000   0.000000   0.000000   0.000000   0.000000   0.000000
     3  H    0.000000   0.000000   0.000000   0.000000   0.000000   0.000000
     4  C    0.000000   0.000000   0.000000   0.000000   0.000000   0.000000
     5  C    0.000000   0.000000   0.000000   0.000000   0.000000   0.000000
     6  H    0.000000   0.000000   0.000000   0.000000   0.000000   0.000000
     7  H    0.000000   0.000000   0.000000   0.000000   0.000000   0.000000
     8  H    0.000000   0.000000   0.000000   0.000000   0.000000   0.000000
     9  C    0.000000   0.000000   0.000000   0.000000   0.000000   0.000000
    10  H    0.000000   0.000000   0.000000   0.000000   0.000000   0.000000
    11  C    0.000000   0.000000   0.000000   0.000000   0.000000   0.000000
    12  H    0.000000   0.000000   0.000000   0.000000   0.000000   0.000000
    13  H    0.955374   0.000000   0.000000   0.000000   0.000000   0.000000
    14  H    0.000000   0.958419   0.000000   0.000000   0.000000   0.000000
    15  C    0.000000   0.000000   4.068621   0.000000   0.000000   0.000000
    16  H    0.000000   0.000000   0.000000   0.955785   0.000000   0.000000
    17  H    0.000000   0.000000   0.000000   0.000000   0.955670   0.000000
    18  H    0.000000   0.000000   0.000000   0.000000   0.000000   0.959026
    19  C    0.000000   0.000000   0.000000   0.000000   0.000000   0.000000
    20  C    0.000000   0.000000   0.000000   0.000000   0.000000   0.000000
    21  H    0.000000   0.000000   0.000000   0.000000   0.000000   0.000000
    22  H    0.000000   0.000000   0.000000   0.000000   0.000000   0.000000
    23  H    0.000000   0.000000   0.000000   0.000000   0.000000   0.000000
    24  C    0.000000   0.000000   0.000000   0.000000   0.000000   0.000000
    25  H    0.000000   0.000000   0.000000   0.000000   0.000000   0.000000
    26  C    0.000000   0.000000   0.000000   0.000000   0.000000   0.000000
    27  H    0.000000   0.000000   0.000000   0.000000   0.000000   0.000000
    28  H    0.000000   0.000000   0.000000   0.000000   0.000000   0.000000
              19         20         21         22         23         24
     1  C    0.000000   0.000000   0.000000   0.000000   0.000000   0.000000
     2  H    0.000000   0.000000   0.000000   0.000000   0.000000   0.000000
     3  H    0.000000   0.000000   0.000000   0.000000   0.000000   0.000000
     4  C    0.000000   0.000000   0.000000   0.000000   0.000000   0.000000
     5  C    0.000000   0.000000   0.000000   0.000000   0.000000   0.000000
     6  H    0.000000   0.000000   0.000000   0.000000   0.000000   0.000000
     7  H    0.000000   0.000000   0.000000   0.000000   0.000000   0.000000
     8  H    0.000000   0.000000   0.000000   0.000000   0.000000   0.000000
     9  C    0.000000   0.000000   0.000000   0.000000   0.000000   0.000000
    10  H    0.000000   0.000000   0.000000   0.000000   0.000000   0.000000
    11  C    0.000000   0.000000   0.000000   0.000000   0.000000   0.000000
    12  H    0.000000   0.000000   0.000000   0.000000   0.000000   0.000000
    13  H    0.000000   0.000000   0.000000   0.000000   0.000000   0.000000
    14  H    0.000000   0.000000   0.000000   0.000000   0.000000   0.000000
    15  C    0.000000   0.000000   0.000000   0.000000   0.000000   0.000000
    16  H    0.000000   0.000000   0.000000   0.000000   0.000000   0.000000
    17  H    0.000000   0.000000   0.000000   0.000000   0.000000   0.000000
    18  H    0.000000   0.000000   0.000000   0.000000   0.000000   0.000000
    19  C    4.118462   0.000000   0.000000   0.000000   0.000000   0.000000
    20  C    0.000000   4.068521   0.000000   0.000000   0.000000   0.000000
    21  H    0.000000   0.000000   0.953745   0.000000   0.000000   0.000000
    22  H    0.000000   0.000000   0.000000   0.956517   0.000000   0.000000
    23  H    0.000000   0.000000   0.000000   0.000000   0.954725   0.000000
    24  C    0.000000   0.000000   0.000000   0.000000   0.000000   4.158748
    25  H    0.000000   0.000000   0.000000   0.000000   0.000000   0.000000
    26  C    0.000000   0.000000   0.000000   0.000000   0.000000   0.000000
    27  H    0.000000   0.000000   0.000000   0.000000   0.000000   0.000000
    28  H    0.000000   0.000000   0.000000   0.000000   0.000000   0.000000
              25         26         27         28
     1  C    0.000000   0.000000   0.000000   0.000000
     2  H    0.000000   0.000000   0.000000   0.000000
     3  H    0.000000   0.000000   0.000000   0.000000
     4  C    0.000000   0.000000   0.000000   0.000000
     5  C    0.000000   0.000000   0.000000   0.000000
     6  H    0.000000   0.000000   0.000000   0.000000
     7  H    0.000000   0.000000   0.000000   0.000000
     8  H    0.000000   0.000000   0.000000   0.000000
     9  C    0.000000   0.000000   0.000000   0.000000
    10  H    0.000000   0.000000   0.000000   0.000000
    11  C    0.000000   0.000000   0.000000   0.000000
    12  H    0.000000   0.000000   0.000000   0.000000
    13  H    0.000000   0.000000   0.000000   0.000000
    14  H    0.000000   0.000000   0.000000   0.000000
    15  C    0.000000   0.000000   0.000000   0.000000
    16  H    0.000000   0.000000   0.000000   0.000000
    17  H    0.000000   0.000000   0.000000   0.000000
    18  H    0.000000   0.000000   0.000000   0.000000
    19  C    0.000000   0.000000   0.000000   0.000000
    20  C    0.000000   0.000000   0.000000   0.000000
    21  H    0.000000   0.000000   0.000000   0.000000
    22  H    0.000000   0.000000   0.000000   0.000000
    23  H    0.000000   0.000000   0.000000   0.000000
    24  C    0.000000   0.000000   0.000000   0.000000
    25  H    0.904930   0.000000   0.000000   0.000000
    26  C    0.000000   4.052854   0.000000   0.000000
    27  H    0.000000   0.000000   0.943279   0.000000
    28  H    0.000000   0.000000   0.000000   0.948424
 Mulliken charges:
               1
     1  C   -0.050226
     2  H    0.056747
     3  H    0.052207
     4  C   -0.127130
     5  C   -0.066385
     6  H    0.045283
     7  H    0.044137
     8  H    0.039793
     9  C   -0.150873
    10  H    0.093780
    11  C   -0.069164
    12  H    0.044934
    13  H    0.044626
    14  H    0.041581
    15  C   -0.068621
    16  H    0.044215
    17  H    0.044330
    18  H    0.040974
    19  C   -0.118462
    20  C   -0.068521
    21  H    0.046255
    22  H    0.043483
    23  H    0.045275
    24  C   -0.158748
    25  H    0.095070
    26  C   -0.052854
    27  H    0.056721
    28  H    0.051576
 Sum of Mulliken charges =   0.00000
 Mulliken charges with hydrogens summed into heavy atoms:
               1
     1  C    0.058728
     4  C   -0.127130
     5  C    0.062828
     9  C   -0.057094
    11  C    0.061976
    15  C    0.060897
    19  C   -0.118462
    20  C    0.066492
    24  C   -0.063679
    26  C    0.055443
 Charge=              0.0000 electrons
 Dipole moment (field-independent basis, Debye):
    X=              0.2305    Y=              0.1683    Z=              0.0024  Tot=              0.2854
 N-N= 3.063553647108D+02 E-N=-4.950056954671D+02  KE=-7.902608144807D+01
 Leave Link  601 at Thu Sep 16 16:24:46 2021, MaxMem=   131072000 cpu:               0.0 elap:               0.0
 (Enter /opt/g16/l701.exe)
 ... and contract with generalized density number  0.
 Compute integral first derivatives.
 Leave Link  701 at Thu Sep 16 16:24:46 2021, MaxMem=   131072000 cpu:               0.1 elap:               0.1
 (Enter /opt/g16/l702.exe)
 L702 exits ... SP integral derivatives will be done elsewhere.
 Leave Link  702 at Thu Sep 16 16:24:46 2021, MaxMem=   131072000 cpu:               0.0 elap:               0.0
 (Enter /opt/g16/l703.exe)
 Integral derivatives from FoFJK, PRISM(SPDF).
 Compute integral first derivatives, UseDBF=F ICtDFT=           0.
 Calling FoFJK, ICntrl=      2127 FMM=F ISym2X=0 I1Cent= 0 IOpClX= 0 NMat=1 NMatS=1 NMatT=0.
 FoFJK:  IHMeth= 9 ICntrl=    2127 DoSepK=F KAlg= 0 I1Cent=           0 FoldK=F
 IRaf=         0 NMat=       1 IRICut=       1 DoRegI=T DoRafI=F ISym2E= 0 IDoP0=3 IntGTp=3.
 FoFCou: FMM=F IPFlag=           0 FMFlag=      100000 FMFlg1=         800
         NFxFlg=           0 DoJE=F BraDBF=F KetDBF=F FulRan=T
         wScrn=  0.000000 ICntrl=      2127 IOpCl=  0 I1Cent=           0 NGrid=           0
         NMat0=    1 NMatS0=      1 NMatT0=    0 NMatD0=    1 NMtDS0=    0 NMtDT0=    0
 Symmetry not used in FoFCou.
 Leave Link  703 at Thu Sep 16 16:24:46 2021, MaxMem=   131072000 cpu:               0.0 elap:               0.0
 (Enter /opt/g16/l716.exe)
 Dipole        = 9.06869601D-02 6.62241913D-02 9.29386454D-04
 ***** Axes restored to original set *****
 -------------------------------------------------------------------
 Center     Atomic                   Forces (Hartrees/Bohr)
 Number     Number              X              Y              Z
 -------------------------------------------------------------------
      1        6          -0.009770963    0.012163629    0.000385110
      2        1          -0.000820837   -0.004175040    0.007115968
      3        1           0.002039900   -0.001747956   -0.006360171
      4        6           0.002824945   -0.000960093    0.002433154
      5        6           0.001551207   -0.005978530    0.015205493
      6        1           0.002173298    0.001112116   -0.000710394
      7        1           0.000951423   -0.000828214   -0.001701148
      8        1          -0.001812272    0.000603030   -0.000110016
      9        6           0.014280365   -0.002319825    0.001574323
     10        1          -0.005179323    0.001440501   -0.001484130
     11        6          -0.000224417    0.005871471   -0.016651844
     12        1           0.004277313   -0.001420899   -0.000191519
     13        1          -0.000813608   -0.002048030    0.000712262
     14        1          -0.001066039    0.001110209    0.001869044
     15        6          -0.014501246    0.005183827   -0.001307065
     16        1           0.001114592    0.000493602    0.001474624
     17        1           0.000623993   -0.001201225    0.001398876
     18        1           0.000686711   -0.000206418   -0.001677915
     19        6          -0.004673653   -0.000117626    0.000713334
     20        6           0.006447941   -0.002342265   -0.014858464
     21        1          -0.004379621    0.001928067   -0.002586278
     22        1           0.001344945   -0.001431684    0.001449619
     23        1           0.000977964    0.001146685    0.001170806
     24        6          -0.005155947    0.001434008    0.012152879
     25        1           0.002275345   -0.001431078   -0.004562897
     26        6           0.010060428   -0.013144050    0.001416123
     27        1          -0.002486377    0.001936713    0.008594139
     28        1          -0.000746067    0.004929075   -0.005463915
 -------------------------------------------------------------------
 Cartesian Forces:  Max     0.016651844 RMS     0.005392838
 Leave Link  716 at Thu Sep 16 16:24:46 2021, MaxMem=   131072000 cpu:               0.0 elap:               0.0
 (Enter /opt/g16/l103.exe)

 GradGradGradGradGradGradGradGradGradGradGradGradGradGradGradGradGradGrad
 Berny optimization.
 FormGI is forming the generalized inverse of G from B-inverse, IUseBI=4.
 Internal  Forces:  Max     0.018832464 RMS     0.004865832
 Search for a local minimum.
 Step number   1 out of a maximum of  138
 All quantities printed in internal units (Hartrees-Bohrs-Radians)
 RMS Force = .48658D-02 SwitMx=.10000D-02 MixMth= 1
 Mixed Optimization -- RFO/linear search
 Second derivative matrix not updated -- first step.
 ITU=  0
     Eigenvalues ---    0.00343   0.00569   0.00670   0.00680   0.00693
     Eigenvalues ---    0.00715   0.00819   0.01219   0.01287   0.01569
     Eigenvalues ---    0.01642   0.02780   0.02784   0.04018   0.04138
     Eigenvalues ---    0.05349   0.05399   0.06978   0.07035   0.07091
     Eigenvalues ---    0.07092   0.07268   0.07301   0.07347   0.07505
     Eigenvalues ---    0.09278   0.09361   0.12767   0.12842   0.15999
     Eigenvalues ---    0.15999   0.16000   0.16000   0.16000   0.16000
     Eigenvalues ---    0.16000   0.16000   0.16000   0.16000   0.16000
     Eigenvalues ---    0.16000   0.16000   0.16000   0.21859   0.21866
     Eigenvalues ---    0.22000   0.22000   0.24994   0.24997   0.24998
     Eigenvalues ---    0.24999   0.29241   0.30865   0.31629   0.31707
     Eigenvalues ---    0.31806   0.31977   0.32798   0.33863   0.33969
     Eigenvalues ---    0.34068   0.34197   0.34220   0.34228   0.34242
     Eigenvalues ---    0.34246   0.34248   0.34252   0.34258   0.34260
     Eigenvalues ---    0.34294   0.34340   0.34541   0.34551   0.34796
     Eigenvalues ---    0.34850   0.55507   0.55571
 RFO step:  Lambda=-9.50668179D-03 EMin= 3.42867933D-03
 Linear search not attempted -- first point.
 Iteration  1 RMS(Cart)=  0.14028703 RMS(Int)=  0.00237438
 Iteration  2 RMS(Cart)=  0.00421156 RMS(Int)=  0.00008869
 Iteration  3 RMS(Cart)=  0.00000536 RMS(Int)=  0.00008864
 Iteration  4 RMS(Cart)=  0.00000000 RMS(Int)=  0.00008864
 ITry= 1 IFail=0 DXMaxC= 5.73D-01 DCOld= 1.00D+10 DXMaxT= 3.00D-01 DXLimC= 3.00D+00 Rises=F
 Variable       Old X    -DE/DX   Delta X   Delta X   Delta X     New X
                                 (Linear)    (Quad)   (Total)
    R1        2.07215   0.00789   0.00000   0.02254   0.02254   2.09469
    R2        2.07561   0.00677   0.00000   0.01944   0.01944   2.09505
    R3        2.86271  -0.01714   0.00000  -0.05389  -0.05389   2.80882
    R4        2.89503  -0.00788   0.00000  -0.02611  -0.02611   2.86892
    R5        2.84828  -0.01396   0.00000  -0.04286  -0.04286   2.80542
    R6        2.54684  -0.01809   0.00000  -0.03204  -0.03204   2.51480
    R7        2.06838   0.00229   0.00000   0.00651   0.00651   2.07488
    R8        2.06906   0.00190   0.00000   0.00539   0.00539   2.07446
    R9        2.06961   0.00191   0.00000   0.00544   0.00544   2.07505
   R10        2.05919   0.00555   0.00000   0.01552   0.01552   2.07471
   R11        2.82707  -0.01432   0.00000  -0.04242  -0.04242   2.78465
   R12        2.06410   0.00429   0.00000   0.01207   0.01207   2.07618
   R13        2.06761   0.00224   0.00000   0.00635   0.00635   2.07395
   R14        2.06894   0.00231   0.00000   0.00656   0.00656   2.07550
   R15        2.06917   0.00169   0.00000   0.00479   0.00479   2.07396
   R16        2.06914   0.00174   0.00000   0.00495   0.00495   2.07410
   R17        2.06948   0.00182   0.00000   0.00518   0.00518   2.07466
   R18        2.84683  -0.01280   0.00000  -0.03920  -0.03920   2.80763
   R19        2.84186  -0.01536   0.00000  -0.04665  -0.04665   2.79521
   R20        2.54628  -0.01883   0.00000  -0.03332  -0.03332   2.51296
   R21        2.06427   0.00466   0.00000   0.01314   0.01314   2.07741
   R22        2.06999   0.00214   0.00000   0.00608   0.00608   2.07607
   R23        2.06897   0.00187   0.00000   0.00531   0.00531   2.07427
   R24        2.06008   0.00526   0.00000   0.01472   0.01472   2.07480
   R25        2.84500  -0.01611   0.00000  -0.04918  -0.04918   2.79582
   R26        2.06924   0.00879   0.00000   0.02496   0.02496   2.09421
   R27        2.07383   0.00735   0.00000   0.02105   0.02105   2.09488
    A1        1.82997   0.00053   0.00000   0.02064   0.02063   1.85060
    A2        1.93007   0.00084   0.00000  -0.00670  -0.00705   1.92302
    A3        1.91839   0.00083   0.00000  -0.00387  -0.00422   1.91417
    A4        1.90266   0.00175   0.00000   0.01082   0.01091   1.91357
    A5        1.92003   0.00132   0.00000   0.00928   0.00935   1.92938
    A6        1.95837  -0.00485   0.00000  -0.02666  -0.02684   1.93153
    A7        2.00824   0.00220   0.00000   0.00857   0.00853   2.01677
    A8        2.17070  -0.00496   0.00000  -0.01901  -0.01905   2.15165
    A9        2.10407   0.00276   0.00000   0.01074   0.01070   2.11476
   A10        1.92809  -0.00064   0.00000  -0.00513  -0.00513   1.92295
   A11        1.92488   0.00051   0.00000   0.00229   0.00227   1.92715
   A12        1.95916   0.00028   0.00000   0.00372   0.00371   1.96287
   A13        1.89495  -0.00075   0.00000  -0.00850  -0.00851   1.88644
   A14        1.87701   0.00049   0.00000   0.00428   0.00428   1.88129
   A15        1.87760   0.00010   0.00000   0.00315   0.00313   1.88073
   A16        2.06963   0.00458   0.00000   0.01976   0.01974   2.08937
   A17        2.22515  -0.00952   0.00000  -0.04143  -0.04146   2.18369
   A18        1.98827   0.00494   0.00000   0.02187   0.02185   2.01012
   A19        1.98125  -0.00193   0.00000  -0.01237  -0.01237   1.96887
   A20        1.91731   0.00069   0.00000   0.00288   0.00284   1.92016
   A21        1.91001   0.00126   0.00000   0.00961   0.00961   1.91962
   A22        1.89280  -0.00014   0.00000  -0.00472  -0.00475   1.88805
   A23        1.87270   0.00069   0.00000   0.00612   0.00615   1.87885
   A24        1.88713  -0.00054   0.00000  -0.00115  -0.00119   1.88595
   A25        1.89477  -0.00091   0.00000  -0.00856  -0.00857   1.88620
   A26        1.87890   0.00010   0.00000   0.00214   0.00214   1.88104
   A27        1.92344   0.00022   0.00000   0.00054   0.00054   1.92398
   A28        1.87917   0.00004   0.00000   0.00173   0.00173   1.88090
   A29        1.92491   0.00031   0.00000   0.00101   0.00101   1.92592
   A30        1.96063   0.00019   0.00000   0.00275   0.00274   1.96337
   A31        1.99472   0.00343   0.00000   0.01326   0.01324   2.00796
   A32        2.10575   0.00287   0.00000   0.01110   0.01109   2.11683
   A33        2.18267  -0.00630   0.00000  -0.02427  -0.02428   2.15839
   A34        1.97972  -0.00371   0.00000  -0.02227  -0.02228   1.95744
   A35        1.92089   0.00071   0.00000   0.00611   0.00613   1.92703
   A36        1.92161   0.00067   0.00000   0.00237   0.00233   1.92394
   A37        1.86371   0.00209   0.00000   0.01515   0.01519   1.87890
   A38        1.88438   0.00093   0.00000   0.00207   0.00201   1.88638
   A39        1.89064  -0.00056   0.00000  -0.00259  -0.00260   1.88804
   A40        2.06711   0.00596   0.00000   0.02607   0.02602   2.09313
   A41        2.22713  -0.01193   0.00000  -0.05190  -0.05196   2.17517
   A42        1.98882   0.00597   0.00000   0.02612   0.02607   2.01488
   A43        1.94452  -0.00390   0.00000  -0.02101  -0.02121   1.92331
   A44        1.92607   0.00042   0.00000  -0.00884  -0.00920   1.91688
   A45        1.92093   0.00078   0.00000   0.00843   0.00857   1.92950
   A46        1.94652   0.00048   0.00000  -0.00976  -0.01016   1.93635
   A47        1.88064   0.00223   0.00000   0.01994   0.02004   1.90068
   A48        1.84182   0.00029   0.00000   0.01425   0.01431   1.85613
    D1       -2.64269  -0.00128   0.00000  -0.01299  -0.01283  -2.65553
    D2        0.47842  -0.00087   0.00000   0.00400   0.00403   0.48245
    D3       -0.63956   0.00082   0.00000   0.01433   0.01441  -0.62515
    D4        2.48155   0.00123   0.00000   0.03132   0.03127   2.51282
    D5        1.49171   0.00050   0.00000   0.01598   0.01593   1.50765
    D6       -1.67036   0.00091   0.00000   0.03297   0.03280  -1.63756
    D7        0.99378   0.00032   0.00000   0.00329   0.00333   0.99711
    D8       -1.17854   0.00219   0.00000   0.03747   0.03732  -1.14122
    D9        3.07882   0.00113   0.00000   0.02031   0.02026   3.09908
   D10       -1.01270  -0.00155   0.00000  -0.02470  -0.02463  -1.03733
   D11        3.09816   0.00033   0.00000   0.00947   0.00936   3.10752
   D12        1.07234  -0.00074   0.00000  -0.00768  -0.00770   1.06463
   D13       -3.13406  -0.00142   0.00000  -0.02695  -0.02679   3.12233
   D14        0.97680   0.00046   0.00000   0.00722   0.00721   0.98401
   D15       -1.04903  -0.00061   0.00000  -0.00993  -0.00986  -1.05888
   D16       -1.05653   0.00069   0.00000   0.01851   0.01860  -1.03792
   D17        1.03840  -0.00033   0.00000   0.00611   0.00620   1.04460
   D18        3.13180   0.00032   0.00000   0.01413   0.01423  -3.13716
   D19        2.10470   0.00040   0.00000   0.00261   0.00251   2.10721
   D20       -2.08356  -0.00062   0.00000  -0.00980  -0.00989  -2.09346
   D21        0.00984   0.00003   0.00000  -0.00178  -0.00186   0.00797
   D22       -3.11709  -0.00012   0.00000  -0.00440  -0.00435  -3.12144
   D23        0.04339  -0.00048   0.00000  -0.01860  -0.01856   0.02483
   D24        0.00295   0.00029   0.00000   0.01342   0.01338   0.01633
   D25       -3.11975  -0.00007   0.00000  -0.00078  -0.00083  -3.12058
   D26        0.13827  -0.00037   0.00000  -0.00162  -0.00160   0.13668
   D27       -1.98416   0.00064   0.00000   0.01092   0.01092  -1.97324
   D28        2.22969   0.00013   0.00000   0.00481   0.00478   2.23447
   D29       -2.98517  -0.00072   0.00000  -0.01528  -0.01525  -3.00042
   D30        1.17558   0.00030   0.00000  -0.00273  -0.00273   1.17285
   D31       -0.89376  -0.00022   0.00000  -0.00885  -0.00887  -0.90263
   D32       -1.04018   0.00050   0.00000   0.01061   0.01069  -1.02949
   D33        2.11164   0.00033   0.00000   0.00126   0.00118   2.11283
   D34        1.05157  -0.00029   0.00000   0.00097   0.00104   1.05261
   D35       -2.07979  -0.00046   0.00000  -0.00839  -0.00846  -2.08825
   D36       -3.13522   0.00010   0.00000   0.00570   0.00577  -3.12945
   D37        0.01660  -0.00007   0.00000  -0.00366  -0.00373   0.01287
   D38       -3.00788  -0.00072   0.00000  -0.01630  -0.01622  -3.02410
   D39       -0.92127  -0.00003   0.00000  -0.00747  -0.00745  -0.92872
   D40        1.16167   0.00015   0.00000  -0.00536  -0.00534   1.15633
   D41        0.12297  -0.00048   0.00000  -0.00622  -0.00622   0.11675
   D42        2.20957   0.00022   0.00000   0.00262   0.00256   2.21213
   D43       -1.99067   0.00039   0.00000   0.00473   0.00467  -1.98601
   D44        0.00908   0.00014   0.00000   0.00920   0.00917   0.01825
   D45       -3.11423  -0.00039   0.00000  -0.01234  -0.01239  -3.12662
   D46       -3.12113  -0.00012   0.00000  -0.00148  -0.00143  -3.12255
   D47        0.03876  -0.00065   0.00000  -0.02302  -0.02299   0.01577
   D48       -1.80408   0.00084   0.00000   0.01980   0.01966  -1.78442
   D49        0.35670  -0.00113   0.00000  -0.01438  -0.01429   0.34241
   D50        2.37030   0.00079   0.00000   0.00923   0.00925   2.37955
   D51        1.35511   0.00032   0.00000  -0.00096  -0.00108   1.35404
   D52       -2.76729  -0.00165   0.00000  -0.03514  -0.03503  -2.80232
   D53       -0.75369   0.00028   0.00000  -0.01153  -0.01149  -0.76518
         Item               Value     Threshold  Converged?
 Maximum Force            0.018832     0.000450     NO 
 RMS     Force            0.004866     0.000300     NO 
 Maximum Displacement     0.572834     0.001800     NO 
 RMS     Displacement     0.140120     0.001200     NO 
 Predicted change in Energy=-4.947430D-03
 Lowest energy point so far.  Saving SCF results.
 GradGradGradGradGradGradGradGradGradGradGradGradGradGradGradGradGradGrad

 Leave Link  103 at Thu Sep 16 16:24:46 2021, MaxMem=   131072000 cpu:               0.0 elap:               0.0
 (Enter /opt/g16/l202.exe)
                          Input orientation:                          
 ---------------------------------------------------------------------
 Center     Atomic      Atomic             Coordinates (Angstroms)
 Number     Number       Type             X           Y           Z
 ---------------------------------------------------------------------
      1          6           0       -0.607108   -0.453392   -0.735214
      2          1           0       -0.550354   -1.249571    0.033919
      3          1           0       -0.293946   -0.925433   -1.688219
      4          6           0       -2.003018    0.042172   -0.858226
      5          6           0       -2.374799    0.585215   -2.188946
      6          1           0       -1.723060    1.429740   -2.448899
      7          1           0       -2.259537   -0.184936   -2.962670
      8          1           0       -3.413336    0.940330   -2.221969
      9          6           0       -2.880729    0.008244    0.141489
     10          1           0       -3.903590    0.373069   -0.019803
     11          6           0       -2.598907   -0.486892    1.500469
     12          1           0       -1.534917   -0.708956    1.660717
     13          1           0       -3.172550   -1.402465    1.693191
     14          1           0       -2.897769    0.264806    2.243375
     15          6           0        3.714882   -0.558196    1.001121
     16          1           0        4.342391    0.145185    1.563240
     17          1           0        3.754472   -1.530478    1.508810
     18          1           0        4.159703   -0.681995    0.005073
     19          6           0        2.315253   -0.063385    0.941063
     20          6           0        1.665781    0.139275    2.254468
     21          1           0        0.600130    0.390502    2.155593
     22          1           0        1.738001   -0.772933    2.862420
     23          1           0        2.158747    0.954269    2.800017
     24          6           0        1.714914    0.170833   -0.222167
     25          1           0        2.249598   -0.017999   -1.162336
     26          6           0        0.333530    0.680197   -0.367782
     27          1           0       -0.010228    1.165855    0.567144
     28          1           0        0.320947    1.465438   -1.150179
 ---------------------------------------------------------------------
                    Distance matrix (angstroms):
                    1          2          3          4          5
     1  C    0.000000
     2  H    1.108462   0.000000
     3  H    1.108653   1.771036   0.000000
     4  C    1.486365   2.138868   2.132153   0.000000
     5  C    2.513320   3.411184   2.619683   1.484566   0.000000
     6  H    2.779973   3.836448   2.857943   2.129310   1.097981
     7  H    2.786423   3.610305   2.456850   2.132151   1.097756
     8  H    3.468114   4.252219   3.673766   2.157656   1.098069
     9  C    2.480135   2.650343   3.303185   1.330773   2.453526
    10  H    3.472987   3.725592   4.183210   2.103477   2.662215
    11  C    2.994439   2.632303   3.958901   2.489666   3.848562
    12  H    2.581980   1.976891   3.578022   2.669903   4.147311
    13  H    3.657784   3.106843   4.466302   3.156661   4.433765
    14  H    3.825562   3.561656   4.863537   3.235749   4.474554
    15  C    4.658910   4.427834   4.841292   6.042515   6.969084
    16  H    5.489875   5.312544   5.763144   6.792520   7.706697
    17  H    5.021866   4.559138   5.193916   6.420652   7.464417
    18  H    4.829366   4.744219   4.770901   6.264890   7.008514
    19  C    3.391491   3.231355   3.803180   4.679322   5.675759
    20  C    3.802036   3.430887   4.529781   4.812315   6.022382
    21  H    3.244433   2.918039   4.160042   3.997601   5.269074
    22  H    4.306346   3.669356   4.986019   5.338804   6.654022
    23  H    4.704181   4.455046   5.449151   5.615599   6.751222
    24  C    2.458589   2.685995   2.717835   3.774142   4.556939
    25  H    2.921091   3.284437   2.751291   4.263900   4.775232
    26  C    1.518168   2.160237   2.171481   2.471249   3.265075
    27  H    2.162028   2.531867   3.088794   2.695470   3.677551
    28  H    2.171496   3.087480   2.526627   2.740755   3.020079
                    6          7          8          9         10
     6  H    0.000000
     7  H    1.777343   0.000000
     8  H    1.774276   1.773729   0.000000
     9  C    3.173477   3.171593   2.595841   0.000000
    10  H    3.431001   3.416833   2.326299   1.097887   0.000000
    11  C    4.476393   4.486197   4.069005   1.473571   2.180128
    12  H    4.636632   4.709074   4.617776   2.152589   3.099280
    13  H    5.222961   4.898267   4.568933   2.117319   2.573187
    14  H    4.975384   5.264267   4.545485   2.117555   2.478985
    15  C    6.739861   7.179460   7.965261   6.675470   7.742780
    16  H    7.384919   8.011136   8.666682   7.362988   8.399652
    17  H    7.377649   7.613995   8.449916   6.947166   8.037789
    18  H    6.714783   7.089515   8.058696   7.075502   8.132065
    19  C    5.479894   6.015199   6.620344   5.257631   6.307754
    20  C    5.938956   6.536954   6.817449   5.015237   6.020370
    21  H    5.261042   5.891133   5.964333   4.039692   5.001614
    22  H    6.711246   7.089269   7.437914   5.417230   6.438019
    23  H    6.545656   7.350346   7.501243   5.775729   6.711267
    24  C    4.285189   4.840784   5.557903   4.612875   5.625783
    25  H    4.419638   4.858124   5.840380   5.293477   6.270568
    26  C    3.020335   3.769072   4.188638   3.323002   4.262464
    27  H    3.478497   4.398139   4.405810   3.124264   4.016377
    28  H    2.421964   3.559180   3.920376   3.747339   4.507519
                   11         12         13         14         15
    11  C    0.000000
    12  H    1.098666   0.000000
    13  H    1.097489   1.778722   0.000000
    14  H    1.098306   1.773435   1.777076   0.000000
    15  C    6.333906   5.293220   6.973412   6.778472   0.000000
    16  H    6.970300   5.939849   7.673751   7.273020   1.097493
    17  H    6.438522   5.354961   6.930658   6.929281   1.097564
    18  H    6.924817   5.930479   7.558490   7.464205   1.097863
    19  C    4.963997   3.969694   5.698668   5.383245   1.485734
    20  C    4.375861   3.364001   5.108958   4.565290   2.501231
    21  H    3.381249   2.451965   4.202578   3.501257   3.454637
    22  H    4.554723   3.487145   5.086937   4.790667   2.723711
    23  H    5.138194   4.208025   5.933126   5.133572   2.818712
    24  C    4.691389   3.857548   5.480070   5.231116   2.455155
    25  H    5.551431   4.771750   6.282553   6.178530   2.668223
    26  C    3.667649   3.087984   4.569212   4.175163   3.852408
    27  H    3.209973   2.652451   4.226646   3.458256   4.127606
    28  H    4.400350   4.009159   5.339864   4.828857   4.499109
                   16         17         18         19         20
    16  H    0.000000
    17  H    1.776642   0.000000
    18  H    1.773551   1.773517   0.000000
    19  C    2.130703   2.132146   2.158878   0.000000
    20  C    2.764430   2.776096   3.457442   1.479160   0.000000
    21  H    3.796786   3.749448   4.294828   2.150057   1.099320
    22  H    3.051828   2.544068   3.746644   2.127978   1.098611
    23  H    2.636767   3.222967   3.806954   2.125046   1.097658
    24  C    3.176787   3.170258   2.599221   1.329801   2.477323
    25  H    3.440229   3.418663   2.335003   2.104913   3.469888
    26  C    4.481746   4.484587   4.078503   2.488617   2.990599
    27  H    4.580313   4.725453   4.595519   2.656823   2.590354
    28  H    5.027696   5.275872   4.547760   3.269228   3.893444
                   21         22         23         24         25
    21  H    0.000000
    22  H    1.774243   0.000000
    23  H    1.778315   1.778805   0.000000
    24  C    2.635288   3.225818   3.153468   0.000000
    25  H    3.727770   4.126780   4.080907   1.097935   0.000000
    26  C    2.553902   3.810293   3.666262   1.479485   2.188631
    27  H    1.869994   3.476132   3.120086   2.142241   3.082113
    28  H    3.487343   4.808253   4.386668   2.116684   2.433192
                   26         27         28
    26  C    0.000000
    27  H    1.108206   0.000000
[...]
    26  C    3.809889   3.384950   4.838115   4.057242   3.867271
    27  H    3.447868   3.150154   4.537941   3.401095   4.132928
    28  H    4.536439   4.296918   5.559608   4.756978   4.405446
                   16         17         18         19         20
    16  H    0.000000
    17  H    1.772096   0.000000
    18  H    1.772324   1.772193   0.000000
    19  C    2.138115   2.138456   2.163925   0.000000
    20  C    2.774367   2.793338   3.468876   1.486006   0.000000
    21  H    3.808600   3.769271   4.306546   2.156137   1.102487
    22  H    3.062766   2.573219   3.768148   2.139618   1.098015
    23  H    2.654664   3.244276   3.821852   2.136197   1.098179
    24  C    3.193358   3.181901   2.608569   1.339751   2.492111
    25  H    3.453198   3.429822   2.345117   2.113953   3.484466
    26  C    4.504913   4.503383   4.094811   2.502919   3.007134
    27  H    4.685028   4.635525   4.617484   2.649690   2.553275
    28  H    4.857059   5.208136   4.557922   3.124171   3.609224
                   21         22         23         24         25
    21  H    0.000000
    22  H    1.777762   0.000000
    23  H    1.777198   1.773344   0.000000
    24  C    2.645433   3.246144   3.171508   0.000000
    25  H    3.738715   4.151196   4.096858   1.098258   0.000000
    26  C    2.564103   3.829250   3.684554   1.486453   2.195863
    27  H    1.769047   3.319347   3.235546   2.151830   3.107865
    28  H    3.168988   4.578586   4.018578   2.118925   2.609999
                   26         27         28
    26  C    0.000000
    27  H    1.113558   0.000000
    28  H    1.109307   1.772330   0.000000
 Stoichiometry    C10H18
 Framework group  C1[X(C10H18)]
 Deg. of freedom    78
 Full point group                 C1      NOp   1
 RotChk:  IX=2 Diff= 1.99D-15
 Largest Abelian subgroup         C1      NOp   1
 Largest concise Abelian subgroup C1      NOp   1
                         Standard orientation:                         
 ---------------------------------------------------------------------
 Center     Atomic      Atomic             Coordinates (Angstroms)
 Number     Number       Type             X           Y           Z
 ---------------------------------------------------------------------
      1          6           0       -0.883431   -0.517593    0.676796
      2          1           0       -0.702307    0.355107    1.344432
      3          1           0       -0.859717   -1.412896    1.329490
      4          6           0       -2.231658   -0.396090    0.041222
      5          6           0       -2.822984   -1.657873   -0.479527
      6          1           0       -2.153835   -2.129299   -1.213258
      7          1           0       -2.976984   -2.377142    0.336662
      8          1           0       -3.792782   -1.500150   -0.969833
      9          6           0       -2.892059    0.766684   -0.049385
     10          1           0       -3.880913    0.797652   -0.525004
     11          6           0       -2.385795    2.060254    0.457686
     12          1           0       -1.489187    1.937996    1.088460
     13          1           0       -3.150269    2.570692    1.057542
     14          1           0       -2.118920    2.722662   -0.376553
     15          6           0        3.935507   -0.236616    0.638389
     16          1           0        4.714669   -0.480284   -0.096659
     17          1           0        4.257269    0.666906    1.174192
     18          1           0        3.897840   -1.057783    1.366358
     19          6           0        2.630214   -0.007857   -0.038401
     20          6           0        2.626882    1.073975   -1.057146
     21          1           0        1.613672    1.273593   -1.443198
     22          1           0        3.015516    2.010327   -0.635428
     23          1           0        3.262458    0.803172   -1.910789
     24          6           0        1.553062   -0.743531    0.267315
     25          1           0        1.624165   -1.526459    1.034217
     26          6           0        0.219585   -0.592846   -0.371960
     27          1           0        0.190582    0.310811   -1.022018
     28          1           0        0.052806   -1.455956   -1.048559
 ---------------------------------------------------------------------
 Rotational constants (GHZ):           2.2906530           0.5551394           0.4932917
 Leave Link  202 at Thu Sep 16 16:24:59 2021, MaxMem=   131072000 cpu:               0.0 elap:               0.0
 (Enter /opt/g16/l601.exe)
 Copying SCF densities to generalized density rwf, IOpCl= 0 IROHF=0.

 **********************************************************************

            Population analysis using the SCF density.

 **********************************************************************

 Orbital symmetries:
       Occupied  (A) (A) (A) (A) (A) (A) (A) (A) (A) (A) (A) (A)
                 (A) (A) (A) (A) (A) (A) (A) (A) (A) (A) (A) (A)
                 (A) (A) (A) (A) (A)
       Virtual   (A) (A) (A) (A) (A) (A) (A) (A) (A) (A) (A) (A)
                 (A) (A) (A) (A) (A) (A) (A) (A) (A) (A) (A) (A)
                 (A) (A) (A) (A) (A)
 The electronic state is 1-A.
 Alpha  occ. eigenvalues --   -1.47330  -1.36302  -1.17453  -1.11073  -1.01433
 Alpha  occ. eigenvalues --   -0.94486  -0.86190  -0.80100  -0.67510  -0.63998
 Alpha  occ. eigenvalues --   -0.61528  -0.59105  -0.57983  -0.56720  -0.55114
 Alpha  occ. eigenvalues --   -0.53262  -0.51103  -0.50837  -0.48766  -0.48376
 Alpha  occ. eigenvalues --   -0.48316  -0.47567  -0.47209  -0.46968  -0.45918
 Alpha  occ. eigenvalues --   -0.43156  -0.41918  -0.35260  -0.34220
 Alpha virt. eigenvalues --    0.03512   0.04208   0.12064   0.12661   0.13321
 Alpha virt. eigenvalues --    0.13446   0.14003   0.14195   0.14776   0.14925
 Alpha virt. eigenvalues --    0.15502   0.15731   0.15900   0.15948   0.16346
 Alpha virt. eigenvalues --    0.16358   0.16565   0.16615   0.16923   0.17017
 Alpha virt. eigenvalues --    0.17047   0.17164   0.17743   0.17935   0.18083
 Alpha virt. eigenvalues --    0.21018   0.21289   0.22409   0.22442
          Condensed to atoms (all electrons):
               1          2          3          4          5          6
     1  C    4.060711   0.000000   0.000000   0.000000   0.000000   0.000000
     2  H    0.000000   0.937240   0.000000   0.000000   0.000000   0.000000
     3  H    0.000000   0.000000   0.944613   0.000000   0.000000   0.000000
     4  C    0.000000   0.000000   0.000000   4.128516   0.000000   0.000000
     5  C    0.000000   0.000000   0.000000   0.000000   4.068413   0.000000
     6  H    0.000000   0.000000   0.000000   0.000000   0.000000   0.954590
     7  H    0.000000   0.000000   0.000000   0.000000   0.000000   0.000000
     8  H    0.000000   0.000000   0.000000   0.000000   0.000000   0.000000
     9  C    0.000000   0.000000   0.000000   0.000000   0.000000   0.000000
    10  H    0.000000   0.000000   0.000000   0.000000   0.000000   0.000000
    11  C    0.000000   0.000000   0.000000   0.000000   0.000000   0.000000
    12  H    0.000000   0.000000   0.000000   0.000000   0.000000   0.000000
    13  H    0.000000   0.000000   0.000000   0.000000   0.000000   0.000000
    14  H    0.000000   0.000000   0.000000   0.000000   0.000000   0.000000
    15  C    0.000000   0.000000   0.000000   0.000000   0.000000   0.000000
    16  H    0.000000   0.000000   0.000000   0.000000   0.000000   0.000000
    17  H    0.000000   0.000000   0.000000   0.000000   0.000000   0.000000
    18  H    0.000000   0.000000   0.000000   0.000000   0.000000   0.000000
    19  C    0.000000   0.000000   0.000000   0.000000   0.000000   0.000000
    20  C    0.000000   0.000000   0.000000   0.000000   0.000000   0.000000
    21  H    0.000000   0.000000   0.000000   0.000000   0.000000   0.000000
    22  H    0.000000   0.000000   0.000000   0.000000   0.000000   0.000000
    23  H    0.000000   0.000000   0.000000   0.000000   0.000000   0.000000
    24  C    0.000000   0.000000   0.000000   0.000000   0.000000   0.000000
    25  H    0.000000   0.000000   0.000000   0.000000   0.000000   0.000000
    26  C    0.000000   0.000000   0.000000   0.000000   0.000000   0.000000
    27  H    0.000000   0.000000   0.000000   0.000000   0.000000   0.000000
    28  H    0.000000   0.000000   0.000000   0.000000   0.000000   0.000000
               7          8          9         10         11         12
     1  C    0.000000   0.000000   0.000000   0.000000   0.000000   0.000000
     2  H    0.000000   0.000000   0.000000   0.000000   0.000000   0.000000
     3  H    0.000000   0.000000   0.000000   0.000000   0.000000   0.000000
     4  C    0.000000   0.000000   0.000000   0.000000   0.000000   0.000000
     5  C    0.000000   0.000000   0.000000   0.000000   0.000000   0.000000
     6  H    0.000000   0.000000   0.000000   0.000000   0.000000   0.000000
     7  H    0.955579   0.000000   0.000000   0.000000   0.000000   0.000000
     8  H    0.000000   0.958721   0.000000   0.000000   0.000000   0.000000
     9  C    0.000000   0.000000   4.149731   0.000000   0.000000   0.000000
    10  H    0.000000   0.000000   0.000000   0.901748   0.000000   0.000000
    11  C    0.000000   0.000000   0.000000   0.000000   4.080707   0.000000
    12  H    0.000000   0.000000   0.000000   0.000000   0.000000   0.949917
    13  H    0.000000   0.000000   0.000000   0.000000   0.000000   0.000000
    14  H    0.000000   0.000000   0.000000   0.000000   0.000000   0.000000
    15  C    0.000000   0.000000   0.000000   0.000000   0.000000   0.000000
    16  H    0.000000   0.000000   0.000000   0.000000   0.000000   0.000000
    17  H    0.000000   0.000000   0.000000   0.000000   0.000000   0.000000
    18  H    0.000000   0.000000   0.000000   0.000000   0.000000   0.000000
    19  C    0.000000   0.000000   0.000000   0.000000   0.000000   0.000000
    20  C    0.000000   0.000000   0.000000   0.000000   0.000000   0.000000
    21  H    0.000000   0.000000   0.000000   0.000000   0.000000   0.000000
    22  H    0.000000   0.000000   0.000000   0.000000   0.000000   0.000000
    23  H    0.000000   0.000000   0.000000   0.000000   0.000000   0.000000
    24  C    0.000000   0.000000   0.000000   0.000000   0.000000   0.000000
    25  H    0.000000   0.000000   0.000000   0.000000   0.000000   0.000000
    26  C    0.000000   0.000000   0.000000   0.000000   0.000000   0.000000
    27  H    0.000000   0.000000   0.000000   0.000000   0.000000   0.000000
    28  H    0.000000   0.000000   0.000000   0.000000   0.000000   0.000000
              13         14         15         16         17         18
     1  C    0.000000   0.000000   0.000000   0.000000   0.000000   0.000000
     2  H    0.000000   0.000000   0.000000   0.000000   0.000000   0.000000
     3  H    0.000000   0.000000   0.000000   0.000000   0.000000   0.000000
     4  C    0.000000   0.000000   0.000000   0.000000   0.000000   0.000000
     5  C    0.000000   0.000000   0.000000   0.000000   0.000000   0.000000
     6  H    0.000000   0.000000   0.000000   0.000000   0.000000   0.000000
     7  H    0.000000   0.000000   0.000000   0.000000   0.000000   0.000000
     8  H    0.000000   0.000000   0.000000   0.000000   0.000000   0.000000
     9  C    0.000000   0.000000   0.000000   0.000000   0.000000   0.000000
    10  H    0.000000   0.000000   0.000000   0.000000   0.000000   0.000000
    11  C    0.000000   0.000000   0.000000   0.000000   0.000000   0.000000
    12  H    0.000000   0.000000   0.000000   0.000000   0.000000   0.000000
    13  H    0.956794   0.000000   0.000000   0.000000   0.000000   0.000000
    14  H    0.000000   0.954422   0.000000   0.000000   0.000000   0.000000
    15  C    0.000000   0.000000   4.068766   0.000000   0.000000   0.000000
    16  H    0.000000   0.000000   0.000000   0.956380   0.000000   0.000000
    17  H    0.000000   0.000000   0.000000   0.000000   0.956043   0.000000
    18  H    0.000000   0.000000   0.000000   0.000000   0.000000   0.958436
    19  C    0.000000   0.000000   0.000000   0.000000   0.000000   0.000000
    20  C    0.000000   0.000000   0.000000   0.000000   0.000000   0.000000
    21  H    0.000000   0.000000   0.000000   0.000000   0.000000   0.000000
    22  H    0.000000   0.000000   0.000000   0.000000   0.000000   0.000000
    23  H    0.000000   0.000000   0.000000   0.000000   0.000000   0.000000
    24  C    0.000000   0.000000   0.000000   0.000000   0.000000   0.000000
    25  H    0.000000   0.000000   0.000000   0.000000   0.000000   0.000000
    26  C    0.000000   0.000000   0.000000   0.000000   0.000000   0.000000
    27  H    0.000000   0.000000   0.000000   0.000000   0.000000   0.000000
    28  H    0.000000   0.000000   0.000000   0.000000   0.000000   0.000000
              19         20         21         22         23         24
     1  C    0.000000   0.000000   0.000000   0.000000   0.000000   0.000000
     2  H    0.000000   0.000000   0.000000   0.000000   0.000000   0.000000
     3  H    0.000000   0.000000   0.000000   0.000000   0.000000   0.000000
     4  C    0.000000   0.000000   0.000000   0.000000   0.000000   0.000000
     5  C    0.000000   0.000000   0.000000   0.000000   0.000000   0.000000
     6  H    0.000000   0.000000   0.000000   0.000000   0.000000   0.000000
     7  H    0.000000   0.000000   0.000000   0.000000   0.000000   0.000000
     8  H    0.000000   0.000000   0.000000   0.000000   0.000000   0.000000
     9  C    0.000000   0.000000   0.000000   0.000000   0.000000   0.000000
    10  H    0.000000   0.000000   0.000000   0.000000   0.000000   0.000000
    11  C    0.000000   0.000000   0.000000   0.000000   0.000000   0.000000
    12  H    0.000000   0.000000   0.000000   0.000000   0.000000   0.000000
    13  H    0.000000   0.000000   0.000000   0.000000   0.000000   0.000000
    14  H    0.000000   0.000000   0.000000   0.000000   0.000000   0.000000
    15  C    0.000000   0.000000   0.000000   0.000000   0.000000   0.000000
    16  H    0.000000   0.000000   0.000000   0.000000   0.000000   0.000000
    17  H    0.000000   0.000000   0.000000   0.000000   0.000000   0.000000
    18  H    0.000000   0.000000   0.000000   0.000000   0.000000   0.000000
    19  C    4.122795   0.000000   0.000000   0.000000   0.000000   0.000000
    20  C    0.000000   4.076865   0.000000   0.000000   0.000000   0.000000
    21  H    0.000000   0.000000   0.949208   0.000000   0.000000   0.000000
    22  H    0.000000   0.000000   0.000000   0.954677   0.000000   0.000000
    23  H    0.000000   0.000000   0.000000   0.000000   0.953694   0.000000
    24  C    0.000000   0.000000   0.000000   0.000000   0.000000   4.157494
    25  H    0.000000   0.000000   0.000000   0.000000   0.000000   0.000000
    26  C    0.000000   0.000000   0.000000   0.000000   0.000000   0.000000
    27  H    0.000000   0.000000   0.000000   0.000000   0.000000   0.000000
    28  H    0.000000   0.000000   0.000000   0.000000   0.000000   0.000000
              25         26         27         28
     1  C    0.000000   0.000000   0.000000   0.000000
     2  H    0.000000   0.000000   0.000000   0.000000
     3  H    0.000000   0.000000   0.000000   0.000000
     4  C    0.000000   0.000000   0.000000   0.000000
     5  C    0.000000   0.000000   0.000000   0.000000
     6  H    0.000000   0.000000   0.000000   0.000000
     7  H    0.000000   0.000000   0.000000   0.000000
     8  H    0.000000   0.000000   0.000000   0.000000
     9  C    0.000000   0.000000   0.000000   0.000000
    10  H    0.000000   0.000000   0.000000   0.000000
    11  C    0.000000   0.000000   0.000000   0.000000
    12  H    0.000000   0.000000   0.000000   0.000000
    13  H    0.000000   0.000000   0.000000   0.000000
    14  H    0.000000   0.000000   0.000000   0.000000
    15  C    0.000000   0.000000   0.000000   0.000000
    16  H    0.000000   0.000000   0.000000   0.000000
    17  H    0.000000   0.000000   0.000000   0.000000
    18  H    0.000000   0.000000   0.000000   0.000000
    19  C    0.000000   0.000000   0.000000   0.000000
    20  C    0.000000   0.000000   0.000000   0.000000
    21  H    0.000000   0.000000   0.000000   0.000000
    22  H    0.000000   0.000000   0.000000   0.000000
    23  H    0.000000   0.000000   0.000000   0.000000
    24  C    0.000000   0.000000   0.000000   0.000000
    25  H    0.898790   0.000000   0.000000   0.000000
    26  C    0.000000   4.067146   0.000000   0.000000
    27  H    0.000000   0.000000   0.936268   0.000000
    28  H    0.000000   0.000000   0.000000   0.941735
 Mulliken charges:
               1
     1  C   -0.060711
     2  H    0.062760
     3  H    0.055387
     4  C   -0.128516
     5  C   -0.068413
     6  H    0.045410
     7  H    0.044421
     8  H    0.041279
     9  C   -0.149731
    10  H    0.098252
    11  C   -0.080707
    12  H    0.050083
    13  H    0.043206
    14  H    0.045578
    15  C   -0.068766
    16  H    0.043620
    17  H    0.043957
    18  H    0.041564
    19  C   -0.122795
    20  C   -0.076865
    21  H    0.050792
    22  H    0.045323
    23  H    0.046306
    24  C   -0.157494
    25  H    0.101210
    26  C   -0.067146
    27  H    0.063732
    28  H    0.058265
 Sum of Mulliken charges =  -0.00000
 Mulliken charges with hydrogens summed into heavy atoms:
               1
     1  C    0.057436
     4  C   -0.128516
     5  C    0.062697
     9  C   -0.051479
    11  C    0.058160
    15  C    0.060375
    19  C   -0.122795
    20  C    0.065556
    24  C   -0.056284
    26  C    0.054851
 Charge=              0.0000 electrons
 Dipole moment (field-independent basis, Debye):
    X=              0.2316    Y=              0.1304    Z=             -0.0992  Tot=              0.2837
 N-N= 3.069539545322D+02 E-N=-4.960714053707D+02  KE=-7.910884224515D+01
 Leave Link  601 at Thu Sep 16 16:24:59 2021, MaxMem=   131072000 cpu:               0.0 elap:               0.0
 (Enter /opt/g16/l9999.exe)
 1\1\GINC-TOTEM\FOpt\RPM3\ZDO\C10H18\JRAMOS\16-Sep-2021\0\\#p opt pm3\\
 Conformer number 005. Energy MM = 23.242 kcal/mol\\0,1\C,-0.7158309119
 ,-0.5340195816,-0.716283572\H,-0.7604624893,-1.3952880414,-0.011745281
 1\H,-0.3869965416,-0.9506303964,-1.6891361706\C,-2.0762951782,0.069248
 0834,-0.8633828888\C,-2.2980097917,0.8871661018,-2.0860007729\H,-1.566
 239824,1.705196456,-2.1468576344\H,-2.1805535392,0.2714218161,-2.98838
 15355\H,-3.2995342196,1.3362098199,-2.119082975\C,-3.0561681088,-0.116
 6326877,0.0319832815\H,-4.0373395168,0.3490943552,-0.1274052344\C,-2.9
 257948577,-0.927965361,1.261409259\H,-1.9957815576,-1.5209998982,1.272
 1639527\H,-3.7683211703,-1.6244291018,1.3608139106\H,-2.9199456877,-0.
 2822843694,2.1496780123\C,3.7907062638,-0.6223794452,1.0116943401\H,4.
 5596779283,0.1404426711,1.1948581492\H,3.862738172,-1.3648976465,1.818
 1963571\H,4.0437493911,-1.129243687,0.0710932703\C,2.4367738739,-0.005
 6212193,0.986337259\C,2.0492215179,0.7206835855,2.223470162\H,1.000398
 9888,1.0589549659,2.1915050506\H,2.1681320604,0.0800927612,3.107292160
 4\H,2.6820176557,1.6068473656,2.3658798561\C,1.6475501188,-0.111134358
 9,-0.0911258748\H,1.9953313295,-0.6663312632,-0.9725877464\C,0.292255,
 0.4884783926,-0.2059337104\H,-0.0439331554,0.900572177,0.7724162028\H,
 0.3471542495,1.3559485064,-0.8951678272\\Version=ES64L-G16RevA.03\Stat
 e=1-A\HF=-0.0281716\RMSD=4.319e-09\RMSF=2.630e-06\Dipole=0.0692004,0.0
 243539,0.084141\PG=C01 [X(C10H18)]\\@


 ...THE PHYSICISTS HAVE MADE THEIR UNIVERSE, AND IF YOU DO NOT LIKE
 IT, YOU MUST MAKE YOUR OWN.
                               -- E. R. HARRISON IN "COSMOLOGY" (1980)
 Job cpu time:       0 days  0 hours  0 minutes 13.7 seconds.
 Elapsed time:       0 days  0 hours  0 minutes 11.7 seconds.
 File lengths (MBytes):  RWF=      6 Int=      0 D2E=      0 Chk=      2 Scr=      1
 Normal termination of Gaussian 16 at Thu Sep 16 16:24:59 2021.
