 Entering Gaussian System, Link 0=/opt/g16/g16
 Input=03-IsoP_008_gaussian.com
 Output=03-IsoP_008_gaussian.log
 Initial command:
 /opt/g16/l1.exe "/tmp/Gau-1501484.inp" -scrdir="/tmp/"
 Entering Link 1 = /opt/g16/l1.exe PID=   1501486.
  
 Copyright (c) 1988,1990,1992,1993,1995,1998,2003,2009,2016,
            Gaussian, Inc.  All Rights Reserved.
  
 This is part of the Gaussian(R) 16 program.  It is based on
 the Gaussian(R) 09 system (copyright 2009, Gaussian, Inc.),
 the Gaussian(R) 03 system (copyright 2003, Gaussian, Inc.),
 the Gaussian(R) 98 system (copyright 1998, Gaussian, Inc.),
 the Gaussian(R) 94 system (copyright 1995, Gaussian, Inc.),
 the Gaussian 92(TM) system (copyright 1992, Gaussian, Inc.),
 the Gaussian 90(TM) system (copyright 1990, Gaussian, Inc.),
 the Gaussian 88(TM) system (copyright 1988, Gaussian, Inc.),
 the Gaussian 86(TM) system (copyright 1986, Carnegie Mellon
 University), and the Gaussian 82(TM) system (copyright 1983,
 Carnegie Mellon University). Gaussian is a federally registered
 trademark of Gaussian, Inc.
  
 This software contains proprietary and confidential information,
 including trade secrets, belonging to Gaussian, Inc.
  
 This software is provided under written license and may be
 used, copied, transmitted, or stored only in accord with that
 written license.
  
 The following legend is applicable only to US Government
 contracts under FAR:
  
                    RESTRICTED RIGHTS LEGEND
  
 Use, reproduction and disclosure by the US Government is
 subject to restrictions as set forth in subparagraphs (a)
 and (c) of the Commercial Computer Software - Restricted
 Rights clause in FAR 52.227-19.
  
 Gaussian, Inc.
 340 Quinnipiac St., Bldg. 40, Wallingford CT 06492
  
  
 ---------------------------------------------------------------
 Warning -- This program may not be used in any manner that
 competes with the business of Gaussian, Inc. or will provide
 assistance to any competitor of Gaussian, Inc.  The licensee
 of this program is prohibited from giving any competitor of
 Gaussian, Inc. access to this program.  By using this program,
 the user acknowledges that Gaussian, Inc. is engaged in the
 business of creating and licensing software in the field of
 computational chemistry and represents and warrants to the
 licensee that it is not a competitor of Gaussian, Inc. and that
 it will not use this program in any manner prohibited above.
 ---------------------------------------------------------------
  

 Cite this work as:
 Gaussian 16, Revision A.03,
 M. J. Frisch, G. W. Trucks, H. B. Schlegel, G. E. Scuseria, 
 M. A. Robb, J. R. Cheeseman, G. Scalmani, V. Barone, 
 G. A. Petersson, H. Nakatsuji, X. Li, M. Caricato, A. V. Marenich, 
 J. Bloino, B. G. Janesko, R. Gomperts, B. Mennucci, H. P. Hratchian, 
 J. V. Ortiz, A. F. Izmaylov, J. L. Sonnenberg, D. Williams-Young, 
 F. Ding, F. Lipparini, F. Egidi, J. Goings, B. Peng, A. Petrone, 
 T. Henderson, D. Ranasinghe, V. G. Zakrzewski, J. Gao, N. Rega, 
 G. Zheng, W. Liang, M. Hada, M. Ehara, K. Toyota, R. Fukuda, 
 J. Hasegawa, M. Ishida, T. Nakajima, Y. Honda, O. Kitao, H. Nakai, 
 T. Vreven, K. Throssell, J. A. Montgomery, Jr., J. E. Peralta, 
 F. Ogliaro, M. J. Bearpark, J. J. Heyd, E. N. Brothers, K. N. Kudin, 
 V. N. Staroverov, T. A. Keith, R. Kobayashi, J. Normand, 
 K. Raghavachari, A. P. Rendell, J. C. Burant, S. S. Iyengar, 
 J. Tomasi, M. Cossi, J. M. Millam, M. Klene, C. Adamo, R. Cammi, 
 J. W. Ochterski, R. L. Martin, K. Morokuma, O. Farkas, 
 J. B. Foresman, and D. J. Fox, Gaussian, Inc., Wallingford CT, 2016.
 
 ******************************************
 Gaussian 16:  ES64L-G16RevA.03 25-Dec-2016
                16-Sep-2021 
 ******************************************
 %chk=03-IsoP_008_gaussian.chk
 %nproc=1
 Will use up to    1 processors via shared memory.
 %mem=1000Mb
 ----------
 #p opt pm3
 ----------
 1/18=20,19=15,26=1,38=1/1,3;
 2/9=110,12=2,17=6,18=5,40=1/2;
 3/5=2,25=1,41=800000,71=1/1,2,3;
 4/35=1/1;
 5/5=2,35=1,38=5/2;
 6/7=2,8=2,9=2,10=2,28=1/1;
 7//1,2,3,16;
 1/18=20,19=15,26=1/3(2);
 2/9=110/2;
 99//99;
 2/9=110/2;
 3/5=2,25=1,41=800000,71=1,135=20/1,2,3;
 4/5=5,16=3,35=1/1;
 5/5=2,35=1,38=5/2;
 7//1,2,3,16;
 1/18=20,19=15,26=1/3(-5);
 2/9=110/2;
 6/7=2,8=2,9=2,10=2,19=2,28=1/1;
 99/9=1/99;
 Leave Link    1 at Thu Sep 16 16:24:46 2021, MaxMem=   131072000 cpu:               0.0 elap:               0.0
 (Enter /opt/g16/l101.exe)
 -------------------------------------------------
 Conformer number 008. Energy MM = 23.486 kcal/mol
 -------------------------------------------------
 Symbolic Z-matrix:
 Charge =  0 Multiplicity = 1
 C                    -0.9506    1.2941   -0.0868 
 H                    -0.9992    1.2442    1.0065 
 H                    -1.3137    2.3006   -0.3347 
 C                    -1.8867    0.2867   -0.7284 
 C                    -2.2799    0.5966   -2.1511 
 H                    -2.7482    1.5846   -2.2093 
 H                    -1.4016    0.5876   -2.8038 
 H                    -2.9947   -0.1301   -2.5517 
 C                    -2.3857   -0.8018   -0.1089 
 H                    -3.069    -1.4462   -0.6614 
 C                    -2.1039   -1.2788    1.281 
 H                    -3.0211   -1.2436    1.8768 
 H                    -1.3378   -0.6991    1.7992 
 H                    -1.7603   -2.3178    1.2467 
 C                     2.626    -1.639     1.1882 
 H                     3.7182   -1.6048    1.1182 
 H                     2.3512   -1.9711    2.1947 
 H                     2.2714   -2.3957    0.4804 
 C                     2.0439   -0.2776    0.9106 
 C                     2.5073    0.7975    1.8537 
 H                     1.9795    1.745     1.7252 
 H                     2.3454    0.4831    2.8905 
 H                     3.5768    0.9852    1.714 
 C                     1.1729   -0.099    -0.1018 
 H                     0.8953   -0.9638   -0.7052 
 C                     0.5128    1.182    -0.5391 
 H                     0.5792    1.2456   -1.6321 
 H                     1.0626    2.0533   -0.1687 
 
 ITRead=  0  0  0  0  0  0  0  0  0  0  0  0  0  0  0  0  0  0  0  0
 ITRead=  0  0  0  0  0  0  0  0
 MicOpt= -1 -1 -1 -1 -1 -1 -1 -1 -1 -1 -1 -1 -1 -1 -1 -1 -1 -1 -1 -1
 MicOpt= -1 -1 -1 -1 -1 -1 -1 -1
 NAtoms=     28 NQM=       28 NQMF=       0 NMMI=      0 NMMIF=      0
                NMic=       0 NMicF=      0.
                    Isotopes and Nuclear Properties:
 (Nuclear quadrupole moments (NQMom) in fm**2, nuclear magnetic moments (NMagM)
  in nuclear magnetons)

  Atom         1           2           3           4           5           6           7           8           9          10
 IAtWgt=          12           1           1          12          12           1           1           1          12           1
 AtmWgt=  12.0000000   1.0078250   1.0078250  12.0000000  12.0000000   1.0078250   1.0078250   1.0078250  12.0000000   1.0078250
 NucSpn=           0           1           1           0           0           1           1           1           0           1
 AtZEff=  -0.0000000  -0.0000000  -0.0000000  -0.0000000  -0.0000000  -0.0000000  -0.0000000  -0.0000000  -0.0000000  -0.0000000
 NQMom=    0.0000000   0.0000000   0.0000000   0.0000000   0.0000000   0.0000000   0.0000000   0.0000000   0.0000000   0.0000000
 NMagM=    0.0000000   2.7928460   2.7928460   0.0000000   0.0000000   2.7928460   2.7928460   2.7928460   0.0000000   2.7928460
 AtZNuc=   6.0000000   1.0000000   1.0000000   6.0000000   6.0000000   1.0000000   1.0000000   1.0000000   6.0000000   1.0000000

  Atom        11          12          13          14          15          16          17          18          19          20
 IAtWgt=          12           1           1           1          12           1           1           1          12          12
 AtmWgt=  12.0000000   1.0078250   1.0078250   1.0078250  12.0000000   1.0078250   1.0078250   1.0078250  12.0000000  12.0000000
 NucSpn=           0           1           1           1           0           1           1           1           0           0
 AtZEff=  -0.0000000  -0.0000000  -0.0000000  -0.0000000  -0.0000000  -0.0000000  -0.0000000  -0.0000000  -0.0000000  -0.0000000
 NQMom=    0.0000000   0.0000000   0.0000000   0.0000000   0.0000000   0.0000000   0.0000000   0.0000000   0.0000000   0.0000000
 NMagM=    0.0000000   2.7928460   2.7928460   2.7928460   0.0000000   2.7928460   2.7928460   2.7928460   0.0000000   0.0000000
 AtZNuc=   6.0000000   1.0000000   1.0000000   1.0000000   6.0000000   1.0000000   1.0000000   1.0000000   6.0000000   6.0000000

  Atom        21          22          23          24          25          26          27          28
 IAtWgt=           1           1           1          12           1          12           1           1
 AtmWgt=   1.0078250   1.0078250   1.0078250  12.0000000   1.0078250  12.0000000   1.0078250   1.0078250
 NucSpn=           1           1           1           0           1           0           1           1
 AtZEff=  -0.0000000  -0.0000000  -0.0000000  -0.0000000  -0.0000000  -0.0000000  -0.0000000  -0.0000000
 NQMom=    0.0000000   0.0000000   0.0000000   0.0000000   0.0000000   0.0000000   0.0000000   0.0000000
 NMagM=    2.7928460   2.7928460   2.7928460   0.0000000   2.7928460   0.0000000   2.7928460   2.7928460
 AtZNuc=   1.0000000   1.0000000   1.0000000   6.0000000   1.0000000   6.0000000   1.0000000   1.0000000
 Leave Link  101 at Thu Sep 16 16:24:46 2021, MaxMem=   131072000 cpu:               0.2 elap:               0.2
 (Enter /opt/g16/l103.exe)

 GradGradGradGradGradGradGradGradGradGradGradGradGradGradGradGradGradGrad
 Berny optimization.
 Initialization pass.
                           ----------------------------
                           !    Initial Parameters    !
                           ! (Angstroms and Degrees)  !
 --------------------------                            --------------------------
 ! Name  Definition              Value          Derivative Info.                !
 --------------------------------------------------------------------------------
 ! R1    R(1,2)                  1.0955         estimate D2E/DX2                !
 ! R2    R(1,3)                  1.0983         estimate D2E/DX2                !
 ! R3    R(1,4)                  1.5175         estimate D2E/DX2                !
 ! R4    R(1,26)                 1.5358         estimate D2E/DX2                !
 ! R5    R(4,5)                  1.5082         estimate D2E/DX2                !
 ! R6    R(4,9)                  1.3482         estimate D2E/DX2                !
 ! R7    R(5,6)                  1.0949         estimate D2E/DX2                !
 ! R8    R(5,7)                  1.0943         estimate D2E/DX2                !
 ! R9    R(5,8)                  1.0952         estimate D2E/DX2                !
 ! R10   R(9,10)                 1.0897         estimate D2E/DX2                !
 ! R11   R(9,11)                 1.4962         estimate D2E/DX2                !
 ! R12   R(11,12)                1.0943         estimate D2E/DX2                !
 ! R13   R(11,13)                1.0916         estimate D2E/DX2                !
 ! R14   R(11,14)                1.0949         estimate D2E/DX2                !
 ! R15   R(15,16)                1.095          estimate D2E/DX2                !
 ! R16   R(15,17)                1.0949         estimate D2E/DX2                !
 ! R17   R(15,18)                1.0951         estimate D2E/DX2                !
 ! R18   R(15,19)                1.5064         estimate D2E/DX2                !
 ! R19   R(19,20)                1.5033         estimate D2E/DX2                !
 ! R20   R(19,24)                1.3474         estimate D2E/DX2                !
 ! R21   R(20,21)                1.0922         estimate D2E/DX2                !
 ! R22   R(20,22)                1.0955         estimate D2E/DX2                !
 ! R23   R(20,23)                1.0948         estimate D2E/DX2                !
 ! R24   R(24,25)                1.0904         estimate D2E/DX2                !
 ! R25   R(24,26)                1.506          estimate D2E/DX2                !
 ! R26   R(26,27)                1.0969         estimate D2E/DX2                !
 ! R27   R(26,28)                1.0948         estimate D2E/DX2                !
 ! A1    A(2,1,3)              104.6151         estimate D2E/DX2                !
 ! A2    A(2,1,4)              111.3671         estimate D2E/DX2                !
 ! A3    A(2,1,26)             109.4422         estimate D2E/DX2                !
 ! A4    A(3,1,4)              107.9983         estimate D2E/DX2                !
 ! A5    A(3,1,26)             108.3864         estimate D2E/DX2                !
 ! A6    A(4,1,26)             114.5079         estimate D2E/DX2                !
 ! A7    A(1,4,5)              115.0396         estimate D2E/DX2                !
 ! A8    A(1,4,9)              124.752          estimate D2E/DX2                !
 ! A9    A(5,4,9)              120.1889         estimate D2E/DX2                !
 ! A10   A(4,5,6)              110.3074         estimate D2E/DX2                !
 ! A11   A(4,5,7)              110.5911         estimate D2E/DX2                !
 ! A12   A(4,5,8)              112.2621         estimate D2E/DX2                !
 ! A13   A(6,5,7)              108.6022         estimate D2E/DX2                !
 ! A14   A(6,5,8)              107.4662         estimate D2E/DX2                !
 ! A15   A(7,5,8)              107.4698         estimate D2E/DX2                !
 ! A16   A(4,9,10)             118.4614         estimate D2E/DX2                !
 ! A17   A(4,9,11)             127.9175         estimate D2E/DX2                !
 ! A18   A(10,9,11)            113.6135         estimate D2E/DX2                !
 ! A19   A(9,11,12)            109.7338         estimate D2E/DX2                !
 ! A20   A(9,11,13)            113.8203         estimate D2E/DX2                !
 ! A21   A(9,11,14)            109.4225         estimate D2E/DX2                !
 ! A22   A(12,11,13)           108.2222         estimate D2E/DX2                !
 ! A23   A(12,11,14)           108.0966         estimate D2E/DX2                !
 ! A24   A(13,11,14)           107.3729         estimate D2E/DX2                !
 ! A25   A(16,15,17)           108.5771         estimate D2E/DX2                !
 ! A26   A(16,15,18)           107.6523         estimate D2E/DX2                !
 ! A27   A(16,15,19)           110.2078         estimate D2E/DX2                !
 ! A28   A(17,15,18)           107.6547         estimate D2E/DX2                !
 ! A29   A(17,15,19)           110.275          estimate D2E/DX2                !
 ! A30   A(18,15,19)           112.3477         estimate D2E/DX2                !
 ! A31   A(15,19,20)           114.3042         estimate D2E/DX2                !
 ! A32   A(15,19,24)           120.5333         estimate D2E/DX2                !
 ! A33   A(20,19,24)           125.1579         estimate D2E/DX2                !
 ! A34   A(19,20,21)           113.4307         estimate D2E/DX2                !
 ! A35   A(19,20,22)           110.0563         estimate D2E/DX2                !
 ! A36   A(19,20,23)           110.1015         estimate D2E/DX2                !
 ! A37   A(21,20,22)           106.7934         estimate D2E/DX2                !
 ! A38   A(21,20,23)           107.9593         estimate D2E/DX2                !
 ! A39   A(22,20,23)           108.322          estimate D2E/DX2                !
 ! A40   A(19,24,25)           118.3739         estimate D2E/DX2                !
 ! A41   A(19,24,26)           127.8995         estimate D2E/DX2                !
 ! A42   A(25,24,26)           113.7245         estimate D2E/DX2                !
 ! A43   A(1,26,24)            113.218          estimate D2E/DX2                !
 ! A44   A(1,26,27)            110.2989         estimate D2E/DX2                !
 ! A45   A(1,26,28)            108.7102         estimate D2E/DX2                !
 ! A46   A(24,26,27)           108.1885         estimate D2E/DX2                !
 ! A47   A(24,26,28)           111.0138         estimate D2E/DX2                !
 ! A48   A(27,26,28)           105.1046         estimate D2E/DX2                !
 ! D1    D(2,1,4,5)            158.4902         estimate D2E/DX2                !
 ! D2    D(2,1,4,9)            -19.9018         estimate D2E/DX2                !
 ! D3    D(3,1,4,5)             44.16           estimate D2E/DX2                !
 ! D4    D(3,1,4,9)           -134.2321         estimate D2E/DX2                !
 ! D5    D(26,1,4,5)           -76.6776         estimate D2E/DX2                !
 ! D6    D(26,1,4,9)           104.9303         estimate D2E/DX2                !
 ! D7    D(2,1,26,24)           59.4634         estimate D2E/DX2                !
 ! D8    D(2,1,26,27)         -179.1496         estimate D2E/DX2                !
 ! D9    D(2,1,26,28)          -64.4024         estimate D2E/DX2                !
 ! D10   D(3,1,26,24)          172.9982         estimate D2E/DX2                !
 ! D11   D(3,1,26,27)          -65.6148         estimate D2E/DX2                !
 ! D12   D(3,1,26,28)           49.1323         estimate D2E/DX2                !
 ! D13   D(4,1,26,24)          -66.3787         estimate D2E/DX2                !
 ! D14   D(4,1,26,27)           55.0083         estimate D2E/DX2                !
 ! D15   D(4,1,26,28)          169.7554         estimate D2E/DX2                !
 ! D16   D(1,4,5,6)            -57.2544         estimate D2E/DX2                !
 ! D17   D(1,4,5,7)             62.9032         estimate D2E/DX2                !
 ! D18   D(1,4,5,8)           -177.0758         estimate D2E/DX2                !
 ! D19   D(9,4,5,6)            121.2171         estimate D2E/DX2                !
 ! D20   D(9,4,5,7)           -118.6252         estimate D2E/DX2                !
 ! D21   D(9,4,5,8)              1.3957         estimate D2E/DX2                !
 ! D22   D(1,4,9,10)           178.6334         estimate D2E/DX2                !
 ! D23   D(1,4,9,11)            -2.4398         estimate D2E/DX2                !
 ! D24   D(5,4,9,10)             0.3189         estimate D2E/DX2                !
 ! D25   D(5,4,9,11)           179.2456         estimate D2E/DX2                !
 ! D26   D(4,9,11,12)          116.1225         estimate D2E/DX2                !
 ! D27   D(4,9,11,13)           -5.3113         estimate D2E/DX2                !
 ! D28   D(4,9,11,14)         -125.4273         estimate D2E/DX2                !
 ! D29   D(10,9,11,12)         -64.9072         estimate D2E/DX2                !
 ! D30   D(10,9,11,13)         173.6589         estimate D2E/DX2                !
 ! D31   D(10,9,11,14)          53.543          estimate D2E/DX2                !
 ! D32   D(16,15,19,20)        -59.6721         estimate D2E/DX2                !
 ! D33   D(16,15,19,24)        121.0673         estimate D2E/DX2                !
 ! D34   D(17,15,19,20)         60.1874         estimate D2E/DX2                !
 ! D35   D(17,15,19,24)       -119.0732         estimate D2E/DX2                !
 ! D36   D(18,15,19,20)       -179.7177         estimate D2E/DX2                !
 ! D37   D(18,15,19,24)          1.0217         estimate D2E/DX2                !
 ! D38   D(15,19,20,21)       -172.3475         estimate D2E/DX2                !
 ! D39   D(15,19,20,22)        -52.7809         estimate D2E/DX2                !
 ! D40   D(15,19,20,23)         66.5577         estimate D2E/DX2                !
 ! D41   D(24,19,20,21)          6.8735         estimate D2E/DX2                !
 ! D42   D(24,19,20,22)        126.44           estimate D2E/DX2                !
 ! D43   D(24,19,20,23)       -114.2213         estimate D2E/DX2                !
 ! D44   D(15,19,24,25)          0.5678         estimate D2E/DX2                !
 ! D45   D(15,19,24,26)       -178.8641         estimate D2E/DX2                !
 ! D46   D(20,19,24,25)       -178.6079         estimate D2E/DX2                !
 ! D47   D(20,19,24,26)          1.9602         estimate D2E/DX2                !
 ! D48   D(19,24,26,1)        -102.923          estimate D2E/DX2                !
 ! D49   D(19,24,26,27)        134.5098         estimate D2E/DX2                !
 ! D50   D(19,24,26,28)         19.6725         estimate D2E/DX2                !
 ! D51   D(25,24,26,1)          77.623          estimate D2E/DX2                !
 ! D52   D(25,24,26,27)        -44.9441         estimate D2E/DX2                !
 ! D53   D(25,24,26,28)       -159.7814         estimate D2E/DX2                !
 --------------------------------------------------------------------------------
 Trust Radius=3.00D-01 FncErr=1.00D-07 GrdErr=1.00D-07 EigMax=2.50D+02 EigMin=1.00D-04
 Number of steps in this run=    138 maximum allowed number of steps=    168.
 GradGradGradGradGradGradGradGradGradGradGradGradGradGradGradGradGradGrad

 Leave Link  103 at Thu Sep 16 16:24:46 2021, MaxMem=   131072000 cpu:               0.0 elap:               0.0
 (Enter /opt/g16/l202.exe)
                          Input orientation:                          
 ---------------------------------------------------------------------
 Center     Atomic      Atomic             Coordinates (Angstroms)
 Number     Number       Type             X           Y           Z
 ---------------------------------------------------------------------
      1          6           0       -0.950600    1.294100   -0.086800
      2          1           0       -0.999200    1.244200    1.006500
      3          1           0       -1.313700    2.300600   -0.334700
      4          6           0       -1.886700    0.286700   -0.728400
      5          6           0       -2.279900    0.596600   -2.151100
      6          1           0       -2.748200    1.584600   -2.209300
      7          1           0       -1.401600    0.587600   -2.803800
      8          1           0       -2.994700   -0.130100   -2.551700
      9          6           0       -2.385700   -0.801800   -0.108900
     10          1           0       -3.069000   -1.446200   -0.661400
     11          6           0       -2.103900   -1.278800    1.281000
     12          1           0       -3.021100   -1.243600    1.876800
     13          1           0       -1.337800   -0.699100    1.799200
     14          1           0       -1.760300   -2.317800    1.246700
     15          6           0        2.626000   -1.639000    1.188200
     16          1           0        3.718200   -1.604800    1.118200
     17          1           0        2.351200   -1.971100    2.194700
     18          1           0        2.271400   -2.395700    0.480400
     19          6           0        2.043900   -0.277600    0.910600
     20          6           0        2.507300    0.797500    1.853700
     21          1           0        1.979500    1.745000    1.725200
     22          1           0        2.345400    0.483100    2.890500
     23          1           0        3.576800    0.985200    1.714000
     24          6           0        1.172900   -0.099000   -0.101800
     25          1           0        0.895300   -0.963800   -0.705200
     26          6           0        0.512800    1.182000   -0.539100
     27          1           0        0.579200    1.245600   -1.632100
     28          1           0        1.062600    2.053300   -0.168700
 ---------------------------------------------------------------------
                    Distance matrix (angstroms):
                    1          2          3          4          5
     1  C    0.000000
     2  H    1.095517   0.000000
     3  H    1.098334   1.736004   0.000000
     4  C    1.517494   2.171253   2.130522   0.000000
     5  C    2.552426   3.468431   2.671417   1.508217   0.000000
     6  H    2.796563   3.676444   2.466692   2.149370   1.094914
     7  H    2.843349   3.887343   3.006418   2.152475   1.094308
     8  H    3.504629   4.304824   3.694476   2.173893   1.095222
     9  C    2.540236   2.711571   3.290145   1.348189   2.477357
    10  H    3.510987   3.782091   4.150460   2.098872   2.648569
    11  C    3.133814   2.767895   4.005872   2.556493   3.915024
    12  H    3.818719   3.321844   4.513015   3.227344   4.489955
    13  H    2.771239   2.125897   3.681346   2.768006   4.262776
    14  H    3.934420   3.650317   4.902030   3.271149   4.506524
    15  C    4.797996   4.635508   5.775890   5.267460   6.341663
    16  H    5.626130   5.512090   6.533229   6.196984   7.177164
    17  H    5.173843   4.793240   6.170638   5.621563   6.850266
    18  H    4.931290   4.921634   5.964274   5.093747   6.049213
    19  C    3.525915   3.403752   4.412637   4.295855   5.369681
    20  C    3.996151   3.634946   4.652789   5.122050   6.244683
    21  H    3.474499   3.104832   3.923907   4.805652   5.872564
    22  H    4.515047   3.913448   5.205212   5.571865   6.842807
    23  H    4.882177   4.637609   5.463006   6.025201   7.027869
    24  C    2.539725   2.783978   3.463452   3.146831   4.074962
    25  H    2.981254   3.375546   3.958947   3.050215   3.821959
    26  C    1.535800   2.163075   2.151545   2.568073   3.277257
    27  H    2.174993   3.074664   2.525736   2.795859   2.977417
    28  H    2.153153   2.507341   2.394894   3.483175   4.150204
                    6          7          8          9         10
     6  H    0.000000
     7  H    1.777856   0.000000
     8  H    1.765841   1.765394   0.000000
     9  C    3.199686   3.187691   2.605635   0.000000
    10  H    3.418283   3.392115   2.304533   1.089682   0.000000
    11  C    4.560304   4.545576   4.099101   1.496249   2.175398
    12  H    4.976887   5.280539   4.566420   2.131179   2.546723
    13  H    4.824167   4.779882   4.690353   2.179332   3.099962
    14  H    5.305526   4.997656   4.553857   2.127682   2.472494
    15  C    7.128578   6.092239   6.917796   5.244093   5.990928
    16  H    7.940961   6.811832   7.791401   6.277593   7.018420
    17  H    7.618537   6.753922   7.382157   5.395559   6.149097
    18  H    6.947925   5.759946   6.485243   4.957456   5.543025
    19  C    6.013800   5.139728   6.115290   4.575535   5.475268
    20  C    6.689378   6.084066   7.109149   5.509175   6.515753
    21  H    6.152818   5.769164   6.822796   5.376345   6.431716
    22  H    7.291503   6.817330   7.649198   5.747232   6.756768
    23  H    7.467074   6.734469   7.913577   6.485965   7.464643
    24  C    4.759316   3.794769   4.834446   3.627342   4.485735
    25  H    4.693799   3.476595   4.385968   3.338679   3.993783
    26  C    3.685889   3.024418   4.251438   3.538621   4.444287
    27  H    3.394064   2.393619   3.938398   3.911856   4.636530
    28  H    4.348094   3.894138   5.187254   4.477270   5.436853
                   11         12         13         14         15
    11  C    0.000000
    12  H    1.094291   0.000000
    13  H    1.091555   1.770876   0.000000
    14  H    1.094878   1.772159   1.761804   0.000000
    15  C    4.744503   5.702653   4.119277   4.438898   0.000000
    16  H    5.833492   6.791473   5.181427   5.526196   1.094975
    17  H    4.600222   5.430647   3.922133   4.233596   1.094919
    18  H    4.586031   5.593552   4.200477   4.104618   1.095133
    19  C    4.282971   5.246039   3.521813   4.329817   1.506424
    20  C    5.089418   5.893202   4.126448   5.318454   2.528540
    21  H    5.100474   5.827582   4.121114   5.542690   3.486802
    22  H    5.048866   5.727862   4.019265   5.234873   2.734935
    23  H    6.130541   6.966085   5.195904   6.293871   2.840231
    24  C    3.747197   4.776463   3.205860   3.917293   2.479355
    25  H    3.611013   4.699277   3.365831   3.563066   2.652580
    26  C    4.026837   4.920219   3.525749   4.539236   3.925203
    27  H    4.696570   5.609871   4.385267   5.143789   4.523759
    28  H    4.819880   5.632959   4.148525   5.392461   4.233022
                   16         17         18         19         20
    16  H    0.000000
    17  H    1.778122   0.000000
    18  H    1.767920   1.767902   0.000000
    19  C    2.146588   2.147391   2.173287   0.000000
    20  C    2.788958   2.793885   3.483982   1.503335   0.000000
    21  H    3.822654   3.764039   4.333605   2.181429   1.092173
    22  H    3.063487   2.550935   3.755203   2.142328   1.095451
    23  H    2.661404   3.236183   3.828358   2.142405   1.094796
    24  C    3.199123   3.188583   2.611607   1.347402   2.531465
    25  H    3.421174   3.397605   2.312928   2.097847   3.499813
    26  C    4.559330   4.560199   4.114850   2.564436   3.138688
    27  H    5.053934   5.303918   4.537098   3.306177   4.008636
    28  H    4.700002   4.841688   4.655763   2.749715   2.784653
                   21         22         23         24         25
    21  H    0.000000
    22  H    1.756189   0.000000
    23  H    1.768838   1.775557   0.000000
    24  C    2.718247   3.266107   3.201774   0.000000
    25  H    3.797358   4.138281   4.103848   1.090428   0.000000
    26  C    2.755945   3.950828   3.808318   1.505963   2.185944
    27  H    3.671744   4.914751   4.499978   2.121850   2.416715
    28  H    2.126643   3.670124   3.317619   2.156163   3.068992
                   26         27         28
    26  C    0.000000
    27  H    1.096860   0.000000
    28  H    1.094824   1.739998   0.000000
 Stoichiometry    C10H18
 Framework group  C1[X(C10H18)]
 Deg. of freedom    78
 Full point group                 C1      NOp   1
 Largest Abelian subgroup         C1      NOp   1
 Largest concise Abelian subgroup C1      NOp   1
                         Standard orientation:                         
 ---------------------------------------------------------------------
 Center     Atomic      Atomic             Coordinates (Angstroms)
 Number     Number       Type             X           Y           Z
 ---------------------------------------------------------------------
      1          6           0        1.027970   -0.895885    0.833077
      2          1           0        0.608908   -0.279863    1.636234
      3          1           0        1.543018   -1.715317    1.352302
      4          6           0        2.060564   -0.128025    0.028757
      5          6           0        3.038619   -0.983637   -0.736785
      6          1           0        3.567615   -1.658210   -0.055645
      7          1           0        2.517926   -1.584545   -1.488649
      8          1           0        3.793110   -0.385507   -1.258798
      9          6           0        2.162066    1.215837   -0.007907
     10          1           0        2.958609    1.660390   -0.603977
     11          6           0        1.284729    2.222946    0.666463
     12          1           0        1.866622    2.785798    1.402717
     13          1           0        0.422418    1.786797    1.174090
     14          1           0        0.903082    2.929643   -0.077636
     15          6           0       -2.981377    0.992227   -1.005655
     16          1           0       -3.936440    0.589217   -1.358371
     17          1           0       -3.182752    1.859825   -0.368811
     18          1           0       -2.426004    1.344687   -1.881240
     19          6           0       -2.226715   -0.058235   -0.233433
     20          6           0       -2.953007   -0.578514    0.975627
     21          1           0       -2.344053   -1.238252    1.597529
     22          1           0       -3.267696    0.255353    1.612533
     23          1           0       -3.845670   -1.133024    0.668627
     24          6           0       -0.999782   -0.449658   -0.629560
     25          1           0       -0.566722    0.018897   -1.513838
     26          6           0       -0.114197   -1.493485   -0.001793
     27          1           0        0.289776   -2.125849   -0.801808
     28          1           0       -0.694972   -2.171464    0.631993
 ---------------------------------------------------------------------
 Rotational constants (GHZ):           1.8849560           0.6991719           0.6021003
 Leave Link  202 at Thu Sep 16 16:24:46 2021, MaxMem=   131072000 cpu:               0.0 elap:               0.0
 (Enter /opt/g16/l301.exe)
 Standard basis: VSTO-6G (5D, 7F)
 Ernie: Thresh=  0.10000D-02 Tol=  0.10000D-05 Strict=F.
  NNHCO=     0 NNPyr=     0 NCTC=     0               EPep=         0.000000000
    EC=       253.569252156  ECS=         3.521396028   EG=         0.892420379
   EHC=         0.000000000  EAt=       -49.524085099  AtH=         4.217842293
 EPDDG=         0.000000000  ECC=       257.983068563 EAtT=        53.741927392
 There are    58 symmetry adapted cartesian basis functions of A   symmetry.
 There are    58 symmetry adapted basis functions of A   symmetry.
    58 basis functions,   348 primitive gaussians,    58 cartesian basis functions
    29 alpha electrons       29 beta electrons
       nuclear repulsion energy       311.7249959553 Hartrees.
 IExCor=    0 DFT=F Ex=HF Corr=None ExCW=0 ScaHFX=  1.000000
 ScaDFX=  1.000000  1.000000  1.000000  1.000000 ScalE2=  1.000000  1.000000
 IRadAn=      5 IRanWt=     -1 IRanGd=            0 ICorTp=0 IEmpDi=  4
 Integral buffers will be    131072 words long.
 Regular integral format.
 Two-electron integral symmetry is turned off.
 Leave Link  301 at Thu Sep 16 16:24:46 2021, MaxMem=   131072000 cpu:               0.0 elap:               0.1
 (Enter /opt/g16/l302.exe)
 Do NDO integrals.
 NPDir=0 NMtPBC=     1 NCelOv=     1 NCel=       1 NClECP=     1 NCelD=      1
         NCelK=      1 NCelE2=     1 NClLst=     1 CellRange=     0.0.
 One-electron integrals computed using PRISM.
 NBasis=    58 RedAO= F EigKep=  0.00D+00  NBF=    58
 NBsUse=    58 1.00D-04 EigRej=  0.00D+00 NBFU=    58
 Leave Link  302 at Thu Sep 16 16:24:46 2021, MaxMem=   131072000 cpu:               0.1 elap:               0.1
 (Enter /opt/g16/l303.exe)
 DipDrv:  MaxL=1.
 Leave Link  303 at Thu Sep 16 16:24:46 2021, MaxMem=   131072000 cpu:               0.0 elap:               0.0
 (Enter /opt/g16/l401.exe)
 Simple Huckel Guess.
 JPrj=0 DoOrth=F DoCkMO=F.
 Leave Link  401 at Thu Sep 16 16:24:46 2021, MaxMem=   131072000 cpu:               0.1 elap:               0.1
 (Enter /opt/g16/l502.exe)
 Keep J ints in memory in canonical form, NReq=866866.
 FoFCou: FMM=F IPFlag=           0 FMFlag=           0 FMFlg1=           0
         NFxFlg=           0 DoJE=F BraDBF=F KetDBF=F FulRan=T
         wScrn=  0.000000 ICntrl=       600 IOpCl=  2 I1Cent=           0 NGrid=           0
         NMat0=    1 NMatS0=    118 NMatT0=    0 NMatD0=    1 NMtDS0=    0 NMtDT0=    0
 Symmetry not used in FoFCou.
 Two-electron integral symmetry not used.
 Closed shell SCF:
 Using DIIS extrapolation, IDIIS=  1040.
 Overlap will be assumed to be unity.
 NGot=   131072000 LenX=   130997697 LenY=   130993892
 Requested convergence on RMS density matrix=1.00D-08 within 128 cycles.
 Requested convergence on MAX density matrix=1.00D-06.
 Requested convergence on             energy=1.00D-06.
 No special actions if energy rises.

 Cycle   1  Pass 1  IDiag  1:
 E= 0.217353091750113    
 DIIS: error= 2.74D-02 at cycle   1 NSaved=   1.
 NSaved= 1 IEnMin= 1 EnMin= 0.217353091750113     IErMin= 1 ErrMin= 2.74D-02
 ErrMax= 2.74D-02  0.00D+00 EMaxC= 1.00D-01 BMatC= 9.41D-02 BMatP= 9.41D-02
 IDIUse=3 WtCom= 7.26D-01 WtEn= 2.74D-01
 Coeff-Com:  0.100D+01
 Coeff-En:   0.100D+01
 Coeff:      0.100D+01
 GapD=    2.000 DampG=2.000 DampE=0.500 DampFc=1.0000 IDamp=-1.
 RMSDP=7.14D-03 MaxDP=8.49D-02              OVMax= 0.00D+00

 Cycle   2  Pass 1  IDiag  1:
 E=-0.156449931284897E-02 Delta-E=       -0.218917591063 Rises=F Damp=F
 DIIS: error= 7.99D-03 at cycle   2 NSaved=   2.
 NSaved= 2 IEnMin= 2 EnMin=-0.156449931284897E-02 IErMin= 2 ErrMin= 7.99D-03
 ErrMax= 7.99D-03  0.00D+00 EMaxC= 1.00D-01 BMatC= 6.06D-03 BMatP= 9.41D-02
 IDIUse=3 WtCom= 9.20D-01 WtEn= 7.99D-02
 Coeff-Com: -0.318D+00 0.132D+01
 Coeff-En:   0.000D+00 0.100D+01
 Coeff:     -0.293D+00 0.129D+01
 RMSDP=2.60D-03 MaxDP=2.87D-02 DE=-2.19D-01 OVMax= 0.00D+00

 Cycle   3  Pass 1  IDiag  3:
 E=-0.189518350191520E-01 Delta-E=       -0.017387335706 Rises=F Damp=F
 DIIS: error= 9.53D-04 at cycle   3 NSaved=   3.
 NSaved= 3 IEnMin= 3 EnMin=-0.189518350191520E-01 IErMin= 3 ErrMin= 9.53D-04
 ErrMax= 9.53D-04  0.00D+00 EMaxC= 1.00D-01 BMatC= 7.50D-05 BMatP= 6.06D-03
 IDIUse=3 WtCom= 9.90D-01 WtEn= 9.53D-03
 Coeff-Com:  0.110D+00-0.514D+00 0.140D+01
 Coeff-En:   0.000D+00 0.000D+00 0.100D+01
 Coeff:      0.109D+00-0.509D+00 0.140D+01
 Gap=     0.377 Goal=   None    Shift=    0.000
 RMSDP=4.35D-04 MaxDP=4.17D-03 DE=-1.74D-02 OVMax= 5.87D-03

 Cycle   4  Pass 1  IDiag  3:
 E=-0.192978651543854E-01 Delta-E=       -0.000346030135 Rises=F Damp=F
 DIIS: error= 1.52D-04 at cycle   4 NSaved=   4.
 NSaved= 4 IEnMin= 4 EnMin=-0.192978651543854E-01 IErMin= 4 ErrMin= 1.52D-04
 ErrMax= 1.52D-04  0.00D+00 EMaxC= 1.00D-01 BMatC= 3.32D-06 BMatP= 7.50D-05
 IDIUse=3 WtCom= 9.98D-01 WtEn= 1.52D-03
 Coeff-Com: -0.486D-01 0.232D+00-0.744D+00 0.156D+01
 Coeff-En:   0.000D+00 0.000D+00 0.000D+00 0.100D+01
 Coeff:     -0.485D-01 0.232D+00-0.743D+00 0.156D+01
 Gap=     0.377 Goal=   None    Shift=    0.000
 RMSDP=1.11D-04 MaxDP=1.14D-03 DE=-3.46D-04 OVMax= 8.29D-04

 Cycle   5  Pass 1  IDiag  3:
 E=-0.193167886787933E-01 Delta-E=       -0.000018923524 Rises=F Damp=F
 DIIS: error= 4.23D-05 at cycle   5 NSaved=   5.
 NSaved= 5 IEnMin= 5 EnMin=-0.193167886787933E-01 IErMin= 5 ErrMin= 4.23D-05
 ErrMax= 4.23D-05  0.00D+00 EMaxC= 1.00D-01 BMatC= 1.88D-07 BMatP= 3.32D-06
 IDIUse=1 WtCom= 1.00D+00 WtEn= 0.00D+00
 Coeff-Com:  0.134D-01-0.641D-01 0.214D+00-0.596D+00 0.143D+01
 Coeff:      0.134D-01-0.641D-01 0.214D+00-0.596D+00 0.143D+01
 Gap=     0.377 Goal=   None    Shift=    0.000
 RMSDP=2.75D-05 MaxDP=3.01D-04 DE=-1.89D-05 OVMax= 2.25D-04

 Cycle   6  Pass 1  IDiag  3:
 E=-0.193179539179482E-01 Delta-E=       -0.000001165239 Rises=F Damp=F
 DIIS: error= 1.55D-05 at cycle   6 NSaved=   6.
 NSaved= 6 IEnMin= 6 EnMin=-0.193179539179482E-01 IErMin= 6 ErrMin= 1.55D-05
 ErrMax= 1.55D-05  0.00D+00 EMaxC= 1.00D-01 BMatC= 1.62D-08 BMatP= 1.88D-07
 IDIUse=1 WtCom= 1.00D+00 WtEn= 0.00D+00
 Coeff-Com: -0.503D-02 0.240D-01-0.787D-01 0.226D+00-0.758D+00 0.159D+01
 Coeff:     -0.503D-02 0.240D-01-0.787D-01 0.226D+00-0.758D+00 0.159D+01
 Gap=     0.377 Goal=   None    Shift=    0.000
 RMSDP=9.42D-06 MaxDP=1.17D-04 DE=-1.17D-06 OVMax= 9.78D-05

 Cycle   7  Pass 1  IDiag  3:
 E=-0.193180658291681E-01 Delta-E=       -0.000000111911 Rises=F Damp=F
 DIIS: error= 4.25D-06 at cycle   7 NSaved=   7.
 NSaved= 7 IEnMin= 7 EnMin=-0.193180658291681E-01 IErMin= 7 ErrMin= 4.25D-06
 ErrMax= 4.25D-06  0.00D+00 EMaxC= 1.00D-01 BMatC= 1.09D-09 BMatP= 1.62D-08
 IDIUse=1 WtCom= 1.00D+00 WtEn= 0.00D+00
 Coeff-Com:  0.131D-02-0.619D-02 0.200D-01-0.594D-01 0.264D+00-0.803D+00
 Coeff-Com:  0.158D+01
 Coeff:      0.131D-02-0.619D-02 0.200D-01-0.594D-01 0.264D+00-0.803D+00
 Coeff:      0.158D+01
 Gap=     0.377 Goal=   None    Shift=    0.000
 RMSDP=2.52D-06 MaxDP=3.11D-05 DE=-1.12D-07 OVMax= 3.22D-05

 Cycle   8  Pass 1  IDiag  3:
 E=-0.193180731762936E-01 Delta-E=       -0.000000007347 Rises=F Damp=F
 DIIS: error= 1.07D-06 at cycle   8 NSaved=   8.
 NSaved= 8 IEnMin= 8 EnMin=-0.193180731762936E-01 IErMin= 8 ErrMin= 1.07D-06
 ErrMax= 1.07D-06  0.00D+00 EMaxC= 1.00D-01 BMatC= 4.64D-11 BMatP= 1.09D-09
 IDIUse=1 WtCom= 1.00D+00 WtEn= 0.00D+00
 Coeff-Com: -0.114D-03 0.531D-03-0.163D-02 0.533D-02-0.420D-01 0.175D+00
 Coeff-Com: -0.508D+00 0.137D+01
 Coeff:     -0.114D-03 0.531D-03-0.163D-02 0.533D-02-0.420D-01 0.175D+00
 Coeff:     -0.508D+00 0.137D+01
 Gap=     0.377 Goal=   None    Shift=    0.000
 RMSDP=4.61D-07 MaxDP=7.21D-06 DE=-7.35D-09 OVMax= 7.13D-06

 Cycle   9  Pass 1  IDiag  3:
 E=-0.193180734751763E-01 Delta-E=       -0.000000000299 Rises=F Damp=F
 DIIS: error= 2.35D-07 at cycle   9 NSaved=   9.
 NSaved= 9 IEnMin= 9 EnMin=-0.193180734751763E-01 IErMin= 9 ErrMin= 2.35D-07
 ErrMax= 2.35D-07  0.00D+00 EMaxC= 1.00D-01 BMatC= 4.54D-12 BMatP= 4.64D-11
 IDIUse=1 WtCom= 1.00D+00 WtEn= 0.00D+00
 Coeff-Com:  0.376D-04-0.171D-03 0.479D-03-0.153D-02 0.166D-01-0.766D-01
 Coeff-Com:  0.241D+00-0.851D+00 0.167D+01
 Coeff:      0.376D-04-0.171D-03 0.479D-03-0.153D-02 0.166D-01-0.766D-01
 Coeff:      0.241D+00-0.851D+00 0.167D+01
 Gap=     0.377 Goal=   None    Shift=    0.000
 RMSDP=1.64D-07 MaxDP=2.25D-06 DE=-2.99D-10 OVMax= 2.41D-06

 Cycle  10  Pass 1  IDiag  3:
 E=-0.193180735077476E-01 Delta-E=       -0.000000000033 Rises=F Damp=F
 DIIS: error= 5.41D-08 at cycle  10 NSaved=  10.
 NSaved=10 IEnMin=10 EnMin=-0.193180735077476E-01 IErMin=10 ErrMin= 5.41D-08
 ErrMax= 5.41D-08  0.00D+00 EMaxC= 1.00D-01 BMatC= 2.48D-13 BMatP= 4.54D-12
 IDIUse=1 WtCom= 1.00D+00 WtEn= 0.00D+00
 Coeff-Com: -0.357D-05 0.142D-04-0.206D-04 0.130D-03-0.419D-02 0.220D-01
 Coeff-Com: -0.736D-01 0.294D+00-0.778D+00 0.154D+01
 Coeff:     -0.357D-05 0.142D-04-0.206D-04 0.130D-03-0.419D-02 0.220D-01
 Coeff:     -0.736D-01 0.294D+00-0.778D+00 0.154D+01
 Gap=     0.377 Goal=   None    Shift=    0.000
 RMSDP=3.84D-08 MaxDP=4.92D-07 DE=-3.26D-11 OVMax= 4.60D-07

 Cycle  11  Pass 1  IDiag  3:
 E=-0.193180735086571E-01 Delta-E=       -0.000000000001 Rises=F Damp=F
 DIIS: error= 9.23D-09 at cycle  11 NSaved=  11.
 NSaved=11 IEnMin=11 EnMin=-0.193180735086571E-01 IErMin=11 ErrMin= 9.23D-09
 ErrMax= 9.23D-09  0.00D+00 EMaxC= 1.00D-01 BMatC= 8.12D-15 BMatP= 2.48D-13
 IDIUse=1 WtCom= 1.00D+00 WtEn= 0.00D+00
 Coeff-Com:  0.225D-06-0.183D-06-0.772D-05-0.108D-05 0.124D-02-0.690D-02
 Coeff-Com:  0.236D-01-0.976D-01 0.278D+00-0.666D+00 0.147D+01
 Coeff:      0.225D-06-0.183D-06-0.772D-05-0.108D-05 0.124D-02-0.690D-02
 Coeff:      0.236D-01-0.976D-01 0.278D+00-0.666D+00 0.147D+01
 Gap=     0.377 Goal=   None    Shift=    0.000
 RMSDP=5.77D-09 MaxDP=7.51D-08 DE=-9.09D-13 OVMax= 4.93D-08

 Cycle  12  Pass 2  IDiag  1:
 SCF Done:  E(RPM3) = -0.193180735087E-01 A.U. after   12 cycles
            NFock= 11  Conv=0.58D-08     -V/T= 0.9998
 KE=-7.900991182325D+01 PE=-5.058184508115D+02 EE= 2.730840486059D+02
 Leave Link  502 at Thu Sep 16 16:24:46 2021, MaxMem=   131072000 cpu:               0.1 elap:               0.0
 (Enter /opt/g16/l601.exe)
 Copying SCF densities to generalized density rwf, IOpCl= 0 IROHF=0.

 **********************************************************************

            Population analysis using the SCF density.

 **********************************************************************

 Orbital symmetries:
       Occupied  (A) (A) (A) (A) (A) (A) (A) (A) (A) (A) (A) (A)
                 (A) (A) (A) (A) (A) (A) (A) (A) (A) (A) (A) (A)
                 (A) (A) (A) (A) (A)
       Virtual   (A) (A) (A) (A) (A) (A) (A) (A) (A) (A) (A) (A)
                 (A) (A) (A) (A) (A) (A) (A) (A) (A) (A) (A) (A)
                 (A) (A) (A) (A) (A)
 The electronic state is 1-A.
 Alpha  occ. eigenvalues --   -1.45698  -1.34169  -1.17892  -1.10492  -1.01206
 Alpha  occ. eigenvalues --   -0.95185  -0.86795  -0.80237  -0.67416  -0.63356
 Alpha  occ. eigenvalues --   -0.60763  -0.58937  -0.56669  -0.56335  -0.55133
 Alpha  occ. eigenvalues --   -0.54047  -0.51168  -0.50073  -0.48885  -0.48531
 Alpha  occ. eigenvalues --   -0.48290  -0.47490  -0.47044  -0.46823  -0.45469
 Alpha  occ. eigenvalues --   -0.43202  -0.42295  -0.35316  -0.34096
 Alpha virt. eigenvalues --    0.03632   0.04329   0.12159   0.12201   0.13300
 Alpha virt. eigenvalues --    0.13551   0.14113   0.14421   0.14966   0.15276
 Alpha virt. eigenvalues --    0.15469   0.15812   0.15984   0.16187   0.16469
 Alpha virt. eigenvalues --    0.16564   0.16611   0.16787   0.16949   0.17108
 Alpha virt. eigenvalues --    0.17258   0.17341   0.17643   0.17975   0.18093
 Alpha virt. eigenvalues --    0.20965   0.21165   0.22512   0.22605
          Condensed to atoms (all electrons):
               1          2          3          4          5          6
     1  C    4.045870   0.000000   0.000000   0.000000   0.000000   0.000000
     2  H    0.000000   0.943884   0.000000   0.000000   0.000000   0.000000
     3  H    0.000000   0.000000   0.952433   0.000000   0.000000   0.000000
     4  C    0.000000   0.000000   0.000000   4.125164   0.000000   0.000000
     5  C    0.000000   0.000000   0.000000   0.000000   4.067590   0.000000
     6  H    0.000000   0.000000   0.000000   0.000000   0.000000   0.957017
     7  H    0.000000   0.000000   0.000000   0.000000   0.000000   0.000000
     8  H    0.000000   0.000000   0.000000   0.000000   0.000000   0.000000
     9  C    0.000000   0.000000   0.000000   0.000000   0.000000   0.000000
    10  H    0.000000   0.000000   0.000000   0.000000   0.000000   0.000000
    11  C    0.000000   0.000000   0.000000   0.000000   0.000000   0.000000
    12  H    0.000000   0.000000   0.000000   0.000000   0.000000   0.000000
    13  H    0.000000   0.000000   0.000000   0.000000   0.000000   0.000000
    14  H    0.000000   0.000000   0.000000   0.000000   0.000000   0.000000
    15  C    0.000000   0.000000   0.000000   0.000000   0.000000   0.000000
    16  H    0.000000   0.000000   0.000000   0.000000   0.000000   0.000000
    17  H    0.000000   0.000000   0.000000   0.000000   0.000000   0.000000
    18  H    0.000000   0.000000   0.000000   0.000000   0.000000   0.000000
    19  C    0.000000   0.000000   0.000000   0.000000   0.000000   0.000000
    20  C    0.000000   0.000000   0.000000   0.000000   0.000000   0.000000
    21  H    0.000000   0.000000   0.000000   0.000000   0.000000   0.000000
    22  H    0.000000   0.000000   0.000000   0.000000   0.000000   0.000000
    23  H    0.000000   0.000000   0.000000   0.000000   0.000000   0.000000
    24  C    0.000000   0.000000   0.000000   0.000000   0.000000   0.000000
    25  H    0.000000   0.000000   0.000000   0.000000   0.000000   0.000000
    26  C    0.000000   0.000000   0.000000   0.000000   0.000000   0.000000
    27  H    0.000000   0.000000   0.000000   0.000000   0.000000   0.000000
    28  H    0.000000   0.000000   0.000000   0.000000   0.000000   0.000000
               7          8          9         10         11         12
     1  C    0.000000   0.000000   0.000000   0.000000   0.000000   0.000000
     2  H    0.000000   0.000000   0.000000   0.000000   0.000000   0.000000
     3  H    0.000000   0.000000   0.000000   0.000000   0.000000   0.000000
     4  C    0.000000   0.000000   0.000000   0.000000   0.000000   0.000000
     5  C    0.000000   0.000000   0.000000   0.000000   0.000000   0.000000
     6  H    0.000000   0.000000   0.000000   0.000000   0.000000   0.000000
     7  H    0.954544   0.000000   0.000000   0.000000   0.000000   0.000000
     8  H    0.000000   0.960143   0.000000   0.000000   0.000000   0.000000
     9  C    0.000000   0.000000   4.148402   0.000000   0.000000   0.000000
    10  H    0.000000   0.000000   0.000000   0.907594   0.000000   0.000000
    11  C    0.000000   0.000000   0.000000   0.000000   4.069957   0.000000
    12  H    0.000000   0.000000   0.000000   0.000000   0.000000   0.957337
    13  H    0.000000   0.000000   0.000000   0.000000   0.000000   0.000000
    14  H    0.000000   0.000000   0.000000   0.000000   0.000000   0.000000
    15  C    0.000000   0.000000   0.000000   0.000000   0.000000   0.000000
    16  H    0.000000   0.000000   0.000000   0.000000   0.000000   0.000000
    17  H    0.000000   0.000000   0.000000   0.000000   0.000000   0.000000
    18  H    0.000000   0.000000   0.000000   0.000000   0.000000   0.000000
    19  C    0.000000   0.000000   0.000000   0.000000   0.000000   0.000000
    20  C    0.000000   0.000000   0.000000   0.000000   0.000000   0.000000
    21  H    0.000000   0.000000   0.000000   0.000000   0.000000   0.000000
    22  H    0.000000   0.000000   0.000000   0.000000   0.000000   0.000000
    23  H    0.000000   0.000000   0.000000   0.000000   0.000000   0.000000
    24  C    0.000000   0.000000   0.000000   0.000000   0.000000   0.000000
    25  H    0.000000   0.000000   0.000000   0.000000   0.000000   0.000000
    26  C    0.000000   0.000000   0.000000   0.000000   0.000000   0.000000
    27  H    0.000000   0.000000   0.000000   0.000000   0.000000   0.000000
    28  H    0.000000   0.000000   0.000000   0.000000   0.000000   0.000000
              13         14         15         16         17         18
     1  C    0.000000   0.000000   0.000000   0.000000   0.000000   0.000000
     2  H    0.000000   0.000000   0.000000   0.000000   0.000000   0.000000
     3  H    0.000000   0.000000   0.000000   0.000000   0.000000   0.000000
     4  C    0.000000   0.000000   0.000000   0.000000   0.000000   0.000000
     5  C    0.000000   0.000000   0.000000   0.000000   0.000000   0.000000
     6  H    0.000000   0.000000   0.000000   0.000000   0.000000   0.000000
     7  H    0.000000   0.000000   0.000000   0.000000   0.000000   0.000000
     8  H    0.000000   0.000000   0.000000   0.000000   0.000000   0.000000
     9  C    0.000000   0.000000   0.000000   0.000000   0.000000   0.000000
    10  H    0.000000   0.000000   0.000000   0.000000   0.000000   0.000000
    11  C    0.000000   0.000000   0.000000   0.000000   0.000000   0.000000
    12  H    0.000000   0.000000   0.000000   0.000000   0.000000   0.000000
    13  H    0.952098   0.000000   0.000000   0.000000   0.000000   0.000000
    14  H    0.000000   0.957845   0.000000   0.000000   0.000000   0.000000
    15  C    0.000000   0.000000   4.067771   0.000000   0.000000   0.000000
    16  H    0.000000   0.000000   0.000000   0.956611   0.000000   0.000000
    17  H    0.000000   0.000000   0.000000   0.000000   0.956547   0.000000
    18  H    0.000000   0.000000   0.000000   0.000000   0.000000   0.958573
    19  C    0.000000   0.000000   0.000000   0.000000   0.000000   0.000000
    20  C    0.000000   0.000000   0.000000   0.000000   0.000000   0.000000
    21  H    0.000000   0.000000   0.000000   0.000000   0.000000   0.000000
    22  H    0.000000   0.000000   0.000000   0.000000   0.000000   0.000000
    23  H    0.000000   0.000000   0.000000   0.000000   0.000000   0.000000
    24  C    0.000000   0.000000   0.000000   0.000000   0.000000   0.000000
    25  H    0.000000   0.000000   0.000000   0.000000   0.000000   0.000000
    26  C    0.000000   0.000000   0.000000   0.000000   0.000000   0.000000
    27  H    0.000000   0.000000   0.000000   0.000000   0.000000   0.000000
    28  H    0.000000   0.000000   0.000000   0.000000   0.000000   0.000000
              19         20         21         22         23         24
     1  C    0.000000   0.000000   0.000000   0.000000   0.000000   0.000000
     2  H    0.000000   0.000000   0.000000   0.000000   0.000000   0.000000
     3  H    0.000000   0.000000   0.000000   0.000000   0.000000   0.000000
     4  C    0.000000   0.000000   0.000000   0.000000   0.000000   0.000000
     5  C    0.000000   0.000000   0.000000   0.000000   0.000000   0.000000
     6  H    0.000000   0.000000   0.000000   0.000000   0.000000   0.000000
     7  H    0.000000   0.000000   0.000000   0.000000   0.000000   0.000000
     8  H    0.000000   0.000000   0.000000   0.000000   0.000000   0.000000
     9  C    0.000000   0.000000   0.000000   0.000000   0.000000   0.000000
    10  H    0.000000   0.000000   0.000000   0.000000   0.000000   0.000000
    11  C    0.000000   0.000000   0.000000   0.000000   0.000000   0.000000
    12  H    0.000000   0.000000   0.000000   0.000000   0.000000   0.000000
    13  H    0.000000   0.000000   0.000000   0.000000   0.000000   0.000000
    14  H    0.000000   0.000000   0.000000   0.000000   0.000000   0.000000
    15  C    0.000000   0.000000   0.000000   0.000000   0.000000   0.000000
    16  H    0.000000   0.000000   0.000000   0.000000   0.000000   0.000000
    17  H    0.000000   0.000000   0.000000   0.000000   0.000000   0.000000
    18  H    0.000000   0.000000   0.000000   0.000000   0.000000   0.000000
    19  C    4.124291   0.000000   0.000000   0.000000   0.000000   0.000000
    20  C    0.000000   4.066335   0.000000   0.000000   0.000000   0.000000
    21  H    0.000000   0.000000   0.955974   0.000000   0.000000   0.000000
    22  H    0.000000   0.000000   0.000000   0.956958   0.000000   0.000000
    23  H    0.000000   0.000000   0.000000   0.000000   0.955455   0.000000
    24  C    0.000000   0.000000   0.000000   0.000000   0.000000   4.152504
    25  H    0.000000   0.000000   0.000000   0.000000   0.000000   0.000000
    26  C    0.000000   0.000000   0.000000   0.000000   0.000000   0.000000
    27  H    0.000000   0.000000   0.000000   0.000000   0.000000   0.000000
    28  H    0.000000   0.000000   0.000000   0.000000   0.000000   0.000000
              25         26         27         28
     1  C    0.000000   0.000000   0.000000   0.000000
     2  H    0.000000   0.000000   0.000000   0.000000
     3  H    0.000000   0.000000   0.000000   0.000000
     4  C    0.000000   0.000000   0.000000   0.000000
     5  C    0.000000   0.000000   0.000000   0.000000
     6  H    0.000000   0.000000   0.000000   0.000000
     7  H    0.000000   0.000000   0.000000   0.000000
     8  H    0.000000   0.000000   0.000000   0.000000
     9  C    0.000000   0.000000   0.000000   0.000000
    10  H    0.000000   0.000000   0.000000   0.000000
    11  C    0.000000   0.000000   0.000000   0.000000
    12  H    0.000000   0.000000   0.000000   0.000000
    13  H    0.000000   0.000000   0.000000   0.000000
    14  H    0.000000   0.000000   0.000000   0.000000
    15  C    0.000000   0.000000   0.000000   0.000000
    16  H    0.000000   0.000000   0.000000   0.000000
    17  H    0.000000   0.000000   0.000000   0.000000
    18  H    0.000000   0.000000   0.000000   0.000000
    19  C    0.000000   0.000000   0.000000   0.000000
    20  C    0.000000   0.000000   0.000000   0.000000
    21  H    0.000000   0.000000   0.000000   0.000000
    22  H    0.000000   0.000000   0.000000   0.000000
    23  H    0.000000   0.000000   0.000000   0.000000
    24  C    0.000000   0.000000   0.000000   0.000000
    25  H    0.901109   0.000000   0.000000   0.000000
    26  C    0.000000   4.049438   0.000000   0.000000
    27  H    0.000000   0.000000   0.948114   0.000000
    28  H    0.000000   0.000000   0.000000   0.950441
 Mulliken charges:
               1
     1  C   -0.045870
     2  H    0.056116
     3  H    0.047567
     4  C   -0.125164
     5  C   -0.067590
     6  H    0.042983
     7  H    0.045456
     8  H    0.039857
     9  C   -0.148402
    10  H    0.092406
    11  C   -0.069957
    12  H    0.042663
    13  H    0.047902
    14  H    0.042155
    15  C   -0.067771
    16  H    0.043389
    17  H    0.043453
    18  H    0.041427
    19  C   -0.124291
    20  C   -0.066335
    21  H    0.044026
    22  H    0.043042
    23  H    0.044545
    24  C   -0.152504
    25  H    0.098891
    26  C   -0.049438
    27  H    0.051886
    28  H    0.049559
 Sum of Mulliken charges =   0.00000
 Mulliken charges with hydrogens summed into heavy atoms:
               1
     1  C    0.057813
     4  C   -0.125164
     5  C    0.060706
     9  C   -0.055996
    11  C    0.062763
    15  C    0.060499
    19  C   -0.124291
    20  C    0.065279
    24  C   -0.053614
    26  C    0.052007
 Charge=              0.0000 electrons
 Dipole moment (field-independent basis, Debye):
    X=             -0.2284    Y=             -0.0353    Z=              0.1371  Tot=              0.2688
 N-N= 3.117249959553D+02 E-N=-5.058184510400D+02  KE=-7.900991182325D+01
 Leave Link  601 at Thu Sep 16 16:24:46 2021, MaxMem=   131072000 cpu:               0.0 elap:               0.0
 (Enter /opt/g16/l701.exe)
 ... and contract with generalized density number  0.
 Compute integral first derivatives.
 Leave Link  701 at Thu Sep 16 16:24:46 2021, MaxMem=   131072000 cpu:               0.1 elap:               0.1
 (Enter /opt/g16/l702.exe)
 L702 exits ... SP integral derivatives will be done elsewhere.
 Leave Link  702 at Thu Sep 16 16:24:46 2021, MaxMem=   131072000 cpu:               0.0 elap:               0.0
 (Enter /opt/g16/l703.exe)
 Integral derivatives from FoFJK, PRISM(SPDF).
 Compute integral first derivatives, UseDBF=F ICtDFT=           0.
 Calling FoFJK, ICntrl=      2127 FMM=F ISym2X=0 I1Cent= 0 IOpClX= 0 NMat=1 NMatS=1 NMatT=0.
 FoFJK:  IHMeth= 9 ICntrl=    2127 DoSepK=F KAlg= 0 I1Cent=           0 FoldK=F
 IRaf=         0 NMat=       1 IRICut=       1 DoRegI=T DoRafI=F ISym2E= 0 IDoP0=3 IntGTp=3.
 FoFCou: FMM=F IPFlag=           0 FMFlag=      100000 FMFlg1=         800
         NFxFlg=           0 DoJE=F BraDBF=F KetDBF=F FulRan=T
         wScrn=  0.000000 ICntrl=      2127 IOpCl=  0 I1Cent=           0 NGrid=           0
         NMat0=    1 NMatS0=      1 NMatT0=    0 NMatD0=    1 NMtDS0=    0 NMtDT0=    0
 Symmetry not used in FoFCou.
 Leave Link  703 at Thu Sep 16 16:24:46 2021, MaxMem=   131072000 cpu:               0.0 elap:               0.0
 (Enter /opt/g16/l716.exe)
 Dipole        =-8.98763047D-02-1.38893256D-02 5.39521318D-02
 ***** Axes restored to original set *****
 -------------------------------------------------------------------
 Center     Atomic                   Forces (Hartrees/Bohr)
 Number     Number              X              Y              Z
 -------------------------------------------------------------------
      1        6          -0.000854836   -0.014603005   -0.011633436
      2        1          -0.000605480   -0.004831633    0.008560594
      3        1          -0.002793578    0.006303931   -0.003106514
      4        6           0.004082949    0.001003449    0.003711722
      5        6           0.002682230   -0.004354554    0.015711158
      6        1          -0.000017787    0.002070921   -0.000651929
      7        1           0.002239122    0.000979241   -0.001107126
      8        1          -0.001216588   -0.001433813   -0.000648137
      9        6           0.011000686    0.009141463    0.005116091
     10        1          -0.004012469   -0.002871027   -0.002951037
     11        6          -0.002387100    0.006661471   -0.016390833
     12        1          -0.001684510    0.000044004    0.001649453
     13        1           0.002781037    0.004043039    0.001025164
     14        1           0.000489990   -0.002280045    0.000418527
     15        6          -0.006227873    0.013321291   -0.004228483
     16        1           0.001738382   -0.000095019    0.000816250
     17        1           0.000381348   -0.000505905    0.001861030
     18        1          -0.000591827   -0.001287098   -0.001161607
     19        6          -0.003100882    0.004007403    0.000446442
     20        6          -0.005026877   -0.011861188   -0.009710169
     21        1          -0.002535450    0.003124281   -0.003253937
     22        1           0.000719004   -0.001113514    0.001998721
     23        1           0.001940040    0.000262439    0.000160343
     24        6           0.002863979    0.009849585    0.007557293
     25        1          -0.001893713   -0.004226814   -0.002523961
     26        6          -0.002469337   -0.016931223    0.010601471
     27        1          -0.000551505   -0.000847532   -0.007863718
     28        1           0.005051042    0.006429853    0.005596627
 -------------------------------------------------------------------
 Cartesian Forces:  Max     0.016931223 RMS     0.005738926
 Leave Link  716 at Thu Sep 16 16:24:46 2021, MaxMem=   131072000 cpu:               0.0 elap:               0.0
 (Enter /opt/g16/l103.exe)

 GradGradGradGradGradGradGradGradGradGradGradGradGradGradGradGradGradGrad
 Berny optimization.
 FormGI is forming the generalized inverse of G from B-inverse, IUseBI=4.
 Internal  Forces:  Max     0.019730303 RMS     0.005143862
 Search for a local minimum.
 Step number   1 out of a maximum of  138
 All quantities printed in internal units (Hartrees-Bohrs-Radians)
 RMS Force = .51439D-02 SwitMx=.10000D-02 MixMth= 1
 Mixed Optimization -- RFO/linear search
 Second derivative matrix not updated -- first step.
 ITU=  0
     Eigenvalues ---    0.00292   0.00535   0.00657   0.00681   0.00687
     Eigenvalues ---    0.00722   0.00816   0.01200   0.01290   0.01566
     Eigenvalues ---    0.01639   0.02774   0.02785   0.03744   0.03947
     Eigenvalues ---    0.05331   0.05348   0.06982   0.07002   0.07079
     Eigenvalues ---    0.07092   0.07245   0.07302   0.07351   0.07509
     Eigenvalues ---    0.09521   0.09666   0.12946   0.13079   0.15999
     Eigenvalues ---    0.16000   0.16000   0.16000   0.16000   0.16000
     Eigenvalues ---    0.16000   0.16000   0.16000   0.16000   0.16000
     Eigenvalues ---    0.16000   0.16000   0.16000   0.21889   0.21905
     Eigenvalues ---    0.22000   0.22000   0.24989   0.24994   0.24997
     Eigenvalues ---    0.24999   0.28894   0.30609   0.31530   0.31713
     Eigenvalues ---    0.31760   0.32030   0.32774   0.33867   0.34032
     Eigenvalues ---    0.34183   0.34190   0.34216   0.34226   0.34244
     Eigenvalues ---    0.34250   0.34251   0.34255   0.34261   0.34264
     Eigenvalues ---    0.34320   0.34321   0.34563   0.34634   0.34763
     Eigenvalues ---    0.34849   0.55408   0.55578
 RFO step:  Lambda=-1.08384992D-02 EMin= 2.92383795D-03
 Linear search not attempted -- first point.
 Iteration  1 RMS(Cart)=  0.09678829 RMS(Int)=  0.00138169
 Iteration  2 RMS(Cart)=  0.00304368 RMS(Int)=  0.00010930
 Iteration  3 RMS(Cart)=  0.00000437 RMS(Int)=  0.00010928
 Iteration  4 RMS(Cart)=  0.00000000 RMS(Int)=  0.00010928
 ITry= 1 IFail=0 DXMaxC= 3.19D-01 DCOld= 1.00D+10 DXMaxT= 3.00D-01 DXLimC= 3.00D+00 Rises=F
 Variable       Old X    -DE/DX   Delta X   Delta X   Delta X     New X
                                 (Linear)    (Quad)   (Total)
    R1        2.07023   0.00879   0.00000   0.02492   0.02492   2.09515
    R2        2.07555   0.00740   0.00000   0.02118   0.02118   2.09673
    R3        2.86765  -0.01973   0.00000  -0.06225  -0.06225   2.80539
    R4        2.90224  -0.00934   0.00000  -0.03117  -0.03117   2.87108
    R5        2.85012  -0.01407   0.00000  -0.04315  -0.04315   2.80697
    R6        2.54771  -0.01931   0.00000  -0.03417  -0.03417   2.51353
    R7        2.06909   0.00191   0.00000   0.00541   0.00541   2.07450
    R8        2.06794   0.00245   0.00000   0.00692   0.00692   2.07486
    R9        2.06967   0.00198   0.00000   0.00562   0.00562   2.07529
   R10        2.05920   0.00571   0.00000   0.01589   0.01589   2.07509
   R11        2.82750  -0.01520   0.00000  -0.04490  -0.04490   2.78260
   R12        2.06791   0.00231   0.00000   0.00653   0.00653   2.07444
   R13        2.06274   0.00459   0.00000   0.01284   0.01284   2.07558
   R14        2.06902   0.00230   0.00000   0.00652   0.00652   2.07554
   R15        2.06920   0.00168   0.00000   0.00475   0.00475   2.07396
   R16        2.06910   0.00177   0.00000   0.00501   0.00501   2.07410
   R17        2.06950   0.00183   0.00000   0.00519   0.00519   2.07469
   R18        2.84673  -0.01265   0.00000  -0.03857  -0.03857   2.80816
   R19        2.84089  -0.01515   0.00000  -0.04574  -0.04574   2.79515
   R20        2.54622  -0.01881   0.00000  -0.03320  -0.03320   2.51302
   R21        2.06391   0.00432   0.00000   0.01211   0.01211   2.07602
   R22        2.07010   0.00211   0.00000   0.00597   0.00597   2.07607
   R23        2.06886   0.00192   0.00000   0.00543   0.00543   2.07430
   R24        2.06061   0.00523   0.00000   0.01459   0.01459   2.07520
   R25        2.84586  -0.01724   0.00000  -0.05249  -0.05249   2.79337
   R26        2.07277   0.00775   0.00000   0.02208   0.02208   2.09485
   R27        2.06892   0.00955   0.00000   0.02701   0.02701   2.09593
    A1        1.82588   0.00083   0.00000   0.02817   0.02807   1.85395
    A2        1.94372  -0.00014   0.00000  -0.01809  -0.01845   1.92528
    A3        1.91013   0.00220   0.00000   0.00441   0.00364   1.91377
    A4        1.88493   0.00159   0.00000   0.00858   0.00882   1.89375
    A5        1.89170   0.00182   0.00000   0.01513   0.01512   1.90682
    A6        1.99854  -0.00566   0.00000  -0.03159  -0.03188   1.96666
    A7        2.00782   0.00238   0.00000   0.00920   0.00919   2.01701
    A8        2.17733  -0.00589   0.00000  -0.02250  -0.02252   2.15482
    A9        2.09769   0.00351   0.00000   0.01354   0.01353   2.11122
   A10        1.92523   0.00054   0.00000   0.00256   0.00255   1.92777
   A11        1.93018  -0.00059   0.00000  -0.00487  -0.00487   1.92531
   A12        1.95934   0.00012   0.00000   0.00274   0.00273   1.96208
   A13        1.89547  -0.00080   0.00000  -0.00873  -0.00874   1.88673
   A14        1.87564   0.00022   0.00000   0.00402   0.00401   1.87965
   A15        1.87570   0.00050   0.00000   0.00412   0.00412   1.87982
   A16        2.06754   0.00508   0.00000   0.02161   0.02157   2.08911
   A17        2.23258  -0.01082   0.00000  -0.04681  -0.04686   2.18572
   A18        1.98293   0.00575   0.00000   0.02548   0.02543   2.00836
   A19        1.91522   0.00089   0.00000   0.00451   0.00446   1.91967
   A20        1.98654  -0.00304   0.00000  -0.01922  -0.01922   1.96732
   A21        1.90978   0.00132   0.00000   0.00981   0.00981   1.91959
   A22        1.88883   0.00033   0.00000  -0.00181  -0.00185   1.88698
   A23        1.88664  -0.00046   0.00000   0.00027   0.00021   1.88686
   A24        1.87401   0.00104   0.00000   0.00716   0.00721   1.88122
   A25        1.89503  -0.00094   0.00000  -0.00854  -0.00854   1.88649
   A26        1.87889   0.00010   0.00000   0.00221   0.00220   1.88109
   A27        1.92349   0.00030   0.00000   0.00105   0.00105   1.92453
   A28        1.87893   0.00006   0.00000   0.00169   0.00168   1.88061
   A29        1.92466   0.00029   0.00000   0.00086   0.00086   1.92552
   A30        1.96084   0.00014   0.00000   0.00235   0.00235   1.96318
   A31        1.99498   0.00310   0.00000   0.01193   0.01190   2.00688
   A32        2.10370   0.00288   0.00000   0.01108   0.01105   2.11475
   A33        2.18442  -0.00597   0.00000  -0.02284  -0.02287   2.16155
   A34        1.97974  -0.00365   0.00000  -0.02173  -0.02174   1.95800
   A35        1.92085   0.00078   0.00000   0.00667   0.00669   1.92753
   A36        1.92163   0.00066   0.00000   0.00208   0.00204   1.92367
   A37        1.86390   0.00211   0.00000   0.01557   0.01562   1.87952
   A38        1.88424   0.00081   0.00000   0.00096   0.00089   1.88514
   A39        1.89057  -0.00059   0.00000  -0.00273  -0.00274   1.88783
   A40        2.06601   0.00601   0.00000   0.02622   0.02618   2.09219
   A41        2.23227  -0.01186   0.00000  -0.05137  -0.05141   2.18086
   A42        1.98487   0.00586   0.00000   0.02528   0.02525   2.01011
   A43        1.97603  -0.00475   0.00000  -0.02595  -0.02608   1.94995
   A44        1.92508   0.00057   0.00000   0.00144   0.00139   1.92647
   A45        1.89735   0.00188   0.00000   0.00705   0.00680   1.90415
   A46        1.88825   0.00186   0.00000   0.00771   0.00768   1.89592
   A47        1.93756   0.00023   0.00000  -0.00793  -0.00802   1.92954
   A48        1.83442   0.00060   0.00000   0.02117   0.02112   1.85555
    D1        2.76618   0.00151   0.00000   0.03889   0.03855   2.80473
    D2       -0.34735   0.00121   0.00000   0.02855   0.02831  -0.31904
    D3        0.77074  -0.00033   0.00000   0.00981   0.00982   0.78055
    D4       -2.34279  -0.00062   0.00000  -0.00053  -0.00043  -2.34322
    D5       -1.33828  -0.00012   0.00000   0.00481   0.00501  -1.33327
    D6        1.83138  -0.00042   0.00000  -0.00552  -0.00524   1.82614
    D7        1.03783  -0.00243   0.00000  -0.04408  -0.04415   0.99369
    D8       -3.12675  -0.00291   0.00000  -0.05112  -0.05116   3.10527
    D9       -1.12403  -0.00083   0.00000  -0.02103  -0.02105  -1.14509
   D10        3.01939   0.00064   0.00000  -0.00056  -0.00047   3.01892
   D11       -1.14519   0.00016   0.00000  -0.00759  -0.00749  -1.15268
   D12        0.85752   0.00225   0.00000   0.02249   0.02262   0.88014
   D13       -1.15853   0.00028   0.00000   0.00070   0.00061  -1.15792
   D14        0.96008  -0.00020   0.00000  -0.00634  -0.00641   0.95367
   D15        2.96279   0.00189   0.00000   0.02374   0.02371   2.98650
   D16       -0.99928   0.00045   0.00000  -0.00172  -0.00179  -1.00107
   D17        1.09787  -0.00058   0.00000  -0.01410  -0.01417   1.08370
   D18       -3.09056  -0.00027   0.00000  -0.01038  -0.01046  -3.10102
   D19        2.11564   0.00057   0.00000   0.00748   0.00755   2.12319
   D20       -2.07040  -0.00046   0.00000  -0.00490  -0.00483  -2.07523
   D21        0.02436  -0.00015   0.00000  -0.00119  -0.00112   0.02324
   D22        3.11774   0.00022   0.00000   0.00434   0.00430   3.12204
   D23       -0.04258   0.00075   0.00000   0.02416   0.02413  -0.01845
   D24        0.00557  -0.00006   0.00000  -0.00639  -0.00637  -0.00080
   D25        3.12843   0.00046   0.00000   0.01343   0.01346  -3.14130
   D26        2.02672  -0.00070   0.00000  -0.00913  -0.00913   2.01759
   D27       -0.09270   0.00031   0.00000   0.00316   0.00313  -0.08957
   D28       -2.18912   0.00005   0.00000  -0.00025  -0.00021  -2.18933
   D29       -1.13285  -0.00019   0.00000   0.00990   0.00989  -1.12295
   D30        3.03092   0.00082   0.00000   0.02219   0.02216   3.05308
   D31        0.93450   0.00057   0.00000   0.01878   0.01882   0.95332
   D32       -1.04147   0.00058   0.00000   0.01337   0.01348  -1.02800
   D33        2.11302   0.00028   0.00000  -0.00107  -0.00117   2.11185
   D34        1.05047  -0.00021   0.00000   0.00399   0.00409   1.05456
   D35       -2.07822  -0.00051   0.00000  -0.01045  -0.01056  -2.08877
   D36       -3.13667   0.00015   0.00000   0.00829   0.00839  -3.12827
   D37        0.01783  -0.00015   0.00000  -0.00615  -0.00625   0.01158
   D38       -3.00803  -0.00096   0.00000  -0.02420  -0.02409  -3.03212
   D39       -0.92120  -0.00015   0.00000  -0.01408  -0.01404  -0.93524
   D40        1.16165   0.00003   0.00000  -0.01199  -0.01195   1.14971
   D41        0.11997  -0.00057   0.00000  -0.00869  -0.00870   0.11126
   D42        2.20679   0.00025   0.00000   0.00144   0.00135   2.20815
   D43       -1.99354   0.00042   0.00000   0.00353   0.00344  -1.99009
   D44        0.00991  -0.00006   0.00000   0.00419   0.00415   0.01406
   D45       -3.12177  -0.00049   0.00000  -0.01269  -0.01276  -3.13453
   D46       -3.11730  -0.00047   0.00000  -0.01221  -0.01213  -3.12943
   D47        0.03421  -0.00091   0.00000  -0.02909  -0.02905   0.00516
   D48       -1.79635  -0.00025   0.00000  -0.01111  -0.01122  -1.80756
   D49        2.34764   0.00084   0.00000  -0.00125  -0.00127   2.34637
   D50        0.34335  -0.00108   0.00000  -0.02681  -0.02672   0.31663
   D51        1.35478  -0.00068   0.00000  -0.02737  -0.02745   1.32732
   D52       -0.78442   0.00041   0.00000  -0.01751  -0.01750  -0.80193
   D53       -2.78871  -0.00151   0.00000  -0.04306  -0.04295  -2.83167
         Item               Value     Threshold  Converged?
 Maximum Force            0.019730     0.000450     NO 
 RMS     Force            0.005144     0.000300     NO 
 Maximum Displacement     0.319197     0.001800     NO 
 RMS     Displacement     0.095899     0.001200     NO 
 Predicted change in Energy=-5.697735D-03
 Lowest energy point so far.  Saving SCF results.
 GradGradGradGradGradGradGradGradGradGradGradGradGradGradGradGradGradGrad

 Leave Link  103 at Thu Sep 16 16:24:46 2021, MaxMem=   131072000 cpu:               0.0 elap:               0.0
 (Enter /opt/g16/l202.exe)
                          Input orientation:                          
 ---------------------------------------------------------------------
 Center     Atomic      Atomic             Coordinates (Angstroms)
 Number     Number       Type             X           Y           Z
 ---------------------------------------------------------------------
      1          6           0       -0.946561    1.257045   -0.038945
      2          1           0       -0.993169    1.123422    1.060693
      3          1           0       -1.321823    2.281075   -0.242956
      4          6           0       -1.841325    0.284048   -0.714642
      5          6           0       -2.221775    0.624551   -2.109517
      6          1           0       -2.708424    1.607916   -2.145238
      7          1           0       -1.330362    0.661620   -2.749473
      8          1           0       -2.915345   -0.107148   -2.544957
      9          6           0       -2.304018   -0.816578   -0.128370
     10          1           0       -2.977870   -1.484927   -0.680673
     11          6           0       -1.989499   -1.243690    1.245265
     12          1           0       -2.900009   -1.235925    1.858417
     13          1           0       -1.245472   -0.597669    1.730499
     14          1           0       -1.591388   -2.267303    1.238213
     15          6           0        2.531715   -1.634731    1.209651
     16          1           0        3.626529   -1.609332    1.137382
     17          1           0        2.264470   -1.928180    2.232941
     18          1           0        2.169068   -2.418080    0.531280
     19          6           0        1.963653   -0.299135    0.890700
     20          6           0        2.429833    0.802153    1.761140
     21          1           0        1.901166    1.743530    1.558145
     22          1           0        2.268761    0.550101    2.818243
     23          1           0        3.503083    0.976349    1.610573
     24          6           0        1.103700   -0.138337   -0.110842
     25          1           0        0.792780   -1.005006   -0.709294
     26          6           0        0.495155    1.149501   -0.506046
     27          1           0        0.551634    1.244129   -1.609100
     28          1           0        1.075595    1.998301   -0.090388
 ---------------------------------------------------------------------
                    Distance matrix (angstroms):
                    1          2          3          4          5
     1  C    0.000000
     2  H    1.108706   0.000000
     3  H    1.109541   1.774169   0.000000
     4  C    1.484551   2.139096   2.116716   0.000000
     5  C    2.512666   3.436361   2.652930   1.485383   0.000000
     6  H    2.768347   3.668083   2.448363   2.133329   1.097776
     7  H    2.801571   3.852834   2.984181   2.131708   1.097969
     8  H    3.466588   4.267292   3.679964   2.157918   1.098194
     9  C    2.480040   2.625985   3.251660   1.330105   2.451237
    10  H    3.472238   3.711452   4.137252   2.102894   2.657663
    11  C    2.998431   2.574871   3.883885   2.489413   3.846926
    12  H    3.691996   3.136705   4.390413   3.170452   4.434622
    13  H    2.580744   1.863988   3.491063   2.666680   4.146410
    14  H    3.803678   3.447666   4.791062   3.222656   4.468502
    15  C    4.692522   4.478215   5.682725   5.148602   6.222291
    16  H    5.523858   5.368001   6.444128   6.075550   7.052322
    17  H    5.061407   4.615047   6.058828   5.517223   6.745353
    18  H    4.851685   4.777265   5.904899   4.993704   5.959104
    19  C    3.428598   3.285630   4.328628   4.170741   5.231856
    20  C    3.853216   3.508673   4.503170   4.963942   6.054007
    21  H    3.301048   3.001528   3.731029   4.615397   5.630498
    22  H    4.359081   3.749382   5.025884   5.426312   6.667329
    23  H    4.753844   4.532139   5.330816   5.869293   6.836434
    24  C    2.481095   2.713189   3.428436   3.035812   3.954173
    25  H    2.931135   3.294340   3.935397   2.932609   3.701841
    26  C    1.519308   2.161125   2.156638   2.500332   3.198188
    27  H    2.170287   3.086872   2.539970   2.729114   2.885497
    28  H    2.154350   2.523923   2.418854   3.440462   4.103258
                    6          7          8          9         10
     6  H    0.000000
     7  H    1.777536   0.000000
     8  H    1.773144   1.773416   0.000000
     9  C    3.179540   3.162793   2.591699   0.000000
    10  H    3.432671   3.406153   2.318995   1.098091   0.000000
    11  C    4.488210   4.474662   4.063829   1.472488   2.178144
    12  H    4.914610   5.224665   4.545776   2.116219   2.552458
    13  H    4.693205   4.654370   4.616125   2.150311   3.098738
    14  H    5.264299   4.954631   4.553187   2.116600   2.493305
    15  C    7.016346   5.988617   6.789776   5.083699   5.826774
    16  H    7.826743   6.695941   7.655867   6.115715   6.851196
    17  H    7.510134   6.667408   7.278390   5.261420   6.013963
    18  H    6.867484   5.700343   6.376120   4.796713   5.369412
    19  C    5.889149   5.002444   5.970362   4.418062   5.319207
    20  C    6.504670   5.874049   6.923889   5.347887   6.358966
    21  H    5.914538   5.492621   6.592363   5.204043   6.264203
    22  H    7.108269   6.630655   7.488047   5.608980   6.626529
    23  H    7.286139   6.516997   7.722604   6.321466   7.301400
    24  C    4.660522   3.677902   4.698789   3.474603   4.335577
    25  H    4.598666   3.383446   4.233911   3.156443   3.801176
    26  C    3.627674   2.933174   4.167474   3.441436   4.362638
    27  H    3.323818   2.276330   3.836890   3.820187   4.557096
    28  H    4.323611   3.827020   5.136675   4.398497   5.376978
                   11         12         13         14         15
    11  C    0.000000
    12  H    1.097746   0.000000
    13  H    1.098349   1.777984   0.000000
    14  H    1.098329   1.777888   1.774734   0.000000
    15  C    4.538233   5.484850   3.951445   4.171444   0.000000
    16  H    5.628952   6.576855   5.011151   5.260204   1.097490
    17  H    4.420439   5.224111   3.787136   3.996515   1.097568
    18  H    4.379800   5.371623   4.051062   3.829298   1.097878
    19  C    4.079866   5.046708   3.330595   4.078329   1.486015
    20  C    4.897152   5.707052   3.932977   5.085788   2.500585
    21  H    4.915145   5.658498   3.925844   5.327952   3.454227
    22  H    4.881057   5.552237   3.853621   5.033390   2.725840
    23  H    5.935527   6.779024   5.004067   6.050915   2.814610
    24  C    3.553690   4.594820   3.019956   3.689980   2.454002
    25  H    3.408569   4.503682   3.205149   3.327226   2.665108
    26  C    3.868845   4.775781   3.329342   4.366997   3.852680
    27  H    4.560044   5.485270   4.216009   5.002989   4.489311
    28  H    4.657174   5.483018   3.929636   5.203207   4.124234
                   16         17         18         19         20
    16  H    0.000000
    17  H    1.776828   0.000000
    18  H    1.773591   1.773346   0.000000
    19  C    2.131343   2.132109   2.159006   0.000000
    20  C    2.763406   2.775727   3.456944   1.479130   0.000000
    21  H    3.794154   3.750839   4.294791   2.149853   1.098584
    22  H    3.054828   2.546463   3.748365   2.128313   1.098609
    23  H    2.631519   3.218352   3.803501   2.124834   1.097670
    24  C    3.175934   3.169266   2.597029   1.329835   2.479409
    25  H    3.435921   3.416851   2.330230   2.104562   3.471140
    26  C    4.485255   4.483821   4.075006   2.491171   3.000627
    27  H    5.014018   5.268646   4.539724   3.259519   3.883489
    28  H    4.585814   4.714714   4.592012   2.651300   2.587061
                   21         22         23         24         25
    21  H    0.000000
    22  H    1.774048   0.000000
    23  H    1.776922   1.778681   0.000000
    24  C    2.638730   3.226585   3.156395   0.000000
    25  H    3.731522   4.128002   4.080845   1.098150   0.000000
    26  C    2.567221   3.815214   3.682076   1.478188   2.184443
    27  H    3.478804   4.799121   4.375962   2.112052   2.434422
    28  H    1.861219   3.461367   3.135339   2.136920   3.079429
                   26         27         28
    26  C    0.000000
    27  H    1.108545   0.000000
[...]
    16  H    0.000000
    17  H    1.772099   0.000000
    18  H    1.772414   1.772271   0.000000
    19  C    2.137854   2.138480   2.163206   0.000000
    20  C    2.771288   2.800405   3.469281   1.485964   0.000000
    21  H    3.816122   3.753556   4.302769   2.154643   1.102628
    22  H    3.013852   2.560923   3.756067   2.141199   1.097946
    23  H    2.689456   3.297716   3.840922   2.136073   1.098172
    24  C    3.197157   3.178369   2.608374   1.339796   2.490439
    25  H    3.467219   3.429345   2.352567   2.118256   3.486312
    26  C    4.505892   4.498460   4.093937   2.500538   3.000214
    27  H    4.827901   5.186103   4.562190   3.091339   3.534229
    28  H    4.701068   4.607480   4.608285   2.646712   2.556983
                   21         22         23         24         25
    21  H    0.000000
    22  H    1.777924   0.000000
    23  H    1.777182   1.773303   0.000000
    24  C    2.644448   3.263844   3.147888   0.000000
    25  H    3.737287   4.168334   4.084131   1.098758   0.000000
    26  C    2.562173   3.856110   3.635034   1.485829   2.193327
    27  H    3.109485   4.534386   3.876380   2.125646   2.655096
    28  H    1.776198   3.335605   3.225626   2.144710   3.093637
                   26         27         28
    26  C    0.000000
    27  H    1.115075   0.000000
    28  H    1.112903   1.780674   0.000000
 Stoichiometry    C10H18
 Framework group  C1[X(C10H18)]
 Deg. of freedom    78
 Full point group                 C1      NOp   1
 RotChk:  IX=0 Diff= 2.79D-15
 Largest Abelian subgroup         C1      NOp   1
 Largest concise Abelian subgroup C1      NOp   1
                         Standard orientation:                         
 ---------------------------------------------------------------------
 Center     Atomic      Atomic             Coordinates (Angstroms)
 Number     Number       Type             X           Y           Z
 ---------------------------------------------------------------------
      1          6           0        1.004865   -0.669448    0.941397
      2          1           0        0.824531    0.217280    1.589043
      3          1           0        1.385363   -1.465903    1.611259
      4          6           0        2.060798   -0.366683   -0.074570
      5          6           0        2.469368   -1.515947   -0.927562
      6          1           0        3.096659   -2.214711   -0.358113
      7          1           0        1.575332   -2.068260   -1.265734
      8          1           0        3.033363   -1.207606   -1.816745
      9          6           0        2.622637    0.840473   -0.222425
     10          1           0        3.398654    0.988581   -0.984722
     11          6           0        2.281096    2.036493    0.577069
     12          1           0        3.172368    2.433268    1.080597
     13          1           0        1.524760    1.823821    1.350777
     14          1           0        1.881900    2.829346   -0.069388
     15          6           0       -3.088737    1.336572   -0.764642
     16          1           0       -3.859528    1.002068   -1.472225
     17          1           0       -3.588022    1.934695    0.009945
     18          1           0       -2.405503    2.002280   -1.308397
     19          6           0       -2.392254    0.169833   -0.158865
     20          6           0       -3.270121   -0.793802    0.554469
     21          1           0       -2.686687   -1.533428    1.127485
     22          1           0       -3.936054   -0.275083    1.256572
     23          1           0       -3.899268   -1.344008   -0.157872
     24          6           0       -1.065115    0.021565   -0.267366
     25          1           0       -0.465624    0.771651   -0.801453
     26          6           0       -0.299268   -1.121400    0.293701
     27          1           0       -0.072634   -1.839955   -0.528313
     28          1           0       -0.919228   -1.679969    1.030046
 ---------------------------------------------------------------------
 Rotational constants (GHZ):           2.0210788           0.6366676           0.5488750
 Leave Link  202 at Thu Sep 16 16:25:00 2021, MaxMem=   131072000 cpu:               0.0 elap:               0.0
 (Enter /opt/g16/l601.exe)
 Copying SCF densities to generalized density rwf, IOpCl= 0 IROHF=0.

 **********************************************************************

            Population analysis using the SCF density.

 **********************************************************************

 Orbital symmetries:
       Occupied  (A) (A) (A) (A) (A) (A) (A) (A) (A) (A) (A) (A)
                 (A) (A) (A) (A) (A) (A) (A) (A) (A) (A) (A) (A)
                 (A) (A) (A) (A) (A)
       Virtual   (A) (A) (A) (A) (A) (A) (A) (A) (A) (A) (A) (A)
                 (A) (A) (A) (A) (A) (A) (A) (A) (A) (A) (A) (A)
                 (A) (A) (A) (A) (A)
 The electronic state is 1-A.
 Alpha  occ. eigenvalues --   -1.47903  -1.35721  -1.17831  -1.10227  -1.01280
 Alpha  occ. eigenvalues --   -0.94897  -0.86876  -0.79492  -0.67049  -0.64123
 Alpha  occ. eigenvalues --   -0.61247  -0.59909  -0.57803  -0.56517  -0.55214
 Alpha  occ. eigenvalues --   -0.53680  -0.51063  -0.50316  -0.48455  -0.48256
 Alpha  occ. eigenvalues --   -0.47918  -0.47611  -0.47258  -0.46945  -0.45744
 Alpha  occ. eigenvalues --   -0.42773  -0.42397  -0.35103  -0.34030
 Alpha virt. eigenvalues --    0.03678   0.04295   0.12391   0.12449   0.13237
 Alpha virt. eigenvalues --    0.13579   0.13946   0.14237   0.14753   0.14953
 Alpha virt. eigenvalues --    0.15499   0.15819   0.15908   0.16093   0.16348
 Alpha virt. eigenvalues --    0.16442   0.16450   0.16640   0.16960   0.17077
 Alpha virt. eigenvalues --    0.17188   0.17251   0.17803   0.17922   0.18001
 Alpha virt. eigenvalues --    0.21126   0.21398   0.22490   0.22584
          Condensed to atoms (all electrons):
               1          2          3          4          5          6
     1  C    4.060988   0.000000   0.000000   0.000000   0.000000   0.000000
     2  H    0.000000   0.934234   0.000000   0.000000   0.000000   0.000000
     3  H    0.000000   0.000000   0.946340   0.000000   0.000000   0.000000
     4  C    0.000000   0.000000   0.000000   4.126688   0.000000   0.000000
     5  C    0.000000   0.000000   0.000000   0.000000   4.076921   0.000000
     6  H    0.000000   0.000000   0.000000   0.000000   0.000000   0.954898
     7  H    0.000000   0.000000   0.000000   0.000000   0.000000   0.000000
     8  H    0.000000   0.000000   0.000000   0.000000   0.000000   0.000000
     9  C    0.000000   0.000000   0.000000   0.000000   0.000000   0.000000
    10  H    0.000000   0.000000   0.000000   0.000000   0.000000   0.000000
    11  C    0.000000   0.000000   0.000000   0.000000   0.000000   0.000000
    12  H    0.000000   0.000000   0.000000   0.000000   0.000000   0.000000
    13  H    0.000000   0.000000   0.000000   0.000000   0.000000   0.000000
    14  H    0.000000   0.000000   0.000000   0.000000   0.000000   0.000000
    15  C    0.000000   0.000000   0.000000   0.000000   0.000000   0.000000
    16  H    0.000000   0.000000   0.000000   0.000000   0.000000   0.000000
    17  H    0.000000   0.000000   0.000000   0.000000   0.000000   0.000000
    18  H    0.000000   0.000000   0.000000   0.000000   0.000000   0.000000
    19  C    0.000000   0.000000   0.000000   0.000000   0.000000   0.000000
    20  C    0.000000   0.000000   0.000000   0.000000   0.000000   0.000000
    21  H    0.000000   0.000000   0.000000   0.000000   0.000000   0.000000
    22  H    0.000000   0.000000   0.000000   0.000000   0.000000   0.000000
    23  H    0.000000   0.000000   0.000000   0.000000   0.000000   0.000000
    24  C    0.000000   0.000000   0.000000   0.000000   0.000000   0.000000
    25  H    0.000000   0.000000   0.000000   0.000000   0.000000   0.000000
    26  C    0.000000   0.000000   0.000000   0.000000   0.000000   0.000000
    27  H    0.000000   0.000000   0.000000   0.000000   0.000000   0.000000
    28  H    0.000000   0.000000   0.000000   0.000000   0.000000   0.000000
               7          8          9         10         11         12
     1  C    0.000000   0.000000   0.000000   0.000000   0.000000   0.000000
     2  H    0.000000   0.000000   0.000000   0.000000   0.000000   0.000000
     3  H    0.000000   0.000000   0.000000   0.000000   0.000000   0.000000
     4  C    0.000000   0.000000   0.000000   0.000000   0.000000   0.000000
     5  C    0.000000   0.000000   0.000000   0.000000   0.000000   0.000000
     6  H    0.000000   0.000000   0.000000   0.000000   0.000000   0.000000
     7  H    0.949563   0.000000   0.000000   0.000000   0.000000   0.000000
     8  H    0.000000   0.956398   0.000000   0.000000   0.000000   0.000000
     9  C    0.000000   0.000000   4.151759   0.000000   0.000000   0.000000
    10  H    0.000000   0.000000   0.000000   0.902136   0.000000   0.000000
    11  C    0.000000   0.000000   0.000000   0.000000   4.079834   0.000000
    12  H    0.000000   0.000000   0.000000   0.000000   0.000000   0.955978
    13  H    0.000000   0.000000   0.000000   0.000000   0.000000   0.000000
    14  H    0.000000   0.000000   0.000000   0.000000   0.000000   0.000000
    15  C    0.000000   0.000000   0.000000   0.000000   0.000000   0.000000
    16  H    0.000000   0.000000   0.000000   0.000000   0.000000   0.000000
    17  H    0.000000   0.000000   0.000000   0.000000   0.000000   0.000000
    18  H    0.000000   0.000000   0.000000   0.000000   0.000000   0.000000
    19  C    0.000000   0.000000   0.000000   0.000000   0.000000   0.000000
    20  C    0.000000   0.000000   0.000000   0.000000   0.000000   0.000000
    21  H    0.000000   0.000000   0.000000   0.000000   0.000000   0.000000
    22  H    0.000000   0.000000   0.000000   0.000000   0.000000   0.000000
    23  H    0.000000   0.000000   0.000000   0.000000   0.000000   0.000000
    24  C    0.000000   0.000000   0.000000   0.000000   0.000000   0.000000
    25  H    0.000000   0.000000   0.000000   0.000000   0.000000   0.000000
    26  C    0.000000   0.000000   0.000000   0.000000   0.000000   0.000000
    27  H    0.000000   0.000000   0.000000   0.000000   0.000000   0.000000
    28  H    0.000000   0.000000   0.000000   0.000000   0.000000   0.000000
              13         14         15         16         17         18
     1  C    0.000000   0.000000   0.000000   0.000000   0.000000   0.000000
     2  H    0.000000   0.000000   0.000000   0.000000   0.000000   0.000000
     3  H    0.000000   0.000000   0.000000   0.000000   0.000000   0.000000
     4  C    0.000000   0.000000   0.000000   0.000000   0.000000   0.000000
     5  C    0.000000   0.000000   0.000000   0.000000   0.000000   0.000000
     6  H    0.000000   0.000000   0.000000   0.000000   0.000000   0.000000
     7  H    0.000000   0.000000   0.000000   0.000000   0.000000   0.000000
     8  H    0.000000   0.000000   0.000000   0.000000   0.000000   0.000000
     9  C    0.000000   0.000000   0.000000   0.000000   0.000000   0.000000
    10  H    0.000000   0.000000   0.000000   0.000000   0.000000   0.000000
    11  C    0.000000   0.000000   0.000000   0.000000   0.000000   0.000000
    12  H    0.000000   0.000000   0.000000   0.000000   0.000000   0.000000
    13  H    0.950279   0.000000   0.000000   0.000000   0.000000   0.000000
    14  H    0.000000   0.955366   0.000000   0.000000   0.000000   0.000000
    15  C    0.000000   0.000000   4.067336   0.000000   0.000000   0.000000
    16  H    0.000000   0.000000   0.000000   0.957149   0.000000   0.000000
    17  H    0.000000   0.000000   0.000000   0.000000   0.956791   0.000000
    18  H    0.000000   0.000000   0.000000   0.000000   0.000000   0.958192
    19  C    0.000000   0.000000   0.000000   0.000000   0.000000   0.000000
    20  C    0.000000   0.000000   0.000000   0.000000   0.000000   0.000000
    21  H    0.000000   0.000000   0.000000   0.000000   0.000000   0.000000
    22  H    0.000000   0.000000   0.000000   0.000000   0.000000   0.000000
    23  H    0.000000   0.000000   0.000000   0.000000   0.000000   0.000000
    24  C    0.000000   0.000000   0.000000   0.000000   0.000000   0.000000
    25  H    0.000000   0.000000   0.000000   0.000000   0.000000   0.000000
    26  C    0.000000   0.000000   0.000000   0.000000   0.000000   0.000000
    27  H    0.000000   0.000000   0.000000   0.000000   0.000000   0.000000
    28  H    0.000000   0.000000   0.000000   0.000000   0.000000   0.000000
              19         20         21         22         23         24
     1  C    0.000000   0.000000   0.000000   0.000000   0.000000   0.000000
     2  H    0.000000   0.000000   0.000000   0.000000   0.000000   0.000000
     3  H    0.000000   0.000000   0.000000   0.000000   0.000000   0.000000
     4  C    0.000000   0.000000   0.000000   0.000000   0.000000   0.000000
     5  C    0.000000   0.000000   0.000000   0.000000   0.000000   0.000000
     6  H    0.000000   0.000000   0.000000   0.000000   0.000000   0.000000
     7  H    0.000000   0.000000   0.000000   0.000000   0.000000   0.000000
     8  H    0.000000   0.000000   0.000000   0.000000   0.000000   0.000000
     9  C    0.000000   0.000000   0.000000   0.000000   0.000000   0.000000
    10  H    0.000000   0.000000   0.000000   0.000000   0.000000   0.000000
    11  C    0.000000   0.000000   0.000000   0.000000   0.000000   0.000000
    12  H    0.000000   0.000000   0.000000   0.000000   0.000000   0.000000
    13  H    0.000000   0.000000   0.000000   0.000000   0.000000   0.000000
    14  H    0.000000   0.000000   0.000000   0.000000   0.000000   0.000000
    15  C    0.000000   0.000000   0.000000   0.000000   0.000000   0.000000
    16  H    0.000000   0.000000   0.000000   0.000000   0.000000   0.000000
    17  H    0.000000   0.000000   0.000000   0.000000   0.000000   0.000000
    18  H    0.000000   0.000000   0.000000   0.000000   0.000000   0.000000
    19  C    4.128288   0.000000   0.000000   0.000000   0.000000   0.000000
    20  C    0.000000   4.074992   0.000000   0.000000   0.000000   0.000000
    21  H    0.000000   0.000000   0.951591   0.000000   0.000000   0.000000
    22  H    0.000000   0.000000   0.000000   0.955291   0.000000   0.000000
    23  H    0.000000   0.000000   0.000000   0.000000   0.954077   0.000000
    24  C    0.000000   0.000000   0.000000   0.000000   0.000000   4.155982
    25  H    0.000000   0.000000   0.000000   0.000000   0.000000   0.000000
    26  C    0.000000   0.000000   0.000000   0.000000   0.000000   0.000000
    27  H    0.000000   0.000000   0.000000   0.000000   0.000000   0.000000
    28  H    0.000000   0.000000   0.000000   0.000000   0.000000   0.000000
              25         26         27         28
     1  C    0.000000   0.000000   0.000000   0.000000
     2  H    0.000000   0.000000   0.000000   0.000000
     3  H    0.000000   0.000000   0.000000   0.000000
     4  C    0.000000   0.000000   0.000000   0.000000
     5  C    0.000000   0.000000   0.000000   0.000000
     6  H    0.000000   0.000000   0.000000   0.000000
     7  H    0.000000   0.000000   0.000000   0.000000
     8  H    0.000000   0.000000   0.000000   0.000000
     9  C    0.000000   0.000000   0.000000   0.000000
    10  H    0.000000   0.000000   0.000000   0.000000
    11  C    0.000000   0.000000   0.000000   0.000000
    12  H    0.000000   0.000000   0.000000   0.000000
    13  H    0.000000   0.000000   0.000000   0.000000
    14  H    0.000000   0.000000   0.000000   0.000000
    15  C    0.000000   0.000000   0.000000   0.000000
    16  H    0.000000   0.000000   0.000000   0.000000
    17  H    0.000000   0.000000   0.000000   0.000000
    18  H    0.000000   0.000000   0.000000   0.000000
    19  C    0.000000   0.000000   0.000000   0.000000
    20  C    0.000000   0.000000   0.000000   0.000000
    21  H    0.000000   0.000000   0.000000   0.000000
    22  H    0.000000   0.000000   0.000000   0.000000
    23  H    0.000000   0.000000   0.000000   0.000000
    24  C    0.000000   0.000000   0.000000   0.000000
    25  H    0.891598   0.000000   0.000000   0.000000
    26  C    0.000000   4.072177   0.000000   0.000000
    27  H    0.000000   0.000000   0.935119   0.000000
    28  H    0.000000   0.000000   0.000000   0.940034
 Mulliken charges:
               1
     1  C   -0.060988
     2  H    0.065766
     3  H    0.053660
     4  C   -0.126688
     5  C   -0.076921
     6  H    0.045102
     7  H    0.050437
     8  H    0.043602
     9  C   -0.151759
    10  H    0.097864
    11  C   -0.079834
    12  H    0.044022
    13  H    0.049721
    14  H    0.044634
    15  C   -0.067336
    16  H    0.042851
    17  H    0.043209
    18  H    0.041808
    19  C   -0.128288
    20  C   -0.074992
    21  H    0.048409
    22  H    0.044709
    23  H    0.045923
    24  C   -0.155982
    25  H    0.108402
    26  C   -0.072177
    27  H    0.064881
    28  H    0.059966
 Sum of Mulliken charges =   0.00000
 Mulliken charges with hydrogens summed into heavy atoms:
               1
     1  C    0.058437
     4  C   -0.126688
     5  C    0.062219
     9  C   -0.053895
    11  C    0.058544
    15  C    0.060532
    19  C   -0.128288
    20  C    0.064048
    24  C   -0.047579
    26  C    0.052671
 Charge=              0.0000 electrons
 Dipole moment (field-independent basis, Debye):
    X=             -0.2247    Y=             -0.1560    Z=              0.1065  Tot=              0.2935
 N-N= 3.104075990032D+02 E-N=-5.029939234511D+02  KE=-7.912378989852D+01
 Leave Link  601 at Thu Sep 16 16:25:00 2021, MaxMem=   131072000 cpu:               0.0 elap:               0.0
 (Enter /opt/g16/l9999.exe)
 1\1\GINC-TOTEM\FOpt\RPM3\ZDO\C10H18\JRAMOS\16-Sep-2021\0\\#p opt pm3\\
 Conformer number 008. Energy MM = 23.486 kcal/mol\\0,1\C,-1.1570049817
 ,1.0659279254,0.2477377958\H,-1.3137399522,0.7103432189,1.2904487307\H
 ,-1.5554978519,2.099293331,0.2131826681\C,-1.9416425911,0.2281249982,-
 0.712094189\C,-1.9006465189,0.6798152725,-2.1297076648\H,-2.523622092,
 1.5736462784,-2.267563513\H,-0.8663012026,0.9466484951,-2.4083485997\H
 ,-2.2535505539,-0.0861222411,-2.8315683844\C,-2.6471787253,-0.85116559
 89,-0.3486373926\H,-3.2065900908,-1.414798096,-1.10666931\C,-2.7457392
 158,-1.3723398733,1.0315680922\H,-3.7940073573,-1.4170008092,1.3547938
 832\H,-2.1966659836,-0.7493776454,1.7570568969\H,-2.3350976955,-2.3892
 161929,1.0882799817\C,2.8238911353,-1.5224991878,1.3176814175\H,3.8011
 469208,-1.6465745148,0.8316153257\H,2.9865562822,-1.5661941734,2.40333
 93312\H,2.2034825307,-2.385005701,1.0405158465\C,2.2079234776,-0.22456
 18362,0.9313162758\C,3.0202032909,0.9808707902,1.2398977893\H,2.445038
 2345,1.9106118877,1.0965263055\H,3.3740395311,0.9621943413,2.279097760
 4\H,3.9023521121,1.0298825659,0.5876754888\C,1.0046465136,-0.175601963
 1,0.3441363927\H,0.4462317868,-1.1011263943,0.147042941\C,0.3306083102
 ,1.0767105416,-0.0860657513\H,0.4601655203,1.1942561308,-1.1873328648\
 H,0.8210991665,1.9609584507,0.3787747467\\Version=ES64L-G16RevA.03\Sta
 te=1-A\HF=-0.0276486\RMSD=2.559e-09\RMSF=2.272e-06\Dipole=0.0834866,0.
 0749932,0.0272479\PG=C01 [X(C10H18)]\\@


 WE'RE IN THE POSITION OF A VISITOR FROM ANOTHER
 DIMENSION WHO COMES TO EARTH AND SEES A CHESS MATCH.
 ASSUMING HE KNOWS IT'S A GAME, HE'S GOT TWO PROBLEMS:
 FIRST, FIGURE OUT THE RULES, AND SECOND, FIGURE OUT HOW TO WIN.
 NINETY PERCENT OF SCIENCE (INCLUDING VIRTUALLY ALL OF CHEMISRY)
 IS IN THAT SECOND CATEGORY.  THEY'RE TRYING TO APPLY
 THE LAWS THAT ARE ALREADY KNOWN.

                     -- SHELDON GLASHOW, 1979
 Job cpu time:       0 days  0 hours  0 minutes 14.6 seconds.
 Elapsed time:       0 days  0 hours  0 minutes 12.7 seconds.
 File lengths (MBytes):  RWF=      6 Int=      0 D2E=      0 Chk=      2 Scr=      1
 Normal termination of Gaussian 16 at Thu Sep 16 16:25:00 2021.
