 Entering Gaussian System, Link 0=/opt/g16/g16
 Input=03-IsoP_001_gaussian.com
 Output=03-IsoP_001_gaussian.log
 Initial command:
 /opt/g16/l1.exe "/tmp/Gau-1501370.inp" -scrdir="/tmp/"
 Entering Link 1 = /opt/g16/l1.exe PID=   1501375.
  
 Copyright (c) 1988,1990,1992,1993,1995,1998,2003,2009,2016,
            Gaussian, Inc.  All Rights Reserved.
  
 This is part of the Gaussian(R) 16 program.  It is based on
 the Gaussian(R) 09 system (copyright 2009, Gaussian, Inc.),
 the Gaussian(R) 03 system (copyright 2003, Gaussian, Inc.),
 the Gaussian(R) 98 system (copyright 1998, Gaussian, Inc.),
 the Gaussian(R) 94 system (copyright 1995, Gaussian, Inc.),
 the Gaussian 92(TM) system (copyright 1992, Gaussian, Inc.),
 the Gaussian 90(TM) system (copyright 1990, Gaussian, Inc.),
 the Gaussian 88(TM) system (copyright 1988, Gaussian, Inc.),
 the Gaussian 86(TM) system (copyright 1986, Carnegie Mellon
 University), and the Gaussian 82(TM) system (copyright 1983,
 Carnegie Mellon University). Gaussian is a federally registered
 trademark of Gaussian, Inc.
  
 This software contains proprietary and confidential information,
 including trade secrets, belonging to Gaussian, Inc.
  
 This software is provided under written license and may be
 used, copied, transmitted, or stored only in accord with that
 written license.
  
 The following legend is applicable only to US Government
 contracts under FAR:
  
                    RESTRICTED RIGHTS LEGEND
  
 Use, reproduction and disclosure by the US Government is
 subject to restrictions as set forth in subparagraphs (a)
 and (c) of the Commercial Computer Software - Restricted
 Rights clause in FAR 52.227-19.
  
 Gaussian, Inc.
 340 Quinnipiac St., Bldg. 40, Wallingford CT 06492
  
  
 ---------------------------------------------------------------
 Warning -- This program may not be used in any manner that
 competes with the business of Gaussian, Inc. or will provide
 assistance to any competitor of Gaussian, Inc.  The licensee
 of this program is prohibited from giving any competitor of
 Gaussian, Inc. access to this program.  By using this program,
 the user acknowledges that Gaussian, Inc. is engaged in the
 business of creating and licensing software in the field of
 computational chemistry and represents and warrants to the
 licensee that it is not a competitor of Gaussian, Inc. and that
 it will not use this program in any manner prohibited above.
 ---------------------------------------------------------------
  

 Cite this work as:
 Gaussian 16, Revision A.03,
 M. J. Frisch, G. W. Trucks, H. B. Schlegel, G. E. Scuseria, 
 M. A. Robb, J. R. Cheeseman, G. Scalmani, V. Barone, 
 G. A. Petersson, H. Nakatsuji, X. Li, M. Caricato, A. V. Marenich, 
 J. Bloino, B. G. Janesko, R. Gomperts, B. Mennucci, H. P. Hratchian, 
 J. V. Ortiz, A. F. Izmaylov, J. L. Sonnenberg, D. Williams-Young, 
 F. Ding, F. Lipparini, F. Egidi, J. Goings, B. Peng, A. Petrone, 
 T. Henderson, D. Ranasinghe, V. G. Zakrzewski, J. Gao, N. Rega, 
 G. Zheng, W. Liang, M. Hada, M. Ehara, K. Toyota, R. Fukuda, 
 J. Hasegawa, M. Ishida, T. Nakajima, Y. Honda, O. Kitao, H. Nakai, 
 T. Vreven, K. Throssell, J. A. Montgomery, Jr., J. E. Peralta, 
 F. Ogliaro, M. J. Bearpark, J. J. Heyd, E. N. Brothers, K. N. Kudin, 
 V. N. Staroverov, T. A. Keith, R. Kobayashi, J. Normand, 
 K. Raghavachari, A. P. Rendell, J. C. Burant, S. S. Iyengar, 
 J. Tomasi, M. Cossi, J. M. Millam, M. Klene, C. Adamo, R. Cammi, 
 J. W. Ochterski, R. L. Martin, K. Morokuma, O. Farkas, 
 J. B. Foresman, and D. J. Fox, Gaussian, Inc., Wallingford CT, 2016.
 
 ******************************************
 Gaussian 16:  ES64L-G16RevA.03 25-Dec-2016
                16-Sep-2021 
 ******************************************
 %chk=03-IsoP_001_gaussian.chk
 %nproc=1
 Will use up to    1 processors via shared memory.
 %mem=1000Mb
 ----------
 #p opt pm3
 ----------
 1/18=20,19=15,26=1,38=1/1,3;
 2/9=110,12=2,17=6,18=5,40=1/2;
 3/5=2,25=1,41=800000,71=1/1,2,3;
 4/35=1/1;
 5/5=2,35=1,38=5/2;
 6/7=2,8=2,9=2,10=2,28=1/1;
 7//1,2,3,16;
 1/18=20,19=15,26=1/3(2);
 2/9=110/2;
 99//99;
 2/9=110/2;
 3/5=2,25=1,41=800000,71=1,135=20/1,2,3;
 4/5=5,16=3,35=1/1;
 5/5=2,35=1,38=5/2;
 7//1,2,3,16;
 1/18=20,19=15,26=1/3(-5);
 2/9=110/2;
 6/7=2,8=2,9=2,10=2,19=2,28=1/1;
 99/9=1/99;
 Leave Link    1 at Thu Sep 16 16:24:45 2021, MaxMem=   131072000 cpu:               0.0 elap:               0.0
 (Enter /opt/g16/l101.exe)
 -------------------------------------------------
 Conformer number 001. Energy MM = 23.712 kcal/mol
 -------------------------------------------------
 Symbolic Z-matrix:
 Charge =  0 Multiplicity = 1
 C                    -0.5554   -0.4945   -0.3358 
 H                    -0.5752   -1.5911   -0.276 
 H                     0.0125   -0.2581   -1.2453 
 C                    -1.9672    0.0478   -0.4829 
 C                    -2.0566    1.4927   -0.8967 
 H                    -1.3698    1.6918   -1.7265 
 H                    -1.7872    2.1465   -0.0616 
 H                    -3.0519    1.7806   -1.2428 
 C                    -3.0281   -0.7587   -0.2797 
 H                    -2.8442   -1.7978   -0.0068 
 C                    -4.4803   -0.4093   -0.3595 
 H                    -4.6688    0.6612   -0.4605 
 H                    -4.94     -0.9241   -1.2085 
 H                    -4.985    -0.7422    0.5534 
 C                     4.0085   -0.7292    1.0141 
 H                     4.6452   -0.1596    1.699 
 H                     3.8368   -1.7138    1.4617 
 H                     4.5533   -0.8809    0.0765 
 C                     2.724     0.0149    0.7575 
 C                     2.9095    1.3785    0.1509 
 H                     1.9719    1.8484   -0.1549 
 H                     3.404     2.0442    0.8656 
 H                     3.5355    1.309    -0.7453 
 C                     1.5349   -0.5452    1.0538 
 H                     1.5249   -1.5508    1.4747 
 C                     0.167     0.0638    0.8957 
 H                    -0.4111   -0.1654    1.8003 
 H                     0.222     1.1558    0.8509 
 
 ITRead=  0  0  0  0  0  0  0  0  0  0  0  0  0  0  0  0  0  0  0  0
 ITRead=  0  0  0  0  0  0  0  0
 MicOpt= -1 -1 -1 -1 -1 -1 -1 -1 -1 -1 -1 -1 -1 -1 -1 -1 -1 -1 -1 -1
 MicOpt= -1 -1 -1 -1 -1 -1 -1 -1
 NAtoms=     28 NQM=       28 NQMF=       0 NMMI=      0 NMMIF=      0
                NMic=       0 NMicF=      0.
                    Isotopes and Nuclear Properties:
 (Nuclear quadrupole moments (NQMom) in fm**2, nuclear magnetic moments (NMagM)
  in nuclear magnetons)

  Atom         1           2           3           4           5           6           7           8           9          10
 IAtWgt=          12           1           1          12          12           1           1           1          12           1
 AtmWgt=  12.0000000   1.0078250   1.0078250  12.0000000  12.0000000   1.0078250   1.0078250   1.0078250  12.0000000   1.0078250
 NucSpn=           0           1           1           0           0           1           1           1           0           1
 AtZEff=  -0.0000000  -0.0000000  -0.0000000  -0.0000000  -0.0000000  -0.0000000  -0.0000000  -0.0000000  -0.0000000  -0.0000000
 NQMom=    0.0000000   0.0000000   0.0000000   0.0000000   0.0000000   0.0000000   0.0000000   0.0000000   0.0000000   0.0000000
 NMagM=    0.0000000   2.7928460   2.7928460   0.0000000   0.0000000   2.7928460   2.7928460   2.7928460   0.0000000   2.7928460
 AtZNuc=   6.0000000   1.0000000   1.0000000   6.0000000   6.0000000   1.0000000   1.0000000   1.0000000   6.0000000   1.0000000

  Atom        11          12          13          14          15          16          17          18          19          20
 IAtWgt=          12           1           1           1          12           1           1           1          12          12
 AtmWgt=  12.0000000   1.0078250   1.0078250   1.0078250  12.0000000   1.0078250   1.0078250   1.0078250  12.0000000  12.0000000
 NucSpn=           0           1           1           1           0           1           1           1           0           0
 AtZEff=  -0.0000000  -0.0000000  -0.0000000  -0.0000000  -0.0000000  -0.0000000  -0.0000000  -0.0000000  -0.0000000  -0.0000000
 NQMom=    0.0000000   0.0000000   0.0000000   0.0000000   0.0000000   0.0000000   0.0000000   0.0000000   0.0000000   0.0000000
 NMagM=    0.0000000   2.7928460   2.7928460   2.7928460   0.0000000   2.7928460   2.7928460   2.7928460   0.0000000   0.0000000
 AtZNuc=   6.0000000   1.0000000   1.0000000   1.0000000   6.0000000   1.0000000   1.0000000   1.0000000   6.0000000   6.0000000

  Atom        21          22          23          24          25          26          27          28
 IAtWgt=           1           1           1          12           1          12           1           1
 AtmWgt=   1.0078250   1.0078250   1.0078250  12.0000000   1.0078250  12.0000000   1.0078250   1.0078250
 NucSpn=           1           1           1           0           1           0           1           1
 AtZEff=  -0.0000000  -0.0000000  -0.0000000  -0.0000000  -0.0000000  -0.0000000  -0.0000000  -0.0000000
 NQMom=    0.0000000   0.0000000   0.0000000   0.0000000   0.0000000   0.0000000   0.0000000   0.0000000
 NMagM=    2.7928460   2.7928460   2.7928460   0.0000000   2.7928460   0.0000000   2.7928460   2.7928460
 AtZNuc=   1.0000000   1.0000000   1.0000000   6.0000000   1.0000000   6.0000000   1.0000000   1.0000000
 Leave Link  101 at Thu Sep 16 16:24:46 2021, MaxMem=   131072000 cpu:               0.2 elap:               0.2
 (Enter /opt/g16/l103.exe)

 GradGradGradGradGradGradGradGradGradGradGradGradGradGradGradGradGradGrad
 Berny optimization.
 Initialization pass.
                           ----------------------------
                           !    Initial Parameters    !
                           ! (Angstroms and Degrees)  !
 --------------------------                            --------------------------
 ! Name  Definition              Value          Derivative Info.                !
 --------------------------------------------------------------------------------
 ! R1    R(1,2)                  1.0984         estimate D2E/DX2                !
 ! R2    R(1,3)                  1.098          estimate D2E/DX2                !
 ! R3    R(1,4)                  1.5195         estimate D2E/DX2                !
 ! R4    R(1,26)                 1.533          estimate D2E/DX2                !
 ! R5    R(4,5)                  1.5056         estimate D2E/DX2                !
 ! R6    R(4,9)                  1.3481         estimate D2E/DX2                !
 ! R7    R(5,6)                  1.0954         estimate D2E/DX2                !
 ! R8    R(5,7)                  1.0943         estimate D2E/DX2                !
 ! R9    R(5,8)                  1.0924         estimate D2E/DX2                !
 ! R10   R(9,10)                 1.09           estimate D2E/DX2                !
 ! R11   R(9,11)                 1.4958         estimate D2E/DX2                !
 ! R12   R(11,12)                1.0917         estimate D2E/DX2                !
 ! R13   R(11,13)                1.0941         estimate D2E/DX2                !
 ! R14   R(11,14)                1.095          estimate D2E/DX2                !
 ! R15   R(15,16)                1.095          estimate D2E/DX2                !
 ! R16   R(15,17)                1.0951         estimate D2E/DX2                !
 ! R17   R(15,18)                1.0949         estimate D2E/DX2                !
 ! R18   R(15,19)                1.5065         estimate D2E/DX2                !
 ! R19   R(19,20)                1.5039         estimate D2E/DX2                !
 ! R20   R(19,24)                1.3474         estimate D2E/DX2                !
 ! R21   R(20,21)                1.0924         estimate D2E/DX2                !
 ! R22   R(20,22)                1.0948         estimate D2E/DX2                !
 ! R23   R(20,23)                1.0954         estimate D2E/DX2                !
 ! R24   R(24,25)                1.0902         estimate D2E/DX2                !
 ! R25   R(24,26)                1.5057         estimate D2E/DX2                !
 ! R26   R(26,27)                1.0977         estimate D2E/DX2                !
 ! R27   R(26,28)                1.0943         estimate D2E/DX2                !
 ! A1    A(2,1,3)              105.6266         estimate D2E/DX2                !
 ! A2    A(2,1,4)              110.1712         estimate D2E/DX2                !
 ! A3    A(2,1,26)             109.1683         estimate D2E/DX2                !
 ! A4    A(3,1,4)              108.8763         estimate D2E/DX2                !
 ! A5    A(3,1,26)             110.0766         estimate D2E/DX2                !
 ! A6    A(4,1,26)             112.6821         estimate D2E/DX2                !
 ! A7    A(1,4,5)              115.1043         estimate D2E/DX2                !
 ! A8    A(1,4,9)              120.2048         estimate D2E/DX2                !
 ! A9    A(5,4,9)              124.6689         estimate D2E/DX2                !
 ! A10   A(4,5,6)              110.2058         estimate D2E/DX2                !
 ! A11   A(4,5,7)              110.427          estimate D2E/DX2                !
 ! A12   A(4,5,8)              113.2096         estimate D2E/DX2                !
 ! A13   A(6,5,7)              108.3705         estimate D2E/DX2                !
 ! A14   A(6,5,8)              106.4604         estimate D2E/DX2                !
 ! A15   A(7,5,8)              107.9772         estimate D2E/DX2                !
 ! A16   A(4,9,10)             118.3796         estimate D2E/DX2                !
 ! A17   A(4,9,11)             128.0443         estimate D2E/DX2                !
 ! A18   A(10,9,11)            113.5691         estimate D2E/DX2                !
 ! A19   A(9,11,12)            113.6811         estimate D2E/DX2                !
 ! A20   A(9,11,13)            109.8403         estimate D2E/DX2                !
 ! A21   A(9,11,14)            109.3906         estimate D2E/DX2                !
 ! A22   A(12,11,13)           108.4846         estimate D2E/DX2                !
 ! A23   A(12,11,14)           107.1986         estimate D2E/DX2                !
 ! A24   A(13,11,14)           108.073          estimate D2E/DX2                !
 ! A25   A(16,15,17)           107.6511         estimate D2E/DX2                !
 ! A26   A(16,15,18)           108.5642         estimate D2E/DX2                !
 ! A27   A(16,15,19)           110.2064         estimate D2E/DX2                !
 ! A28   A(17,15,18)           107.6642         estimate D2E/DX2                !
 ! A29   A(17,15,19)           112.3352         estimate D2E/DX2                !
 ! A30   A(18,15,19)           110.293          estimate D2E/DX2                !
 ! A31   A(15,19,20)           114.2916         estimate D2E/DX2                !
 ! A32   A(15,19,24)           120.6439         estimate D2E/DX2                !
 ! A33   A(20,19,24)           125.0617         estimate D2E/DX2                !
 ! A34   A(19,20,21)           113.3939         estimate D2E/DX2                !
 ! A35   A(19,20,22)           110.1049         estimate D2E/DX2                !
 ! A36   A(19,20,23)           110.0574         estimate D2E/DX2                !
 ! A37   A(21,20,22)           107.9909         estimate D2E/DX2                !
 ! A38   A(21,20,23)           106.7835         estimate D2E/DX2                !
 ! A39   A(22,20,23)           108.3347         estimate D2E/DX2                !
 ! A40   A(19,24,25)           118.4531         estimate D2E/DX2                !
 ! A41   A(19,24,26)           127.6289         estimate D2E/DX2                !
 ! A42   A(25,24,26)           113.9099         estimate D2E/DX2                !
 ! A43   A(1,26,24)            111.4174         estimate D2E/DX2                !
 ! A44   A(1,26,27)            109.7416         estimate D2E/DX2                !
 ! A45   A(1,26,28)            110.7453         estimate D2E/DX2                !
 ! A46   A(24,26,27)           107.9064         estimate D2E/DX2                !
 ! A47   A(24,26,28)           111.239          estimate D2E/DX2                !
 ! A48   A(27,26,28)           105.5785         estimate D2E/DX2                !
 ! D1    D(2,1,4,5)           -166.2594         estimate D2E/DX2                !
 ! D2    D(2,1,4,9)             12.1149         estimate D2E/DX2                !
 ! D3    D(3,1,4,5)            -50.8626         estimate D2E/DX2                !
 ! D4    D(3,1,4,9)            127.5116         estimate D2E/DX2                !
 ! D5    D(26,1,4,5)            71.5557         estimate D2E/DX2                !
 ! D6    D(26,1,4,9)          -110.07           estimate D2E/DX2                !
 ! D7    D(2,1,26,24)           54.3066         estimate D2E/DX2                !
 ! D8    D(2,1,26,27)          -65.143          estimate D2E/DX2                !
 ! D9    D(2,1,26,28)          178.6867         estimate D2E/DX2                !
 ! D10   D(3,1,26,24)          -61.2039         estimate D2E/DX2                !
 ! D11   D(3,1,26,27)          179.3465         estimate D2E/DX2                !
 ! D12   D(3,1,26,28)           63.1762         estimate D2E/DX2                !
 ! D13   D(4,1,26,24)          177.055          estimate D2E/DX2                !
 ! D14   D(4,1,26,27)           57.6053         estimate D2E/DX2                !
 ! D15   D(4,1,26,28)          -58.5649         estimate D2E/DX2                !
 ! D16   D(1,4,5,6)             45.9483         estimate D2E/DX2                !
 ! D17   D(1,4,5,7)            -73.75           estimate D2E/DX2                !
 ! D18   D(1,4,5,8)            165.0485         estimate D2E/DX2                !
 ! D19   D(9,4,5,6)           -132.3433         estimate D2E/DX2                !
 ! D20   D(9,4,5,7)            107.9583         estimate D2E/DX2                !
 ! D21   D(9,4,5,8)            -13.2432         estimate D2E/DX2                !
 ! D22   D(1,4,9,10)             0.2001         estimate D2E/DX2                !
 ! D23   D(1,4,9,11)           179.1689         estimate D2E/DX2                !
 ! D24   D(5,4,9,10)           178.41           estimate D2E/DX2                !
 ! D25   D(5,4,9,11)            -2.6211         estimate D2E/DX2                !
 ! D26   D(4,9,11,12)           -9.0436         estimate D2E/DX2                !
 ! D27   D(4,9,11,13)          112.7118         estimate D2E/DX2                !
 ! D28   D(4,9,11,14)         -128.8225         estimate D2E/DX2                !
 ! D29   D(10,9,11,12)         169.9666         estimate D2E/DX2                !
 ! D30   D(10,9,11,13)         -68.278          estimate D2E/DX2                !
 ! D31   D(10,9,11,14)          50.1877         estimate D2E/DX2                !
 ! D32   D(16,15,19,20)         59.5733         estimate D2E/DX2                !
 ! D33   D(16,15,19,24)       -120.9977         estimate D2E/DX2                !
 ! D34   D(17,15,19,20)        179.6081         estimate D2E/DX2                !
 ! D35   D(17,15,19,24)         -0.9629         estimate D2E/DX2                !
 ! D36   D(18,15,19,20)        -60.2808         estimate D2E/DX2                !
 ! D37   D(18,15,19,24)        119.1482         estimate D2E/DX2                !
 ! D38   D(15,19,20,21)        172.1029         estimate D2E/DX2                !
 ! D39   D(15,19,20,22)        -66.7844         estimate D2E/DX2                !
 ! D40   D(15,19,20,23)         52.5728         estimate D2E/DX2                !
 ! D41   D(24,19,20,21)         -7.2969         estimate D2E/DX2                !
 ! D42   D(24,19,20,22)        113.8158         estimate D2E/DX2                !
 ! D43   D(24,19,20,23)       -126.827          estimate D2E/DX2                !
 ! D44   D(15,19,24,25)         -0.5167         estimate D2E/DX2                !
 ! D45   D(15,19,24,26)        178.3771         estimate D2E/DX2                !
 ! D46   D(20,19,24,25)        178.8474         estimate D2E/DX2                !
 ! D47   D(20,19,24,26)         -2.2587         estimate D2E/DX2                !
 ! D48   D(19,24,26,1)         103.1436         estimate D2E/DX2                !
 ! D49   D(19,24,26,27)       -136.3228         estimate D2E/DX2                !
 ! D50   D(19,24,26,28)        -20.9582         estimate D2E/DX2                !
 ! D51   D(25,24,26,1)         -77.9202         estimate D2E/DX2                !
 ! D52   D(25,24,26,27)         42.6134         estimate D2E/DX2                !
 ! D53   D(25,24,26,28)        157.978          estimate D2E/DX2                !
 --------------------------------------------------------------------------------
 Trust Radius=3.00D-01 FncErr=1.00D-07 GrdErr=1.00D-07 EigMax=2.50D+02 EigMin=1.00D-04
 Number of steps in this run=    138 maximum allowed number of steps=    168.
 GradGradGradGradGradGradGradGradGradGradGradGradGradGradGradGradGradGrad

 Leave Link  103 at Thu Sep 16 16:24:46 2021, MaxMem=   131072000 cpu:               0.0 elap:               0.0
 (Enter /opt/g16/l202.exe)
                          Input orientation:                          
 ---------------------------------------------------------------------
 Center     Atomic      Atomic             Coordinates (Angstroms)
 Number     Number       Type             X           Y           Z
 ---------------------------------------------------------------------
      1          6           0       -0.555400   -0.494500   -0.335800
      2          1           0       -0.575200   -1.591100   -0.276000
      3          1           0        0.012500   -0.258100   -1.245300
      4          6           0       -1.967200    0.047800   -0.482900
      5          6           0       -2.056600    1.492700   -0.896700
      6          1           0       -1.369800    1.691800   -1.726500
      7          1           0       -1.787200    2.146500   -0.061600
      8          1           0       -3.051900    1.780600   -1.242800
      9          6           0       -3.028100   -0.758700   -0.279700
     10          1           0       -2.844200   -1.797800   -0.006800
     11          6           0       -4.480300   -0.409300   -0.359500
     12          1           0       -4.668800    0.661200   -0.460500
     13          1           0       -4.940000   -0.924100   -1.208500
     14          1           0       -4.985000   -0.742200    0.553400
     15          6           0        4.008500   -0.729200    1.014100
     16          1           0        4.645200   -0.159600    1.699000
     17          1           0        3.836800   -1.713800    1.461700
     18          1           0        4.553300   -0.880900    0.076500
     19          6           0        2.724000    0.014900    0.757500
     20          6           0        2.909500    1.378500    0.150900
     21          1           0        1.971900    1.848400   -0.154900
     22          1           0        3.404000    2.044200    0.865600
     23          1           0        3.535500    1.309000   -0.745300
     24          6           0        1.534900   -0.545200    1.053800
     25          1           0        1.524900   -1.550800    1.474700
     26          6           0        0.167000    0.063800    0.895700
     27          1           0       -0.411100   -0.165400    1.800300
     28          1           0        0.222000    1.155800    0.850900
 ---------------------------------------------------------------------
                    Distance matrix (angstroms):
                    1          2          3          4          5
     1  C    0.000000
     2  H    1.098408   0.000000
     3  H    1.097992   1.749806   0.000000
     4  C    1.519509   2.160200   2.143371   0.000000
     5  C    2.552876   3.477016   2.732764   1.505642   0.000000
     6  H    2.716100   3.675972   2.438117   2.146198   1.095401
     7  H    2.927012   3.935043   3.228338   2.148124   1.094268
     8  H    3.497319   4.293845   3.680605   2.180967   1.092380
     9  C    2.487407   2.590294   3.229277   1.348051   2.528498
    10  H    2.654324   2.294244   3.473513   2.098104   3.498518
    11  C    3.925896   4.080861   4.581785   2.557311   3.127381
    12  H    4.274489   4.675944   4.834831   2.770452   2.775833
    13  H    4.491200   4.512862   4.997216   3.210705   3.775200
    14  H    4.524753   4.566713   5.333355   3.287116   3.958926
    15  C    4.765134   4.839167   4.614633   6.209165   6.735981
    16  H    5.594534   5.762152   5.490038   6.966171   7.374407
    17  H    4.899910   4.743459   4.906341   6.369546   7.111670
    18  H    5.139855   5.189427   4.770105   6.610018   7.090266
    19  C    3.494175   3.812096   3.382007   4.852528   5.270143
    20  C    3.968695   4.598250   3.608385   5.094572   5.076678
    21  H    3.450964   4.281652   3.076615   4.343530   4.111642
    22  H    4.854401   5.509327   4.610722   5.886752   5.764374
    23  H    4.489517   5.052591   3.888101   5.651476   5.597164
    24  C    2.510560   2.704588   2.772362   3.870116   4.566876
    25  H    2.953189   2.734409   3.369989   4.310740   5.264368
    26  C    1.533021   2.159267   2.170569   2.540788   3.193564
    27  H    2.166115   2.523999   3.076314   2.771264   3.568021
    28  H    2.176258   3.074230   2.537136   2.792720   2.891302
                    6          7          8          9         10
     6  H    0.000000
     7  H    1.775631   0.000000
     8  H    1.752516   1.768780   0.000000
     9  C    3.293651   3.166637   2.715911   0.000000
    10  H    4.160352   4.083841   3.791541   1.089964   0.000000
    11  C    3.994812   3.724734   2.759748   1.495772   2.174662
    12  H    3.680801   3.266321   2.116463   2.177315   3.095430
    13  H    4.456185   4.547979   3.298712   2.131992   2.569010
    14  H    4.918533   4.353015   3.650716   2.126919   2.451763
    15  C    6.503710   6.558728   7.825723   7.154616   7.010252
    16  H    7.165330   7.056457   8.465454   7.946931   7.853952
    17  H    6.990809   6.989402   8.184091   7.146436   6.841002
    18  H    6.704678   7.027529   8.164754   7.590747   7.454572
    19  C    5.073603   5.056241   6.362383   5.895837   5.905496
    20  C    4.683503   4.763819   6.135338   6.325198   6.574102
    21  H    3.696134   3.772055   5.140690   5.640261   6.042477
    22  H    5.443559   5.274346   6.796579   7.109140   7.386613
    23  H    5.017097   5.431389   6.622972   6.897319   7.134295
    24  C    4.601252   4.418791   5.632269   4.758652   4.676580
    25  H    5.398280   5.196177   6.279342   4.943192   4.620053
    26  C    3.447908   3.012135   4.228700   3.502390   3.653407
    27  H    4.099587   3.271881   4.474505   3.395157   3.442429
    28  H    3.076380   2.418890   3.936036   3.937857   4.342924
                   11         12         13         14         15
    11  C    0.000000
    12  H    1.091652   0.000000
    13  H    1.094141   1.773761   0.000000
    14  H    1.094957   1.759974   1.771836   0.000000
    15  C    8.605163   8.910847   9.222450   9.005302   0.000000
    16  H    9.358126   9.596236  10.045600   9.715584   1.094952
    17  H    8.613515   9.037738   9.207921   8.921500   1.095109
    18  H    9.056403   9.365552   9.579971   9.551222   1.094949
    19  C    7.302710   7.520287   7.967670   7.748777   1.506476
    20  C    7.620097   7.636685   8.292441   8.184284   2.528896
    21  H    6.838856   6.752905   7.521382   7.457302   3.486879
    22  H    8.347618   8.297068   9.095880   8.845158   2.842397
    23  H    8.206975   8.234761   8.776981   8.859625   2.733766
    24  C    6.180495   6.498800   6.869199   6.542041   2.480752
    25  H    6.381986   6.855645   7.027606   6.624306   2.656209
    26  C    4.837018   5.057779   5.611154   5.225888   3.924282
    27  H    4.613308   4.891063   5.489940   4.775774   4.524251
    28  H    5.101591   5.087664   5.934084   5.550113   4.232900
                   16         17         18         19         20
    16  H    0.000000
    17  H    1.767869   0.000000
    18  H    1.777984   1.768014   0.000000
    19  C    2.146598   2.173160   2.147686   0.000000
    20  C    2.788372   3.484308   2.795085   1.503921   0.000000
    21  H    3.823028   4.333649   3.763808   2.181708   1.092435
    22  H    2.663056   3.829519   3.240336   2.142929   1.094752
    23  H    3.059873   3.754857   2.550869   2.142810   1.095391
    24  C    3.199834   2.613571   3.190384   1.347392   2.530884
    25  H    3.423744   2.317675   3.402196   2.098484   3.500052
    26  C    4.555159   4.116752   4.561050   2.561199   3.131209
    27  H    5.057318   4.533966   5.303649   3.308896   4.016283
    28  H    4.691934   4.655584   4.848505   2.751432   2.786082
                   21         22         23         24         25
    21  H    0.000000
    22  H    1.769369   0.000000
    23  H    1.756237   1.775615   0.000000
    24  C    2.716845   3.199054   3.267601   0.000000
    25  H    3.796046   4.101956   4.141180   1.090178   0.000000
    26  C    2.747039   3.794873   3.948442   1.505665   2.187708
    27  H    3.681968   4.506771   4.922356   2.118591   2.402799
    28  H    2.133888   3.303724   3.681115   2.158304   3.067957
                   26         27         28
    26  C    0.000000
    27  H    1.097740   0.000000
    28  H    1.094302   1.745779   0.000000
 Stoichiometry    C10H18
 Framework group  C1[X(C10H18)]
 Deg. of freedom    78
 Full point group                 C1      NOp   1
 Largest Abelian subgroup         C1      NOp   1
 Largest concise Abelian subgroup C1      NOp   1
                         Standard orientation:                         
 ---------------------------------------------------------------------
 Center     Atomic      Atomic             Coordinates (Angstroms)
 Number     Number       Type             X           Y           Z
 ---------------------------------------------------------------------
      1          6           0       -0.572436   -0.345405   -0.548603
      2          1           0       -0.594664   -1.382710   -0.909162
      3          1           0       -0.180061    0.249671   -1.383776
      4          6           0       -1.980063    0.127651   -0.226563
      5          6           0       -2.126363    1.613893   -0.035145
      6          1           0       -1.602854    2.151487   -0.833164
      7          1           0       -1.698565    1.919293    0.924616
      8          1           0       -3.164855    1.951518   -0.064089
      9          6           0       -2.995005   -0.757273   -0.162962
     10          1           0       -2.776845   -1.809710   -0.344086
     11          6           0       -4.432289   -0.490284    0.153682
     12          1           0       -4.622701    0.526090    0.503585
     13          1           0       -5.047892   -0.673242   -0.732153
     14          1           0       -4.763154   -1.172091    0.943997
     15          6           0        4.159274   -0.800880   -0.217004
     16          1           0        4.919063   -0.494910    0.509647
     17          1           0        4.061106   -1.889882   -0.156175
     18          1           0        4.518837   -0.555298   -1.221652
     19          6           0        2.858979   -0.092472    0.060228
     20          6           0        2.946018    1.407608   -0.002742
     21          1           0        1.973993    1.901679    0.064148
     22          1           0        3.572824    1.782741    0.812656
     23          1           0        3.394081    1.718368   -0.952767
     24          6           0        1.738445   -0.792348    0.324885
     25          1           0        1.793945   -1.881112    0.324994
     26          6           0        0.372757   -0.250893    0.654655
     27          1           0       -0.030458   -0.838070    1.489924
     28          1           0        0.432294    0.778591    1.020870
 ---------------------------------------------------------------------
 Rotational constants (GHZ):           3.4680233           0.4559506           0.4195309
 Leave Link  202 at Thu Sep 16 16:24:46 2021, MaxMem=   131072000 cpu:               0.0 elap:               0.0
 (Enter /opt/g16/l301.exe)
 Standard basis: VSTO-6G (5D, 7F)
 Ernie: Thresh=  0.10000D-02 Tol=  0.10000D-05 Strict=F.
  NNHCO=     0 NNPyr=     0 NCTC=     0               EPep=         0.000000000
    EC=       244.066178475  ECS=         3.522811609   EG=         0.892036640
   EHC=         0.000000000  EAt=       -49.524085099  AtH=         4.217842293
 EPDDG=         0.000000000  ECC=       248.481026724 EAtT=        53.741927392
 There are    58 symmetry adapted cartesian basis functions of A   symmetry.
 There are    58 symmetry adapted basis functions of A   symmetry.
    58 basis functions,   348 primitive gaussians,    58 cartesian basis functions
    29 alpha electrons       29 beta electrons
       nuclear repulsion energy       302.2229541158 Hartrees.
 IExCor=    0 DFT=F Ex=HF Corr=None ExCW=0 ScaHFX=  1.000000
 ScaDFX=  1.000000  1.000000  1.000000  1.000000 ScalE2=  1.000000  1.000000
 IRadAn=      5 IRanWt=     -1 IRanGd=            0 ICorTp=0 IEmpDi=  4
 Integral buffers will be    131072 words long.
 Regular integral format.
 Two-electron integral symmetry is turned off.
 Leave Link  301 at Thu Sep 16 16:24:46 2021, MaxMem=   131072000 cpu:               0.0 elap:               0.0
 (Enter /opt/g16/l302.exe)
 Do NDO integrals.
 NPDir=0 NMtPBC=     1 NCelOv=     1 NCel=       1 NClECP=     1 NCelD=      1
         NCelK=      1 NCelE2=     1 NClLst=     1 CellRange=     0.0.
 One-electron integrals computed using PRISM.
 NBasis=    58 RedAO= F EigKep=  0.00D+00  NBF=    58
 NBsUse=    58 1.00D-04 EigRej=  0.00D+00 NBFU=    58
 Leave Link  302 at Thu Sep 16 16:24:46 2021, MaxMem=   131072000 cpu:               0.1 elap:               0.1
 (Enter /opt/g16/l303.exe)
 DipDrv:  MaxL=1.
 Leave Link  303 at Thu Sep 16 16:24:46 2021, MaxMem=   131072000 cpu:               0.0 elap:               0.0
 (Enter /opt/g16/l401.exe)
 Simple Huckel Guess.
 JPrj=0 DoOrth=F DoCkMO=F.
 Leave Link  401 at Thu Sep 16 16:24:46 2021, MaxMem=   131072000 cpu:               0.0 elap:               0.1
 (Enter /opt/g16/l502.exe)
 Keep J ints in memory in canonical form, NReq=866866.
 FoFCou: FMM=F IPFlag=           0 FMFlag=           0 FMFlg1=           0
         NFxFlg=           0 DoJE=F BraDBF=F KetDBF=F FulRan=T
         wScrn=  0.000000 ICntrl=       600 IOpCl=  2 I1Cent=           0 NGrid=           0
         NMat0=    1 NMatS0=    118 NMatT0=    0 NMatD0=    1 NMtDS0=    0 NMtDT0=    0
 Symmetry not used in FoFCou.
 Two-electron integral symmetry not used.
 Closed shell SCF:
 Using DIIS extrapolation, IDIIS=  1040.
 Overlap will be assumed to be unity.
 NGot=   131072000 LenX=   130997697 LenY=   130993892
 Requested convergence on RMS density matrix=1.00D-08 within 128 cycles.
 Requested convergence on MAX density matrix=1.00D-06.
 Requested convergence on             energy=1.00D-06.
 No special actions if energy rises.

 Cycle   1  Pass 1  IDiag  1:
 E= 0.216623423733211    
 DIIS: error= 2.74D-02 at cycle   1 NSaved=   1.
 NSaved= 1 IEnMin= 1 EnMin= 0.216623423733211     IErMin= 1 ErrMin= 2.74D-02
 ErrMax= 2.74D-02  0.00D+00 EMaxC= 1.00D-01 BMatC= 9.44D-02 BMatP= 9.44D-02
 IDIUse=3 WtCom= 7.26D-01 WtEn= 2.74D-01
 Coeff-Com:  0.100D+01
 Coeff-En:   0.100D+01
 Coeff:      0.100D+01
 GapD=    2.000 DampG=2.000 DampE=0.500 DampFc=1.0000 IDamp=-1.
 RMSDP=7.17D-03 MaxDP=8.52D-02              OVMax= 0.00D+00

 Cycle   2  Pass 1  IDiag  1:
 E=-0.326972316435103E-02 Delta-E=       -0.219893146898 Rises=F Damp=F
 DIIS: error= 7.94D-03 at cycle   2 NSaved=   2.
 NSaved= 2 IEnMin= 2 EnMin=-0.326972316435103E-02 IErMin= 2 ErrMin= 7.94D-03
 ErrMax= 7.94D-03  0.00D+00 EMaxC= 1.00D-01 BMatC= 6.06D-03 BMatP= 9.44D-02
 IDIUse=3 WtCom= 9.21D-01 WtEn= 7.94D-02
 Coeff-Com: -0.317D+00 0.132D+01
 Coeff-En:   0.000D+00 0.100D+01
 Coeff:     -0.292D+00 0.129D+01
 RMSDP=2.59D-03 MaxDP=2.87D-02 DE=-2.20D-01 OVMax= 0.00D+00

 Cycle   3  Pass 1  IDiag  3:
 E=-0.205924674693279E-01 Delta-E=       -0.017322744305 Rises=F Damp=F
 DIIS: error= 9.22D-04 at cycle   3 NSaved=   3.
 NSaved= 3 IEnMin= 3 EnMin=-0.205924674693279E-01 IErMin= 3 ErrMin= 9.22D-04
 ErrMax= 9.22D-04  0.00D+00 EMaxC= 1.00D-01 BMatC= 7.23D-05 BMatP= 6.06D-03
 IDIUse=3 WtCom= 9.91D-01 WtEn= 9.22D-03
 Coeff-Com:  0.108D+00-0.502D+00 0.139D+01
 Coeff-En:   0.000D+00 0.000D+00 0.100D+01
 Coeff:      0.107D+00-0.498D+00 0.139D+01
 Gap=     0.377 Goal=   None    Shift=    0.000
 RMSDP=4.21D-04 MaxDP=4.11D-03 DE=-1.73D-02 OVMax= 6.39D-03

 Cycle   4  Pass 1  IDiag  3:
 E=-0.209206107010687E-01 Delta-E=       -0.000328143232 Rises=F Damp=F
 DIIS: error= 1.94D-04 at cycle   4 NSaved=   4.
 NSaved= 4 IEnMin= 4 EnMin=-0.209206107010687E-01 IErMin= 4 ErrMin= 1.94D-04
 ErrMax= 1.94D-04  0.00D+00 EMaxC= 1.00D-01 BMatC= 3.12D-06 BMatP= 7.23D-05
 IDIUse=3 WtCom= 9.98D-01 WtEn= 1.94D-03
 Coeff-Com: -0.467D-01 0.224D+00-0.730D+00 0.155D+01
 Coeff-En:   0.000D+00 0.000D+00 0.000D+00 0.100D+01
 Coeff:     -0.466D-01 0.224D+00-0.729D+00 0.155D+01
 Gap=     0.377 Goal=   None    Shift=    0.000
 RMSDP=1.06D-04 MaxDP=1.14D-03 DE=-3.28D-04 OVMax= 9.41D-04

 Cycle   5  Pass 1  IDiag  3:
 E=-0.209381370214601E-01 Delta-E=       -0.000017526320 Rises=F Damp=F
 DIIS: error= 5.70D-05 at cycle   5 NSaved=   5.
 NSaved= 5 IEnMin= 5 EnMin=-0.209381370214601E-01 IErMin= 5 ErrMin= 5.70D-05
 ErrMax= 5.70D-05  0.00D+00 EMaxC= 1.00D-01 BMatC= 1.76D-07 BMatP= 3.12D-06
 IDIUse=1 WtCom= 1.00D+00 WtEn= 0.00D+00
 Coeff-Com:  0.130D-01-0.627D-01 0.212D+00-0.593D+00 0.143D+01
 Coeff:      0.130D-01-0.627D-01 0.212D+00-0.593D+00 0.143D+01
 Gap=     0.377 Goal=   None    Shift=    0.000
 RMSDP=2.62D-05 MaxDP=3.25D-04 DE=-1.75D-05 OVMax= 2.26D-04

 Cycle   6  Pass 1  IDiag  3:
 E=-0.209392150801477E-01 Delta-E=       -0.000001078059 Rises=F Damp=F
 DIIS: error= 1.82D-05 at cycle   6 NSaved=   6.
 NSaved= 6 IEnMin= 6 EnMin=-0.209392150801477E-01 IErMin= 6 ErrMin= 1.82D-05
 ErrMax= 1.82D-05  0.00D+00 EMaxC= 1.00D-01 BMatC= 1.46D-08 BMatP= 1.76D-07
 IDIUse=1 WtCom= 1.00D+00 WtEn= 0.00D+00
 Coeff-Com: -0.479D-02 0.230D-01-0.761D-01 0.214D+00-0.718D+00 0.156D+01
 Coeff:     -0.479D-02 0.230D-01-0.761D-01 0.214D+00-0.718D+00 0.156D+01
 Gap=     0.377 Goal=   None    Shift=    0.000
 RMSDP=8.84D-06 MaxDP=1.15D-04 DE=-1.08D-06 OVMax= 8.85D-05

 Cycle   7  Pass 1  IDiag  3:
 E=-0.209393155380440E-01 Delta-E=       -0.000000100458 Rises=F Damp=F
 DIIS: error= 4.25D-06 at cycle   7 NSaved=   7.
 NSaved= 7 IEnMin= 7 EnMin=-0.209393155380440E-01 IErMin= 7 ErrMin= 4.25D-06
 ErrMax= 4.25D-06  0.00D+00 EMaxC= 1.00D-01 BMatC= 1.02D-09 BMatP= 1.46D-08
 IDIUse=1 WtCom= 1.00D+00 WtEn= 0.00D+00
 Coeff-Com:  0.117D-02-0.559D-02 0.180D-01-0.505D-01 0.226D+00-0.745D+00
 Coeff-Com:  0.156D+01
 Coeff:      0.117D-02-0.559D-02 0.180D-01-0.505D-01 0.226D+00-0.745D+00
 Coeff:      0.156D+01
 Gap=     0.377 Goal=   None    Shift=    0.000
 RMSDP=2.40D-06 MaxDP=3.26D-05 DE=-1.00D-07 OVMax= 2.86D-05

 Cycle   8  Pass 1  IDiag  3:
 E=-0.209393223948950E-01 Delta-E=       -0.000000006857 Rises=F Damp=F
 DIIS: error= 1.25D-06 at cycle   8 NSaved=   8.
 NSaved= 8 IEnMin= 8 EnMin=-0.209393223948950E-01 IErMin= 8 ErrMin= 1.25D-06
 ErrMax= 1.25D-06  0.00D+00 EMaxC= 1.00D-01 BMatC= 4.87D-11 BMatP= 1.02D-09
 IDIUse=1 WtCom= 1.00D+00 WtEn= 0.00D+00
 Coeff-Com: -0.950D-04 0.443D-03-0.129D-02 0.343D-02-0.308D-01 0.153D+00
 Coeff-Com: -0.503D+00 0.138D+01
 Coeff:     -0.950D-04 0.443D-03-0.129D-02 0.343D-02-0.308D-01 0.153D+00
 Coeff:     -0.503D+00 0.138D+01
 Gap=     0.377 Goal=   None    Shift=    0.000
 RMSDP=4.73D-07 MaxDP=7.66D-06 DE=-6.86D-09 OVMax= 6.57D-06

 Cycle   9  Pass 1  IDiag  3:
 E=-0.209393227075338E-01 Delta-E=       -0.000000000313 Rises=F Damp=F
 DIIS: error= 3.53D-07 at cycle   9 NSaved=   9.
 NSaved= 9 IEnMin= 9 EnMin=-0.209393227075338E-01 IErMin= 9 ErrMin= 3.53D-07
 ErrMax= 3.53D-07  0.00D+00 EMaxC= 1.00D-01 BMatC= 4.44D-12 BMatP= 4.87D-11
 IDIUse=1 WtCom= 1.00D+00 WtEn= 0.00D+00
 Coeff-Com:  0.321D-04-0.147D-03 0.381D-03-0.802D-03 0.105D-01-0.604D-01
 Coeff-Com:  0.220D+00-0.805D+00 0.163D+01
 Coeff:      0.321D-04-0.147D-03 0.381D-03-0.802D-03 0.105D-01-0.604D-01
 Coeff:      0.220D+00-0.805D+00 0.163D+01
 Gap=     0.377 Goal=   None    Shift=    0.000
 RMSDP=1.60D-07 MaxDP=2.50D-06 DE=-3.13D-10 OVMax= 2.18D-06

 Cycle  10  Pass 1  IDiag  3:
 E=-0.209393227390819E-01 Delta-E=       -0.000000000032 Rises=F Damp=F
 DIIS: error= 6.83D-08 at cycle  10 NSaved=  10.
 NSaved=10 IEnMin=10 EnMin=-0.209393227390819E-01 IErMin=10 ErrMin= 6.83D-08
 ErrMax= 6.83D-08  0.00D+00 EMaxC= 1.00D-01 BMatC= 2.62D-13 BMatP= 4.44D-12
 IDIUse=1 WtCom= 1.00D+00 WtEn= 0.00D+00
 Coeff-Com: -0.396D-05 0.166D-04-0.206D-04-0.190D-04-0.236D-02 0.166D-01
 Coeff-Com: -0.654D-01 0.276D+00-0.772D+00 0.155D+01
 Coeff:     -0.396D-05 0.166D-04-0.206D-04-0.190D-04-0.236D-02 0.166D-01
 Coeff:     -0.654D-01 0.276D+00-0.772D+00 0.155D+01
 Gap=     0.377 Goal=   None    Shift=    0.000
 RMSDP=3.94D-08 MaxDP=5.54D-07 DE=-3.15D-11 OVMax= 4.32D-07

 Cycle  11  Pass 1  IDiag  3:
 E=-0.209393227405599E-01 Delta-E=       -0.000000000001 Rises=F Damp=F
 DIIS: error= 1.22D-08 at cycle  11 NSaved=  11.
 NSaved=11 IEnMin=11 EnMin=-0.209393227405599E-01 IErMin=11 ErrMin= 1.22D-08
 ErrMax= 1.22D-08  0.00D+00 EMaxC= 1.00D-01 BMatC= 7.98D-15 BMatP= 2.62D-13
 IDIUse=1 WtCom= 1.00D+00 WtEn= 0.00D+00
 Coeff-Com:  0.559D-06-0.196D-05-0.405D-05 0.368D-04 0.600D-03-0.468D-02
 Coeff-Com:  0.190D-01-0.838D-01 0.255D+00-0.622D+00 0.144D+01
 Coeff:      0.559D-06-0.196D-05-0.405D-05 0.368D-04 0.600D-03-0.468D-02
 Coeff:      0.190D-01-0.838D-01 0.255D+00-0.622D+00 0.144D+01
 Gap=     0.377 Goal=   None    Shift=    0.000
 RMSDP=5.61D-09 MaxDP=8.37D-08 DE=-1.48D-12 OVMax= 4.40D-08

 Cycle  12  Pass 2  IDiag  1:
 SCF Done:  E(RPM3) = -0.209393227406E-01 A.U. after   12 cycles
            NFock= 11  Conv=0.56D-08     -V/T= 0.9997
 KE=-7.902251613414D+01 PE=-4.867434629397D+02 EE= 2.635220856354D+02
 Leave Link  502 at Thu Sep 16 16:24:46 2021, MaxMem=   131072000 cpu:               0.1 elap:               0.1
 (Enter /opt/g16/l601.exe)
 Copying SCF densities to generalized density rwf, IOpCl= 0 IROHF=0.

 **********************************************************************

            Population analysis using the SCF density.

 **********************************************************************

 Orbital symmetries:
       Occupied  (A) (A) (A) (A) (A) (A) (A) (A) (A) (A) (A) (A)
                 (A) (A) (A) (A) (A) (A) (A) (A) (A) (A) (A) (A)
                 (A) (A) (A) (A) (A)
       Virtual   (A) (A) (A) (A) (A) (A) (A) (A) (A) (A) (A) (A)
                 (A) (A) (A) (A) (A) (A) (A) (A) (A) (A) (A) (A)
                 (A) (A) (A) (A) (A)
 The electronic state is 1-A.
 Alpha  occ. eigenvalues --   -1.45409  -1.35174  -1.19170  -1.07835  -1.01349
 Alpha  occ. eigenvalues --   -0.96844  -0.87377  -0.78858  -0.66702  -0.64976
 Alpha  occ. eigenvalues --   -0.60596  -0.59881  -0.56734  -0.56207  -0.55043
 Alpha  occ. eigenvalues --   -0.53471  -0.51189  -0.50531  -0.49420  -0.48634
 Alpha  occ. eigenvalues --   -0.48485  -0.47687  -0.47128  -0.46668  -0.44995
 Alpha  occ. eigenvalues --   -0.43789  -0.42183  -0.35433  -0.34325
 Alpha virt. eigenvalues --    0.03417   0.04202   0.11659   0.12399   0.13337
 Alpha virt. eigenvalues --    0.13644   0.13981   0.14253   0.14793   0.14958
 Alpha virt. eigenvalues --    0.15557   0.15761   0.16025   0.16259   0.16401
 Alpha virt. eigenvalues --    0.16451   0.16495   0.16714   0.16773   0.16989
 Alpha virt. eigenvalues --    0.17047   0.17142   0.17780   0.17895   0.18109
 Alpha virt. eigenvalues --    0.20724   0.21140   0.22245   0.22526
          Condensed to atoms (all electrons):
               1          2          3          4          5          6
     1  C    4.051365   0.000000   0.000000   0.000000   0.000000   0.000000
     2  H    0.000000   0.948817   0.000000   0.000000   0.000000   0.000000
     3  H    0.000000   0.000000   0.945282   0.000000   0.000000   0.000000
     4  C    0.000000   0.000000   0.000000   4.125565   0.000000   0.000000
     5  C    0.000000   0.000000   0.000000   0.000000   4.066142   0.000000
     6  H    0.000000   0.000000   0.000000   0.000000   0.000000   0.956901
     7  H    0.000000   0.000000   0.000000   0.000000   0.000000   0.000000
     8  H    0.000000   0.000000   0.000000   0.000000   0.000000   0.000000
     9  C    0.000000   0.000000   0.000000   0.000000   0.000000   0.000000
    10  H    0.000000   0.000000   0.000000   0.000000   0.000000   0.000000
    11  C    0.000000   0.000000   0.000000   0.000000   0.000000   0.000000
    12  H    0.000000   0.000000   0.000000   0.000000   0.000000   0.000000
    13  H    0.000000   0.000000   0.000000   0.000000   0.000000   0.000000
    14  H    0.000000   0.000000   0.000000   0.000000   0.000000   0.000000
    15  C    0.000000   0.000000   0.000000   0.000000   0.000000   0.000000
    16  H    0.000000   0.000000   0.000000   0.000000   0.000000   0.000000
    17  H    0.000000   0.000000   0.000000   0.000000   0.000000   0.000000
    18  H    0.000000   0.000000   0.000000   0.000000   0.000000   0.000000
    19  C    0.000000   0.000000   0.000000   0.000000   0.000000   0.000000
    20  C    0.000000   0.000000   0.000000   0.000000   0.000000   0.000000
    21  H    0.000000   0.000000   0.000000   0.000000   0.000000   0.000000
    22  H    0.000000   0.000000   0.000000   0.000000   0.000000   0.000000
    23  H    0.000000   0.000000   0.000000   0.000000   0.000000   0.000000
    24  C    0.000000   0.000000   0.000000   0.000000   0.000000   0.000000
    25  H    0.000000   0.000000   0.000000   0.000000   0.000000   0.000000
    26  C    0.000000   0.000000   0.000000   0.000000   0.000000   0.000000
    27  H    0.000000   0.000000   0.000000   0.000000   0.000000   0.000000
    28  H    0.000000   0.000000   0.000000   0.000000   0.000000   0.000000
               7          8          9         10         11         12
     1  C    0.000000   0.000000   0.000000   0.000000   0.000000   0.000000
     2  H    0.000000   0.000000   0.000000   0.000000   0.000000   0.000000
     3  H    0.000000   0.000000   0.000000   0.000000   0.000000   0.000000
     4  C    0.000000   0.000000   0.000000   0.000000   0.000000   0.000000
     5  C    0.000000   0.000000   0.000000   0.000000   0.000000   0.000000
     6  H    0.000000   0.000000   0.000000   0.000000   0.000000   0.000000
     7  H    0.953576   0.000000   0.000000   0.000000   0.000000   0.000000
     8  H    0.000000   0.956066   0.000000   0.000000   0.000000   0.000000
     9  C    0.000000   0.000000   4.151823   0.000000   0.000000   0.000000
    10  H    0.000000   0.000000   0.000000   0.906568   0.000000   0.000000
    11  C    0.000000   0.000000   0.000000   0.000000   4.066176   0.000000
    12  H    0.000000   0.000000   0.000000   0.000000   0.000000   0.957128
    13  H    0.000000   0.000000   0.000000   0.000000   0.000000   0.000000
    14  H    0.000000   0.000000   0.000000   0.000000   0.000000   0.000000
    15  C    0.000000   0.000000   0.000000   0.000000   0.000000   0.000000
    16  H    0.000000   0.000000   0.000000   0.000000   0.000000   0.000000
    17  H    0.000000   0.000000   0.000000   0.000000   0.000000   0.000000
    18  H    0.000000   0.000000   0.000000   0.000000   0.000000   0.000000
    19  C    0.000000   0.000000   0.000000   0.000000   0.000000   0.000000
    20  C    0.000000   0.000000   0.000000   0.000000   0.000000   0.000000
    21  H    0.000000   0.000000   0.000000   0.000000   0.000000   0.000000
    22  H    0.000000   0.000000   0.000000   0.000000   0.000000   0.000000
    23  H    0.000000   0.000000   0.000000   0.000000   0.000000   0.000000
    24  C    0.000000   0.000000   0.000000   0.000000   0.000000   0.000000
    25  H    0.000000   0.000000   0.000000   0.000000   0.000000   0.000000
    26  C    0.000000   0.000000   0.000000   0.000000   0.000000   0.000000
    27  H    0.000000   0.000000   0.000000   0.000000   0.000000   0.000000
    28  H    0.000000   0.000000   0.000000   0.000000   0.000000   0.000000
              13         14         15         16         17         18
     1  C    0.000000   0.000000   0.000000   0.000000   0.000000   0.000000
     2  H    0.000000   0.000000   0.000000   0.000000   0.000000   0.000000
     3  H    0.000000   0.000000   0.000000   0.000000   0.000000   0.000000
     4  C    0.000000   0.000000   0.000000   0.000000   0.000000   0.000000
     5  C    0.000000   0.000000   0.000000   0.000000   0.000000   0.000000
     6  H    0.000000   0.000000   0.000000   0.000000   0.000000   0.000000
     7  H    0.000000   0.000000   0.000000   0.000000   0.000000   0.000000
     8  H    0.000000   0.000000   0.000000   0.000000   0.000000   0.000000
     9  C    0.000000   0.000000   0.000000   0.000000   0.000000   0.000000
    10  H    0.000000   0.000000   0.000000   0.000000   0.000000   0.000000
    11  C    0.000000   0.000000   0.000000   0.000000   0.000000   0.000000
    12  H    0.000000   0.000000   0.000000   0.000000   0.000000   0.000000
    13  H    0.955532   0.000000   0.000000   0.000000   0.000000   0.000000
    14  H    0.000000   0.958502   0.000000   0.000000   0.000000   0.000000
    15  C    0.000000   0.000000   4.068569   0.000000   0.000000   0.000000
    16  H    0.000000   0.000000   0.000000   0.955813   0.000000   0.000000
    17  H    0.000000   0.000000   0.000000   0.000000   0.958952   0.000000
    18  H    0.000000   0.000000   0.000000   0.000000   0.000000   0.955635
    19  C    0.000000   0.000000   0.000000   0.000000   0.000000   0.000000
    20  C    0.000000   0.000000   0.000000   0.000000   0.000000   0.000000
    21  H    0.000000   0.000000   0.000000   0.000000   0.000000   0.000000
    22  H    0.000000   0.000000   0.000000   0.000000   0.000000   0.000000
    23  H    0.000000   0.000000   0.000000   0.000000   0.000000   0.000000
    24  C    0.000000   0.000000   0.000000   0.000000   0.000000   0.000000
    25  H    0.000000   0.000000   0.000000   0.000000   0.000000   0.000000
    26  C    0.000000   0.000000   0.000000   0.000000   0.000000   0.000000
    27  H    0.000000   0.000000   0.000000   0.000000   0.000000   0.000000
    28  H    0.000000   0.000000   0.000000   0.000000   0.000000   0.000000
              19         20         21         22         23         24
     1  C    0.000000   0.000000   0.000000   0.000000   0.000000   0.000000
     2  H    0.000000   0.000000   0.000000   0.000000   0.000000   0.000000
     3  H    0.000000   0.000000   0.000000   0.000000   0.000000   0.000000
     4  C    0.000000   0.000000   0.000000   0.000000   0.000000   0.000000
     5  C    0.000000   0.000000   0.000000   0.000000   0.000000   0.000000
     6  H    0.000000   0.000000   0.000000   0.000000   0.000000   0.000000
     7  H    0.000000   0.000000   0.000000   0.000000   0.000000   0.000000
     8  H    0.000000   0.000000   0.000000   0.000000   0.000000   0.000000
     9  C    0.000000   0.000000   0.000000   0.000000   0.000000   0.000000
    10  H    0.000000   0.000000   0.000000   0.000000   0.000000   0.000000
    11  C    0.000000   0.000000   0.000000   0.000000   0.000000   0.000000
    12  H    0.000000   0.000000   0.000000   0.000000   0.000000   0.000000
    13  H    0.000000   0.000000   0.000000   0.000000   0.000000   0.000000
    14  H    0.000000   0.000000   0.000000   0.000000   0.000000   0.000000
    15  C    0.000000   0.000000   0.000000   0.000000   0.000000   0.000000
    16  H    0.000000   0.000000   0.000000   0.000000   0.000000   0.000000
    17  H    0.000000   0.000000   0.000000   0.000000   0.000000   0.000000
    18  H    0.000000   0.000000   0.000000   0.000000   0.000000   0.000000
    19  C    4.118663   0.000000   0.000000   0.000000   0.000000   0.000000
    20  C    0.000000   4.067711   0.000000   0.000000   0.000000   0.000000
    21  H    0.000000   0.000000   0.954606   0.000000   0.000000   0.000000
    22  H    0.000000   0.000000   0.000000   0.954873   0.000000   0.000000
    23  H    0.000000   0.000000   0.000000   0.000000   0.956322   0.000000
    24  C    0.000000   0.000000   0.000000   0.000000   0.000000   4.158349
    25  H    0.000000   0.000000   0.000000   0.000000   0.000000   0.000000
    26  C    0.000000   0.000000   0.000000   0.000000   0.000000   0.000000
    27  H    0.000000   0.000000   0.000000   0.000000   0.000000   0.000000
    28  H    0.000000   0.000000   0.000000   0.000000   0.000000   0.000000
              25         26         27         28
     1  C    0.000000   0.000000   0.000000   0.000000
     2  H    0.000000   0.000000   0.000000   0.000000
     3  H    0.000000   0.000000   0.000000   0.000000
     4  C    0.000000   0.000000   0.000000   0.000000
     5  C    0.000000   0.000000   0.000000   0.000000
     6  H    0.000000   0.000000   0.000000   0.000000
     7  H    0.000000   0.000000   0.000000   0.000000
     8  H    0.000000   0.000000   0.000000   0.000000
     9  C    0.000000   0.000000   0.000000   0.000000
    10  H    0.000000   0.000000   0.000000   0.000000
    11  C    0.000000   0.000000   0.000000   0.000000
    12  H    0.000000   0.000000   0.000000   0.000000
    13  H    0.000000   0.000000   0.000000   0.000000
    14  H    0.000000   0.000000   0.000000   0.000000
    15  C    0.000000   0.000000   0.000000   0.000000
    16  H    0.000000   0.000000   0.000000   0.000000
    17  H    0.000000   0.000000   0.000000   0.000000
    18  H    0.000000   0.000000   0.000000   0.000000
    19  C    0.000000   0.000000   0.000000   0.000000
    20  C    0.000000   0.000000   0.000000   0.000000
    21  H    0.000000   0.000000   0.000000   0.000000
    22  H    0.000000   0.000000   0.000000   0.000000
    23  H    0.000000   0.000000   0.000000   0.000000
    24  C    0.000000   0.000000   0.000000   0.000000
    25  H    0.904674   0.000000   0.000000   0.000000
    26  C    0.000000   4.054573   0.000000   0.000000
    27  H    0.000000   0.000000   0.947097   0.000000
    28  H    0.000000   0.000000   0.000000   0.944718
 Mulliken charges:
               1
     1  C   -0.051365
     2  H    0.051183
     3  H    0.054718
     4  C   -0.125565
     5  C   -0.066142
     6  H    0.043099
     7  H    0.046424
     8  H    0.043934
     9  C   -0.151823
    10  H    0.093432
    11  C   -0.066176
    12  H    0.042872
    13  H    0.044468
    14  H    0.041498
    15  C   -0.068569
    16  H    0.044187
    17  H    0.041048
    18  H    0.044365
    19  C   -0.118663
    20  C   -0.067711
    21  H    0.045394
    22  H    0.045127
    23  H    0.043678
    24  C   -0.158349
    25  H    0.095326
    26  C   -0.054573
    27  H    0.052903
    28  H    0.055282
 Sum of Mulliken charges =  -0.00000
 Mulliken charges with hydrogens summed into heavy atoms:
               1
     1  C    0.054536
     4  C   -0.125565
     5  C    0.067315
     9  C   -0.058391
    11  C    0.062662
    15  C    0.061031
    19  C   -0.118663
    20  C    0.066487
    24  C   -0.063023
    26  C    0.053612
 Charge=              0.0000 electrons
 Dipole moment (field-independent basis, Debye):
    X=              0.1604    Y=              0.2922    Z=             -0.0162  Tot=              0.3337
 N-N= 3.022229541158D+02 E-N=-4.867434631975D+02  KE=-7.902251613414D+01
 Leave Link  601 at Thu Sep 16 16:24:46 2021, MaxMem=   131072000 cpu:               0.0 elap:               0.0
 (Enter /opt/g16/l701.exe)
 ... and contract with generalized density number  0.
 Compute integral first derivatives.
 Leave Link  701 at Thu Sep 16 16:24:46 2021, MaxMem=   131072000 cpu:               0.1 elap:               0.1
 (Enter /opt/g16/l702.exe)
 L702 exits ... SP integral derivatives will be done elsewhere.
 Leave Link  702 at Thu Sep 16 16:24:46 2021, MaxMem=   131072000 cpu:               0.0 elap:               0.0
 (Enter /opt/g16/l703.exe)
 Integral derivatives from FoFJK, PRISM(SPDF).
 Compute integral first derivatives, UseDBF=F ICtDFT=           0.
 Calling FoFJK, ICntrl=      2127 FMM=F ISym2X=0 I1Cent= 0 IOpClX= 0 NMat=1 NMatS=1 NMatT=0.
 FoFJK:  IHMeth= 9 ICntrl=    2127 DoSepK=F KAlg= 0 I1Cent=           0 FoldK=F
 IRaf=         0 NMat=       1 IRICut=       1 DoRegI=T DoRafI=F ISym2E= 0 IDoP0=3 IntGTp=3.
 FoFCou: FMM=F IPFlag=           0 FMFlag=      100000 FMFlg1=         800
         NFxFlg=           0 DoJE=F BraDBF=F KetDBF=F FulRan=T
         wScrn=  0.000000 ICntrl=      2127 IOpCl=  0 I1Cent=           0 NGrid=           0
         NMat0=    1 NMatS0=      1 NMatT0=    0 NMatD0=    1 NMtDS0=    0 NMtDT0=    0
 Symmetry not used in FoFCou.
 Leave Link  703 at Thu Sep 16 16:24:46 2021, MaxMem=   131072000 cpu:               0.0 elap:               0.0
 (Enter /opt/g16/l716.exe)
 Dipole        = 6.31162245D-02 1.14942316D-01-6.36350455D-03
 ***** Axes restored to original set *****
 -------------------------------------------------------------------
 Center     Atomic                   Forces (Hartrees/Bohr)
 Number     Number              X              Y              Z
 -------------------------------------------------------------------
      1        6          -0.010859257    0.008546577    0.006104337
      2        1          -0.000295782   -0.006515301    0.000652762
      3        1           0.003387996    0.002332715   -0.005059153
      4        6          -0.001305139    0.003063251   -0.000721209
      5        6           0.001185212   -0.017178806    0.003559740
      6        1           0.002586527    0.000711212   -0.000755396
      7        1           0.000940498    0.001414055    0.001790106
      8        1          -0.005384657   -0.000816458    0.000852545
      9        6           0.000872946    0.013705882   -0.001230151
     10        1           0.001241949   -0.005331232    0.001256218
     11        6           0.017651875   -0.002234025    0.001101872
     12        1           0.000852155    0.004463874   -0.002015913
     13        1          -0.001327538   -0.000511478   -0.001880220
     14        1          -0.001596643   -0.000953201    0.001555168
     15        6          -0.013915233    0.006471869   -0.001786955
     16        1           0.001555822    0.001055118    0.000376723
     17        1          -0.000233412   -0.001662425    0.000742155
     18        1           0.001503755    0.000272912   -0.001204348
     19        6          -0.003457055    0.002089670   -0.002442867
     20        6          -0.001817029   -0.015095064    0.006165419
     21        1          -0.004905559    0.000405384    0.000831402
     22        1           0.001141257    0.001232800    0.000991230
     23        1           0.002184605   -0.000029793   -0.001072808
     24        6           0.001320700    0.011856714   -0.005464337
     25        1          -0.000028534   -0.005094403    0.001461706
     26        6           0.011158640   -0.010067698   -0.006725151
     27        1          -0.003860798   -0.001382404    0.005357962
     28        1           0.001402698    0.009250255   -0.002440839
 -------------------------------------------------------------------
 Cartesian Forces:  Max     0.017651875 RMS     0.005390034
 Leave Link  716 at Thu Sep 16 16:24:46 2021, MaxMem=   131072000 cpu:               0.0 elap:               0.0
 (Enter /opt/g16/l103.exe)

 GradGradGradGradGradGradGradGradGradGradGradGradGradGradGradGradGradGrad
 Berny optimization.
 FormGI is forming the generalized inverse of G from B-inverse, IUseBI=4.
 Internal  Forces:  Max     0.019576490 RMS     0.005012565
 Search for a local minimum.
 Step number   1 out of a maximum of  138
 All quantities printed in internal units (Hartrees-Bohrs-Radians)
 RMS Force = .50126D-02 SwitMx=.10000D-02 MixMth= 1
 Mixed Optimization -- RFO/linear search
 Second derivative matrix not updated -- first step.
 ITU=  0
     Eigenvalues ---    0.00329   0.00508   0.00680   0.00691   0.00691
     Eigenvalues ---    0.00714   0.00822   0.01208   0.01287   0.01568
     Eigenvalues ---    0.01643   0.02776   0.02785   0.03986   0.04128
     Eigenvalues ---    0.05346   0.05393   0.06977   0.06982   0.07016
     Eigenvalues ---    0.07092   0.07290   0.07301   0.07347   0.07512
     Eigenvalues ---    0.09280   0.09380   0.12768   0.12861   0.15999
     Eigenvalues ---    0.15999   0.16000   0.16000   0.16000   0.16000
     Eigenvalues ---    0.16000   0.16000   0.16000   0.16000   0.16000
     Eigenvalues ---    0.16000   0.16000   0.16000   0.21870   0.21900
     Eigenvalues ---    0.22000   0.22000   0.24987   0.24993   0.24998
     Eigenvalues ---    0.24999   0.29146   0.30414   0.31707   0.31790
     Eigenvalues ---    0.31793   0.31969   0.32825   0.33859   0.33905
     Eigenvalues ---    0.33933   0.34196   0.34197   0.34229   0.34246
     Eigenvalues ---    0.34247   0.34247   0.34269   0.34320   0.34324
     Eigenvalues ---    0.34338   0.34533   0.34539   0.34622   0.34792
     Eigenvalues ---    0.34817   0.55438   0.55580
 RFO step:  Lambda=-1.01512810D-02 EMin= 3.29145100D-03
 Linear search not attempted -- first point.
 Iteration  1 RMS(Cart)=  0.11230358 RMS(Int)=  0.00216492
 Iteration  2 RMS(Cart)=  0.00371531 RMS(Int)=  0.00006798
 Iteration  3 RMS(Cart)=  0.00000451 RMS(Int)=  0.00006792
 Iteration  4 RMS(Cart)=  0.00000000 RMS(Int)=  0.00006792
 ITry= 1 IFail=0 DXMaxC= 4.11D-01 DCOld= 1.00D+10 DXMaxT= 3.00D-01 DXLimC= 3.00D+00 Rises=F
 Variable       Old X    -DE/DX   Delta X   Delta X   Delta X     New X
                                 (Linear)    (Quad)   (Total)
    R1        2.07569   0.00655   0.00000   0.01877   0.01877   2.09446
    R2        2.07490   0.00645   0.00000   0.01846   0.01846   2.09336
    R3        2.87146  -0.01625   0.00000  -0.05171  -0.05171   2.81975
    R4        2.89699  -0.00819   0.00000  -0.02714  -0.02714   2.86985
    R5        2.84525  -0.01669   0.00000  -0.05086  -0.05086   2.79439
    R6        2.54745  -0.01958   0.00000  -0.03468  -0.03468   2.51277
    R7        2.07001   0.00232   0.00000   0.00660   0.00660   2.07661
    R8        2.06787   0.00244   0.00000   0.00691   0.00691   2.07478
    R9        2.06430   0.00442   0.00000   0.01243   0.01243   2.07673
   R10        2.05973   0.00561   0.00000   0.01565   0.01565   2.07538
   R11        2.82660  -0.01488   0.00000  -0.04397  -0.04397   2.78262
   R12        2.06292   0.00442   0.00000   0.01239   0.01239   2.07532
   R13        2.06763   0.00226   0.00000   0.00639   0.00639   2.07401
   R14        2.06917   0.00232   0.00000   0.00659   0.00659   2.07576
   R15        2.06916   0.00169   0.00000   0.00479   0.00479   2.07395
   R16        2.06946   0.00183   0.00000   0.00521   0.00521   2.07466
   R17        2.06915   0.00174   0.00000   0.00494   0.00494   2.07409
   R18        2.84683  -0.01281   0.00000  -0.03913  -0.03913   2.80769
   R19        2.84200  -0.01544   0.00000  -0.04680  -0.04680   2.79520
   R20        2.54620  -0.01859   0.00000  -0.03285  -0.03285   2.51335
   R21        2.06440   0.00415   0.00000   0.01168   0.01168   2.07608
   R22        2.06878   0.00191   0.00000   0.00542   0.00542   2.07420
   R23        2.06999   0.00213   0.00000   0.00604   0.00604   2.07603
   R24        2.06014   0.00526   0.00000   0.01470   0.01470   2.07484
   R25        2.84529  -0.01588   0.00000  -0.04841  -0.04841   2.79688
   R26        2.07443   0.00674   0.00000   0.01928   0.01928   2.09371
   R27        2.06793   0.00940   0.00000   0.02661   0.02661   2.09454
    A1        1.84353  -0.00031   0.00000   0.00947   0.00940   1.85293
    A2        1.92285   0.00179   0.00000   0.00774   0.00773   1.93058
    A3        1.90535   0.00155   0.00000   0.00670   0.00671   1.91205
    A4        1.90025   0.00169   0.00000   0.00409   0.00397   1.90422
    A5        1.92120   0.00120   0.00000   0.00186   0.00177   1.92297
    A6        1.96667  -0.00557   0.00000  -0.02742  -0.02747   1.93921
    A7        2.00895   0.00354   0.00000   0.01375   0.01370   2.02265
    A8        2.09797   0.00215   0.00000   0.00840   0.00836   2.10633
    A9        2.17588  -0.00568   0.00000  -0.02169  -0.02174   2.15415
   A10        1.92345   0.00095   0.00000   0.00868   0.00872   1.93217
   A11        1.92731   0.00009   0.00000  -0.00260  -0.00268   1.92464
   A12        1.97588  -0.00370   0.00000  -0.02175  -0.02179   1.95409
   A13        1.89142  -0.00057   0.00000  -0.00345  -0.00344   1.88798
   A14        1.85808   0.00254   0.00000   0.02069   0.02075   1.87884
   A15        1.88456   0.00085   0.00000  -0.00048  -0.00064   1.88392
   A16        2.06611   0.00556   0.00000   0.02376   0.02371   2.08983
   A17        2.23479  -0.01175   0.00000  -0.05101  -0.05106   2.18374
   A18        1.98215   0.00620   0.00000   0.02751   0.02746   2.00962
   A19        1.98411  -0.00273   0.00000  -0.01754  -0.01755   1.96656
   A20        1.91707   0.00077   0.00000   0.00265   0.00258   1.91965
   A21        1.90923   0.00147   0.00000   0.01195   0.01196   1.92118
   A22        1.89341  -0.00017   0.00000  -0.00687  -0.00696   1.88645
   A23        1.87097   0.00122   0.00000   0.01042   0.01047   1.88144
   A24        1.88623  -0.00049   0.00000   0.00014   0.00009   1.88632
   A25        1.87887   0.00010   0.00000   0.00216   0.00216   1.88102
   A26        1.89480  -0.00091   0.00000  -0.00852  -0.00853   1.88628
   A27        1.92346   0.00022   0.00000   0.00050   0.00050   1.92396
   A28        1.87909   0.00005   0.00000   0.00177   0.00177   1.88086
   A29        1.96062   0.00019   0.00000   0.00273   0.00273   1.96335
   A30        1.92498   0.00030   0.00000   0.00098   0.00097   1.92595
   A31        1.99477   0.00308   0.00000   0.01188   0.01186   2.00662
   A32        2.10563   0.00254   0.00000   0.00978   0.00976   2.11539
   A33        2.18274  -0.00562   0.00000  -0.02155  -0.02157   2.16116
   A34        1.97910  -0.00350   0.00000  -0.02082  -0.02083   1.95826
   A35        1.92169   0.00059   0.00000   0.00157   0.00152   1.92322
   A36        1.92086   0.00074   0.00000   0.00650   0.00652   1.92739
   A37        1.88480   0.00077   0.00000   0.00071   0.00063   1.88543
   A38        1.86372   0.00209   0.00000   0.01568   0.01573   1.87946
   A39        1.89080  -0.00057   0.00000  -0.00284  -0.00285   1.88794
   A40        2.06740   0.00542   0.00000   0.02354   0.02349   2.09089
   A41        2.22754  -0.01096   0.00000  -0.04755  -0.04760   2.17995
   A42        1.98810   0.00555   0.00000   0.02429   0.02425   2.01235
   A43        1.94460  -0.00414   0.00000  -0.02169  -0.02182   1.92278
   A44        1.91535   0.00100   0.00000   0.00789   0.00800   1.92336
   A45        1.93287   0.00045   0.00000  -0.00667  -0.00690   1.92597
   A46        1.88332   0.00189   0.00000   0.01480   0.01487   1.89819
   A47        1.94149   0.00097   0.00000  -0.00413  -0.00444   1.93704
   A48        1.84269   0.00015   0.00000   0.01259   0.01259   1.85528
    D1       -2.90177  -0.00074   0.00000  -0.00812  -0.00826  -2.91003
    D2        0.21144  -0.00045   0.00000   0.00893   0.00902   0.22047
    D3       -0.88772   0.00084   0.00000   0.00985   0.00974  -0.87798
    D4        2.22550   0.00112   0.00000   0.02690   0.02702   2.25252
    D5        1.24888  -0.00016   0.00000  -0.00325  -0.00335   1.24554
    D6       -1.92108   0.00013   0.00000   0.01380   0.01393  -1.90715
    D7        0.94783   0.00113   0.00000   0.01908   0.01901   0.96684
    D8       -1.13696   0.00075   0.00000   0.00921   0.00922  -1.12774
    D9        3.11867  -0.00030   0.00000  -0.00696  -0.00688   3.11179
   D10       -1.06821  -0.00005   0.00000   0.00283   0.00277  -1.06544
   D11        3.13019  -0.00044   0.00000  -0.00704  -0.00702   3.12316
   D12        1.10263  -0.00148   0.00000  -0.02321  -0.02312   1.07951
   D13        3.09019   0.00075   0.00000   0.01512   0.01502   3.10521
   D14        1.00540   0.00036   0.00000   0.00525   0.00523   1.01063
   D15       -1.02215  -0.00068   0.00000  -0.01092  -0.01087  -1.03303
   D16        0.80195  -0.00004   0.00000   0.01661   0.01657   0.81852
   D17       -1.28718   0.00001   0.00000   0.01699   0.01699  -1.27019
   D18        2.88064   0.00141   0.00000   0.03462   0.03447   2.91511
   D19       -2.30983  -0.00050   0.00000  -0.00190  -0.00181  -2.31164
   D20        1.88423  -0.00045   0.00000  -0.00151  -0.00139   1.88284
   D21       -0.23114   0.00095   0.00000   0.01612   0.01609  -0.21505
   D22        0.00349   0.00035   0.00000   0.00297   0.00304   0.00653
   D23        3.12709   0.00087   0.00000   0.02296   0.02304  -3.13306
   D24        3.11384   0.00085   0.00000   0.02240   0.02232   3.13616
   D25       -0.04575   0.00137   0.00000   0.04240   0.04233  -0.00342
   D26       -0.15784   0.00076   0.00000   0.01240   0.01235  -0.14549
   D27        1.96719  -0.00080   0.00000  -0.00675  -0.00673   1.96046
   D28       -2.24838  -0.00004   0.00000   0.00219   0.00224  -2.24614
   D29        2.96648   0.00126   0.00000   0.03161   0.03155   2.99802
   D30       -1.19168  -0.00029   0.00000   0.01246   0.01247  -1.17920
   D31        0.87594   0.00046   0.00000   0.02140   0.02144   0.89738
   D32        1.03975  -0.00055   0.00000  -0.01200  -0.01208   1.02767
   D33       -2.11181  -0.00030   0.00000   0.00017   0.00025  -2.11156
   D34        3.13475  -0.00014   0.00000  -0.00710  -0.00719   3.12757
   D35       -0.01681   0.00011   0.00000   0.00507   0.00515  -0.01166
   D36       -1.05210   0.00026   0.00000  -0.00236  -0.00244  -1.05454
   D37        2.07953   0.00050   0.00000   0.00981   0.00989   2.08942
   D38        3.00376   0.00092   0.00000   0.02272   0.02262   3.02639
   D39       -1.16561  -0.00006   0.00000   0.01043   0.01040  -1.15521
   D40        0.91757   0.00006   0.00000   0.01196   0.01193   0.92950
   D41       -0.12735   0.00060   0.00000   0.00971   0.00971  -0.11765
   D42        1.98646  -0.00038   0.00000  -0.00258  -0.00251   1.98395
   D43       -2.21355  -0.00026   0.00000  -0.00105  -0.00098  -2.21453
   D44       -0.00902   0.00009   0.00000  -0.00338  -0.00334  -0.01236
   D45        3.11327   0.00058   0.00000   0.01611   0.01617   3.12944
   D46        3.12148   0.00043   0.00000   0.01040   0.01034   3.13182
   D47       -0.03942   0.00092   0.00000   0.02989   0.02985  -0.00957
   D48        1.80020  -0.00050   0.00000  -0.00315  -0.00306   1.79713
   D49       -2.37928  -0.00056   0.00000   0.00299   0.00296  -2.37632
   D50       -0.36579   0.00124   0.00000   0.02451   0.02448  -0.34131
   D51       -1.35996  -0.00002   0.00000   0.01562   0.01570  -1.34427
   D52        0.74374  -0.00008   0.00000   0.02177   0.02172   0.76546
   D53        2.75724   0.00172   0.00000   0.04329   0.04324   2.80048
         Item               Value     Threshold  Converged?
 Maximum Force            0.019576     0.000450     NO 
 RMS     Force            0.005013     0.000300     NO 
 Maximum Displacement     0.411170     0.001800     NO 
 RMS     Displacement     0.112524     0.001200     NO 
 Predicted change in Energy=-5.313309D-03
 Lowest energy point so far.  Saving SCF results.
 GradGradGradGradGradGradGradGradGradGradGradGradGradGradGradGradGradGrad

 Leave Link  103 at Thu Sep 16 16:24:46 2021, MaxMem=   131072000 cpu:               0.0 elap:               0.0
 (Enter /opt/g16/l202.exe)
                          Input orientation:                          
 ---------------------------------------------------------------------
 Center     Atomic      Atomic             Coordinates (Angstroms)
 Number     Number       Type             X           Y           Z
 ---------------------------------------------------------------------
      1          6           0       -0.525336   -0.555955   -0.316015
      2          1           0       -0.560503   -1.660999   -0.238190
      3          1           0        0.060572   -0.329533   -1.228470
      4          6           0       -1.900138    0.004077   -0.466957
      5          6           0       -1.978082    1.420731   -0.883669
      6          1           0       -1.304582    1.614354   -1.730117
      7          1           0       -1.683931    2.077848   -0.054746
      8          1           0       -2.993758    1.702311   -1.194839
      9          6           0       -2.969783   -0.754222   -0.245723
     10          1           0       -2.841524   -1.802038    0.057215
     11          6           0       -4.366713   -0.306930   -0.375249
     12          1           0       -4.451218    0.775951   -0.537399
     13          1           0       -4.846962   -0.816495   -1.220384
     14          1           0       -4.928015   -0.554826    0.535830
     15          6           0        3.959146   -0.673762    0.955296
     16          1           0        4.593050   -0.082631    1.628502
     17          1           0        3.845732   -1.673818    1.393851
     18          1           0        4.487896   -0.785035   -0.000050
     19          6           0        2.654970    0.007083    0.747743
     20          6           0        2.745166    1.368131    0.175627
     21          1           0        1.757108    1.782995   -0.066417
     22          1           0        3.233435    2.046557    0.887035
     23          1           0        3.338061    1.356879   -0.749169
     24          6           0        1.508743   -0.588071    1.065348
     25          1           0        1.518240   -1.605407    1.478198
     26          6           0        0.167712    0.017913    0.907375
     27          1           0       -0.427586   -0.191904    1.817941
     28          1           0        0.237499    1.121296    0.828732
 ---------------------------------------------------------------------
                    Distance matrix (angstroms):
                    1          2          3          4          5
     1  C    0.000000
     2  H    1.108340   0.000000
     3  H    1.107759   1.771776   0.000000
     4  C    1.492145   2.149287   2.129690   0.000000
     5  C    2.517933   3.453004   2.708952   1.478727   0.000000
     6  H    2.705023   3.675247   2.427755   2.131491   1.098892
     7  H    2.889208   3.908289   3.196311   2.125368   1.097926
     8  H    3.459075   4.260019   3.668576   2.147048   1.098960
     9  C    2.453482   2.574283   3.213908   1.329700   2.474039
    10  H    2.656454   2.304390   3.499059   2.103097   3.466560
    11  C    3.849896   4.042218   4.508808   2.487796   2.991465
    12  H    4.151570   4.600643   4.696374   2.666227   2.579157
    13  H    4.422919   4.477904   4.931641   3.150359   3.653632
    14  H    4.484330   4.571420   5.296178   3.238208   3.823599
    15  C    4.662691   4.777685   4.481764   6.067411   6.558915
    16  H    5.495731   5.703937   5.363451   6.823485   7.193808
    17  H    4.824883   4.698790   4.796989   6.268409   6.977115
    18  H    5.028400   5.129362   4.617109   6.453501   6.888763
    19  C    3.400433   3.754176   3.278663   4.714288   5.111270
    20  C    3.826226   4.502702   3.472837   4.883892   4.840862
    21  H    3.277581   4.154747   2.948114   4.086616   3.840674
    22  H    4.727447   5.422736   4.493131   5.688461   5.539581
    23  H    4.332712   4.956560   3.716941   5.417420   5.318227
    24  C    2.458998   2.670612   2.725003   3.784054   4.471230
    25  H    2.914919   2.696340   3.328468   4.249632   5.192321
    26  C    1.518659   2.159020   2.166572   2.482939   3.127326
    27  H    2.166992   2.530530   3.088343   2.725358   3.507610
    28  H    2.169224   3.084850   2.523547   2.737970   2.816164
                    6          7          8          9         10
     6  H    0.000000
     7  H    1.779213   0.000000
     8  H    1.774140   1.776650   0.000000
     9  C    3.253686   3.116169   2.633619   0.000000
    10  H    4.150721   4.050441   3.724416   1.098244   0.000000
    11  C    3.860524   3.603777   2.567837   1.472501   2.179122
    12  H    3.467969   3.096089   1.847853   2.149687   3.096887
    13  H    4.326350   4.443050   3.127203   2.116044   2.573973
    14  H    4.792611   4.219458   3.439656   2.117841   2.477509
    15  C    6.336699   6.358920   7.655826   7.032708   6.951882
    16  H    6.995866   6.848466   8.289567   7.820499   7.790905
    17  H    6.862725   6.837442   8.054700   7.070015   6.820735
    18  H    6.504076   6.803715   7.974306   7.461788   7.399863
    19  C    4.939754   4.874231   6.209312   5.762327   5.827624
    20  C    4.482516   4.491512   5.909746   6.110856   6.424570
    21  H    3.488594   3.453669   4.883705   5.367786   5.832252
    22  H    5.256414   5.006838   6.575001   6.899813   7.239158
    23  H    4.752125   5.120784   6.356876   6.670765   6.986865
    24  C    4.536529   4.307540   5.534149   4.669444   4.627620
    25  H    5.350559   5.115681   6.200343   4.882496   4.589705
    26  C    3.416525   2.932165   4.153480   3.430701   3.618079
    27  H    4.076814   3.199553   4.387498   3.322300   3.394081
    28  H    3.028007   2.321082   3.856610   3.867645   4.315264
                   11         12         13         14         15
    11  C    0.000000
    12  H    1.098210   0.000000
    13  H    1.097520   1.777348   0.000000
    14  H    1.098442   1.774859   1.777450   0.000000
    15  C    8.439481   8.663950   9.072017   8.897849   0.000000
    16  H    9.183827   9.339544   9.887797   9.595185   1.097487
    17  H    8.511307   8.863999   9.117684   8.886336   1.097864
    18  H    8.875441   9.090280   9.414339   9.433956   1.097563
    19  C    7.117848   7.262277   7.799410   7.606728   1.485767
    20  C    7.327218   7.255827   8.022583   7.918662   2.500192
    21  H    6.477990   6.307082   7.190461   7.107670   3.453769
    22  H    8.055713   7.918166   8.827859   8.573202   2.816283
    23  H    7.891237   7.813783   8.481757   8.581017   2.722949
    24  C    6.056017   6.320640   6.758087   6.458587   2.454369
    25  H    6.305076   6.735572   6.958486   6.598937   2.664472
    26  C    4.723522   4.898624   5.510949   5.141256   3.854307
    27  H    4.509993   4.761721   5.399298   4.693547   4.496639
    28  H    4.968719   4.895881   5.814263   5.438539   4.133873
                   16         17         18         19         20
    16  H    0.000000
    17  H    1.773534   0.000000
    18  H    1.776685   1.773491   0.000000
    19  C    2.130713   2.158888   2.132197   0.000000
    20  C    2.762287   3.456699   2.775624   1.479156   0.000000
    21  H    3.794190   4.294681   3.749184   2.150087   1.098615
    22  H    2.632824   3.804334   3.221568   2.124494   1.097620
    23  H    3.049672   3.746383   2.543834   2.128217   1.098589
    24  C    3.175778   2.597745   3.170050   1.330007   2.479329
    25  H    3.434516   2.330025   3.417175   2.103770   3.470442
    26  C    4.484835   4.077553   4.486884   2.492399   3.000302
    27  H    5.025397   4.542815   5.274358   3.269109   3.898367
    28  H    4.589106   4.599061   4.731474   2.663117   2.603050
                   21         22         23         24         25
    21  H    0.000000
    22  H    1.777098   0.000000
    23  H    1.774017   1.778698   0.000000
    24  C    2.639039   3.153985   3.228266   0.000000
    25  H    3.731510   4.077770   4.128929   1.097957   0.000000
    26  C    2.567092   3.676202   3.819434   1.480045   2.187449
    27  H    3.496273   4.390941   4.813406   2.114879   2.428920
    28  H    1.883706   3.136102   3.486941   2.143357   3.081722
                   26         27         28
    26  C    0.000000
    27  H    1.107941   0.000000
[...]
    25  H    6.239373   6.710631   6.821326   6.602931   2.676148
    26  C    4.632328   4.902867   5.437857   4.964692   3.867303
    27  H    4.366008   4.790130   5.207497   4.468806   4.407959
    28  H    4.821950   4.859141   5.739153   5.131552   4.132186
                   16         17         18         19         20
    16  H    0.000000
    17  H    1.772312   0.000000
    18  H    1.772112   1.772189   0.000000
    19  C    2.138186   2.163926   2.138439   0.000000
    20  C    2.773821   3.468777   2.793603   1.486017   0.000000
    21  H    3.808134   4.306649   3.769632   2.156238   1.102494
    22  H    2.653742   3.821266   3.244386   2.136216   1.098180
    23  H    3.062319   3.768387   2.573746   2.139618   1.098015
    24  C    3.193749   2.608530   3.181481   1.339745   2.492265
    25  H    3.453568   2.344910   3.429090   2.113870   3.484522
    26  C    4.505359   4.094695   4.503080   2.503020   3.007687
    27  H    4.860812   4.559657   5.210042   3.126611   3.612291
    28  H    4.684044   4.616918   4.634917   2.648880   2.552493
                   21         22         23         24         25
    21  H    0.000000
    22  H    1.777148   0.000000
    23  H    1.777702   1.773384   0.000000
    24  C    2.645779   3.171870   3.246040   0.000000
    25  H    3.739061   4.096976   4.151074   1.098261   0.000000
    26  C    2.564934   3.685577   3.829357   1.486383   2.195718
    27  H    3.171491   4.022992   4.580898   2.120242   2.610450
    28  H    1.768528   3.234822   3.318571   2.151479   3.107839
                   26         27         28
    26  C    0.000000
    27  H    1.108646   0.000000
    28  H    1.114154   1.772183   0.000000
 Stoichiometry    C10H18
 Framework group  C1[X(C10H18)]
 Deg. of freedom    78
 Full point group                 C1      NOp   1
 RotChk:  IX=2 Diff= 1.53D-15
 Largest Abelian subgroup         C1      NOp   1
 Largest concise Abelian subgroup C1      NOp   1
                         Standard orientation:                         
 ---------------------------------------------------------------------
 Center     Atomic      Atomic             Coordinates (Angstroms)
 Number     Number       Type             X           Y           Z
 ---------------------------------------------------------------------
      1          6           0       -0.643540   -0.480937   -0.740135
      2          1           0       -0.695883   -1.565152   -0.967021
      3          1           0       -0.305929    0.004077   -1.677688
      4          6           0       -1.994765    0.041016   -0.359461
      5          6           0       -2.245398    1.472911   -0.665739
      6          1           0       -2.210558    1.650120   -1.749077
      7          1           0       -1.482745    2.110957   -0.198464
      8          1           0       -3.232072    1.804677   -0.302812
      9          6           0       -2.899129   -0.760467    0.219625
     10          1           0       -2.648537   -1.811248    0.415140
     11          6           0       -4.254550   -0.339739    0.634218
     12          1           0       -4.438167    0.730846    0.444538
     13          1           0       -5.018759   -0.911145    0.090971
     14          1           0       -4.403876   -0.519513    1.706981
     15          6           0        4.159028   -0.658902   -0.267519
     16          1           0        4.848836   -0.657775    0.587422
     17          1           0        4.062977   -1.696131   -0.614798
     18          1           0        4.631185   -0.081592   -1.074211
     19          6           0        2.852577   -0.056559    0.112737
     20          6           0        2.923147    1.338407    0.620021
     21          1           0        1.921426    1.770199    0.780028
     22          1           0        3.459599    1.374955    1.577561
     23          1           0        3.458139    1.985805   -0.087296
     24          6           0        1.711197   -0.748722   -0.001631
     25          1           0        1.730474   -1.776683   -0.387768
     26          6           0        0.369015   -0.230266    0.371311
     27          1           0        0.041888   -0.729725    1.305455
     28          1           0        0.416504    0.856878    0.610482
 ---------------------------------------------------------------------
 Rotational constants (GHZ):           3.3762655           0.4583522           0.4338351
 Leave Link  202 at Thu Sep 16 16:24:58 2021, MaxMem=   131072000 cpu:               0.0 elap:               0.0
 (Enter /opt/g16/l601.exe)
 Copying SCF densities to generalized density rwf, IOpCl= 0 IROHF=0.

 **********************************************************************

            Population analysis using the SCF density.

 **********************************************************************

 Orbital symmetries:
       Occupied  (A) (A) (A) (A) (A) (A) (A) (A) (A) (A) (A) (A)
                 (A) (A) (A) (A) (A) (A) (A) (A) (A) (A) (A) (A)
                 (A) (A) (A) (A) (A)
       Virtual   (A) (A) (A) (A) (A) (A) (A) (A) (A) (A) (A) (A)
                 (A) (A) (A) (A) (A) (A) (A) (A) (A) (A) (A) (A)
                 (A) (A) (A) (A) (A)
 The electronic state is 1-A.
 Alpha  occ. eigenvalues --   -1.46958  -1.36637  -1.19413  -1.07498  -1.01532
 Alpha  occ. eigenvalues --   -0.96532  -0.86779  -0.78719  -0.67180  -0.64778
 Alpha  occ. eigenvalues --   -0.61274  -0.59496  -0.57495  -0.56755  -0.55161
 Alpha  occ. eigenvalues --   -0.53463  -0.51324  -0.50624  -0.49069  -0.48372
 Alpha  occ. eigenvalues --   -0.48326  -0.47749  -0.47349  -0.46847  -0.44569
 Alpha  occ. eigenvalues --   -0.43746  -0.42171  -0.35073  -0.34364
 Alpha virt. eigenvalues --    0.03531   0.04202   0.12017   0.12730   0.13351
 Alpha virt. eigenvalues --    0.13582   0.13721   0.14241   0.14793   0.14885
 Alpha virt. eigenvalues --    0.15501   0.15795   0.15930   0.16324   0.16348
 Alpha virt. eigenvalues --    0.16489   0.16503   0.16586   0.16623   0.16810
 Alpha virt. eigenvalues --    0.17064   0.17102   0.17773   0.17971   0.18089
 Alpha virt. eigenvalues --    0.20994   0.21370   0.22280   0.22544
          Condensed to atoms (all electrons):
               1          2          3          4          5          6
     1  C    4.053898   0.000000   0.000000   0.000000   0.000000   0.000000
     2  H    0.000000   0.947276   0.000000   0.000000   0.000000   0.000000
     3  H    0.000000   0.000000   0.944142   0.000000   0.000000   0.000000
     4  C    0.000000   0.000000   0.000000   4.128112   0.000000   0.000000
     5  C    0.000000   0.000000   0.000000   0.000000   4.075262   0.000000
     6  H    0.000000   0.000000   0.000000   0.000000   0.000000   0.953251
     7  H    0.000000   0.000000   0.000000   0.000000   0.000000   0.000000
     8  H    0.000000   0.000000   0.000000   0.000000   0.000000   0.000000
     9  C    0.000000   0.000000   0.000000   0.000000   0.000000   0.000000
    10  H    0.000000   0.000000   0.000000   0.000000   0.000000   0.000000
    11  C    0.000000   0.000000   0.000000   0.000000   0.000000   0.000000
    12  H    0.000000   0.000000   0.000000   0.000000   0.000000   0.000000
    13  H    0.000000   0.000000   0.000000   0.000000   0.000000   0.000000
    14  H    0.000000   0.000000   0.000000   0.000000   0.000000   0.000000
    15  C    0.000000   0.000000   0.000000   0.000000   0.000000   0.000000
    16  H    0.000000   0.000000   0.000000   0.000000   0.000000   0.000000
    17  H    0.000000   0.000000   0.000000   0.000000   0.000000   0.000000
    18  H    0.000000   0.000000   0.000000   0.000000   0.000000   0.000000
    19  C    0.000000   0.000000   0.000000   0.000000   0.000000   0.000000
    20  C    0.000000   0.000000   0.000000   0.000000   0.000000   0.000000
    21  H    0.000000   0.000000   0.000000   0.000000   0.000000   0.000000
    22  H    0.000000   0.000000   0.000000   0.000000   0.000000   0.000000
    23  H    0.000000   0.000000   0.000000   0.000000   0.000000   0.000000
    24  C    0.000000   0.000000   0.000000   0.000000   0.000000   0.000000
    25  H    0.000000   0.000000   0.000000   0.000000   0.000000   0.000000
    26  C    0.000000   0.000000   0.000000   0.000000   0.000000   0.000000
    27  H    0.000000   0.000000   0.000000   0.000000   0.000000   0.000000
    28  H    0.000000   0.000000   0.000000   0.000000   0.000000   0.000000
               7          8          9         10         11         12
     1  C    0.000000   0.000000   0.000000   0.000000   0.000000   0.000000
     2  H    0.000000   0.000000   0.000000   0.000000   0.000000   0.000000
     3  H    0.000000   0.000000   0.000000   0.000000   0.000000   0.000000
     4  C    0.000000   0.000000   0.000000   0.000000   0.000000   0.000000
     5  C    0.000000   0.000000   0.000000   0.000000   0.000000   0.000000
     6  H    0.000000   0.000000   0.000000   0.000000   0.000000   0.000000
     7  H    0.953626   0.000000   0.000000   0.000000   0.000000   0.000000
     8  H    0.000000   0.950550   0.000000   0.000000   0.000000   0.000000
     9  C    0.000000   0.000000   4.150550   0.000000   0.000000   0.000000
    10  H    0.000000   0.000000   0.000000   0.901421   0.000000   0.000000
    11  C    0.000000   0.000000   0.000000   0.000000   4.078860   0.000000
    12  H    0.000000   0.000000   0.000000   0.000000   0.000000   0.952246
    13  H    0.000000   0.000000   0.000000   0.000000   0.000000   0.000000
    14  H    0.000000   0.000000   0.000000   0.000000   0.000000   0.000000
    15  C    0.000000   0.000000   0.000000   0.000000   0.000000   0.000000
    16  H    0.000000   0.000000   0.000000   0.000000   0.000000   0.000000
    17  H    0.000000   0.000000   0.000000   0.000000   0.000000   0.000000
    18  H    0.000000   0.000000   0.000000   0.000000   0.000000   0.000000
    19  C    0.000000   0.000000   0.000000   0.000000   0.000000   0.000000
    20  C    0.000000   0.000000   0.000000   0.000000   0.000000   0.000000
    21  H    0.000000   0.000000   0.000000   0.000000   0.000000   0.000000
    22  H    0.000000   0.000000   0.000000   0.000000   0.000000   0.000000
    23  H    0.000000   0.000000   0.000000   0.000000   0.000000   0.000000
    24  C    0.000000   0.000000   0.000000   0.000000   0.000000   0.000000
    25  H    0.000000   0.000000   0.000000   0.000000   0.000000   0.000000
    26  C    0.000000   0.000000   0.000000   0.000000   0.000000   0.000000
    27  H    0.000000   0.000000   0.000000   0.000000   0.000000   0.000000
    28  H    0.000000   0.000000   0.000000   0.000000   0.000000   0.000000
              13         14         15         16         17         18
     1  C    0.000000   0.000000   0.000000   0.000000   0.000000   0.000000
     2  H    0.000000   0.000000   0.000000   0.000000   0.000000   0.000000
     3  H    0.000000   0.000000   0.000000   0.000000   0.000000   0.000000
     4  C    0.000000   0.000000   0.000000   0.000000   0.000000   0.000000
     5  C    0.000000   0.000000   0.000000   0.000000   0.000000   0.000000
     6  H    0.000000   0.000000   0.000000   0.000000   0.000000   0.000000
     7  H    0.000000   0.000000   0.000000   0.000000   0.000000   0.000000
     8  H    0.000000   0.000000   0.000000   0.000000   0.000000   0.000000
     9  C    0.000000   0.000000   0.000000   0.000000   0.000000   0.000000
    10  H    0.000000   0.000000   0.000000   0.000000   0.000000   0.000000
    11  C    0.000000   0.000000   0.000000   0.000000   0.000000   0.000000
    12  H    0.000000   0.000000   0.000000   0.000000   0.000000   0.000000
    13  H    0.955199   0.000000   0.000000   0.000000   0.000000   0.000000
    14  H    0.000000   0.955791   0.000000   0.000000   0.000000   0.000000
    15  C    0.000000   0.000000   4.068711   0.000000   0.000000   0.000000
    16  H    0.000000   0.000000   0.000000   0.956433   0.000000   0.000000
    17  H    0.000000   0.000000   0.000000   0.000000   0.958390   0.000000
    18  H    0.000000   0.000000   0.000000   0.000000   0.000000   0.956045
    19  C    0.000000   0.000000   0.000000   0.000000   0.000000   0.000000
    20  C    0.000000   0.000000   0.000000   0.000000   0.000000   0.000000
    21  H    0.000000   0.000000   0.000000   0.000000   0.000000   0.000000
    22  H    0.000000   0.000000   0.000000   0.000000   0.000000   0.000000
    23  H    0.000000   0.000000   0.000000   0.000000   0.000000   0.000000
    24  C    0.000000   0.000000   0.000000   0.000000   0.000000   0.000000
    25  H    0.000000   0.000000   0.000000   0.000000   0.000000   0.000000
    26  C    0.000000   0.000000   0.000000   0.000000   0.000000   0.000000
    27  H    0.000000   0.000000   0.000000   0.000000   0.000000   0.000000
    28  H    0.000000   0.000000   0.000000   0.000000   0.000000   0.000000
              19         20         21         22         23         24
     1  C    0.000000   0.000000   0.000000   0.000000   0.000000   0.000000
     2  H    0.000000   0.000000   0.000000   0.000000   0.000000   0.000000
     3  H    0.000000   0.000000   0.000000   0.000000   0.000000   0.000000
     4  C    0.000000   0.000000   0.000000   0.000000   0.000000   0.000000
     5  C    0.000000   0.000000   0.000000   0.000000   0.000000   0.000000
     6  H    0.000000   0.000000   0.000000   0.000000   0.000000   0.000000
     7  H    0.000000   0.000000   0.000000   0.000000   0.000000   0.000000
     8  H    0.000000   0.000000   0.000000   0.000000   0.000000   0.000000
     9  C    0.000000   0.000000   0.000000   0.000000   0.000000   0.000000
    10  H    0.000000   0.000000   0.000000   0.000000   0.000000   0.000000
    11  C    0.000000   0.000000   0.000000   0.000000   0.000000   0.000000
    12  H    0.000000   0.000000   0.000000   0.000000   0.000000   0.000000
    13  H    0.000000   0.000000   0.000000   0.000000   0.000000   0.000000
    14  H    0.000000   0.000000   0.000000   0.000000   0.000000   0.000000
    15  C    0.000000   0.000000   0.000000   0.000000   0.000000   0.000000
    16  H    0.000000   0.000000   0.000000   0.000000   0.000000   0.000000
    17  H    0.000000   0.000000   0.000000   0.000000   0.000000   0.000000
    18  H    0.000000   0.000000   0.000000   0.000000   0.000000   0.000000
    19  C    4.122893   0.000000   0.000000   0.000000   0.000000   0.000000
    20  C    0.000000   4.076310   0.000000   0.000000   0.000000   0.000000
    21  H    0.000000   0.000000   0.950035   0.000000   0.000000   0.000000
    22  H    0.000000   0.000000   0.000000   0.953721   0.000000   0.000000
    23  H    0.000000   0.000000   0.000000   0.000000   0.954656   0.000000
    24  C    0.000000   0.000000   0.000000   0.000000   0.000000   4.156862
    25  H    0.000000   0.000000   0.000000   0.000000   0.000000   0.000000
    26  C    0.000000   0.000000   0.000000   0.000000   0.000000   0.000000
    27  H    0.000000   0.000000   0.000000   0.000000   0.000000   0.000000
    28  H    0.000000   0.000000   0.000000   0.000000   0.000000   0.000000
              25         26         27         28
     1  C    0.000000   0.000000   0.000000   0.000000
     2  H    0.000000   0.000000   0.000000   0.000000
     3  H    0.000000   0.000000   0.000000   0.000000
     4  C    0.000000   0.000000   0.000000   0.000000
     5  C    0.000000   0.000000   0.000000   0.000000
     6  H    0.000000   0.000000   0.000000   0.000000
     7  H    0.000000   0.000000   0.000000   0.000000
     8  H    0.000000   0.000000   0.000000   0.000000
     9  C    0.000000   0.000000   0.000000   0.000000
    10  H    0.000000   0.000000   0.000000   0.000000
    11  C    0.000000   0.000000   0.000000   0.000000
    12  H    0.000000   0.000000   0.000000   0.000000
    13  H    0.000000   0.000000   0.000000   0.000000
    14  H    0.000000   0.000000   0.000000   0.000000
    15  C    0.000000   0.000000   0.000000   0.000000
    16  H    0.000000   0.000000   0.000000   0.000000
    17  H    0.000000   0.000000   0.000000   0.000000
    18  H    0.000000   0.000000   0.000000   0.000000
    19  C    0.000000   0.000000   0.000000   0.000000
    20  C    0.000000   0.000000   0.000000   0.000000
    21  H    0.000000   0.000000   0.000000   0.000000
    22  H    0.000000   0.000000   0.000000   0.000000
    23  H    0.000000   0.000000   0.000000   0.000000
    24  C    0.000000   0.000000   0.000000   0.000000
    25  H    0.898775   0.000000   0.000000   0.000000
    26  C    0.000000   4.068711   0.000000   0.000000
    27  H    0.000000   0.000000   0.941187   0.000000
    28  H    0.000000   0.000000   0.000000   0.937087
 Mulliken charges:
               1
     1  C   -0.053898
     2  H    0.052724
     3  H    0.055858
     4  C   -0.128112
     5  C   -0.075262
     6  H    0.046749
     7  H    0.046374
     8  H    0.049450
     9  C   -0.150550
    10  H    0.098579
    11  C   -0.078860
    12  H    0.047754
    13  H    0.044801
    14  H    0.044209
    15  C   -0.068711
    16  H    0.043567
    17  H    0.041610
    18  H    0.043955
    19  C   -0.122893
    20  C   -0.076310
    21  H    0.049965
    22  H    0.046279
    23  H    0.045344
    24  C   -0.156862
    25  H    0.101225
    26  C   -0.068711
    27  H    0.058813
    28  H    0.062913
 Sum of Mulliken charges =  -0.00000
 Mulliken charges with hydrogens summed into heavy atoms:
               1
     1  C    0.054684
     4  C   -0.128112
     5  C    0.067311
     9  C   -0.051971
    11  C    0.057904
    15  C    0.060420
    19  C   -0.122893
    20  C    0.065278
    24  C   -0.055637
    26  C    0.053014
 Charge=              0.0000 electrons
 Dipole moment (field-independent basis, Debye):
    X=              0.0870    Y=              0.3355    Z=              0.0725  Tot=              0.3541
 N-N= 3.036140746940D+02 E-N=-4.893918755179D+02  KE=-7.910786561792D+01
 Leave Link  601 at Thu Sep 16 16:24:58 2021, MaxMem=   131072000 cpu:               0.0 elap:               0.0
 (Enter /opt/g16/l9999.exe)
 1\1\GINC-TOTEM\FOpt\RPM3\ZDO\C10H18\JRAMOS\16-Sep-2021\0\\#p opt pm3\\
 Conformer number 001. Energy MM = 23.712 kcal/mol\\0,1\C,-0.5835657027
 ,-0.6827714835,-0.522064836\H,-0.6549363555,-1.7798281302,-0.376765504
 9\H,-0.0463689606,-0.5432213637,-1.4813204875\C,-1.949751136,-0.076122
 2895,-0.6151750539\C,-2.0538062275,1.162780627,-1.4283410935\H,-1.8035
 893108,0.9601789872,-2.4783798437\H,-1.3579281987,1.9297148542,-1.0613
 868684\H,-3.0704155942,1.5883349597,-1.4015171536\C,-2.9927616546,-0.6
 412144124,0.0080342005\H,-2.845509864,-1.559663462,0.5910698866\C,-4.3
 753987871,-0.1181864057,-0.0206448379\H,-4.4569652709,0.8215532958,-0.
 5916813004\H,-5.0544904381,-0.8484104175,-0.480258312\H,-4.7359601015,
 0.0772262558,0.9978087366\C,4.0231598587,-0.6397220614,0.9256662078\H,
 4.5369151884,-0.3399847298,1.8492318375\H,3.9345544654,-1.7341269456,0
 .9356566514\H,4.6727447066,-0.3674040382,0.0825453972\C,2.7056176056,0
 .0428067295,0.8140224501\C,2.7597023463,1.5277912267,0.8259966881\H,1.
 7727110758,1.977995671,0.6293848499\H,3.1057354691,1.8942511479,1.8016
 84661\H,3.456079082,1.9005294347,0.0632626057\C,1.5683848767,-0.658491
 3937,0.7150304081\H,1.6007288554,-1.7562594295,0.7090097474\C,0.212326
 4454,-0.057674594,0.617771841\H,-0.3147894477,-0.2118580178,1.58082493
 97\H,0.2767770746,1.046275985,0.4818341832\\Version=ES64L-G16RevA.03\S
 tate=1-A\HF=-0.0283334\RMSD=6.631e-09\RMSF=2.817e-06\Dipole=0.0358267,
 0.134157,-0.0113117\PG=C01 [X(C10H18)]\\@


 REPARTEE - WHAT YOU THINK OF AFTER YOU BECOME A DEPARTEE.
 Job cpu time:       0 days  0 hours  0 minutes 12.6 seconds.
 Elapsed time:       0 days  0 hours  0 minutes 10.9 seconds.
 File lengths (MBytes):  RWF=      6 Int=      0 D2E=      0 Chk=      2 Scr=      1
 Normal termination of Gaussian 16 at Thu Sep 16 16:24:58 2021.
