 Entering Gaussian System, Link 0=/opt/g16/g16
 Input=03-IsoP_004_gaussian.com
 Output=03-IsoP_004_gaussian.log
 Initial command:
 /opt/g16/l1.exe "/tmp/Gau-1501472.inp" -scrdir="/tmp/"
 Entering Link 1 = /opt/g16/l1.exe PID=   1501479.
  
 Copyright (c) 1988,1990,1992,1993,1995,1998,2003,2009,2016,
            Gaussian, Inc.  All Rights Reserved.
  
 This is part of the Gaussian(R) 16 program.  It is based on
 the Gaussian(R) 09 system (copyright 2009, Gaussian, Inc.),
 the Gaussian(R) 03 system (copyright 2003, Gaussian, Inc.),
 the Gaussian(R) 98 system (copyright 1998, Gaussian, Inc.),
 the Gaussian(R) 94 system (copyright 1995, Gaussian, Inc.),
 the Gaussian 92(TM) system (copyright 1992, Gaussian, Inc.),
 the Gaussian 90(TM) system (copyright 1990, Gaussian, Inc.),
 the Gaussian 88(TM) system (copyright 1988, Gaussian, Inc.),
 the Gaussian 86(TM) system (copyright 1986, Carnegie Mellon
 University), and the Gaussian 82(TM) system (copyright 1983,
 Carnegie Mellon University). Gaussian is a federally registered
 trademark of Gaussian, Inc.
  
 This software contains proprietary and confidential information,
 including trade secrets, belonging to Gaussian, Inc.
  
 This software is provided under written license and may be
 used, copied, transmitted, or stored only in accord with that
 written license.
  
 The following legend is applicable only to US Government
 contracts under FAR:
  
                    RESTRICTED RIGHTS LEGEND
  
 Use, reproduction and disclosure by the US Government is
 subject to restrictions as set forth in subparagraphs (a)
 and (c) of the Commercial Computer Software - Restricted
 Rights clause in FAR 52.227-19.
  
 Gaussian, Inc.
 340 Quinnipiac St., Bldg. 40, Wallingford CT 06492
  
  
 ---------------------------------------------------------------
 Warning -- This program may not be used in any manner that
 competes with the business of Gaussian, Inc. or will provide
 assistance to any competitor of Gaussian, Inc.  The licensee
 of this program is prohibited from giving any competitor of
 Gaussian, Inc. access to this program.  By using this program,
 the user acknowledges that Gaussian, Inc. is engaged in the
 business of creating and licensing software in the field of
 computational chemistry and represents and warrants to the
 licensee that it is not a competitor of Gaussian, Inc. and that
 it will not use this program in any manner prohibited above.
 ---------------------------------------------------------------
  

 Cite this work as:
 Gaussian 16, Revision A.03,
 M. J. Frisch, G. W. Trucks, H. B. Schlegel, G. E. Scuseria, 
 M. A. Robb, J. R. Cheeseman, G. Scalmani, V. Barone, 
 G. A. Petersson, H. Nakatsuji, X. Li, M. Caricato, A. V. Marenich, 
 J. Bloino, B. G. Janesko, R. Gomperts, B. Mennucci, H. P. Hratchian, 
 J. V. Ortiz, A. F. Izmaylov, J. L. Sonnenberg, D. Williams-Young, 
 F. Ding, F. Lipparini, F. Egidi, J. Goings, B. Peng, A. Petrone, 
 T. Henderson, D. Ranasinghe, V. G. Zakrzewski, J. Gao, N. Rega, 
 G. Zheng, W. Liang, M. Hada, M. Ehara, K. Toyota, R. Fukuda, 
 J. Hasegawa, M. Ishida, T. Nakajima, Y. Honda, O. Kitao, H. Nakai, 
 T. Vreven, K. Throssell, J. A. Montgomery, Jr., J. E. Peralta, 
 F. Ogliaro, M. J. Bearpark, J. J. Heyd, E. N. Brothers, K. N. Kudin, 
 V. N. Staroverov, T. A. Keith, R. Kobayashi, J. Normand, 
 K. Raghavachari, A. P. Rendell, J. C. Burant, S. S. Iyengar, 
 J. Tomasi, M. Cossi, J. M. Millam, M. Klene, C. Adamo, R. Cammi, 
 J. W. Ochterski, R. L. Martin, K. Morokuma, O. Farkas, 
 J. B. Foresman, and D. J. Fox, Gaussian, Inc., Wallingford CT, 2016.
 
 ******************************************
 Gaussian 16:  ES64L-G16RevA.03 25-Dec-2016
                16-Sep-2021 
 ******************************************
 %chk=03-IsoP_004_gaussian.chk
 %nproc=1
 Will use up to    1 processors via shared memory.
 %mem=1000Mb
 ----------
 #p opt pm3
 ----------
 1/18=20,19=15,26=1,38=1/1,3;
 2/9=110,12=2,17=6,18=5,40=1/2;
 3/5=2,25=1,41=800000,71=1/1,2,3;
 4/35=1/1;
 5/5=2,35=1,38=5/2;
 6/7=2,8=2,9=2,10=2,28=1/1;
 7//1,2,3,16;
 1/18=20,19=15,26=1/3(2);
 2/9=110/2;
 99//99;
 2/9=110/2;
 3/5=2,25=1,41=800000,71=1,135=20/1,2,3;
 4/5=5,16=3,35=1/1;
 5/5=2,35=1,38=5/2;
 7//1,2,3,16;
 1/18=20,19=15,26=1/3(-5);
 2/9=110/2;
 6/7=2,8=2,9=2,10=2,19=2,28=1/1;
 99/9=1/99;
 Leave Link    1 at Thu Sep 16 16:24:45 2021, MaxMem=   131072000 cpu:               0.0 elap:               0.0
 (Enter /opt/g16/l101.exe)
 -------------------------------------------------
 Conformer number 004. Energy MM = 23.287 kcal/mol
 -------------------------------------------------
 Symbolic Z-matrix:
 Charge =  0 Multiplicity = 1
 C                    -0.6905   -0.5847   -0.2133 
 H                    -0.0025   -0.9809   -0.9723 
 H                    -0.9235   -1.4419    0.4297 
 C                    -1.9412   -0.0769   -0.9006 
 C                    -1.7101    0.5883   -2.2335 
 H                    -2.6434    0.9285   -2.6946 
 H                    -1.2334   -0.1104   -2.9287 
 H                    -1.0613    1.4622   -2.1184 
 C                    -3.189    -0.2098   -0.4089 
 H                    -4.0239    0.1716   -0.9964 
 C                    -3.5942   -0.817     0.8968 
 H                    -4.1634   -1.7344    0.7193 
 H                    -2.7496   -1.0543    1.5474 
 H                    -4.2372   -0.117     1.4402 
 C                     2.9879    0.9246   -0.2603 
 H                     3.5204    1.8307    0.0463 
 H                     3.6723    0.3061   -0.8511 
 H                     2.1749    1.2204   -0.9271 
 C                     2.521     0.1647    0.9506 
 C                     3.6331   -0.4141    1.7859 
 H                     3.258    -0.9539    2.6618 
 H                     4.2278   -1.1162    1.1923 
 H                     4.2914    0.3839    2.1446 
 C                     1.2326   -0.0224    1.2977 
 H                     1.0152   -0.6088    2.1906 
 C                     0.0068    0.5082    0.6031 
 H                    -0.6766    0.8906    1.3724 
 H                     0.2465    1.3685   -0.0296 
 
 ITRead=  0  0  0  0  0  0  0  0  0  0  0  0  0  0  0  0  0  0  0  0
 ITRead=  0  0  0  0  0  0  0  0
 MicOpt= -1 -1 -1 -1 -1 -1 -1 -1 -1 -1 -1 -1 -1 -1 -1 -1 -1 -1 -1 -1
 MicOpt= -1 -1 -1 -1 -1 -1 -1 -1
 NAtoms=     28 NQM=       28 NQMF=       0 NMMI=      0 NMMIF=      0
                NMic=       0 NMicF=      0.
                    Isotopes and Nuclear Properties:
 (Nuclear quadrupole moments (NQMom) in fm**2, nuclear magnetic moments (NMagM)
  in nuclear magnetons)

  Atom         1           2           3           4           5           6           7           8           9          10
 IAtWgt=          12           1           1          12          12           1           1           1          12           1
 AtmWgt=  12.0000000   1.0078250   1.0078250  12.0000000  12.0000000   1.0078250   1.0078250   1.0078250  12.0000000   1.0078250
 NucSpn=           0           1           1           0           0           1           1           1           0           1
 AtZEff=  -0.0000000  -0.0000000  -0.0000000  -0.0000000  -0.0000000  -0.0000000  -0.0000000  -0.0000000  -0.0000000  -0.0000000
 NQMom=    0.0000000   0.0000000   0.0000000   0.0000000   0.0000000   0.0000000   0.0000000   0.0000000   0.0000000   0.0000000
 NMagM=    0.0000000   2.7928460   2.7928460   0.0000000   0.0000000   2.7928460   2.7928460   2.7928460   0.0000000   2.7928460
 AtZNuc=   6.0000000   1.0000000   1.0000000   6.0000000   6.0000000   1.0000000   1.0000000   1.0000000   6.0000000   1.0000000

  Atom        11          12          13          14          15          16          17          18          19          20
 IAtWgt=          12           1           1           1          12           1           1           1          12          12
 AtmWgt=  12.0000000   1.0078250   1.0078250   1.0078250  12.0000000   1.0078250   1.0078250   1.0078250  12.0000000  12.0000000
 NucSpn=           0           1           1           1           0           1           1           1           0           0
 AtZEff=  -0.0000000  -0.0000000  -0.0000000  -0.0000000  -0.0000000  -0.0000000  -0.0000000  -0.0000000  -0.0000000  -0.0000000
 NQMom=    0.0000000   0.0000000   0.0000000   0.0000000   0.0000000   0.0000000   0.0000000   0.0000000   0.0000000   0.0000000
 NMagM=    0.0000000   2.7928460   2.7928460   2.7928460   0.0000000   2.7928460   2.7928460   2.7928460   0.0000000   0.0000000
 AtZNuc=   6.0000000   1.0000000   1.0000000   1.0000000   6.0000000   1.0000000   1.0000000   1.0000000   6.0000000   6.0000000

  Atom        21          22          23          24          25          26          27          28
 IAtWgt=           1           1           1          12           1          12           1           1
 AtmWgt=   1.0078250   1.0078250   1.0078250  12.0000000   1.0078250  12.0000000   1.0078250   1.0078250
 NucSpn=           1           1           1           0           1           0           1           1
 AtZEff=  -0.0000000  -0.0000000  -0.0000000  -0.0000000  -0.0000000  -0.0000000  -0.0000000  -0.0000000
 NQMom=    0.0000000   0.0000000   0.0000000   0.0000000   0.0000000   0.0000000   0.0000000   0.0000000
 NMagM=    2.7928460   2.7928460   2.7928460   0.0000000   2.7928460   0.0000000   2.7928460   2.7928460
 AtZNuc=   1.0000000   1.0000000   1.0000000   6.0000000   1.0000000   6.0000000   1.0000000   1.0000000
 Leave Link  101 at Thu Sep 16 16:24:46 2021, MaxMem=   131072000 cpu:               0.2 elap:               0.2
 (Enter /opt/g16/l103.exe)

 GradGradGradGradGradGradGradGradGradGradGradGradGradGradGradGradGradGrad
 Berny optimization.
 Initialization pass.
                           ----------------------------
                           !    Initial Parameters    !
                           ! (Angstroms and Degrees)  !
 --------------------------                            --------------------------
 ! Name  Definition              Value          Derivative Info.                !
 --------------------------------------------------------------------------------
 ! R1    R(1,2)                  1.0984         estimate D2E/DX2                !
 ! R2    R(1,3)                  1.0966         estimate D2E/DX2                !
 ! R3    R(1,4)                  1.5148         estimate D2E/DX2                !
 ! R4    R(1,26)                 1.532          estimate D2E/DX2                !
 ! R5    R(4,5)                  1.5075         estimate D2E/DX2                !
 ! R6    R(4,9)                  1.3478         estimate D2E/DX2                !
 ! R7    R(5,6)                  1.0952         estimate D2E/DX2                !
 ! R8    R(5,7)                  1.0949         estimate D2E/DX2                !
 ! R9    R(5,8)                  1.0945         estimate D2E/DX2                !
 ! R10   R(9,10)                 1.0898         estimate D2E/DX2                !
 ! R11   R(9,11)                 1.4959         estimate D2E/DX2                !
 ! R12   R(11,12)                1.0941         estimate D2E/DX2                !
 ! R13   R(11,13)                1.0922         estimate D2E/DX2                !
 ! R14   R(11,14)                1.0949         estimate D2E/DX2                !
 ! R15   R(15,16)                1.0948         estimate D2E/DX2                !
 ! R16   R(15,17)                1.0954         estimate D2E/DX2                !
 ! R17   R(15,18)                1.0923         estimate D2E/DX2                !
 ! R18   R(15,19)                1.5039         estimate D2E/DX2                !
 ! R19   R(19,20)                1.5065         estimate D2E/DX2                !
 ! R20   R(19,24)                1.3474         estimate D2E/DX2                !
 ! R21   R(20,21)                1.0951         estimate D2E/DX2                !
 ! R22   R(20,22)                1.095          estimate D2E/DX2                !
 ! R23   R(20,23)                1.0949         estimate D2E/DX2                !
 ! R24   R(24,25)                1.0901         estimate D2E/DX2                !
 ! R25   R(24,26)                1.5055         estimate D2E/DX2                !
 ! R26   R(26,27)                1.0978         estimate D2E/DX2                !
 ! R27   R(26,28)                1.0945         estimate D2E/DX2                !
 ! A1    A(2,1,3)              104.8513         estimate D2E/DX2                !
 ! A2    A(2,1,4)              108.9398         estimate D2E/DX2                !
 ! A3    A(2,1,26)             109.9051         estimate D2E/DX2                !
 ! A4    A(3,1,4)              110.6505         estimate D2E/DX2                !
 ! A5    A(3,1,26)             109.991          estimate D2E/DX2                !
 ! A6    A(4,1,26)             112.2374         estimate D2E/DX2                !
 ! A7    A(1,4,5)              114.9948         estimate D2E/DX2                !
 ! A8    A(1,4,9)              124.4613         estimate D2E/DX2                !
 ! A9    A(5,4,9)              120.5322         estimate D2E/DX2                !
 ! A10   A(4,5,6)              112.2531         estimate D2E/DX2                !
 ! A11   A(4,5,7)              110.278          estimate D2E/DX2                !
 ! A12   A(4,5,8)              110.5009         estimate D2E/DX2                !
 ! A13   A(6,5,7)              107.5742         estimate D2E/DX2                !
 ! A14   A(6,5,8)              107.543          estimate D2E/DX2                !
 ! A15   A(7,5,8)              108.5554         estimate D2E/DX2                !
 ! A16   A(4,9,10)             118.5613         estimate D2E/DX2                !
 ! A17   A(4,9,11)             127.5354         estimate D2E/DX2                !
 ! A18   A(10,9,11)            113.8962         estimate D2E/DX2                !
 ! A19   A(9,11,12)            109.8561         estimate D2E/DX2                !
 ! A20   A(9,11,13)            113.4942         estimate D2E/DX2                !
 ! A21   A(9,11,14)            109.4372         estimate D2E/DX2                !
 ! A22   A(12,11,13)           108.4667         estimate D2E/DX2                !
 ! A23   A(12,11,14)           108.1237         estimate D2E/DX2                !
 ! A24   A(13,11,14)           107.3021         estimate D2E/DX2                !
 ! A25   A(16,15,17)           108.3278         estimate D2E/DX2                !
 ! A26   A(16,15,18)           107.9903         estimate D2E/DX2                !
 ! A27   A(16,15,19)           110.1031         estimate D2E/DX2                !
 ! A28   A(17,15,18)           106.7794         estimate D2E/DX2                !
 ! A29   A(17,15,19)           110.0552         estimate D2E/DX2                !
 ! A30   A(18,15,19)           113.4086         estimate D2E/DX2                !
 ! A31   A(15,19,20)           114.2924         estimate D2E/DX2                !
 ! A32   A(15,19,24)           125.0612         estimate D2E/DX2                !
 ! A33   A(20,19,24)           120.6439         estimate D2E/DX2                !
 ! A34   A(19,20,21)           112.3341         estimate D2E/DX2                !
 ! A35   A(19,20,22)           110.2857         estimate D2E/DX2                !
 ! A36   A(19,20,23)           110.2102         estimate D2E/DX2                !
 ! A37   A(21,20,22)           107.6718         estimate D2E/DX2                !
 ! A38   A(21,20,23)           107.6474         estimate D2E/DX2                !
 ! A39   A(22,20,23)           108.5651         estimate D2E/DX2                !
 ! A40   A(19,24,25)           118.4498         estimate D2E/DX2                !
 ! A41   A(19,24,26)           127.6448         estimate D2E/DX2                !
 ! A42   A(25,24,26)           113.8975         estimate D2E/DX2                !
 ! A43   A(1,26,24)            111.4088         estimate D2E/DX2                !
 ! A44   A(1,26,27)            109.7909         estimate D2E/DX2                !
 ! A45   A(1,26,28)            110.6315         estimate D2E/DX2                !
 ! A46   A(24,26,27)           107.8376         estimate D2E/DX2                !
 ! A47   A(24,26,28)           111.4335         estimate D2E/DX2                !
 ! A48   A(27,26,28)           105.5241         estimate D2E/DX2                !
 ! D1    D(2,1,4,5)            -36.9617         estimate D2E/DX2                !
 ! D2    D(2,1,4,9)            141.7934         estimate D2E/DX2                !
 ! D3    D(3,1,4,5)           -151.7279         estimate D2E/DX2                !
 ! D4    D(3,1,4,9)             27.0272         estimate D2E/DX2                !
 ! D5    D(26,1,4,5)            84.9879         estimate D2E/DX2                !
 ! D6    D(26,1,4,9)           -96.257          estimate D2E/DX2                !
 ! D7    D(2,1,26,24)          -59.6286         estimate D2E/DX2                !
 ! D8    D(2,1,26,27)         -179.0193         estimate D2E/DX2                !
 ! D9    D(2,1,26,28)           64.9139         estimate D2E/DX2                !
 ! D10   D(3,1,26,24)           55.3198         estimate D2E/DX2                !
 ! D11   D(3,1,26,27)          -64.0708         estimate D2E/DX2                !
 ! D12   D(3,1,26,28)          179.8624         estimate D2E/DX2                !
 ! D13   D(4,1,26,24)          178.9734         estimate D2E/DX2                !
 ! D14   D(4,1,26,27)           59.5828         estimate D2E/DX2                !
 ! D15   D(4,1,26,28)          -56.484          estimate D2E/DX2                !
 ! D16   D(1,4,5,6)            179.411          estimate D2E/DX2                !
 ! D17   D(1,4,5,7)             59.4788         estimate D2E/DX2                !
 ! D18   D(1,4,5,8)            -60.5433         estimate D2E/DX2                !
 ! D19   D(9,4,5,6)              0.6026         estimate D2E/DX2                !
 ! D20   D(9,4,5,7)           -119.3295         estimate D2E/DX2                !
 ! D21   D(9,4,5,8)            120.6483         estimate D2E/DX2                !
 ! D22   D(1,4,9,10)          -178.5607         estimate D2E/DX2                !
 ! D23   D(1,4,9,11)             2.4701         estimate D2E/DX2                !
 ! D24   D(5,4,9,10)             0.1294         estimate D2E/DX2                !
 ! D25   D(5,4,9,11)          -178.8399         estimate D2E/DX2                !
 ! D26   D(4,9,11,12)         -113.5676         estimate D2E/DX2                !
 ! D27   D(4,9,11,13)            8.0465         estimate D2E/DX2                !
 ! D28   D(4,9,11,14)          127.8673         estimate D2E/DX2                !
 ! D29   D(10,9,11,12)          67.4226         estimate D2E/DX2                !
 ! D30   D(10,9,11,13)        -170.9633         estimate D2E/DX2                !
 ! D31   D(10,9,11,14)         -51.1425         estimate D2E/DX2                !
 ! D32   D(16,15,19,20)        -66.7586         estimate D2E/DX2                !
 ! D33   D(16,15,19,24)        113.8198         estimate D2E/DX2                !
 ! D34   D(17,15,19,20)         52.5876         estimate D2E/DX2                !
 ! D35   D(17,15,19,24)       -126.834          estimate D2E/DX2                !
 ! D36   D(18,15,19,20)        172.1207         estimate D2E/DX2                !
 ! D37   D(18,15,19,24)         -7.3009         estimate D2E/DX2                !
 ! D38   D(15,19,20,21)        179.5981         estimate D2E/DX2                !
 ! D39   D(15,19,20,22)        -60.2869         estimate D2E/DX2                !
 ! D40   D(15,19,20,23)         59.5661         estimate D2E/DX2                !
 ! D41   D(24,19,20,21)         -0.9521         estimate D2E/DX2                !
 ! D42   D(24,19,20,22)        119.1628         estimate D2E/DX2                !
 ! D43   D(24,19,20,23)       -120.9842         estimate D2E/DX2                !
 ! D44   D(15,19,24,25)        178.8569         estimate D2E/DX2                !
 ! D45   D(15,19,24,26)         -2.2271         estimate D2E/DX2                !
 ! D46   D(20,19,24,25)         -0.5303         estimate D2E/DX2                !
 ! D47   D(20,19,24,26)        178.3857         estimate D2E/DX2                !
 ! D48   D(19,24,26,1)         103.6573         estimate D2E/DX2                !
 ! D49   D(19,24,26,27)       -135.7979         estimate D2E/DX2                !
 ! D50   D(19,24,26,28)        -20.4335         estimate D2E/DX2                !
 ! D51   D(25,24,26,1)         -77.3852         estimate D2E/DX2                !
 ! D52   D(25,24,26,27)         43.1596         estimate D2E/DX2                !
 ! D53   D(25,24,26,28)        158.524          estimate D2E/DX2                !
 --------------------------------------------------------------------------------
 Trust Radius=3.00D-01 FncErr=1.00D-07 GrdErr=1.00D-07 EigMax=2.50D+02 EigMin=1.00D-04
 Number of steps in this run=    138 maximum allowed number of steps=    168.
 GradGradGradGradGradGradGradGradGradGradGradGradGradGradGradGradGradGrad

 Leave Link  103 at Thu Sep 16 16:24:46 2021, MaxMem=   131072000 cpu:               0.0 elap:               0.0
 (Enter /opt/g16/l202.exe)
                          Input orientation:                          
 ---------------------------------------------------------------------
 Center     Atomic      Atomic             Coordinates (Angstroms)
 Number     Number       Type             X           Y           Z
 ---------------------------------------------------------------------
      1          6           0       -0.690500   -0.584700   -0.213300
      2          1           0       -0.002500   -0.980900   -0.972300
      3          1           0       -0.923500   -1.441900    0.429700
      4          6           0       -1.941200   -0.076900   -0.900600
      5          6           0       -1.710100    0.588300   -2.233500
      6          1           0       -2.643400    0.928500   -2.694600
      7          1           0       -1.233400   -0.110400   -2.928700
      8          1           0       -1.061300    1.462200   -2.118400
      9          6           0       -3.189000   -0.209800   -0.408900
     10          1           0       -4.023900    0.171600   -0.996400
     11          6           0       -3.594200   -0.817000    0.896800
     12          1           0       -4.163400   -1.734400    0.719300
     13          1           0       -2.749600   -1.054300    1.547400
     14          1           0       -4.237200   -0.117000    1.440200
     15          6           0        2.987900    0.924600   -0.260300
     16          1           0        3.520400    1.830700    0.046300
     17          1           0        3.672300    0.306100   -0.851100
     18          1           0        2.174900    1.220400   -0.927100
     19          6           0        2.521000    0.164700    0.950600
     20          6           0        3.633100   -0.414100    1.785900
     21          1           0        3.258000   -0.953900    2.661800
     22          1           0        4.227800   -1.116200    1.192300
     23          1           0        4.291400    0.383900    2.144600
     24          6           0        1.232600   -0.022400    1.297700
     25          1           0        1.015200   -0.608800    2.190600
     26          6           0        0.006800    0.508200    0.603100
     27          1           0       -0.676600    0.890600    1.372400
     28          1           0        0.246500    1.368500   -0.029600
 ---------------------------------------------------------------------
                    Distance matrix (angstroms):
                    1          2          3          4          5
     1  C    0.000000
     2  H    1.098362   0.000000
     3  H    1.096599   1.739645   0.000000
     4  C    1.514758   2.140307   2.160703   0.000000
     5  C    2.548867   2.639870   3.439925   1.507488   0.000000
     6  H    3.501491   3.685984   4.282301   2.173097   1.095170
     7  H    2.809466   2.469896   3.625987   2.148323   1.094864
     8  H    2.820762   2.898852   3.865954   2.150835   1.094482
     9  C    2.534031   3.326529   2.711791   1.347752   2.480579
    10  H    3.506678   4.183359   3.774867   2.099659   2.656638
    11  C    3.117332   4.052247   2.782323   2.551628   3.914522
    12  H    3.775260   4.554378   3.265942   3.210850   4.486941
    13  H    2.749633   3.728382   2.175805   2.757086   4.251341
    14  H    3.941051   4.949663   3.709054   3.279111   4.514394
    15  C    3.976282   3.616679   4.623362   5.070406   5.106645
    16  H    4.861402   4.620981   5.532192   5.862135   5.839450
    17  H    4.498259   3.895538   5.081076   5.626768   5.564252
    18  H    3.460984   3.096584   4.304513   4.315781   4.147223
    19  C    3.497141   3.373129   3.836285   4.836997   5.312263
    20  C    4.766489   4.598534   4.863975   6.197080   6.760930
    21  H    4.898281   4.882445   4.765014   6.363293   7.143134
    22  H    5.142750   4.753866   5.217617   6.596737   7.063999
    23  H    5.596178   5.478624   5.785293   6.952042   7.431523
    24  C    2.509505   2.756283   2.723448   3.861153   4.637005
    25  H    2.947665   3.343368   2.748342   4.310306   5.332257
    26  C    1.532047   2.167808   2.167583   2.529458   3.316694
    27  H    2.165906   3.074824   2.527884   2.775211   3.763246
    28  H    2.174099   2.543691   3.078669   2.762943   3.048634
                    6          7          8          9         10
     6  H    0.000000
     7  H    1.766979   0.000000
     8  H    1.766319   1.777435   0.000000
     9  C    2.611098   3.191182   3.200794   0.000000
    10  H    2.315720   3.405906   3.420750   1.089807   0.000000
    11  C    4.104747   4.550507   4.549919   1.495905   2.178573
    12  H    4.588698   4.952795   5.281460   2.132298   2.568253
    13  H    4.683731   4.819261   4.756177   2.175629   3.097998
    14  H    4.553003   5.301900   5.024326   2.127559   2.462886
    15  C    6.134930   5.100094   4.487490   6.281961   7.090430
    16  H    6.805801   5.934400   5.080718   7.027581   7.794633
    17  H    6.608626   5.343761   5.034837   6.894863   7.698746
    18  H    5.140552   4.170604   3.456972   5.575431   6.287281
    19  C    6.367252   5.405568   4.892355   5.881547   6.828365
    20  C    7.827637   6.782515   6.387601   7.169375   8.167857
    21  H    8.189076   7.220655   6.880712   7.179603   8.226497
    22  H    8.154887   6.915127   6.751552   7.641618   8.633620
    23  H    8.473836   7.517055   6.927286   7.926489   8.891297
    24  C    5.645002   4.894012   4.374443   4.743221   5.738582
    25  H    6.293951   5.613541   5.212329   4.959022   6.013196
    26  C    4.251475   3.793992   3.075307   3.428237   4.349511
    27  H    4.517768   4.451010   3.558146   3.270484   4.163243
    28  H    3.955673   3.575197   2.466213   3.799679   4.539118
                   11         12         13         14         15
    11  C    0.000000
    12  H    1.094129   0.000000
    13  H    1.092218   1.774011   0.000000
    14  H    1.094866   1.772322   1.761527   0.000000
    15  C    6.906236   7.692268   6.332672   7.495245   0.000000
    16  H    7.638796   8.497273   7.063245   8.118919   1.094795
    17  H    7.557680   8.247908   6.988869   8.245560   1.095441
    18  H    6.384366   7.184394   5.962224   6.964752   1.092286
    19  C    6.193731   6.952790   5.442550   6.781765   1.503902
    20  C    7.292921   7.979113   6.419159   7.883489   2.528900
    21  H    7.077190   7.711009   6.110910   7.640074   3.484305
    22  H    7.833296   8.427226   6.986704   8.527372   2.795043
    23  H    8.073528   8.831892   7.211154   8.572287   2.788371
    24  C    4.908168   5.690545   4.121296   5.472474   2.530860
    25  H    4.792059   5.499963   3.845243   5.328478   3.499967
    26  C    3.848326   4.736383   3.306184   4.370715   3.131422
    27  H    3.413866   4.413042   2.847910   3.701044   4.011910
    28  H    4.515042   5.443901   4.163353   4.946776   2.786673
                   16         17         18         19         20
    16  H    0.000000
    17  H    1.775614   0.000000
    18  H    1.769278   1.756111   0.000000
    19  C    2.142922   2.142804   2.181753   0.000000
    20  C    2.842189   2.733861   3.486876   1.506487   0.000000
    21  H    3.829320   3.754958   4.333692   2.173164   1.095119
    22  H    3.240054   2.550882   3.763769   2.147624   1.094976
    23  H    2.662806   3.059993   3.822911   2.146625   1.094910
    24  C    3.199064   3.267628   2.717023   1.347390   2.480760
    25  H    4.101854   4.141155   3.796173   2.098413   2.656142
    26  C    3.795315   3.948599   2.747617   2.561240   3.924246
    27  H    4.500793   4.919199   3.677978   3.305978   4.521807
    28  H    3.307236   3.679628   2.132174   2.753775   4.235890
                   21         22         23         24         25
    21  H    0.000000
    22  H    1.768130   0.000000
    23  H    1.767801   1.777982   0.000000
    24  C    2.613562   3.190412   3.199778   0.000000
    25  H    2.317601   3.402184   3.423603   1.090137   0.000000
    26  C    4.116586   4.560995   4.555159   1.505520   2.187399
    27  H    4.532749   5.302153   5.053124   2.117591   2.404130
    28  H    4.659003   4.849487   4.696573   2.160722   3.070815
                   26         27         28
    26  C    0.000000
    27  H    1.097765   0.000000
    28  H    1.094478   1.745310   0.000000
 Stoichiometry    C10H18
 Framework group  C1[X(C10H18)]
 Deg. of freedom    78
 Full point group                 C1      NOp   1
 Largest Abelian subgroup         C1      NOp   1
 Largest concise Abelian subgroup C1      NOp   1
                         Standard orientation:                         
 ---------------------------------------------------------------------
 Center     Atomic      Atomic             Coordinates (Angstroms)
 Number     Number       Type             X           Y           Z
 ---------------------------------------------------------------------
      1          6           0        0.745818   -0.045441    0.580321
      2          1           0        0.286588    0.606629    1.335511
      3          1           0        0.871515   -1.012097    1.082623
      4          6           0        2.090157    0.530288    0.185630
      5          6           0        2.144025    2.035383    0.119985
      6          1           0        3.137228    2.403074   -0.158851
      7          1           0        1.893333    2.466916    1.094491
      8          1           0        1.432552    2.412437   -0.621315
      9          6           0        3.189331   -0.206039   -0.071418
     10          1           0        4.114937    0.310439   -0.324763
     11          6           0        3.306969   -1.697307   -0.075122
     12          1           0        3.959064   -2.020681    0.741774
     13          1           0        2.347696   -2.209998    0.024299
     14          1           0        3.755104   -2.025088   -1.018767
     15          6           0       -2.901802    1.323961   -0.213674
     16          1           0       -3.548611    1.520254   -1.074884
     17          1           0       -3.383829    1.735128    0.679961
     18          1           0       -1.972958    1.880947   -0.355466
     19          6           0       -2.691972   -0.156382   -0.051568
     20          6           0       -3.933068   -0.920088    0.330447
     21          1           0       -3.745714   -1.994181    0.432958
     22          1           0       -4.322235   -0.557715    1.287635
     23          1           0       -4.707397   -0.789548   -0.432575
     24          6           0       -1.515334   -0.793336   -0.210538
     25          1           0       -1.481873   -1.870728   -0.047730
     26          6           0       -0.194809   -0.197009   -0.619435
     27          1           0        0.258368   -0.862968   -1.365235
     28          1           0       -0.329664    0.763002   -1.127444
 ---------------------------------------------------------------------
 Rotational constants (GHZ):           2.4778701           0.5324385           0.4581650
 Leave Link  202 at Thu Sep 16 16:24:46 2021, MaxMem=   131072000 cpu:               0.0 elap:               0.0
 (Enter /opt/g16/l301.exe)
 Standard basis: VSTO-6G (5D, 7F)
 Ernie: Thresh=  0.10000D-02 Tol=  0.10000D-05 Strict=F.
  NNHCO=     0 NNPyr=     0 NCTC=     0               EPep=         0.000000000
    EC=       246.536983667  ECS=         3.524499172   EG=         0.891776573
   EHC=         0.000000000  EAt=       -49.524085099  AtH=         4.217842293
 EPDDG=         0.000000000  ECC=       250.953259413 EAtT=        53.741927392
 There are    58 symmetry adapted cartesian basis functions of A   symmetry.
 There are    58 symmetry adapted basis functions of A   symmetry.
    58 basis functions,   348 primitive gaussians,    58 cartesian basis functions
    29 alpha electrons       29 beta electrons
       nuclear repulsion energy       304.6951868050 Hartrees.
 IExCor=    0 DFT=F Ex=HF Corr=None ExCW=0 ScaHFX=  1.000000
 ScaDFX=  1.000000  1.000000  1.000000  1.000000 ScalE2=  1.000000  1.000000
 IRadAn=      5 IRanWt=     -1 IRanGd=            0 ICorTp=0 IEmpDi=  4
 Integral buffers will be    131072 words long.
 Regular integral format.
 Two-electron integral symmetry is turned off.
 Leave Link  301 at Thu Sep 16 16:24:46 2021, MaxMem=   131072000 cpu:               0.0 elap:               0.0
 (Enter /opt/g16/l302.exe)
 Do NDO integrals.
 NPDir=0 NMtPBC=     1 NCelOv=     1 NCel=       1 NClECP=     1 NCelD=      1
         NCelK=      1 NCelE2=     1 NClLst=     1 CellRange=     0.0.
 One-electron integrals computed using PRISM.
 NBasis=    58 RedAO= F EigKep=  0.00D+00  NBF=    58
 NBsUse=    58 1.00D-04 EigRej=  0.00D+00 NBFU=    58
 Leave Link  302 at Thu Sep 16 16:24:46 2021, MaxMem=   131072000 cpu:               0.1 elap:               0.1
 (Enter /opt/g16/l303.exe)
 DipDrv:  MaxL=1.
 Leave Link  303 at Thu Sep 16 16:24:46 2021, MaxMem=   131072000 cpu:               0.1 elap:               0.0
 (Enter /opt/g16/l401.exe)
 Simple Huckel Guess.
 JPrj=0 DoOrth=F DoCkMO=F.
 Leave Link  401 at Thu Sep 16 16:24:46 2021, MaxMem=   131072000 cpu:               0.0 elap:               0.0
 (Enter /opt/g16/l502.exe)
 Keep J ints in memory in canonical form, NReq=866866.
 FoFCou: FMM=F IPFlag=           0 FMFlag=           0 FMFlg1=           0
         NFxFlg=           0 DoJE=F BraDBF=F KetDBF=F FulRan=T
         wScrn=  0.000000 ICntrl=       600 IOpCl=  2 I1Cent=           0 NGrid=           0
         NMat0=    1 NMatS0=    118 NMatT0=    0 NMatD0=    1 NMtDS0=    0 NMtDT0=    0
 Symmetry not used in FoFCou.
 Two-electron integral symmetry not used.
 Closed shell SCF:
 Using DIIS extrapolation, IDIIS=  1040.
 Overlap will be assumed to be unity.
 NGot=   131072000 LenX=   130997697 LenY=   130993892
 Requested convergence on RMS density matrix=1.00D-08 within 128 cycles.
 Requested convergence on MAX density matrix=1.00D-06.
 Requested convergence on             energy=1.00D-06.
 No special actions if energy rises.

 Cycle   1  Pass 1  IDiag  1:
 E= 0.216322599895818    
 DIIS: error= 2.74D-02 at cycle   1 NSaved=   1.
 NSaved= 1 IEnMin= 1 EnMin= 0.216322599895818     IErMin= 1 ErrMin= 2.74D-02
 ErrMax= 2.74D-02  0.00D+00 EMaxC= 1.00D-01 BMatC= 9.45D-02 BMatP= 9.45D-02
 IDIUse=3 WtCom= 7.26D-01 WtEn= 2.74D-01
 Coeff-Com:  0.100D+01
 Coeff-En:   0.100D+01
 Coeff:      0.100D+01
 GapD=    2.000 DampG=2.000 DampE=0.500 DampFc=1.0000 IDamp=-1.
 RMSDP=7.17D-03 MaxDP=8.49D-02              OVMax= 0.00D+00

 Cycle   2  Pass 1  IDiag  1:
 E=-0.379228616714045E-02 Delta-E=       -0.220114886063 Rises=F Damp=F
 DIIS: error= 7.93D-03 at cycle   2 NSaved=   2.
 NSaved= 2 IEnMin= 2 EnMin=-0.379228616714045E-02 IErMin= 2 ErrMin= 7.93D-03
 ErrMax= 7.93D-03  0.00D+00 EMaxC= 1.00D-01 BMatC= 6.06D-03 BMatP= 9.45D-02
 IDIUse=3 WtCom= 9.21D-01 WtEn= 7.93D-02
 Coeff-Com: -0.317D+00 0.132D+01
 Coeff-En:   0.000D+00 0.100D+01
 Coeff:     -0.292D+00 0.129D+01
 RMSDP=2.60D-03 MaxDP=2.87D-02 DE=-2.20D-01 OVMax= 0.00D+00

 Cycle   3  Pass 1  IDiag  3:
 E=-0.211446245328375E-01 Delta-E=       -0.017352338366 Rises=F Damp=F
 DIIS: error= 9.33D-04 at cycle   3 NSaved=   3.
 NSaved= 3 IEnMin= 3 EnMin=-0.211446245328375E-01 IErMin= 3 ErrMin= 9.33D-04
 ErrMax= 9.33D-04  0.00D+00 EMaxC= 1.00D-01 BMatC= 7.26D-05 BMatP= 6.06D-03
 IDIUse=3 WtCom= 9.91D-01 WtEn= 9.33D-03
 Coeff-Com:  0.107D+00-0.502D+00 0.139D+01
 Coeff-En:   0.000D+00 0.000D+00 0.100D+01
 Coeff:      0.106D+00-0.497D+00 0.139D+01
 Gap=     0.377 Goal=   None    Shift=    0.000
 RMSDP=4.22D-04 MaxDP=4.11D-03 DE=-1.74D-02 OVMax= 6.22D-03

 Cycle   4  Pass 1  IDiag  3:
 E=-0.214748070428641E-01 Delta-E=       -0.000330182510 Rises=F Damp=F
 DIIS: error= 1.81D-04 at cycle   4 NSaved=   4.
 NSaved= 4 IEnMin= 4 EnMin=-0.214748070428641E-01 IErMin= 4 ErrMin= 1.81D-04
 ErrMax= 1.81D-04  0.00D+00 EMaxC= 1.00D-01 BMatC= 3.15D-06 BMatP= 7.26D-05
 IDIUse=3 WtCom= 9.98D-01 WtEn= 1.81D-03
 Coeff-Com: -0.474D-01 0.228D+00-0.740D+00 0.156D+01
 Coeff-En:   0.000D+00 0.000D+00 0.000D+00 0.100D+01
 Coeff:     -0.474D-01 0.227D+00-0.739D+00 0.156D+01
 Gap=     0.377 Goal=   None    Shift=    0.000
 RMSDP=1.08D-04 MaxDP=1.17D-03 DE=-3.30D-04 OVMax= 7.76D-04

 Cycle   5  Pass 1  IDiag  3:
 E=-0.214926052646547E-01 Delta-E=       -0.000017798222 Rises=F Damp=F
 DIIS: error= 5.25D-05 at cycle   5 NSaved=   5.
 NSaved= 5 IEnMin= 5 EnMin=-0.214926052646547E-01 IErMin= 5 ErrMin= 5.25D-05
 ErrMax= 5.25D-05  0.00D+00 EMaxC= 1.00D-01 BMatC= 1.77D-07 BMatP= 3.15D-06
 IDIUse=1 WtCom= 1.00D+00 WtEn= 0.00D+00
 Coeff-Com:  0.140D-01-0.674D-01 0.227D+00-0.616D+00 0.144D+01
 Coeff:      0.140D-01-0.674D-01 0.227D+00-0.616D+00 0.144D+01
 Gap=     0.377 Goal=   None    Shift=    0.000
 RMSDP=2.65D-05 MaxDP=3.14D-04 DE=-1.78D-05 OVMax= 1.98D-04

 Cycle   6  Pass 1  IDiag  3:
 E=-0.214936985249778E-01 Delta-E=       -0.000001093260 Rises=F Damp=F
 DIIS: error= 1.79D-05 at cycle   6 NSaved=   6.
 NSaved= 6 IEnMin= 6 EnMin=-0.214936985249778E-01 IErMin= 6 ErrMin= 1.79D-05
 ErrMax= 1.79D-05  0.00D+00 EMaxC= 1.00D-01 BMatC= 1.48D-08 BMatP= 1.77D-07
 IDIUse=1 WtCom= 1.00D+00 WtEn= 0.00D+00
 Coeff-Com: -0.519D-02 0.249D-01-0.820D-01 0.223D+00-0.728D+00 0.157D+01
 Coeff:     -0.519D-02 0.249D-01-0.820D-01 0.223D+00-0.728D+00 0.157D+01
 Gap=     0.377 Goal=   None    Shift=    0.000
 RMSDP=8.96D-06 MaxDP=1.15D-04 DE=-1.09D-06 OVMax= 8.41D-05

 Cycle   7  Pass 1  IDiag  3:
 E=-0.214938002837926E-01 Delta-E=       -0.000000101759 Rises=F Damp=F
 DIIS: error= 4.55D-06 at cycle   7 NSaved=   7.
 NSaved= 7 IEnMin= 7 EnMin=-0.214938002837926E-01 IErMin= 7 ErrMin= 4.55D-06
 ErrMax= 4.55D-06  0.00D+00 EMaxC= 1.00D-01 BMatC= 9.92D-10 BMatP= 1.48D-08
 IDIUse=1 WtCom= 1.00D+00 WtEn= 0.00D+00
 Coeff-Com:  0.120D-02-0.568D-02 0.183D-01-0.493D-01 0.218D+00-0.722D+00
 Coeff-Com:  0.154D+01
 Coeff:      0.120D-02-0.568D-02 0.183D-01-0.493D-01 0.218D+00-0.722D+00
 Coeff:      0.154D+01
 Gap=     0.377 Goal=   None    Shift=    0.000
 RMSDP=2.34D-06 MaxDP=3.25D-05 DE=-1.02D-07 OVMax= 2.65D-05

 Cycle   8  Pass 1  IDiag  3:
 E=-0.214938068604056E-01 Delta-E=       -0.000000006577 Rises=F Damp=F
 DIIS: error= 1.29D-06 at cycle   8 NSaved=   8.
 NSaved= 8 IEnMin= 8 EnMin=-0.214938068604056E-01 IErMin= 8 ErrMin= 1.29D-06
 ErrMax= 1.29D-06  0.00D+00 EMaxC= 1.00D-01 BMatC= 4.69D-11 BMatP= 9.92D-10
 IDIUse=1 WtCom= 1.00D+00 WtEn= 0.00D+00
 Coeff-Com: -0.101D-03 0.468D-03-0.135D-02 0.332D-02-0.305D-01 0.152D+00
 Coeff-Com: -0.507D+00 0.138D+01
 Coeff:     -0.101D-03 0.468D-03-0.135D-02 0.332D-02-0.305D-01 0.152D+00
 Coeff:     -0.507D+00 0.138D+01
 Gap=     0.377 Goal=   None    Shift=    0.000
 RMSDP=4.60D-07 MaxDP=7.65D-06 DE=-6.58D-09 OVMax= 6.23D-06

 Cycle   9  Pass 1  IDiag  3:
 E=-0.214938071586062E-01 Delta-E=       -0.000000000298 Rises=F Damp=F
 DIIS: error= 3.28D-07 at cycle   9 NSaved=   9.
 NSaved= 9 IEnMin= 9 EnMin=-0.214938071586062E-01 IErMin= 9 ErrMin= 3.28D-07
 ErrMax= 3.28D-07  0.00D+00 EMaxC= 1.00D-01 BMatC= 4.22D-12 BMatP= 4.69D-11
 IDIUse=1 WtCom= 1.00D+00 WtEn= 0.00D+00
 Coeff-Com:  0.336D-04-0.152D-03 0.386D-03-0.738D-03 0.107D-01-0.615D-01
 Coeff-Com:  0.228D+00-0.823D+00 0.165D+01
 Coeff:      0.336D-04-0.152D-03 0.386D-03-0.738D-03 0.107D-01-0.615D-01
 Coeff:      0.228D+00-0.823D+00 0.165D+01
 Gap=     0.377 Goal=   None    Shift=    0.000
 RMSDP=1.56D-07 MaxDP=2.49D-06 DE=-2.98D-10 OVMax= 2.08D-06

 Cycle  10  Pass 1  IDiag  3:
 E=-0.214938071881079E-01 Delta-E=       -0.000000000030 Rises=F Damp=F
 DIIS: error= 6.13D-08 at cycle  10 NSaved=  10.
 NSaved=10 IEnMin=10 EnMin=-0.214938071881079E-01 IErMin=10 ErrMin= 6.13D-08
 ErrMax= 6.13D-08  0.00D+00 EMaxC= 1.00D-01 BMatC= 2.45D-13 BMatP= 4.22D-12
 IDIUse=1 WtCom= 1.00D+00 WtEn= 0.00D+00
 Coeff-Com: -0.332D-05 0.130D-04-0.469D-05-0.784D-04-0.242D-02 0.175D-01
 Coeff-Com: -0.710D-01 0.297D+00-0.802D+00 0.156D+01
 Coeff:     -0.332D-05 0.130D-04-0.469D-05-0.784D-04-0.242D-02 0.175D-01
 Coeff:     -0.710D-01 0.297D+00-0.802D+00 0.156D+01
 Gap=     0.377 Goal=   None    Shift=    0.000
 RMSDP=3.83D-08 MaxDP=5.17D-07 DE=-2.95D-11 OVMax= 4.03D-07

 Cycle  11  Pass 1  IDiag  3:
 E=-0.214938071891311E-01 Delta-E=       -0.000000000001 Rises=F Damp=F
 DIIS: error= 1.12D-08 at cycle  11 NSaved=  11.
 NSaved=11 IEnMin=11 EnMin=-0.214938071891311E-01 IErMin=11 ErrMin= 1.12D-08
 ErrMax= 1.12D-08  0.00D+00 EMaxC= 1.00D-01 BMatC= 7.61D-15 BMatP= 2.45D-13
 IDIUse=1 WtCom= 1.00D+00 WtEn= 0.00D+00
 Coeff-Com:  0.211D-06-0.112D-06-0.117D-04 0.613D-04 0.643D-03-0.523D-02
 Coeff-Com:  0.220D-01-0.956D-01 0.278D+00-0.652D+00 0.145D+01
 Coeff:      0.211D-06-0.112D-06-0.117D-04 0.613D-04 0.643D-03-0.523D-02
 Coeff:      0.220D-01-0.956D-01 0.278D+00-0.652D+00 0.145D+01
 Gap=     0.377 Goal=   None    Shift=    0.000
 RMSDP=5.57D-09 MaxDP=7.76D-08 DE=-1.02D-12 OVMax= 4.14D-08

 Cycle  12  Pass 2  IDiag  1:
 SCF Done:  E(RPM3) = -0.214938071891E-01 A.U. after   12 cycles
            NFock= 11  Conv=0.56D-08     -V/T= 0.9997
 KE=-7.902394751697D+01 PE=-4.916879664234D+02 EE= 2.659952333282D+02
 Leave Link  502 at Thu Sep 16 16:24:46 2021, MaxMem=   131072000 cpu:               0.1 elap:               0.0
 (Enter /opt/g16/l601.exe)
 Copying SCF densities to generalized density rwf, IOpCl= 0 IROHF=0.

 **********************************************************************

            Population analysis using the SCF density.

 **********************************************************************

 Orbital symmetries:
       Occupied  (A) (A) (A) (A) (A) (A) (A) (A) (A) (A) (A) (A)
                 (A) (A) (A) (A) (A) (A) (A) (A) (A) (A) (A) (A)
                 (A) (A) (A) (A) (A)
       Virtual   (A) (A) (A) (A) (A) (A) (A) (A) (A) (A) (A) (A)
                 (A) (A) (A) (A) (A) (A) (A) (A) (A) (A) (A) (A)
                 (A) (A) (A) (A) (A)
 The electronic state is 1-A.
 Alpha  occ. eigenvalues --   -1.45655  -1.35027  -1.17466  -1.11160  -1.01325
 Alpha  occ. eigenvalues --   -0.94638  -0.86443  -0.80579  -0.66717  -0.65064
 Alpha  occ. eigenvalues --   -0.60924  -0.58219  -0.57957  -0.55842  -0.54968
 Alpha  occ. eigenvalues --   -0.53178  -0.51336  -0.50977  -0.49366  -0.48628
 Alpha  occ. eigenvalues --   -0.48145  -0.47415  -0.47148  -0.47086  -0.45315
 Alpha  occ. eigenvalues --   -0.43725  -0.42014  -0.35447  -0.34310
 Alpha virt. eigenvalues --    0.03403   0.04218   0.11786   0.12377   0.13147
 Alpha virt. eigenvalues --    0.13741   0.14080   0.14222   0.14893   0.15025
 Alpha virt. eigenvalues --    0.15610   0.15742   0.15844   0.16121   0.16312
 Alpha virt. eigenvalues --    0.16457   0.16530   0.16664   0.16886   0.17032
 Alpha virt. eigenvalues --    0.17092   0.17146   0.17828   0.17958   0.18162
 Alpha virt. eigenvalues --    0.20728   0.21152   0.22196   0.22558
          Condensed to atoms (all electrons):
               1          2          3          4          5          6
     1  C    4.050095   0.000000   0.000000   0.000000   0.000000   0.000000
     2  H    0.000000   0.946077   0.000000   0.000000   0.000000   0.000000
     3  H    0.000000   0.000000   0.945059   0.000000   0.000000   0.000000
     4  C    0.000000   0.000000   0.000000   4.127313   0.000000   0.000000
     5  C    0.000000   0.000000   0.000000   0.000000   4.066430   0.000000
     6  H    0.000000   0.000000   0.000000   0.000000   0.000000   0.960218
     7  H    0.000000   0.000000   0.000000   0.000000   0.000000   0.000000
     8  H    0.000000   0.000000   0.000000   0.000000   0.000000   0.000000
     9  C    0.000000   0.000000   0.000000   0.000000   0.000000   0.000000
    10  H    0.000000   0.000000   0.000000   0.000000   0.000000   0.000000
    11  C    0.000000   0.000000   0.000000   0.000000   0.000000   0.000000
    12  H    0.000000   0.000000   0.000000   0.000000   0.000000   0.000000
    13  H    0.000000   0.000000   0.000000   0.000000   0.000000   0.000000
    14  H    0.000000   0.000000   0.000000   0.000000   0.000000   0.000000
    15  C    0.000000   0.000000   0.000000   0.000000   0.000000   0.000000
    16  H    0.000000   0.000000   0.000000   0.000000   0.000000   0.000000
    17  H    0.000000   0.000000   0.000000   0.000000   0.000000   0.000000
    18  H    0.000000   0.000000   0.000000   0.000000   0.000000   0.000000
    19  C    0.000000   0.000000   0.000000   0.000000   0.000000   0.000000
    20  C    0.000000   0.000000   0.000000   0.000000   0.000000   0.000000
    21  H    0.000000   0.000000   0.000000   0.000000   0.000000   0.000000
    22  H    0.000000   0.000000   0.000000   0.000000   0.000000   0.000000
    23  H    0.000000   0.000000   0.000000   0.000000   0.000000   0.000000
    24  C    0.000000   0.000000   0.000000   0.000000   0.000000   0.000000
    25  H    0.000000   0.000000   0.000000   0.000000   0.000000   0.000000
    26  C    0.000000   0.000000   0.000000   0.000000   0.000000   0.000000
    27  H    0.000000   0.000000   0.000000   0.000000   0.000000   0.000000
    28  H    0.000000   0.000000   0.000000   0.000000   0.000000   0.000000
               7          8          9         10         11         12
     1  C    0.000000   0.000000   0.000000   0.000000   0.000000   0.000000
     2  H    0.000000   0.000000   0.000000   0.000000   0.000000   0.000000
     3  H    0.000000   0.000000   0.000000   0.000000   0.000000   0.000000
     4  C    0.000000   0.000000   0.000000   0.000000   0.000000   0.000000
     5  C    0.000000   0.000000   0.000000   0.000000   0.000000   0.000000
     6  H    0.000000   0.000000   0.000000   0.000000   0.000000   0.000000
     7  H    0.955820   0.000000   0.000000   0.000000   0.000000   0.000000
     8  H    0.000000   0.955077   0.000000   0.000000   0.000000   0.000000
     9  C    0.000000   0.000000   4.150620   0.000000   0.000000   0.000000
    10  H    0.000000   0.000000   0.000000   0.906322   0.000000   0.000000
    11  C    0.000000   0.000000   0.000000   0.000000   4.068252   0.000000
    12  H    0.000000   0.000000   0.000000   0.000000   0.000000   0.955528
    13  H    0.000000   0.000000   0.000000   0.000000   0.000000   0.000000
    14  H    0.000000   0.000000   0.000000   0.000000   0.000000   0.000000
    15  C    0.000000   0.000000   0.000000   0.000000   0.000000   0.000000
    16  H    0.000000   0.000000   0.000000   0.000000   0.000000   0.000000
    17  H    0.000000   0.000000   0.000000   0.000000   0.000000   0.000000
    18  H    0.000000   0.000000   0.000000   0.000000   0.000000   0.000000
    19  C    0.000000   0.000000   0.000000   0.000000   0.000000   0.000000
    20  C    0.000000   0.000000   0.000000   0.000000   0.000000   0.000000
    21  H    0.000000   0.000000   0.000000   0.000000   0.000000   0.000000
    22  H    0.000000   0.000000   0.000000   0.000000   0.000000   0.000000
    23  H    0.000000   0.000000   0.000000   0.000000   0.000000   0.000000
    24  C    0.000000   0.000000   0.000000   0.000000   0.000000   0.000000
    25  H    0.000000   0.000000   0.000000   0.000000   0.000000   0.000000
    26  C    0.000000   0.000000   0.000000   0.000000   0.000000   0.000000
    27  H    0.000000   0.000000   0.000000   0.000000   0.000000   0.000000
    28  H    0.000000   0.000000   0.000000   0.000000   0.000000   0.000000
              13         14         15         16         17         18
     1  C    0.000000   0.000000   0.000000   0.000000   0.000000   0.000000
     2  H    0.000000   0.000000   0.000000   0.000000   0.000000   0.000000
     3  H    0.000000   0.000000   0.000000   0.000000   0.000000   0.000000
     4  C    0.000000   0.000000   0.000000   0.000000   0.000000   0.000000
     5  C    0.000000   0.000000   0.000000   0.000000   0.000000   0.000000
     6  H    0.000000   0.000000   0.000000   0.000000   0.000000   0.000000
     7  H    0.000000   0.000000   0.000000   0.000000   0.000000   0.000000
     8  H    0.000000   0.000000   0.000000   0.000000   0.000000   0.000000
     9  C    0.000000   0.000000   0.000000   0.000000   0.000000   0.000000
    10  H    0.000000   0.000000   0.000000   0.000000   0.000000   0.000000
    11  C    0.000000   0.000000   0.000000   0.000000   0.000000   0.000000
    12  H    0.000000   0.000000   0.000000   0.000000   0.000000   0.000000
    13  H    0.955682   0.000000   0.000000   0.000000   0.000000   0.000000
    14  H    0.000000   0.958155   0.000000   0.000000   0.000000   0.000000
    15  C    0.000000   0.000000   4.067694   0.000000   0.000000   0.000000
    16  H    0.000000   0.000000   0.000000   0.954869   0.000000   0.000000
    17  H    0.000000   0.000000   0.000000   0.000000   0.956428   0.000000
    18  H    0.000000   0.000000   0.000000   0.000000   0.000000   0.954489
    19  C    0.000000   0.000000   0.000000   0.000000   0.000000   0.000000
    20  C    0.000000   0.000000   0.000000   0.000000   0.000000   0.000000
    21  H    0.000000   0.000000   0.000000   0.000000   0.000000   0.000000
    22  H    0.000000   0.000000   0.000000   0.000000   0.000000   0.000000
    23  H    0.000000   0.000000   0.000000   0.000000   0.000000   0.000000
    24  C    0.000000   0.000000   0.000000   0.000000   0.000000   0.000000
    25  H    0.000000   0.000000   0.000000   0.000000   0.000000   0.000000
    26  C    0.000000   0.000000   0.000000   0.000000   0.000000   0.000000
    27  H    0.000000   0.000000   0.000000   0.000000   0.000000   0.000000
    28  H    0.000000   0.000000   0.000000   0.000000   0.000000   0.000000
              19         20         21         22         23         24
     1  C    0.000000   0.000000   0.000000   0.000000   0.000000   0.000000
     2  H    0.000000   0.000000   0.000000   0.000000   0.000000   0.000000
     3  H    0.000000   0.000000   0.000000   0.000000   0.000000   0.000000
     4  C    0.000000   0.000000   0.000000   0.000000   0.000000   0.000000
     5  C    0.000000   0.000000   0.000000   0.000000   0.000000   0.000000
     6  H    0.000000   0.000000   0.000000   0.000000   0.000000   0.000000
     7  H    0.000000   0.000000   0.000000   0.000000   0.000000   0.000000
     8  H    0.000000   0.000000   0.000000   0.000000   0.000000   0.000000
     9  C    0.000000   0.000000   0.000000   0.000000   0.000000   0.000000
    10  H    0.000000   0.000000   0.000000   0.000000   0.000000   0.000000
    11  C    0.000000   0.000000   0.000000   0.000000   0.000000   0.000000
    12  H    0.000000   0.000000   0.000000   0.000000   0.000000   0.000000
    13  H    0.000000   0.000000   0.000000   0.000000   0.000000   0.000000
    14  H    0.000000   0.000000   0.000000   0.000000   0.000000   0.000000
    15  C    0.000000   0.000000   0.000000   0.000000   0.000000   0.000000
    16  H    0.000000   0.000000   0.000000   0.000000   0.000000   0.000000
    17  H    0.000000   0.000000   0.000000   0.000000   0.000000   0.000000
    18  H    0.000000   0.000000   0.000000   0.000000   0.000000   0.000000
    19  C    4.118639   0.000000   0.000000   0.000000   0.000000   0.000000
    20  C    0.000000   4.068575   0.000000   0.000000   0.000000   0.000000
    21  H    0.000000   0.000000   0.959042   0.000000   0.000000   0.000000
    22  H    0.000000   0.000000   0.000000   0.955653   0.000000   0.000000
    23  H    0.000000   0.000000   0.000000   0.000000   0.955808   0.000000
    24  C    0.000000   0.000000   0.000000   0.000000   0.000000   4.158602
    25  H    0.000000   0.000000   0.000000   0.000000   0.000000   0.000000
    26  C    0.000000   0.000000   0.000000   0.000000   0.000000   0.000000
    27  H    0.000000   0.000000   0.000000   0.000000   0.000000   0.000000
    28  H    0.000000   0.000000   0.000000   0.000000   0.000000   0.000000
              25         26         27         28
     1  C    0.000000   0.000000   0.000000   0.000000
     2  H    0.000000   0.000000   0.000000   0.000000
     3  H    0.000000   0.000000   0.000000   0.000000
     4  C    0.000000   0.000000   0.000000   0.000000
     5  C    0.000000   0.000000   0.000000   0.000000
     6  H    0.000000   0.000000   0.000000   0.000000
     7  H    0.000000   0.000000   0.000000   0.000000
     8  H    0.000000   0.000000   0.000000   0.000000
     9  C    0.000000   0.000000   0.000000   0.000000
    10  H    0.000000   0.000000   0.000000   0.000000
    11  C    0.000000   0.000000   0.000000   0.000000
    12  H    0.000000   0.000000   0.000000   0.000000
    13  H    0.000000   0.000000   0.000000   0.000000
    14  H    0.000000   0.000000   0.000000   0.000000
    15  C    0.000000   0.000000   0.000000   0.000000
    16  H    0.000000   0.000000   0.000000   0.000000
    17  H    0.000000   0.000000   0.000000   0.000000
    18  H    0.000000   0.000000   0.000000   0.000000
    19  C    0.000000   0.000000   0.000000   0.000000
    20  C    0.000000   0.000000   0.000000   0.000000
    21  H    0.000000   0.000000   0.000000   0.000000
    22  H    0.000000   0.000000   0.000000   0.000000
    23  H    0.000000   0.000000   0.000000   0.000000
    24  C    0.000000   0.000000   0.000000   0.000000
    25  H    0.904967   0.000000   0.000000   0.000000
    26  C    0.000000   4.052941   0.000000   0.000000
    27  H    0.000000   0.000000   0.947135   0.000000
    28  H    0.000000   0.000000   0.000000   0.944511
 Mulliken charges:
               1
     1  C   -0.050095
     2  H    0.053923
     3  H    0.054941
     4  C   -0.127313
     5  C   -0.066430
     6  H    0.039782
     7  H    0.044180
     8  H    0.044923
     9  C   -0.150620
    10  H    0.093678
    11  C   -0.068252
    12  H    0.044472
    13  H    0.044318
    14  H    0.041845
    15  C   -0.067694
    16  H    0.045131
    17  H    0.043572
    18  H    0.045511
    19  C   -0.118639
    20  C   -0.068575
    21  H    0.040958
    22  H    0.044347
    23  H    0.044192
    24  C   -0.158602
    25  H    0.095033
    26  C   -0.052941
    27  H    0.052865
    28  H    0.055489
 Sum of Mulliken charges =  -0.00000
 Mulliken charges with hydrogens summed into heavy atoms:
               1
     1  C    0.058769
     4  C   -0.127313
     5  C    0.062455
     9  C   -0.056942
    11  C    0.062384
    15  C    0.066520
    19  C   -0.118639
    20  C    0.060923
    24  C   -0.063570
    26  C    0.055413
 Charge=             -0.0000 electrons
 Dipole moment (field-independent basis, Debye):
    X=             -0.2733    Y=              0.1430    Z=              0.0307  Tot=              0.3100
 N-N= 3.046951868050D+02 E-N=-4.916879666474D+02  KE=-7.902394751697D+01
 Leave Link  601 at Thu Sep 16 16:24:46 2021, MaxMem=   131072000 cpu:               0.0 elap:               0.0
 (Enter /opt/g16/l701.exe)
 ... and contract with generalized density number  0.
 Compute integral first derivatives.
 Leave Link  701 at Thu Sep 16 16:24:46 2021, MaxMem=   131072000 cpu:               0.1 elap:               0.1
 (Enter /opt/g16/l702.exe)
 L702 exits ... SP integral derivatives will be done elsewhere.
 Leave Link  702 at Thu Sep 16 16:24:46 2021, MaxMem=   131072000 cpu:               0.1 elap:               0.0
 (Enter /opt/g16/l703.exe)
 Integral derivatives from FoFJK, PRISM(SPDF).
 Compute integral first derivatives, UseDBF=F ICtDFT=           0.
 Calling FoFJK, ICntrl=      2127 FMM=F ISym2X=0 I1Cent= 0 IOpClX= 0 NMat=1 NMatS=1 NMatT=0.
 FoFJK:  IHMeth= 9 ICntrl=    2127 DoSepK=F KAlg= 0 I1Cent=           0 FoldK=F
 IRaf=         0 NMat=       1 IRICut=       1 DoRegI=T DoRafI=F ISym2E= 0 IDoP0=3 IntGTp=3.
 FoFCou: FMM=F IPFlag=           0 FMFlag=      100000 FMFlg1=         800
         NFxFlg=           0 DoJE=F BraDBF=F KetDBF=F FulRan=T
         wScrn=  0.000000 ICntrl=      2127 IOpCl=  0 I1Cent=           0 NGrid=           0
         NMat0=    1 NMatS0=      1 NMatT0=    0 NMatD0=    1 NMtDS0=    0 NMtDT0=    0
 Symmetry not used in FoFCou.
 Leave Link  703 at Thu Sep 16 16:24:46 2021, MaxMem=   131072000 cpu:               0.0 elap:               0.0
 (Enter /opt/g16/l716.exe)
 Dipole        =-1.07527199D-01 5.62464983D-02 1.20853584D-02
 ***** Axes restored to original set *****
 -------------------------------------------------------------------
 Center     Atomic                   Forces (Hartrees/Bohr)
 Number     Number              X              Y              Z
 -------------------------------------------------------------------
      1        6          -0.008911870    0.012330845   -0.003290442
      2        1           0.004455062   -0.001071155   -0.005180023
      3        1          -0.003374401   -0.004861758    0.005769685
      4        6           0.001517305   -0.001149901    0.003239088
      5        6          -0.004595469   -0.007438584    0.013971941
      6        1          -0.001654890    0.000624549   -0.000777206
      7        1           0.001598403   -0.000696258   -0.001258231
      8        1           0.002292328    0.001226103    0.000350515
      9        6           0.012511330   -0.002472604    0.006872626
     10        1          -0.004126669    0.001573983   -0.003295222
     11        6           0.006478968    0.007468002   -0.014591907
     12        1          -0.000940547   -0.002111437    0.000144002
     13        1           0.003654997   -0.001535234    0.001134875
     14        1          -0.001755009    0.000904604    0.001360938
     15        6          -0.004753550   -0.008770383    0.013027241
     16        1           0.001222816    0.001454231    0.000330135
     17        1           0.002224259   -0.000813578   -0.000476309
     18        1          -0.004951358    0.001273391   -0.000417461
     19        6          -0.002837426    0.000677636   -0.003701234
     20        6          -0.012417111    0.005493085   -0.007393959
     21        1          -0.000570115   -0.000930035    0.001465882
     22        1           0.001624686   -0.000583299   -0.000858413
     23        1           0.001685845    0.000963252    0.000000319
     24        6           0.003958635    0.006636919   -0.010774176
     25        1          -0.001042088   -0.003366610    0.003997434
     26        6           0.010187071   -0.012833059    0.002592809
     27        1          -0.004793130    0.002137466    0.004621985
     28        1           0.003311927    0.005869829   -0.006864890
 -------------------------------------------------------------------
 Cartesian Forces:  Max     0.014591907 RMS     0.005385709
 Leave Link  716 at Thu Sep 16 16:24:46 2021, MaxMem=   131072000 cpu:               0.0 elap:               0.0
 (Enter /opt/g16/l103.exe)

 GradGradGradGradGradGradGradGradGradGradGradGradGradGradGradGradGradGrad
 Berny optimization.
 FormGI is forming the generalized inverse of G from B-inverse, IUseBI=4.
 Internal  Forces:  Max     0.018630781 RMS     0.004784926
 Search for a local minimum.
 Step number   1 out of a maximum of  138
 All quantities printed in internal units (Hartrees-Bohrs-Radians)
 RMS Force = .47849D-02 SwitMx=.10000D-02 MixMth= 1
 Mixed Optimization -- RFO/linear search
 Second derivative matrix not updated -- first step.
 ITU=  0
     Eigenvalues ---    0.00342   0.00571   0.00667   0.00680   0.00693
     Eigenvalues ---    0.00714   0.00820   0.01219   0.01287   0.01570
     Eigenvalues ---    0.01643   0.02780   0.02785   0.04014   0.04133
     Eigenvalues ---    0.05350   0.05403   0.06980   0.07039   0.07087
     Eigenvalues ---    0.07092   0.07265   0.07301   0.07347   0.07506
     Eigenvalues ---    0.09278   0.09366   0.12769   0.12846   0.15999
     Eigenvalues ---    0.15999   0.16000   0.16000   0.16000   0.16000
     Eigenvalues ---    0.16000   0.16000   0.16000   0.16000   0.16000
     Eigenvalues ---    0.16000   0.16000   0.16000   0.21860   0.21867
     Eigenvalues ---    0.22000   0.22000   0.24993   0.24997   0.24999
     Eigenvalues ---    0.24999   0.29235   0.30877   0.31604   0.31706
     Eigenvalues ---    0.31805   0.31971   0.32811   0.33864   0.33931
     Eigenvalues ---    0.34061   0.34191   0.34222   0.34228   0.34244
     Eigenvalues ---    0.34251   0.34256   0.34257   0.34264   0.34300
     Eigenvalues ---    0.34300   0.34340   0.34550   0.34558   0.34797
     Eigenvalues ---    0.34835   0.55502   0.55580
 RFO step:  Lambda=-9.12935865D-03 EMin= 3.42032983D-03
 Linear search not attempted -- first point.
 Iteration  1 RMS(Cart)=  0.09647626 RMS(Int)=  0.00102893
 Iteration  2 RMS(Cart)=  0.00177655 RMS(Int)=  0.00006749
 Iteration  3 RMS(Cart)=  0.00000137 RMS(Int)=  0.00006749
 Iteration  4 RMS(Cart)=  0.00000000 RMS(Int)=  0.00006749
 ITry= 1 IFail=0 DXMaxC= 3.92D-01 DCOld= 1.00D+10 DXMaxT= 3.00D-01 DXLimC= 3.00D+00 Rises=F
 Variable       Old X    -DE/DX   Delta X   Delta X   Delta X     New X
                                 (Linear)    (Quad)   (Total)
    R1        2.07560   0.00676   0.00000   0.01943   0.01943   2.09503
    R2        2.07227   0.00790   0.00000   0.02259   0.02259   2.09486
    R3        2.86248  -0.01682   0.00000  -0.05292  -0.05292   2.80956
    R4        2.89515  -0.00762   0.00000  -0.02526  -0.02526   2.86988
    R5        2.84874  -0.01400   0.00000  -0.04305  -0.04305   2.80569
    R6        2.54688  -0.01808   0.00000  -0.03205  -0.03205   2.51483
    R7        2.06957   0.00193   0.00000   0.00550   0.00550   2.07507
    R8        2.06899   0.00194   0.00000   0.00551   0.00551   2.07451
    R9        2.06827   0.00237   0.00000   0.00674   0.00674   2.07502
   R10        2.05944   0.00549   0.00000   0.01535   0.01535   2.07479
   R11        2.82685  -0.01437   0.00000  -0.04260  -0.04260   2.78425
   R12        2.06760   0.00224   0.00000   0.00634   0.00634   2.07395
   R13        2.06399   0.00384   0.00000   0.01081   0.01081   2.07481
   R14        2.06900   0.00228   0.00000   0.00650   0.00650   2.07549
   R15        2.06886   0.00189   0.00000   0.00538   0.00538   2.07424
   R16        2.07008   0.00211   0.00000   0.00600   0.00600   2.07608
   R17        2.06412   0.00429   0.00000   0.01208   0.01208   2.07620
   R18        2.84196  -0.01544   0.00000  -0.04696  -0.04696   2.79500
   R19        2.84685  -0.01281   0.00000  -0.03926  -0.03926   2.80759
   R20        2.54620  -0.01863   0.00000  -0.03298  -0.03298   2.51322
   R21        2.06947   0.00183   0.00000   0.00520   0.00520   2.07467
   R22        2.06921   0.00172   0.00000   0.00490   0.00490   2.07410
   R23        2.06908   0.00172   0.00000   0.00488   0.00488   2.07396
   R24        2.06006   0.00529   0.00000   0.01482   0.01482   2.07488
   R25        2.84502  -0.01584   0.00000  -0.04842  -0.04842   2.79660
   R26        2.07448   0.00697   0.00000   0.02000   0.02000   2.09447
   R27        2.06826   0.00931   0.00000   0.02643   0.02643   2.09470
    A1        1.83000   0.00055   0.00000   0.02065   0.02062   1.85062
    A2        1.90136   0.00161   0.00000   0.00793   0.00794   1.90930
    A3        1.91821   0.00102   0.00000   0.00545   0.00546   1.92367
    A4        1.93121   0.00086   0.00000  -0.00433  -0.00455   1.92667
    A5        1.91970   0.00104   0.00000  -0.00044  -0.00068   1.91902
    A6        1.95891  -0.00468   0.00000  -0.02587  -0.02601   1.93290
    A7        2.00704   0.00189   0.00000   0.00738   0.00735   2.01439
    A8        2.17226  -0.00420   0.00000  -0.01611  -0.01615   2.15611
    A9        2.10368   0.00231   0.00000   0.00903   0.00899   2.11268
   A10        1.95919   0.00027   0.00000   0.00370   0.00369   1.96288
   A11        1.92471   0.00051   0.00000   0.00228   0.00226   1.92698
   A12        1.92861  -0.00066   0.00000  -0.00527  -0.00528   1.92333
   A13        1.87752   0.00011   0.00000   0.00324   0.00323   1.88075
   A14        1.87698   0.00050   0.00000   0.00437   0.00438   1.88136
   A15        1.89465  -0.00074   0.00000  -0.00851  -0.00852   1.88613
   A16        2.06928   0.00434   0.00000   0.01875   0.01871   2.08799
   A17        2.22591  -0.00908   0.00000  -0.03956  -0.03960   2.18631
   A18        1.98786   0.00474   0.00000   0.02106   0.02102   2.00888
   A19        1.91735   0.00063   0.00000   0.00223   0.00219   1.91954
   A20        1.98085  -0.00181   0.00000  -0.01170  -0.01171   1.96914
   A21        1.91004   0.00130   0.00000   0.01015   0.01015   1.92018
   A22        1.89310  -0.00027   0.00000  -0.00597  -0.00601   1.88709
   A23        1.88711  -0.00055   0.00000  -0.00122  -0.00125   1.88586
   A24        1.87277   0.00072   0.00000   0.00687   0.00690   1.87967
   A25        1.89068  -0.00057   0.00000  -0.00276  -0.00277   1.88791
   A26        1.88479   0.00079   0.00000   0.00066   0.00058   1.88537
   A27        1.92166   0.00059   0.00000   0.00156   0.00152   1.92318
   A28        1.86365   0.00212   0.00000   0.01604   0.01609   1.87974
   A29        1.92083   0.00075   0.00000   0.00668   0.00670   1.92753
   A30        1.97935  -0.00356   0.00000  -0.02135  -0.02137   1.95799
   A31        1.99478   0.00313   0.00000   0.01210   0.01207   2.00685
   A32        2.18273  -0.00572   0.00000  -0.02203  -0.02206   2.16067
   A33        2.10563   0.00259   0.00000   0.01005   0.01002   2.11565
   A34        1.96060   0.00020   0.00000   0.00279   0.00278   1.96338
   A35        1.92485   0.00032   0.00000   0.00107   0.00106   1.92591
   A36        1.92353   0.00021   0.00000   0.00046   0.00045   1.92398
   A37        1.87923   0.00003   0.00000   0.00170   0.00169   1.88092
   A38        1.87880   0.00011   0.00000   0.00223   0.00223   1.88103
   A39        1.89482  -0.00092   0.00000  -0.00863  -0.00863   1.88619
   A40        2.06734   0.00549   0.00000   0.02401   0.02396   2.09129
   A41        2.22782  -0.01107   0.00000  -0.04826  -0.04831   2.17951
   A42        1.98789   0.00559   0.00000   0.02454   0.02449   2.01238
   A43        1.94445  -0.00378   0.00000  -0.02046  -0.02060   1.92385
   A44        1.91621   0.00066   0.00000   0.00585   0.00596   1.92218
   A45        1.93088   0.00046   0.00000  -0.00668  -0.00694   1.92395
   A46        1.88212   0.00195   0.00000   0.01592   0.01598   1.89810
   A47        1.94488   0.00068   0.00000  -0.00613  -0.00644   1.93844
   A48        1.84174   0.00032   0.00000   0.01433   0.01435   1.85609
    D1       -0.64510   0.00074   0.00000   0.00375   0.00381  -0.64129
    D2        2.47476   0.00112   0.00000   0.01984   0.01981   2.49457
    D3       -2.64815  -0.00132   0.00000  -0.02325  -0.02313  -2.67129
    D4        0.47171  -0.00094   0.00000  -0.00715  -0.00714   0.46457
    D5        1.48332   0.00007   0.00000  -0.00089  -0.00092   1.48240
    D6       -1.68000   0.00044   0.00000   0.01520   0.01508  -1.66492
    D7       -1.04072  -0.00005   0.00000   0.00447   0.00439  -1.03632
    D8       -3.12448  -0.00052   0.00000  -0.00623  -0.00625  -3.13072
    D9        1.13296  -0.00157   0.00000  -0.02327  -0.02322   1.10975
   D10        0.96551   0.00178   0.00000   0.03224   0.03215   0.99767
   D11       -1.11825   0.00132   0.00000   0.02154   0.02151  -1.09673
   D12        3.13919   0.00026   0.00000   0.00450   0.00454  -3.13945
   D13        3.12368   0.00033   0.00000   0.00799   0.00796   3.13163
   D14        1.03992  -0.00013   0.00000  -0.00272  -0.00268   1.03723
   D15       -0.98583  -0.00119   0.00000  -0.01976  -0.01965  -1.00549
   D16        3.13131   0.00033   0.00000   0.01452   0.01460  -3.13727
   D17        1.03810  -0.00034   0.00000   0.00640   0.00647   1.04457
   D18       -1.05668   0.00069   0.00000   0.01891   0.01898  -1.03770
   D19        0.01052   0.00006   0.00000  -0.00055  -0.00062   0.00990
   D20       -2.08269  -0.00061   0.00000  -0.00867  -0.00875  -2.09144
   D21        2.10571   0.00042   0.00000   0.00385   0.00376   2.10947
   D22       -3.11647  -0.00029   0.00000  -0.00815  -0.00811  -3.12458
   D23        0.04311  -0.00075   0.00000  -0.02638  -0.02635   0.01676
   D24        0.00226   0.00009   0.00000   0.00874   0.00871   0.01097
   D25       -3.12135  -0.00036   0.00000  -0.00949  -0.00953  -3.13087
   D26       -1.98213   0.00066   0.00000   0.00921   0.00920  -1.97293
   D27        0.14044  -0.00048   0.00000  -0.00496  -0.00494   0.13550
   D28        2.23171   0.00016   0.00000   0.00324   0.00322   2.23492
   D29        1.17675   0.00021   0.00000  -0.00832  -0.00832   1.16843
   D30       -2.98387  -0.00092   0.00000  -0.02248  -0.02245  -3.00633
   D31       -0.89261  -0.00028   0.00000  -0.01428  -0.01430  -0.90691
   D32       -1.16516  -0.00007   0.00000   0.01128   0.01125  -1.15390
   D33        1.98653  -0.00039   0.00000  -0.00221  -0.00213   1.98440
   D34        0.91783   0.00007   0.00000   0.01302   0.01300   0.93083
   D35       -2.21367  -0.00025   0.00000  -0.00046  -0.00039  -2.21406
   D36        3.00407   0.00093   0.00000   0.02401   0.02391   3.02798
   D37       -0.12742   0.00062   0.00000   0.01052   0.01052  -0.11690
   D38        3.13458  -0.00013   0.00000  -0.00736  -0.00745   3.12713
   D39       -1.05221   0.00026   0.00000  -0.00261  -0.00270  -1.05490
   D40        1.03963  -0.00054   0.00000  -0.01235  -0.01244   1.02718
   D41       -0.01662   0.00011   0.00000   0.00527   0.00536  -0.01126
   D42        2.07978   0.00050   0.00000   0.01002   0.01011   2.08989
   D43       -2.11157  -0.00030   0.00000   0.00027   0.00036  -2.11121
   D44        3.12164   0.00044   0.00000   0.01105   0.01099   3.13263
   D45       -0.03887   0.00093   0.00000   0.03126   0.03122  -0.00765
   D46       -0.00926   0.00011   0.00000  -0.00323  -0.00320  -0.01245
   D47        3.11342   0.00060   0.00000   0.01697   0.01703   3.13045
   D48        1.80916  -0.00042   0.00000  -0.00148  -0.00137   1.80779
   D49       -2.37012  -0.00063   0.00000   0.00363   0.00360  -2.36652
   D50       -0.35663   0.00127   0.00000   0.02690   0.02685  -0.32978
   D51       -1.35063   0.00006   0.00000   0.01799   0.01808  -1.33255
   D52        0.75328  -0.00015   0.00000   0.02310   0.02305   0.77633
   D53        2.76677   0.00175   0.00000   0.04637   0.04630   2.81307
         Item               Value     Threshold  Converged?
 Maximum Force            0.018631     0.000450     NO 
 RMS     Force            0.004785     0.000300     NO 
 Maximum Displacement     0.391648     0.001800     NO 
 RMS     Displacement     0.096369     0.001200     NO 
 Predicted change in Energy=-4.751765D-03
 Lowest energy point so far.  Saving SCF results.
 GradGradGradGradGradGradGradGradGradGradGradGradGradGradGradGradGradGrad

 Leave Link  103 at Thu Sep 16 16:24:46 2021, MaxMem=   131072000 cpu:               0.0 elap:               0.0
 (Enter /opt/g16/l202.exe)
                          Input orientation:                          
 ---------------------------------------------------------------------
 Center     Atomic      Atomic             Coordinates (Angstroms)
 Number     Number       Type             X           Y           Z
 ---------------------------------------------------------------------
      1          6           0       -0.680314   -0.604757   -0.190593
      2          1           0        0.027616   -1.026560   -0.932218
      3          1           0       -0.960953   -1.444313    0.476699
      4          6           0       -1.879600   -0.080286   -0.895633
      5          6           0       -1.617160    0.560988   -2.208739
      6          1           0       -2.533952    0.934146   -2.684159
      7          1           0       -1.150129   -0.154741   -2.897753
      8          1           0       -0.933126    1.411070   -2.085554
      9          6           0       -3.115665   -0.171054   -0.410957
     10          1           0       -3.957759    0.224581   -0.993885
     11          6           0       -3.479937   -0.774722    0.882755
     12          1           0       -4.065150   -1.688548    0.718676
     13          1           0       -2.604914   -1.034494    1.492941
     14          1           0       -4.096356   -0.075522    1.463631
     15          6           0        2.834284    0.931053   -0.244063
     16          1           0        3.368676    1.840660    0.059011
     17          1           0        3.501184    0.339927   -0.886535
     18          1           0        1.967649    1.231500   -0.848856
     19          6           0        2.439451    0.149792    0.948133
     20          6           0        3.568970   -0.417678    1.728843
     21          1           0        3.230778   -0.976455    2.611289
     22          1           0        4.158524   -1.101672    1.104956
     23          1           0        4.232583    0.385130    2.074683
     24          6           0        1.177649   -0.044275    1.320867
     25          1           0        0.958225   -0.643467    2.214390
     26          6           0       -0.005909    0.493063    0.613366
     27          1           0       -0.711367    0.906045    1.361835
     28          1           0        0.274803    1.336189   -0.049231
 ---------------------------------------------------------------------
                    Distance matrix (angstroms):
                    1          2          3          4          5
     1  C    0.000000
     2  H    1.108643   0.000000
     3  H    1.108553   1.771111   0.000000
     4  C    1.486754   2.129377   2.141909   0.000000
     5  C    2.511883   2.618225   3.415174   1.484707   0.000000
     6  H    3.467285   3.670871   4.257042   2.157794   1.098080
     7  H    2.784233   2.451628   3.617417   2.132172   1.097782
     8  H    2.778192   2.862735   3.836551   2.129758   1.098051
     9  C    2.483463   3.299063   2.655542   1.330791   2.452228
    10  H    3.474871   4.177603   3.732113   2.102699   2.658467
    11  C    3.003140   3.957332   2.637899   2.491181   3.848557
    12  H    3.668581   4.462556   3.123178   3.157392   4.429766
    13  H    2.592883   3.579339   1.975678   2.672429   4.150139
    14  H    3.832218   4.863303   3.560671   3.237307   4.476367
    15  C    3.835880   3.490443   4.534941   4.864982   4.879780
    16  H    4.736738   4.512889   5.450798   5.669725   5.624838
    17  H    4.343005   3.732968   4.995257   5.397175   5.290986
    18  H    3.288899   2.978173   4.182557   4.065009   3.892264
    19  C    3.405727   3.276656   3.784993   4.701767   5.156648
    20  C    4.666438   4.471372   4.810618   6.057113   6.584700
    21  H    4.825489   4.776944   4.727153   6.262394   7.007060
    22  H    5.033858   4.606530   5.169251   6.442401   6.863202
    23  H    5.499810   5.358738   5.733518   6.811620   7.252456
    24  C    2.459813   2.713641   2.691904   3.776366   4.542622
    25  H    2.910369   3.303624   2.710013   4.247666   5.258078
    26  C    1.518677   2.167765   2.164304   2.473161   3.250387
    27  H    2.166453   3.089294   2.523874   2.726496   3.699801
    28  H    2.167834   2.534433   3.087861   2.713715   2.973875
                    6          7          8          9         10
     6  H    0.000000
     7  H    1.773771   0.000000
     8  H    1.774380   1.777222   0.000000
     9  C    2.593704   3.169818   3.173462   0.000000
    10  H    2.321149   3.413412   3.427521   1.097932   0.000000
    11  C    4.066692   4.483817   4.480490   1.473363   2.179150
    12  H    4.560962   4.891673   5.223113   2.116691   2.569915
    13  H    4.618304   4.708349   4.645566   2.152027   3.098348
    14  H    4.545844   5.263858   4.981234   2.117773   2.479648
    15  C    5.896781   4.908825   4.220768   6.053460   6.869730
    16  H    6.571739   5.757054   4.825889   6.805478   7.576077
    17  H    6.325141   5.091602   4.716789   6.653567   7.460607
    18  H    4.870438   3.979973   3.158507   5.291407   6.012103
    19  C    6.208341   5.269598   4.708329   5.727947   6.685905
    20  C    7.651645   6.613956   6.177606   7.023098   8.029782
    21  H    8.057560   7.086402   6.715557   7.075307   8.131103
    22  H    7.955575   6.715665   6.512920   7.488515   8.487528
    23  H    8.290596   7.347800   6.711533   7.777177   8.747776
    24  C    5.547388   4.819492   4.263462   4.631180   5.639395
    25  H    6.219319   5.551397   5.127168   4.869517   5.934091
    26  C    4.178423   3.749246   2.997772   3.340788   4.274629
    27  H    4.437643   4.411561   3.491235   3.175465   4.068522
    28  H    3.872155   3.516729   2.368821   3.727988   4.476899
                   11         12         13         14         15
    11  C    0.000000
    12  H    1.097486   0.000000
    13  H    1.097941   1.777516   0.000000
    14  H    1.098304   1.777016   1.773383   0.000000
    15  C    6.636925   7.442538   6.038661   7.208550   0.000000
    16  H    7.377145   8.255437   6.782804   7.833991   1.097640
    17  H    7.287584   7.996301   6.695921   7.963573   1.098615
    18  H    6.058019   6.883204   5.614897   6.620277   1.098680
    19  C    5.991507   6.763282   5.210083   6.559976   1.479052
    20  C    7.108476   7.804828   6.209102   7.677541   2.500240
    21  H    6.932692   7.570973   5.942169   7.470990   3.456708
    22  H    7.648683   8.253633   6.774890   8.326145   2.775867
    23  H    7.889798   8.659750   7.007504   8.364019   2.762219
    24  C    4.734829   5.527496   3.913812   5.276030   2.478852
    25  H    4.635489   5.344497   3.656412   5.141497   3.470259
    26  C    3.707926   4.609550   3.140367   4.216397   2.998952
    27  H    3.274061   4.288756   2.714479   3.525902   3.892451
    28  H    4.407109   5.345457   4.036236   4.836188   2.598661
                   16         17         18         19         20
    16  H    0.000000
    17  H    1.778711   0.000000
    18  H    1.777125   1.774275   0.000000
    19  C    2.124390   2.128247   2.149851   0.000000
    20  C    2.815768   2.723741   3.453773   1.485713   0.000000
    21  H    3.803850   3.747099   4.294550   2.158869   1.097869
    22  H    3.221053   2.544866   3.749801   2.132127   1.097568
    23  H    2.632079   3.050541   3.793856   2.130685   1.097492
    24  C    3.153705   3.227855   2.638067   1.329938   2.454442
    25  H    4.077599   4.129096   3.730671   2.103971   2.665094
    26  C    3.675752   3.817440   2.564822   2.491925   3.854023
    27  H    4.383789   4.808455   3.488582   3.266607   4.495355
    28  H    3.136599   3.478958   1.875123   2.662325   4.133900
                   21         22         23         24         25
    21  H    0.000000
    22  H    1.773536   0.000000
    23  H    1.773548   1.776636   0.000000
    24  C    2.597977   3.170224   3.175728   0.000000
    25  H    2.330860   3.417997   3.434960   1.097980   0.000000
    26  C    4.077661   4.486350   4.484630   1.479898   2.187357
    27  H    4.543726   5.273780   5.022165   2.114987   2.432154
    28  H    4.600486   4.728488   4.591246   2.144290   3.083841
                   26         27         28
    26  C    0.000000
    27  H    1.108347   0.000000
[...]
    16  H    0.000000
    17  H    1.773389   0.000000
    18  H    1.777129   1.777687   0.000000
    19  C    2.136193   2.139609   2.156290   0.000000
    20  C    2.833826   2.741677   3.464758   1.488018   0.000000
    21  H    3.821377   3.768134   4.306665   2.163923   1.098030
    22  H    3.244382   2.573326   3.769392   2.138432   1.098622
    23  H    2.653932   3.062110   3.808226   2.138167   1.098527
    24  C    3.171755   3.246178   2.645968   1.339724   2.463819
    25  H    4.096812   4.151073   3.739227   2.113765   2.675939
    26  C    3.685618   3.829886   2.565432   2.503194   3.867431
    27  H    4.022542   4.581013   3.171850   3.126326   4.407593
    28  H    3.233851   3.318343   1.768192   2.648116   4.131424
                   21         22         23         24         25
    21  H    0.000000
    22  H    1.772184   0.000000
    23  H    1.772312   1.772116   0.000000
    24  C    2.608483   3.181521   3.193618   0.000000
    25  H    2.344676   3.429024   3.453232   1.098263   0.000000
    26  C    4.094773   4.503289   4.505426   1.486508   2.195848
    27  H    4.559320   5.209781   4.860295   2.119997   2.610303
    28  H    4.616220   4.634245   4.683189   2.150941   3.107503
                   26         27         28
    26  C    0.000000
    27  H    1.108604   0.000000
    28  H    1.114202   1.772234   0.000000
 Stoichiometry    C10H18
 Framework group  C1[X(C10H18)]
 Deg. of freedom    78
 Full point group                 C1      NOp   1
 RotChk:  IX=0 Diff= 8.51D-16
 Largest Abelian subgroup         C1      NOp   1
 Largest concise Abelian subgroup C1      NOp   1
                         Standard orientation:                         
 ---------------------------------------------------------------------
 Center     Atomic      Atomic             Coordinates (Angstroms)
 Number     Number       Type             X           Y           Z
 ---------------------------------------------------------------------
      1          6           0        0.850235   -0.146963    0.669663
      2          1           0        0.499267    0.327394    1.606983
      3          1           0        1.037994   -1.217001    0.917163
      4          6           0        2.124321    0.498447    0.226227
      5          6           0        2.174640    1.981483    0.331071
      6          1           0        3.114435    2.401319   -0.051396
      7          1           0        2.071947    2.297392    1.378405
      8          1           0        1.351948    2.441517   -0.234606
      9          6           0        3.175581   -0.199601   -0.225332
     10          1           0        4.087585    0.326073   -0.536576
     11          6           0        3.215348   -1.673197   -0.342373
     12          1           0        4.135533   -2.075614    0.100450
     13          1           0        2.360637   -2.153803    0.162836
     14          1           0        3.192459   -1.976211   -1.397649
     15          6           0       -2.949362    1.211246   -0.596919
     16          1           0       -3.521868    1.152914   -1.532247
     17          1           0       -3.528199    1.818485    0.111493
     18          1           0       -2.010420    1.747834   -0.811288
     19          6           0       -2.700573   -0.147941   -0.050164
     20          6           0       -3.914297   -0.880236    0.402403
     21          1           0       -3.687227   -1.886909    0.777525
     22          1           0       -4.418761   -0.331654    1.209586
     23          1           0       -4.631332   -0.987590   -0.422884
     24          6           0       -1.484073   -0.702196    0.038100
     25          1           0       -1.371294   -1.711423    0.456339
     26          6           0       -0.224781   -0.049029   -0.406046
     27          1           0        0.121285   -0.541256   -1.337149
     28          1           0       -0.406213    1.016449   -0.676759
 ---------------------------------------------------------------------
 Rotational constants (GHZ):           2.5381890           0.5297805           0.4649548
 Leave Link  202 at Thu Sep 16 16:24:59 2021, MaxMem=   131072000 cpu:               0.0 elap:               0.0
 (Enter /opt/g16/l601.exe)
 Copying SCF densities to generalized density rwf, IOpCl= 0 IROHF=0.

 **********************************************************************

            Population analysis using the SCF density.

 **********************************************************************

 Orbital symmetries:
       Occupied  (A) (A) (A) (A) (A) (A) (A) (A) (A) (A) (A) (A)
                 (A) (A) (A) (A) (A) (A) (A) (A) (A) (A) (A) (A)
                 (A) (A) (A) (A) (A)
       Virtual   (A) (A) (A) (A) (A) (A) (A) (A) (A) (A) (A) (A)
                 (A) (A) (A) (A) (A) (A) (A) (A) (A) (A) (A) (A)
                 (A) (A) (A) (A) (A)
 The electronic state is 1-A.
 Alpha  occ. eigenvalues --   -1.47345  -1.36328  -1.17288  -1.11255  -1.01492
 Alpha  occ. eigenvalues --   -0.94425  -0.86176  -0.80121  -0.67393  -0.64418
 Alpha  occ. eigenvalues --   -0.61364  -0.58805  -0.58518  -0.55876  -0.55098
 Alpha  occ. eigenvalues --   -0.53301  -0.51724  -0.50924  -0.49152  -0.48394
 Alpha  occ. eigenvalues --   -0.48072  -0.47644  -0.47168  -0.47054  -0.44910
 Alpha  occ. eigenvalues --   -0.44010  -0.41691  -0.35126  -0.34349
 Alpha virt. eigenvalues --    0.03549   0.04167   0.12058   0.12682   0.13199
 Alpha virt. eigenvalues --    0.13510   0.13908   0.14254   0.14679   0.14956
 Alpha virt. eigenvalues --    0.15690   0.15698   0.15848   0.16043   0.16336
 Alpha virt. eigenvalues --    0.16360   0.16530   0.16588   0.16734   0.17027
 Alpha virt. eigenvalues --    0.17089   0.17151   0.17646   0.17997   0.18080
 Alpha virt. eigenvalues --    0.20998   0.21349   0.22253   0.22544
          Condensed to atoms (all electrons):
               1          2          3          4          5          6
     1  C    4.060604   0.000000   0.000000   0.000000   0.000000   0.000000
     2  H    0.000000   0.942186   0.000000   0.000000   0.000000   0.000000
     3  H    0.000000   0.000000   0.939707   0.000000   0.000000   0.000000
     4  C    0.000000   0.000000   0.000000   4.128355   0.000000   0.000000
     5  C    0.000000   0.000000   0.000000   0.000000   4.068100   0.000000
     6  H    0.000000   0.000000   0.000000   0.000000   0.000000   0.958782
     7  H    0.000000   0.000000   0.000000   0.000000   0.000000   0.000000
     8  H    0.000000   0.000000   0.000000   0.000000   0.000000   0.000000
     9  C    0.000000   0.000000   0.000000   0.000000   0.000000   0.000000
    10  H    0.000000   0.000000   0.000000   0.000000   0.000000   0.000000
    11  C    0.000000   0.000000   0.000000   0.000000   0.000000   0.000000
    12  H    0.000000   0.000000   0.000000   0.000000   0.000000   0.000000
    13  H    0.000000   0.000000   0.000000   0.000000   0.000000   0.000000
    14  H    0.000000   0.000000   0.000000   0.000000   0.000000   0.000000
    15  C    0.000000   0.000000   0.000000   0.000000   0.000000   0.000000
    16  H    0.000000   0.000000   0.000000   0.000000   0.000000   0.000000
    17  H    0.000000   0.000000   0.000000   0.000000   0.000000   0.000000
    18  H    0.000000   0.000000   0.000000   0.000000   0.000000   0.000000
    19  C    0.000000   0.000000   0.000000   0.000000   0.000000   0.000000
    20  C    0.000000   0.000000   0.000000   0.000000   0.000000   0.000000
    21  H    0.000000   0.000000   0.000000   0.000000   0.000000   0.000000
    22  H    0.000000   0.000000   0.000000   0.000000   0.000000   0.000000
    23  H    0.000000   0.000000   0.000000   0.000000   0.000000   0.000000
    24  C    0.000000   0.000000   0.000000   0.000000   0.000000   0.000000
    25  H    0.000000   0.000000   0.000000   0.000000   0.000000   0.000000
    26  C    0.000000   0.000000   0.000000   0.000000   0.000000   0.000000
    27  H    0.000000   0.000000   0.000000   0.000000   0.000000   0.000000
    28  H    0.000000   0.000000   0.000000   0.000000   0.000000   0.000000
               7          8          9         10         11         12
     1  C    0.000000   0.000000   0.000000   0.000000   0.000000   0.000000
     2  H    0.000000   0.000000   0.000000   0.000000   0.000000   0.000000
     3  H    0.000000   0.000000   0.000000   0.000000   0.000000   0.000000
     4  C    0.000000   0.000000   0.000000   0.000000   0.000000   0.000000
     5  C    0.000000   0.000000   0.000000   0.000000   0.000000   0.000000
     6  H    0.000000   0.000000   0.000000   0.000000   0.000000   0.000000
     7  H    0.955210   0.000000   0.000000   0.000000   0.000000   0.000000
     8  H    0.000000   0.955257   0.000000   0.000000   0.000000   0.000000
     9  C    0.000000   0.000000   4.149878   0.000000   0.000000   0.000000
    10  H    0.000000   0.000000   0.000000   0.901635   0.000000   0.000000
    11  C    0.000000   0.000000   0.000000   0.000000   4.079962   0.000000
    12  H    0.000000   0.000000   0.000000   0.000000   0.000000   0.956902
    13  H    0.000000   0.000000   0.000000   0.000000   0.000000   0.000000
    14  H    0.000000   0.000000   0.000000   0.000000   0.000000   0.000000
    15  C    0.000000   0.000000   0.000000   0.000000   0.000000   0.000000
    16  H    0.000000   0.000000   0.000000   0.000000   0.000000   0.000000
    17  H    0.000000   0.000000   0.000000   0.000000   0.000000   0.000000
    18  H    0.000000   0.000000   0.000000   0.000000   0.000000   0.000000
    19  C    0.000000   0.000000   0.000000   0.000000   0.000000   0.000000
    20  C    0.000000   0.000000   0.000000   0.000000   0.000000   0.000000
    21  H    0.000000   0.000000   0.000000   0.000000   0.000000   0.000000
    22  H    0.000000   0.000000   0.000000   0.000000   0.000000   0.000000
    23  H    0.000000   0.000000   0.000000   0.000000   0.000000   0.000000
    24  C    0.000000   0.000000   0.000000   0.000000   0.000000   0.000000
    25  H    0.000000   0.000000   0.000000   0.000000   0.000000   0.000000
    26  C    0.000000   0.000000   0.000000   0.000000   0.000000   0.000000
    27  H    0.000000   0.000000   0.000000   0.000000   0.000000   0.000000
    28  H    0.000000   0.000000   0.000000   0.000000   0.000000   0.000000
              13         14         15         16         17         18
     1  C    0.000000   0.000000   0.000000   0.000000   0.000000   0.000000
     2  H    0.000000   0.000000   0.000000   0.000000   0.000000   0.000000
     3  H    0.000000   0.000000   0.000000   0.000000   0.000000   0.000000
     4  C    0.000000   0.000000   0.000000   0.000000   0.000000   0.000000
     5  C    0.000000   0.000000   0.000000   0.000000   0.000000   0.000000
     6  H    0.000000   0.000000   0.000000   0.000000   0.000000   0.000000
     7  H    0.000000   0.000000   0.000000   0.000000   0.000000   0.000000
     8  H    0.000000   0.000000   0.000000   0.000000   0.000000   0.000000
     9  C    0.000000   0.000000   0.000000   0.000000   0.000000   0.000000
    10  H    0.000000   0.000000   0.000000   0.000000   0.000000   0.000000
    11  C    0.000000   0.000000   0.000000   0.000000   0.000000   0.000000
    12  H    0.000000   0.000000   0.000000   0.000000   0.000000   0.000000
    13  H    0.951266   0.000000   0.000000   0.000000   0.000000   0.000000
    14  H    0.000000   0.953904   0.000000   0.000000   0.000000   0.000000
    15  C    0.000000   0.000000   4.076260   0.000000   0.000000   0.000000
    16  H    0.000000   0.000000   0.000000   0.953704   0.000000   0.000000
    17  H    0.000000   0.000000   0.000000   0.000000   0.954588   0.000000
    18  H    0.000000   0.000000   0.000000   0.000000   0.000000   0.950106
    19  C    0.000000   0.000000   0.000000   0.000000   0.000000   0.000000
    20  C    0.000000   0.000000   0.000000   0.000000   0.000000   0.000000
    21  H    0.000000   0.000000   0.000000   0.000000   0.000000   0.000000
    22  H    0.000000   0.000000   0.000000   0.000000   0.000000   0.000000
    23  H    0.000000   0.000000   0.000000   0.000000   0.000000   0.000000
    24  C    0.000000   0.000000   0.000000   0.000000   0.000000   0.000000
    25  H    0.000000   0.000000   0.000000   0.000000   0.000000   0.000000
    26  C    0.000000   0.000000   0.000000   0.000000   0.000000   0.000000
    27  H    0.000000   0.000000   0.000000   0.000000   0.000000   0.000000
    28  H    0.000000   0.000000   0.000000   0.000000   0.000000   0.000000
              19         20         21         22         23         24
     1  C    0.000000   0.000000   0.000000   0.000000   0.000000   0.000000
     2  H    0.000000   0.000000   0.000000   0.000000   0.000000   0.000000
     3  H    0.000000   0.000000   0.000000   0.000000   0.000000   0.000000
     4  C    0.000000   0.000000   0.000000   0.000000   0.000000   0.000000
     5  C    0.000000   0.000000   0.000000   0.000000   0.000000   0.000000
     6  H    0.000000   0.000000   0.000000   0.000000   0.000000   0.000000
     7  H    0.000000   0.000000   0.000000   0.000000   0.000000   0.000000
     8  H    0.000000   0.000000   0.000000   0.000000   0.000000   0.000000
     9  C    0.000000   0.000000   0.000000   0.000000   0.000000   0.000000
    10  H    0.000000   0.000000   0.000000   0.000000   0.000000   0.000000
    11  C    0.000000   0.000000   0.000000   0.000000   0.000000   0.000000
    12  H    0.000000   0.000000   0.000000   0.000000   0.000000   0.000000
    13  H    0.000000   0.000000   0.000000   0.000000   0.000000   0.000000
    14  H    0.000000   0.000000   0.000000   0.000000   0.000000   0.000000
    15  C    0.000000   0.000000   0.000000   0.000000   0.000000   0.000000
    16  H    0.000000   0.000000   0.000000   0.000000   0.000000   0.000000
    17  H    0.000000   0.000000   0.000000   0.000000   0.000000   0.000000
    18  H    0.000000   0.000000   0.000000   0.000000   0.000000   0.000000
    19  C    4.122813   0.000000   0.000000   0.000000   0.000000   0.000000
    20  C    0.000000   4.068741   0.000000   0.000000   0.000000   0.000000
    21  H    0.000000   0.000000   0.958458   0.000000   0.000000   0.000000
    22  H    0.000000   0.000000   0.000000   0.955981   0.000000   0.000000
    23  H    0.000000   0.000000   0.000000   0.000000   0.956400   0.000000
    24  C    0.000000   0.000000   0.000000   0.000000   0.000000   4.156923
    25  H    0.000000   0.000000   0.000000   0.000000   0.000000   0.000000
    26  C    0.000000   0.000000   0.000000   0.000000   0.000000   0.000000
    27  H    0.000000   0.000000   0.000000   0.000000   0.000000   0.000000
    28  H    0.000000   0.000000   0.000000   0.000000   0.000000   0.000000
              25         26         27         28
     1  C    0.000000   0.000000   0.000000   0.000000
     2  H    0.000000   0.000000   0.000000   0.000000
     3  H    0.000000   0.000000   0.000000   0.000000
     4  C    0.000000   0.000000   0.000000   0.000000
     5  C    0.000000   0.000000   0.000000   0.000000
     6  H    0.000000   0.000000   0.000000   0.000000
     7  H    0.000000   0.000000   0.000000   0.000000
     8  H    0.000000   0.000000   0.000000   0.000000
     9  C    0.000000   0.000000   0.000000   0.000000
    10  H    0.000000   0.000000   0.000000   0.000000
    11  C    0.000000   0.000000   0.000000   0.000000
    12  H    0.000000   0.000000   0.000000   0.000000
    13  H    0.000000   0.000000   0.000000   0.000000
    14  H    0.000000   0.000000   0.000000   0.000000
    15  C    0.000000   0.000000   0.000000   0.000000
    16  H    0.000000   0.000000   0.000000   0.000000
    17  H    0.000000   0.000000   0.000000   0.000000
    18  H    0.000000   0.000000   0.000000   0.000000
    19  C    0.000000   0.000000   0.000000   0.000000
    20  C    0.000000   0.000000   0.000000   0.000000
    21  H    0.000000   0.000000   0.000000   0.000000
    22  H    0.000000   0.000000   0.000000   0.000000
    23  H    0.000000   0.000000   0.000000   0.000000
    24  C    0.000000   0.000000   0.000000   0.000000
    25  H    0.899110   0.000000   0.000000   0.000000
    26  C    0.000000   4.067321   0.000000   0.000000
    27  H    0.000000   0.000000   0.941032   0.000000
    28  H    0.000000   0.000000   0.000000   0.936815
 Mulliken charges:
               1
     1  C   -0.060604
     2  H    0.057814
     3  H    0.060293
     4  C   -0.128355
     5  C   -0.068100
     6  H    0.041218
     7  H    0.044790
     8  H    0.044743
     9  C   -0.149878
    10  H    0.098365
    11  C   -0.079962
    12  H    0.043098
    13  H    0.048734
    14  H    0.046096
    15  C   -0.076260
    16  H    0.046296
    17  H    0.045412
    18  H    0.049894
    19  C   -0.122813
    20  C   -0.068741
    21  H    0.041542
    22  H    0.044019
    23  H    0.043600
    24  C   -0.156923
    25  H    0.100890
    26  C   -0.067321
    27  H    0.058968
    28  H    0.063185
 Sum of Mulliken charges =  -0.00000
 Mulliken charges with hydrogens summed into heavy atoms:
               1
     1  C    0.057503
     4  C   -0.128355
     5  C    0.062651
     9  C   -0.051513
    11  C    0.057966
    15  C    0.065342
    19  C   -0.122813
    20  C    0.060419
    24  C   -0.056033
    26  C    0.054833
 Charge=             -0.0000 electrons
 Dipole moment (field-independent basis, Debye):
    X=             -0.2593    Y=              0.1189    Z=             -0.0537  Tot=              0.2903
 N-N= 3.060044452315D+02 E-N=-4.941698921686D+02  KE=-7.910679824340D+01
 Leave Link  601 at Thu Sep 16 16:25:00 2021, MaxMem=   131072000 cpu:               0.0 elap:               0.0
 (Enter /opt/g16/l9999.exe)
 1\1\GINC-TOTEM\FOpt\RPM3\ZDO\C10H18\JRAMOS\16-Sep-2021\0\\#p opt pm3\\
 Conformer number 004. Energy MM = 23.287 kcal/mol\\0,1\C,-0.7876798828
 ,-0.7320625275,-0.2029862943\H,-0.1986071797,-1.3572794532,-0.90217062
 16\H,-1.1349651444,-1.4164318941,0.6048029056\C,-1.9685420105,-0.15575
 79026,-0.9170741069\C,-1.7119005458,0.3640038511,-2.287075827\H,-2.603
 1652791,0.8158139597,-2.7423482718\H,-1.374968691,-0.4453708773,-2.949
 3775078\H,-0.9228841672,1.1293199955,-2.273401115\C,-3.1959654438,-0.1
 158210073,-0.380268595\H,-4.0278479727,0.3176709053,-0.9503667736\C,-3
 .5398929591,-0.6272809053,0.9639371127\H,-4.4326515425,-1.2645152792,0
 .9228718539\H,-2.7219677864,-1.2219340153,1.4045436617\H,-3.7542942136
 ,0.2039835727,1.6487591964\C,2.9344727739,1.2636326107,0.0176378919\H,
 3.3189036014,2.1290635539,0.5737375936\H,3.7309804013,0.9180977731,-0.
 6545385959\H,2.094989991,1.6119216553,-0.6064269806\C,2.5225385686,0.1
 830681841,0.9508673015\C,3.629752155,-0.4422203126,1.7237130783\H,3.27
 82606701,-1.2186895741,2.4159690824\H,4.3596441383,-0.9072085942,1.046
 9453717\H,4.1628903446,0.3138085114,2.3161189456\C,1.2542369749,-0.218
 2931511,1.1095550033\H,1.0199690683,-1.0264039419,1.8154285284\C,0.089
 057871,0.3629872512,0.392493378\H,-0.4976967587,0.9754844095,1.1063349
 34\H,0.4254330191,1.0660132022,-0.4037811497\\Version=ES64L-G16RevA.03
 \State=1-A\HF=-0.0281201\RMSD=4.451e-09\RMSF=2.186e-06\Dipole=0.104095
 9,0.0462281,-0.008252\PG=C01 [X(C10H18)]\\@


 WE'RE IN THE POSITION OF A VISITOR FROM ANOTHER
 DIMENSION WHO COMES TO EARTH AND SEES A CHESS MATCH.
 ASSUMING HE KNOWS IT'S A GAME, HE'S GOT TWO PROBLEMS:
 FIRST, FIGURE OUT THE RULES, AND SECOND, FIGURE OUT HOW TO WIN.
 NINETY PERCENT OF SCIENCE (INCLUDING VIRTUALLY ALL OF CHEMISRY)
 IS IN THAT SECOND CATEGORY.  THEY'RE TRYING TO APPLY
 THE LAWS THAT ARE ALREADY KNOWN.

                     -- SHELDON GLASHOW, 1979
 Job cpu time:       0 days  0 hours  0 minutes 13.7 seconds.
 Elapsed time:       0 days  0 hours  0 minutes 11.8 seconds.
 File lengths (MBytes):  RWF=      6 Int=      0 D2E=      0 Chk=      2 Scr=      1
 Normal termination of Gaussian 16 at Thu Sep 16 16:25:00 2021.
