 Entering Gaussian System, Link 0=/opt/g16/g16
 Input=03-IsoP_007_gaussian.com
 Output=03-IsoP_007_gaussian.log
 Initial command:
 /opt/g16/l1.exe "/tmp/Gau-1501477.inp" -scrdir="/tmp/"
 Entering Link 1 = /opt/g16/l1.exe PID=   1501481.
  
 Copyright (c) 1988,1990,1992,1993,1995,1998,2003,2009,2016,
            Gaussian, Inc.  All Rights Reserved.
  
 This is part of the Gaussian(R) 16 program.  It is based on
 the Gaussian(R) 09 system (copyright 2009, Gaussian, Inc.),
 the Gaussian(R) 03 system (copyright 2003, Gaussian, Inc.),
 the Gaussian(R) 98 system (copyright 1998, Gaussian, Inc.),
 the Gaussian(R) 94 system (copyright 1995, Gaussian, Inc.),
 the Gaussian 92(TM) system (copyright 1992, Gaussian, Inc.),
 the Gaussian 90(TM) system (copyright 1990, Gaussian, Inc.),
 the Gaussian 88(TM) system (copyright 1988, Gaussian, Inc.),
 the Gaussian 86(TM) system (copyright 1986, Carnegie Mellon
 University), and the Gaussian 82(TM) system (copyright 1983,
 Carnegie Mellon University). Gaussian is a federally registered
 trademark of Gaussian, Inc.
  
 This software contains proprietary and confidential information,
 including trade secrets, belonging to Gaussian, Inc.
  
 This software is provided under written license and may be
 used, copied, transmitted, or stored only in accord with that
 written license.
  
 The following legend is applicable only to US Government
 contracts under FAR:
  
                    RESTRICTED RIGHTS LEGEND
  
 Use, reproduction and disclosure by the US Government is
 subject to restrictions as set forth in subparagraphs (a)
 and (c) of the Commercial Computer Software - Restricted
 Rights clause in FAR 52.227-19.
  
 Gaussian, Inc.
 340 Quinnipiac St., Bldg. 40, Wallingford CT 06492
  
  
 ---------------------------------------------------------------
 Warning -- This program may not be used in any manner that
 competes with the business of Gaussian, Inc. or will provide
 assistance to any competitor of Gaussian, Inc.  The licensee
 of this program is prohibited from giving any competitor of
 Gaussian, Inc. access to this program.  By using this program,
 the user acknowledges that Gaussian, Inc. is engaged in the
 business of creating and licensing software in the field of
 computational chemistry and represents and warrants to the
 licensee that it is not a competitor of Gaussian, Inc. and that
 it will not use this program in any manner prohibited above.
 ---------------------------------------------------------------
  

 Cite this work as:
 Gaussian 16, Revision A.03,
 M. J. Frisch, G. W. Trucks, H. B. Schlegel, G. E. Scuseria, 
 M. A. Robb, J. R. Cheeseman, G. Scalmani, V. Barone, 
 G. A. Petersson, H. Nakatsuji, X. Li, M. Caricato, A. V. Marenich, 
 J. Bloino, B. G. Janesko, R. Gomperts, B. Mennucci, H. P. Hratchian, 
 J. V. Ortiz, A. F. Izmaylov, J. L. Sonnenberg, D. Williams-Young, 
 F. Ding, F. Lipparini, F. Egidi, J. Goings, B. Peng, A. Petrone, 
 T. Henderson, D. Ranasinghe, V. G. Zakrzewski, J. Gao, N. Rega, 
 G. Zheng, W. Liang, M. Hada, M. Ehara, K. Toyota, R. Fukuda, 
 J. Hasegawa, M. Ishida, T. Nakajima, Y. Honda, O. Kitao, H. Nakai, 
 T. Vreven, K. Throssell, J. A. Montgomery, Jr., J. E. Peralta, 
 F. Ogliaro, M. J. Bearpark, J. J. Heyd, E. N. Brothers, K. N. Kudin, 
 V. N. Staroverov, T. A. Keith, R. Kobayashi, J. Normand, 
 K. Raghavachari, A. P. Rendell, J. C. Burant, S. S. Iyengar, 
 J. Tomasi, M. Cossi, J. M. Millam, M. Klene, C. Adamo, R. Cammi, 
 J. W. Ochterski, R. L. Martin, K. Morokuma, O. Farkas, 
 J. B. Foresman, and D. J. Fox, Gaussian, Inc., Wallingford CT, 2016.
 
 ******************************************
 Gaussian 16:  ES64L-G16RevA.03 25-Dec-2016
                16-Sep-2021 
 ******************************************
 %chk=03-IsoP_007_gaussian.chk
 %nproc=1
 Will use up to    1 processors via shared memory.
 %mem=1000Mb
 ----------
 #p opt pm3
 ----------
 1/18=20,19=15,26=1,38=1/1,3;
 2/9=110,12=2,17=6,18=5,40=1/2;
 3/5=2,25=1,41=800000,71=1/1,2,3;
 4/35=1/1;
 5/5=2,35=1,38=5/2;
 6/7=2,8=2,9=2,10=2,28=1/1;
 7//1,2,3,16;
 1/18=20,19=15,26=1/3(2);
 2/9=110/2;
 99//99;
 2/9=110/2;
 3/5=2,25=1,41=800000,71=1,135=20/1,2,3;
 4/5=5,16=3,35=1/1;
 5/5=2,35=1,38=5/2;
 7//1,2,3,16;
 1/18=20,19=15,26=1/3(-5);
 2/9=110/2;
 6/7=2,8=2,9=2,10=2,19=2,28=1/1;
 99/9=1/99;
 Leave Link    1 at Thu Sep 16 16:24:45 2021, MaxMem=   131072000 cpu:               0.0 elap:               0.0
 (Enter /opt/g16/l101.exe)
 -------------------------------------------------
 Conformer number 007. Energy MM = 24.539 kcal/mol
 -------------------------------------------------
 Symbolic Z-matrix:
 Charge =  0 Multiplicity = 1
 C                    -0.5726    0.6234   -0.3492 
 H                    -0.612     1.7196   -0.2844 
 H                     0.0727    0.3832   -1.2054 
 C                    -1.9795    0.1307   -0.6757 
 C                    -2.5208    0.7422   -1.9454 
 H                    -3.4823    0.3322   -2.2589 
 H                    -2.6457    1.8225   -1.8173 
 H                    -1.8215    0.5723   -2.7715 
 C                    -2.6585   -0.7546    0.0822 
 H                    -2.1897   -1.1585    0.9772 
 C                    -4.0414   -1.2891   -0.1267 
 H                    -4.5908   -0.7999   -0.9322 
 H                    -3.9941   -2.3605   -0.3444 
 H                    -4.6242   -1.1554    0.7907 
 C                     2.8841   -1.2345    0.3557 
 H                     3.3454   -1.8756    1.1138 
 H                     1.9659   -1.7197    0.0172 
 H                     3.5542   -1.1873   -0.5095 
 C                     2.6614    0.145     0.9116 
 C                     3.9281    0.904     1.2105 
 H                     4.5319    0.3585    1.9431 
 H                     3.7296    1.9002    1.6197 
 H                     4.5188    1.0314    0.2974 
 C                     1.4565    0.7067    1.1312 
 H                     1.4219    1.7241    1.5215 
 C                     0.0989    0.087     0.9233 
 H                     0.1624   -1.0051    0.8904 
 H                    -0.5132    0.3311    1.8009 
 
 ITRead=  0  0  0  0  0  0  0  0  0  0  0  0  0  0  0  0  0  0  0  0
 ITRead=  0  0  0  0  0  0  0  0
 MicOpt= -1 -1 -1 -1 -1 -1 -1 -1 -1 -1 -1 -1 -1 -1 -1 -1 -1 -1 -1 -1
 MicOpt= -1 -1 -1 -1 -1 -1 -1 -1
 NAtoms=     28 NQM=       28 NQMF=       0 NMMI=      0 NMMIF=      0
                NMic=       0 NMicF=      0.
                    Isotopes and Nuclear Properties:
 (Nuclear quadrupole moments (NQMom) in fm**2, nuclear magnetic moments (NMagM)
  in nuclear magnetons)

  Atom         1           2           3           4           5           6           7           8           9          10
 IAtWgt=          12           1           1          12          12           1           1           1          12           1
 AtmWgt=  12.0000000   1.0078250   1.0078250  12.0000000  12.0000000   1.0078250   1.0078250   1.0078250  12.0000000   1.0078250
 NucSpn=           0           1           1           0           0           1           1           1           0           1
 AtZEff=  -0.0000000  -0.0000000  -0.0000000  -0.0000000  -0.0000000  -0.0000000  -0.0000000  -0.0000000  -0.0000000  -0.0000000
 NQMom=    0.0000000   0.0000000   0.0000000   0.0000000   0.0000000   0.0000000   0.0000000   0.0000000   0.0000000   0.0000000
 NMagM=    0.0000000   2.7928460   2.7928460   0.0000000   0.0000000   2.7928460   2.7928460   2.7928460   0.0000000   2.7928460
 AtZNuc=   6.0000000   1.0000000   1.0000000   6.0000000   6.0000000   1.0000000   1.0000000   1.0000000   6.0000000   1.0000000

  Atom        11          12          13          14          15          16          17          18          19          20
 IAtWgt=          12           1           1           1          12           1           1           1          12          12
 AtmWgt=  12.0000000   1.0078250   1.0078250   1.0078250  12.0000000   1.0078250   1.0078250   1.0078250  12.0000000  12.0000000
 NucSpn=           0           1           1           1           0           1           1           1           0           0
 AtZEff=  -0.0000000  -0.0000000  -0.0000000  -0.0000000  -0.0000000  -0.0000000  -0.0000000  -0.0000000  -0.0000000  -0.0000000
 NQMom=    0.0000000   0.0000000   0.0000000   0.0000000   0.0000000   0.0000000   0.0000000   0.0000000   0.0000000   0.0000000
 NMagM=    0.0000000   2.7928460   2.7928460   2.7928460   0.0000000   2.7928460   2.7928460   2.7928460   0.0000000   0.0000000
 AtZNuc=   6.0000000   1.0000000   1.0000000   1.0000000   6.0000000   1.0000000   1.0000000   1.0000000   6.0000000   6.0000000

  Atom        21          22          23          24          25          26          27          28
 IAtWgt=           1           1           1          12           1          12           1           1
 AtmWgt=   1.0078250   1.0078250   1.0078250  12.0000000   1.0078250  12.0000000   1.0078250   1.0078250
 NucSpn=           1           1           1           0           1           0           1           1
 AtZEff=  -0.0000000  -0.0000000  -0.0000000  -0.0000000  -0.0000000  -0.0000000  -0.0000000  -0.0000000
 NQMom=    0.0000000   0.0000000   0.0000000   0.0000000   0.0000000   0.0000000   0.0000000   0.0000000
 NMagM=    2.7928460   2.7928460   2.7928460   0.0000000   2.7928460   0.0000000   2.7928460   2.7928460
 AtZNuc=   1.0000000   1.0000000   1.0000000   6.0000000   1.0000000   6.0000000   1.0000000   1.0000000
 Leave Link  101 at Thu Sep 16 16:24:46 2021, MaxMem=   131072000 cpu:               0.2 elap:               0.2
 (Enter /opt/g16/l103.exe)

 GradGradGradGradGradGradGradGradGradGradGradGradGradGradGradGradGradGrad
 Berny optimization.
 Initialization pass.
                           ----------------------------
                           !    Initial Parameters    !
                           ! (Angstroms and Degrees)  !
 --------------------------                            --------------------------
 ! Name  Definition              Value          Derivative Info.                !
 --------------------------------------------------------------------------------
 ! R1    R(1,2)                  1.0988         estimate D2E/DX2                !
 ! R2    R(1,3)                  1.0987         estimate D2E/DX2                !
 ! R3    R(1,4)                  1.526          estimate D2E/DX2                !
 ! R4    R(1,26)                 1.5355         estimate D2E/DX2                !
 ! R5    R(4,5)                  1.5097         estimate D2E/DX2                !
 ! R6    R(4,9)                  1.3488         estimate D2E/DX2                !
 ! R7    R(5,6)                  1.0913         estimate D2E/DX2                !
 ! R8    R(5,7)                  1.095          estimate D2E/DX2                !
 ! R9    R(5,8)                  1.0956         estimate D2E/DX2                !
 ! R10   R(9,10)                 1.0881         estimate D2E/DX2                !
 ! R11   R(9,11)                 1.4972         estimate D2E/DX2                !
 ! R12   R(11,12)                1.0909         estimate D2E/DX2                !
 ! R13   R(11,13)                1.0943         estimate D2E/DX2                !
 ! R14   R(11,14)                1.0951         estimate D2E/DX2                !
 ! R15   R(15,16)                1.0948         estimate D2E/DX2                !
 ! R16   R(15,17)                1.0923         estimate D2E/DX2                !
 ! R17   R(15,18)                1.0954         estimate D2E/DX2                !
 ! R18   R(15,19)                1.5039         estimate D2E/DX2                !
 ! R19   R(19,20)                1.5066         estimate D2E/DX2                !
 ! R20   R(19,24)                1.3474         estimate D2E/DX2                !
 ! R21   R(20,21)                1.0949         estimate D2E/DX2                !
 ! R22   R(20,22)                1.0951         estimate D2E/DX2                !
 ! R23   R(20,23)                1.0949         estimate D2E/DX2                !
 ! R24   R(24,25)                1.0902         estimate D2E/DX2                !
 ! R25   R(24,26)                1.5068         estimate D2E/DX2                !
 ! R26   R(26,27)                1.0944         estimate D2E/DX2                !
 ! R27   R(26,28)                1.0975         estimate D2E/DX2                !
 ! A1    A(2,1,3)              106.5655         estimate D2E/DX2                !
 ! A2    A(2,1,4)              107.5571         estimate D2E/DX2                !
 ! A3    A(2,1,26)             108.3789         estimate D2E/DX2                !
 ! A4    A(3,1,4)              107.7077         estimate D2E/DX2                !
 ! A5    A(3,1,26)             108.2144         estimate D2E/DX2                !
 ! A6    A(4,1,26)             117.8844         estimate D2E/DX2                !
 ! A7    A(1,4,5)              112.3174         estimate D2E/DX2                !
 ! A8    A(1,4,9)              123.7671         estimate D2E/DX2                !
 ! A9    A(5,4,9)              123.915          estimate D2E/DX2                !
 ! A10   A(4,5,6)              113.9132         estimate D2E/DX2                !
 ! A11   A(4,5,7)              110.0062         estimate D2E/DX2                !
 ! A12   A(4,5,8)              110.0288         estimate D2E/DX2                !
 ! A13   A(6,5,7)              107.6842         estimate D2E/DX2                !
 ! A14   A(6,5,8)              106.7086         estimate D2E/DX2                !
 ! A15   A(7,5,8)              108.3007         estimate D2E/DX2                !
 ! A16   A(4,9,10)             119.2716         estimate D2E/DX2                !
 ! A17   A(4,9,11)             128.3811         estimate D2E/DX2                !
 ! A18   A(10,9,11)            112.3456         estimate D2E/DX2                !
 ! A19   A(9,11,12)            114.0859         estimate D2E/DX2                !
 ! A20   A(9,11,13)            109.7153         estimate D2E/DX2                !
 ! A21   A(9,11,14)            109.335          estimate D2E/DX2                !
 ! A22   A(12,11,13)           108.2964         estimate D2E/DX2                !
 ! A23   A(12,11,14)           107.2064         estimate D2E/DX2                !
 ! A24   A(13,11,14)           108.0112         estimate D2E/DX2                !
 ! A25   A(16,15,17)           107.9797         estimate D2E/DX2                !
 ! A26   A(16,15,18)           108.3261         estimate D2E/DX2                !
 ! A27   A(16,15,19)           110.0963         estimate D2E/DX2                !
 ! A28   A(17,15,18)           106.7751         estimate D2E/DX2                !
 ! A29   A(17,15,19)           113.4244         estimate D2E/DX2                !
 ! A30   A(18,15,19)           110.062          estimate D2E/DX2                !
 ! A31   A(15,19,20)           114.2639         estimate D2E/DX2                !
 ! A32   A(15,19,24)           125.1041         estimate D2E/DX2                !
 ! A33   A(20,19,24)           120.6294         estimate D2E/DX2                !
 ! A34   A(19,20,21)           110.2057         estimate D2E/DX2                !
 ! A35   A(19,20,22)           112.3342         estimate D2E/DX2                !
 ! A36   A(19,20,23)           110.288          estimate D2E/DX2                !
 ! A37   A(21,20,22)           107.6473         estimate D2E/DX2                !
 ! A38   A(21,20,23)           108.5685         estimate D2E/DX2                !
 ! A39   A(22,20,23)           107.6708         estimate D2E/DX2                !
 ! A40   A(19,24,25)           118.4079         estimate D2E/DX2                !
 ! A41   A(19,24,26)           127.7176         estimate D2E/DX2                !
 ! A42   A(25,24,26)           113.8661         estimate D2E/DX2                !
 ! A43   A(1,26,24)            111.3883         estimate D2E/DX2                !
 ! A44   A(1,26,27)            110.4284         estimate D2E/DX2                !
 ! A45   A(1,26,28)            109.9425         estimate D2E/DX2                !
 ! A46   A(24,26,27)           111.2398         estimate D2E/DX2                !
 ! A47   A(24,26,28)           107.5004         estimate D2E/DX2                !
 ! A48   A(27,26,28)           106.1614         estimate D2E/DX2                !
 ! D1    D(2,1,4,5)             56.8815         estimate D2E/DX2                !
 ! D2    D(2,1,4,9)           -123.3698         estimate D2E/DX2                !
 ! D3    D(3,1,4,5)            -57.6338         estimate D2E/DX2                !
 ! D4    D(3,1,4,9)            122.1149         estimate D2E/DX2                !
 ! D5    D(26,1,4,5)           179.6714         estimate D2E/DX2                !
 ! D6    D(26,1,4,9)            -0.58           estimate D2E/DX2                !
 ! D7    D(2,1,26,24)          -55.4514         estimate D2E/DX2                !
 ! D8    D(2,1,26,27)         -179.5802         estimate D2E/DX2                !
 ! D9    D(2,1,26,28)           63.6046         estimate D2E/DX2                !
 ! D10   D(3,1,26,24)           59.7381         estimate D2E/DX2                !
 ! D11   D(3,1,26,27)          -64.3907         estimate D2E/DX2                !
 ! D12   D(3,1,26,28)          178.7941         estimate D2E/DX2                !
 ! D13   D(4,1,26,24)         -177.8242         estimate D2E/DX2                !
 ! D14   D(4,1,26,27)           58.047          estimate D2E/DX2                !
 ! D15   D(4,1,26,28)          -58.7682         estimate D2E/DX2                !
 ! D16   D(1,4,5,6)            174.0661         estimate D2E/DX2                !
 ! D17   D(1,4,5,7)            -64.9312         estimate D2E/DX2                !
 ! D18   D(1,4,5,8)             54.3048         estimate D2E/DX2                !
 ! D19   D(9,4,5,6)             -5.6821         estimate D2E/DX2                !
 ! D20   D(9,4,5,7)            115.3206         estimate D2E/DX2                !
 ! D21   D(9,4,5,8)           -125.4434         estimate D2E/DX2                !
 ! D22   D(1,4,9,10)            -0.5451         estimate D2E/DX2                !
 ! D23   D(1,4,9,11)           178.933          estimate D2E/DX2                !
 ! D24   D(5,4,9,10)           179.1748         estimate D2E/DX2                !
 ! D25   D(5,4,9,11)            -1.3471         estimate D2E/DX2                !
 ! D26   D(4,9,11,12)           -7.7451         estimate D2E/DX2                !
 ! D27   D(4,9,11,13)          113.9554         estimate D2E/DX2                !
 ! D28   D(4,9,11,14)         -127.7615         estimate D2E/DX2                !
 ! D29   D(10,9,11,12)         171.7627         estimate D2E/DX2                !
 ! D30   D(10,9,11,13)         -66.5368         estimate D2E/DX2                !
 ! D31   D(10,9,11,14)          51.7463         estimate D2E/DX2                !
 ! D32   D(16,15,19,20)         66.7596         estimate D2E/DX2                !
 ! D33   D(16,15,19,24)       -113.835          estimate D2E/DX2                !
 ! D34   D(17,15,19,20)       -172.1275         estimate D2E/DX2                !
 ! D35   D(17,15,19,24)          7.278          estimate D2E/DX2                !
 ! D36   D(18,15,19,20)        -52.5845         estimate D2E/DX2                !
 ! D37   D(18,15,19,24)        126.821          estimate D2E/DX2                !
 ! D38   D(15,19,20,21)        -59.5738         estimate D2E/DX2                !
 ! D39   D(15,19,20,22)       -179.6027         estimate D2E/DX2                !
 ! D40   D(15,19,20,23)         60.282          estimate D2E/DX2                !
 ! D41   D(24,19,20,21)        120.9914         estimate D2E/DX2                !
 ! D42   D(24,19,20,22)          0.9625         estimate D2E/DX2                !
 ! D43   D(24,19,20,23)       -119.1528         estimate D2E/DX2                !
 ! D44   D(15,19,24,25)       -178.866          estimate D2E/DX2                !
 ! D45   D(15,19,24,26)          2.2582         estimate D2E/DX2                !
 ! D46   D(20,19,24,25)          0.5041         estimate D2E/DX2                !
 ! D47   D(20,19,24,26)       -178.3717         estimate D2E/DX2                !
 ! D48   D(19,24,26,1)        -104.0258         estimate D2E/DX2                !
 ! D49   D(19,24,26,27)         19.6436         estimate D2E/DX2                !
 ! D50   D(19,24,26,28)        135.4718         estimate D2E/DX2                !
 ! D51   D(25,24,26,1)          77.0554         estimate D2E/DX2                !
 ! D52   D(25,24,26,27)       -159.2752         estimate D2E/DX2                !
 ! D53   D(25,24,26,28)        -43.447          estimate D2E/DX2                !
 --------------------------------------------------------------------------------
 Trust Radius=3.00D-01 FncErr=1.00D-07 GrdErr=1.00D-07 EigMax=2.50D+02 EigMin=1.00D-04
 Number of steps in this run=    138 maximum allowed number of steps=    168.
 GradGradGradGradGradGradGradGradGradGradGradGradGradGradGradGradGradGrad

 Leave Link  103 at Thu Sep 16 16:24:46 2021, MaxMem=   131072000 cpu:               0.0 elap:               0.0
 (Enter /opt/g16/l202.exe)
                          Input orientation:                          
 ---------------------------------------------------------------------
 Center     Atomic      Atomic             Coordinates (Angstroms)
 Number     Number       Type             X           Y           Z
 ---------------------------------------------------------------------
      1          6           0       -0.572600    0.623400   -0.349200
      2          1           0       -0.612000    1.719600   -0.284400
      3          1           0        0.072700    0.383200   -1.205400
      4          6           0       -1.979500    0.130700   -0.675700
      5          6           0       -2.520800    0.742200   -1.945400
      6          1           0       -3.482300    0.332200   -2.258900
      7          1           0       -2.645700    1.822500   -1.817300
      8          1           0       -1.821500    0.572300   -2.771500
      9          6           0       -2.658500   -0.754600    0.082200
     10          1           0       -2.189700   -1.158500    0.977200
     11          6           0       -4.041400   -1.289100   -0.126700
     12          1           0       -4.590800   -0.799900   -0.932200
     13          1           0       -3.994100   -2.360500   -0.344400
     14          1           0       -4.624200   -1.155400    0.790700
     15          6           0        2.884100   -1.234500    0.355700
     16          1           0        3.345400   -1.875600    1.113800
     17          1           0        1.965900   -1.719700    0.017200
     18          1           0        3.554200   -1.187300   -0.509500
     19          6           0        2.661400    0.145000    0.911600
     20          6           0        3.928100    0.904000    1.210500
     21          1           0        4.531900    0.358500    1.943100
     22          1           0        3.729600    1.900200    1.619700
     23          1           0        4.518800    1.031400    0.297400
     24          6           0        1.456500    0.706700    1.131200
     25          1           0        1.421900    1.724100    1.521500
     26          6           0        0.098900    0.087000    0.923300
     27          1           0        0.162400   -1.005100    0.890400
     28          1           0       -0.513200    0.331100    1.800900
 ---------------------------------------------------------------------
                    Distance matrix (angstroms):
                    1          2          3          4          5
     1  C    0.000000
     2  H    1.098820   0.000000
     3  H    1.098720   1.761539   0.000000
     4  C    1.526015   2.132551   2.134447   0.000000
     5  C    2.521399   2.712517   2.720795   1.509661   0.000000
     6  H    3.492579   3.749953   3.708165   2.192152   1.091267
     7  H    2.809075   2.548785   3.136193   2.146919   1.095015
     8  H    2.725784   2.994137   2.465040   2.147639   1.095595
     9  C    2.536921   3.231752   3.226756   1.348781   2.523992
    10  H    2.747638   3.516281   3.501291   2.106727   3.501982
    11  C    3.967334   4.564858   4.570120   2.562941   3.121870
    12  H    4.302511   4.753775   4.818983   2.784007   2.773003
    13  H    4.539862   5.299945   4.980770   3.220939   3.789533
    14  H    4.569351   5.051655   5.330345   3.286156   3.938454
    15  C    3.987161   4.621596   3.599716   5.155789   6.198012
    16  H    4.871970   5.526431   4.603415   5.965074   7.115046
    17  H    3.473953   4.308749   3.082393   4.412513   5.481170
    18  H    4.509413   5.085072   3.882214   5.690921   6.533789
    19  C    3.503889   3.824255   3.352580   4.904863   5.947629
    20  C    4.771551   4.848963   4.579510   6.249438   7.181518
    21  H    5.601851   5.768367   5.458766   7.021989   8.062768
    22  H    4.900583   4.744228   4.863681   6.402641   7.288237
    23  H    5.148486   5.209340   4.737761   6.632201   7.393900
    24  C    2.513120   2.703439   2.734823   3.924635   5.028483
    25  H    2.947726   2.719935   3.324806   4.351567   5.341199
    26  C    1.535543   2.151581   2.149368   2.622681   3.939740
    27  H    2.174591   3.066568   2.515512   2.886251   4.277193
    28  H    2.170691   2.507224   3.063304   2.885090   4.270155
                    6          7          8          9         10
     6  H    0.000000
     7  H    1.765192   0.000000
     8  H    1.754612   1.775614   0.000000
     9  C    2.709341   3.201517   3.256507   0.000000
    10  H    3.790164   4.111390   4.145358   1.088087   0.000000
    11  C    2.736327   3.806332   3.922720   1.497245   2.159732
    12  H    2.066532   3.382868   3.596523   2.182852   3.088638
    13  H    3.343334   4.635203   4.383186   2.131837   2.539151
    14  H    3.580077   4.425383   4.850705   2.127578   2.441635
    15  C    7.058451   6.681756   5.931827   5.570056   5.112288
    16  H    7.928870   7.626308   6.912642   6.194163   5.583030
    17  H    6.250905   6.097493   5.232066   4.724481   4.301809
    18  H    7.408213   7.014841   6.091879   6.255796   5.933253
    19  C    6.916080   6.198888   5.817577   5.458802   5.023603
    20  C    8.202300   7.295619   7.001732   6.885297   6.460326
    21  H    9.049027   8.234188   7.914471   7.510246   6.958028
    22  H    8.337485   7.243166   7.201435   7.086585   6.693771
    23  H    8.428591   7.511848   7.058918   7.399307   7.089553
    24  C    6.002064   5.173655   5.098472   4.490994   4.098471
    25  H    6.346652   5.263330   5.502375   4.986502   4.652881
    26  C    4.797032   4.249197   4.192255   3.003164   2.606121
    27  H    4.999030   4.817923   4.453489   2.945066   2.358695
    28  H    5.029665   4.456815   4.762003   2.955501   2.389151
                   11         12         13         14         15
    11  C    0.000000
    12  H    1.090865   0.000000
    13  H    1.094316   1.771167   0.000000
    14  H    1.095059   1.759511   1.771368   0.000000
    15  C    6.942495   7.597479   7.004831   7.521306   0.000000
    16  H    7.513164   8.265986   7.498649   8.008596   1.094771
    17  H    6.024432   6.688625   6.005246   6.659291   1.092288
    18  H    7.605921   8.165156   7.640713   8.281169   1.095369
    19  C    6.932693   7.542336   7.221547   7.401731   1.503875
    20  C    8.373215   8.947966   8.708383   8.806770   2.528597
    21  H    8.972187   9.634983   9.236790   9.351689   2.787962
    22  H    8.579626   9.112178   9.036968   8.933639   3.484094
    23  H    8.879280   9.372854   9.186205   9.413814   2.794628
    24  C    5.982678   6.564853   6.426053   6.368537   2.531343
    25  H    6.453184   6.967337   7.035524   6.736536   3.500062
    26  C    4.487565   5.120816   4.934569   4.885572   3.134625
    27  H    4.334407   5.094790   4.542943   4.789997   2.783196
    28  H    4.334615   5.037442   4.895272   4.486703   4.010156
                   16         17         18         19         20
    16  H    0.000000
    17  H    1.769140   0.000000
    18  H    1.775516   1.756007   0.000000
    19  C    2.142794   2.181921   2.142811   0.000000
    20  C    2.841666   3.486832   2.733448   1.506636   0.000000
    21  H    2.662090   3.822612   3.059517   2.146706   1.094919
    22  H    3.828865   4.333857   3.754586   2.173289   1.095108
    23  H    3.239448   3.763557   2.550328   2.147762   1.094947
    24  C    3.199456   2.718069   3.267947   1.347411   2.480730
    25  H    4.101696   3.797185   4.141004   2.098069   2.655245
    26  C    3.798401   2.751522   3.951690   2.563183   3.925907
    27  H    3.307441   2.127380   3.673857   2.751033   4.234102
    28  H    4.497825   3.678764   4.918051   3.302056   4.516850
                   21         22         23         24         25
    21  H    0.000000
    22  H    1.767799   0.000000
    23  H    1.778003   1.768086   0.000000
    24  C    3.199767   2.613438   3.190350   0.000000
    25  H    3.422676   2.316492   3.401330   1.090245   0.000000
    26  C    4.556884   4.117602   4.562802   1.506761   2.188211
    27  H    4.696819   4.658064   4.845328   2.159384   3.071345
    28  H    5.047178   4.527280   5.298297   2.114070   2.400651
                   26         27         28
    26  C    0.000000
    27  H    1.094439   0.000000
    28  H    1.097467   1.752392   0.000000
 Stoichiometry    C10H18
 Framework group  C1[X(C10H18)]
 Deg. of freedom    78
 Full point group                 C1      NOp   1
 Largest Abelian subgroup         C1      NOp   1
 Largest concise Abelian subgroup C1      NOp   1
                         Standard orientation:                         
 ---------------------------------------------------------------------
 Center     Atomic      Atomic             Coordinates (Angstroms)
 Number     Number       Type             X           Y           Z
 ---------------------------------------------------------------------
      1          6           0        0.545453    0.757073   -0.085430
      2          1           0        0.468427    1.640655   -0.734086
      3          1           0        0.161345    1.056944    0.899316
      4          6           0        2.027650    0.430960    0.074143
      5          6           0        2.814466    1.594863    0.626706
      6          1           0        3.856817    1.359109    0.847590
      7          1           0        2.805278    2.425632   -0.086593
      8          1           0        2.364412    1.940960    1.563720
      9          6           0        2.570301   -0.763639   -0.238386
     10          1           0        1.929185   -1.555800   -0.619679
     11          6           0        4.003469   -1.186724   -0.144735
     12          1           0        4.691985   -0.376163    0.098004
     13          1           0        4.109225   -1.966603    0.615616
     14          1           0        4.321504   -1.605129   -1.105435
     15          6           0       -2.795599   -0.967181    1.241888
     16          1           0       -3.373608   -1.885339    1.095551
     17          1           0       -1.781892   -1.249934    1.534366
     18          1           0       -3.227191   -0.419453    2.086610
     19          6           0       -2.845408   -0.121641   -0.000778
     20          6           0       -4.209528    0.434294   -0.317109
     21          1           0       -4.927000   -0.380887   -0.456971
     22          1           0       -4.211153    1.038358   -1.230545
     23          1           0       -4.559753    1.070237    0.502542
     24          6           0       -1.790476    0.156526   -0.791510
     25          1           0       -1.947153    0.798844   -1.658409
     26          6           0       -0.374270   -0.337094   -0.646504
     27          1           0       -0.328880   -1.232910   -0.019406
     28          1           0       -0.027899   -0.643139   -1.641891
 ---------------------------------------------------------------------
 Rotational constants (GHZ):           2.9093654           0.4568136           0.4356914
 Leave Link  202 at Thu Sep 16 16:24:46 2021, MaxMem=   131072000 cpu:               0.0 elap:               0.0
 (Enter /opt/g16/l301.exe)
 Standard basis: VSTO-6G (5D, 7F)
 Ernie: Thresh=  0.10000D-02 Tol=  0.10000D-05 Strict=F.
  NNHCO=     0 NNPyr=     0 NCTC=     0               EPep=         0.000000000
    EC=       243.364355507  ECS=         3.515392735   EG=         0.892386046
   EHC=         0.000000000  EAt=       -49.524085099  AtH=         4.217842293
 EPDDG=         0.000000000  ECC=       247.772134289 EAtT=        53.741927392
 There are    58 symmetry adapted cartesian basis functions of A   symmetry.
 There are    58 symmetry adapted basis functions of A   symmetry.
    58 basis functions,   348 primitive gaussians,    58 cartesian basis functions
    29 alpha electrons       29 beta electrons
       nuclear repulsion energy       301.5140616812 Hartrees.
 IExCor=    0 DFT=F Ex=HF Corr=None ExCW=0 ScaHFX=  1.000000
 ScaDFX=  1.000000  1.000000  1.000000  1.000000 ScalE2=  1.000000  1.000000
 IRadAn=      5 IRanWt=     -1 IRanGd=            0 ICorTp=0 IEmpDi=  4
 Integral buffers will be    131072 words long.
 Regular integral format.
 Two-electron integral symmetry is turned off.
 Leave Link  301 at Thu Sep 16 16:24:46 2021, MaxMem=   131072000 cpu:               0.0 elap:               0.0
 (Enter /opt/g16/l302.exe)
 Do NDO integrals.
 NPDir=0 NMtPBC=     1 NCelOv=     1 NCel=       1 NClECP=     1 NCelD=      1
         NCelK=      1 NCelE2=     1 NClLst=     1 CellRange=     0.0.
 One-electron integrals computed using PRISM.
 NBasis=    58 RedAO= F EigKep=  0.00D+00  NBF=    58
 NBsUse=    58 1.00D-04 EigRej=  0.00D+00 NBFU=    58
 Leave Link  302 at Thu Sep 16 16:24:46 2021, MaxMem=   131072000 cpu:               0.1 elap:               0.1
 (Enter /opt/g16/l303.exe)
 DipDrv:  MaxL=1.
 Leave Link  303 at Thu Sep 16 16:24:46 2021, MaxMem=   131072000 cpu:               0.0 elap:               0.0
 (Enter /opt/g16/l401.exe)
 Simple Huckel Guess.
 JPrj=0 DoOrth=F DoCkMO=F.
 Leave Link  401 at Thu Sep 16 16:24:46 2021, MaxMem=   131072000 cpu:               0.0 elap:               0.0
 (Enter /opt/g16/l502.exe)
 Keep J ints in memory in canonical form, NReq=866866.
 FoFCou: FMM=F IPFlag=           0 FMFlag=           0 FMFlg1=           0
         NFxFlg=           0 DoJE=F BraDBF=F KetDBF=F FulRan=T
         wScrn=  0.000000 ICntrl=       600 IOpCl=  2 I1Cent=           0 NGrid=           0
         NMat0=    1 NMatS0=    118 NMatT0=    0 NMatD0=    1 NMtDS0=    0 NMtDT0=    0
 Symmetry not used in FoFCou.
 Two-electron integral symmetry not used.
 Closed shell SCF:
 Using DIIS extrapolation, IDIIS=  1040.
 Overlap will be assumed to be unity.
 NGot=   131072000 LenX=   130997697 LenY=   130993892
 Requested convergence on RMS density matrix=1.00D-08 within 128 cycles.
 Requested convergence on MAX density matrix=1.00D-06.
 Requested convergence on             energy=1.00D-06.
 No special actions if energy rises.

 Cycle   1  Pass 1  IDiag  1:
 E= 0.217717921213818    
 DIIS: error= 2.74D-02 at cycle   1 NSaved=   1.
 NSaved= 1 IEnMin= 1 EnMin= 0.217717921213818     IErMin= 1 ErrMin= 2.74D-02
 ErrMax= 2.74D-02  0.00D+00 EMaxC= 1.00D-01 BMatC= 9.42D-02 BMatP= 9.42D-02
 IDIUse=3 WtCom= 7.26D-01 WtEn= 2.74D-01
 Coeff-Com:  0.100D+01
 Coeff-En:   0.100D+01
 Coeff:      0.100D+01
 GapD=    2.000 DampG=2.000 DampE=0.500 DampFc=1.0000 IDamp=-1.
 RMSDP=7.13D-03 MaxDP=8.49D-02              OVMax= 0.00D+00

 Cycle   2  Pass 1  IDiag  1:
 E=-0.988434001328642E-03 Delta-E=       -0.218706355215 Rises=F Damp=F
 DIIS: error= 7.96D-03 at cycle   2 NSaved=   2.
 NSaved= 2 IEnMin= 2 EnMin=-0.988434001328642E-03 IErMin= 2 ErrMin= 7.96D-03
 ErrMax= 7.96D-03  0.00D+00 EMaxC= 1.00D-01 BMatC= 6.04D-03 BMatP= 9.42D-02
 IDIUse=3 WtCom= 9.20D-01 WtEn= 7.96D-02
 Coeff-Com: -0.318D+00 0.132D+01
 Coeff-En:   0.000D+00 0.100D+01
 Coeff:     -0.292D+00 0.129D+01
 RMSDP=2.58D-03 MaxDP=2.87D-02 DE=-2.19D-01 OVMax= 0.00D+00

 Cycle   3  Pass 1  IDiag  3:
 E=-0.182276264890788E-01 Delta-E=       -0.017239192488 Rises=F Damp=F
 DIIS: error= 9.27D-04 at cycle   3 NSaved=   3.
 NSaved= 3 IEnMin= 3 EnMin=-0.182276264890788E-01 IErMin= 3 ErrMin= 9.27D-04
 ErrMax= 9.27D-04  0.00D+00 EMaxC= 1.00D-01 BMatC= 7.26D-05 BMatP= 6.04D-03
 IDIUse=3 WtCom= 9.91D-01 WtEn= 9.27D-03
 Coeff-Com:  0.109D+00-0.507D+00 0.140D+01
 Coeff-En:   0.000D+00 0.000D+00 0.100D+01
 Coeff:      0.108D+00-0.503D+00 0.139D+01
 Gap=     0.382 Goal=   None    Shift=    0.000
 RMSDP=4.22D-04 MaxDP=4.15D-03 DE=-1.72D-02 OVMax= 5.12D-03

 Cycle   4  Pass 1  IDiag  3:
 E=-0.185579315579503E-01 Delta-E=       -0.000330305069 Rises=F Damp=F
 DIIS: error= 1.64D-04 at cycle   4 NSaved=   4.
 NSaved= 4 IEnMin= 4 EnMin=-0.185579315579503E-01 IErMin= 4 ErrMin= 1.64D-04
 ErrMax= 1.64D-04  0.00D+00 EMaxC= 1.00D-01 BMatC= 3.04D-06 BMatP= 7.26D-05
 IDIUse=3 WtCom= 9.98D-01 WtEn= 1.64D-03
 Coeff-Com: -0.474D-01 0.227D+00-0.734D+00 0.155D+01
 Coeff-En:   0.000D+00 0.000D+00 0.000D+00 0.100D+01
 Coeff:     -0.473D-01 0.227D+00-0.733D+00 0.155D+01
 Gap=     0.382 Goal=   None    Shift=    0.000
 RMSDP=1.05D-04 MaxDP=1.15D-03 DE=-3.30D-04 OVMax= 7.10D-04

 Cycle   5  Pass 1  IDiag  3:
 E=-0.185749608310175E-01 Delta-E=       -0.000017029273 Rises=F Damp=F
 DIIS: error= 4.86D-05 at cycle   5 NSaved=   5.
 NSaved= 5 IEnMin= 5 EnMin=-0.185749608310175E-01 IErMin= 5 ErrMin= 4.86D-05
 ErrMax= 4.86D-05  0.00D+00 EMaxC= 1.00D-01 BMatC= 1.56D-07 BMatP= 3.04D-06
 IDIUse=1 WtCom= 1.00D+00 WtEn= 0.00D+00
 Coeff-Com:  0.137D-01-0.655D-01 0.218D+00-0.595D+00 0.143D+01
 Coeff:      0.137D-01-0.655D-01 0.218D+00-0.595D+00 0.143D+01
 Gap=     0.382 Goal=   None    Shift=    0.000
 RMSDP=2.45D-05 MaxDP=2.71D-04 DE=-1.70D-05 OVMax= 1.96D-04

 Cycle   6  Pass 1  IDiag  3:
 E=-0.185759052247931E-01 Delta-E=       -0.000000944394 Rises=F Damp=F
 DIIS: error= 1.44D-05 at cycle   6 NSaved=   6.
 NSaved= 6 IEnMin= 6 EnMin=-0.185759052247931E-01 IErMin= 6 ErrMin= 1.44D-05
 ErrMax= 1.44D-05  0.00D+00 EMaxC= 1.00D-01 BMatC= 1.25D-08 BMatP= 1.56D-07
 IDIUse=1 WtCom= 1.00D+00 WtEn= 0.00D+00
 Coeff-Com: -0.480D-02 0.230D-01-0.752D-01 0.207D+00-0.700D+00 0.155D+01
 Coeff:     -0.480D-02 0.230D-01-0.752D-01 0.207D+00-0.700D+00 0.155D+01
 Gap=     0.382 Goal=   None    Shift=    0.000
 RMSDP=8.07D-06 MaxDP=1.01D-04 DE=-9.44D-07 OVMax= 9.86D-05

 Cycle   7  Pass 1  IDiag  3:
 E=-0.185759898578226E-01 Delta-E=       -0.000000084633 Rises=F Damp=F
 DIIS: error= 3.22D-06 at cycle   7 NSaved=   7.
 NSaved= 7 IEnMin= 7 EnMin=-0.185759898578226E-01 IErMin= 7 ErrMin= 3.22D-06
 ErrMax= 3.22D-06  0.00D+00 EMaxC= 1.00D-01 BMatC= 8.77D-10 BMatP= 1.25D-08
 IDIUse=1 WtCom= 1.00D+00 WtEn= 0.00D+00
 Coeff-Com:  0.114D-02-0.541D-02 0.173D-01-0.482D-01 0.228D+00-0.764D+00
 Coeff-Com:  0.157D+01
 Coeff:      0.114D-02-0.541D-02 0.173D-01-0.482D-01 0.228D+00-0.764D+00
 Coeff:      0.157D+01
 Gap=     0.382 Goal=   None    Shift=    0.000
 RMSDP=2.20D-06 MaxDP=2.75D-05 DE=-8.46D-08 OVMax= 3.54D-05

 Cycle   8  Pass 1  IDiag  3:
 E=-0.185759956741549E-01 Delta-E=       -0.000000005816 Rises=F Damp=F
 DIIS: error= 8.80D-07 at cycle   8 NSaved=   8.
 NSaved= 8 IEnMin= 8 EnMin=-0.185759956741549E-01 IErMin= 8 ErrMin= 8.80D-07
 ErrMax= 8.80D-07  0.00D+00 EMaxC= 1.00D-01 BMatC= 3.89D-11 BMatP= 8.77D-10
 IDIUse=1 WtCom= 1.00D+00 WtEn= 0.00D+00
 Coeff-Com: -0.719D-04 0.331D-03-0.895D-03 0.244D-02-0.304D-01 0.153D+00
 Coeff-Com: -0.492D+00 0.137D+01
 Coeff:     -0.719D-04 0.331D-03-0.895D-03 0.244D-02-0.304D-01 0.153D+00
 Coeff:     -0.492D+00 0.137D+01
 Gap=     0.382 Goal=   None    Shift=    0.000
 RMSDP=4.17D-07 MaxDP=6.91D-06 DE=-5.82D-09 OVMax= 8.08D-06

 Cycle   9  Pass 1  IDiag  3:
 E=-0.185759959188658E-01 Delta-E=       -0.000000000245 Rises=F Damp=F
 DIIS: error= 2.63D-07 at cycle   9 NSaved=   9.
 NSaved= 9 IEnMin= 9 EnMin=-0.185759959188658E-01 IErMin= 9 ErrMin= 2.63D-07
 ErrMax= 2.63D-07  0.00D+00 EMaxC= 1.00D-01 BMatC= 3.51D-12 BMatP= 3.89D-11
 IDIUse=1 WtCom= 1.00D+00 WtEn= 0.00D+00
 Coeff-Com:  0.209D-04-0.923D-04 0.190D-03-0.385D-03 0.110D-01-0.631D-01
 Coeff-Com:  0.223D+00-0.809D+00 0.164D+01
 Coeff:      0.209D-04-0.923D-04 0.190D-03-0.385D-03 0.110D-01-0.631D-01
 Coeff:      0.223D+00-0.809D+00 0.164D+01
 Gap=     0.382 Goal=   None    Shift=    0.000
 RMSDP=1.39D-07 MaxDP=2.15D-06 DE=-2.45D-10 OVMax= 2.60D-06

 Cycle  10  Pass 1  IDiag  3:
 E=-0.185759959433085E-01 Delta-E=       -0.000000000024 Rises=F Damp=F
 DIIS: error= 6.23D-08 at cycle  10 NSaved=  10.
 NSaved=10 IEnMin=10 EnMin=-0.185759959433085E-01 IErMin=10 ErrMin= 6.23D-08
 ErrMax= 6.23D-08  0.00D+00 EMaxC= 1.00D-01 BMatC= 2.30D-13 BMatP= 3.51D-12
 IDIUse=1 WtCom= 1.00D+00 WtEn= 0.00D+00
 Coeff-Com: -0.276D-05 0.108D-04-0.131D-05-0.202D-04-0.287D-02 0.178D-01
 Coeff-Com: -0.653D-01 0.265D+00-0.757D+00 0.154D+01
 Coeff:     -0.276D-05 0.108D-04-0.131D-05-0.202D-04-0.287D-02 0.178D-01
 Coeff:     -0.653D-01 0.265D+00-0.757D+00 0.154D+01
 Gap=     0.382 Goal=   None    Shift=    0.000
 RMSDP=3.73D-08 MaxDP=5.01D-07 DE=-2.44D-11 OVMax= 5.82D-07

 Cycle  11  Pass 1  IDiag  3:
 E=-0.185759959451843E-01 Delta-E=       -0.000000000002 Rises=F Damp=F
 DIIS: error= 1.17D-08 at cycle  11 NSaved=  11.
 NSaved=11 IEnMin=11 EnMin=-0.185759959451843E-01 IErMin=11 ErrMin= 1.17D-08
 ErrMax= 1.17D-08  0.00D+00 EMaxC= 1.00D-01 BMatC= 7.82D-15 BMatP= 2.30D-13
 IDIUse=1 WtCom= 1.00D+00 WtEn= 0.00D+00
 Coeff-Com:  0.209D-06-0.335D-06-0.832D-05 0.287D-04 0.734D-03-0.481D-02
 Coeff-Com:  0.179D-01-0.750D-01 0.234D+00-0.598D+00 0.142D+01
 Coeff:      0.209D-06-0.335D-06-0.832D-05 0.287D-04 0.734D-03-0.481D-02
 Coeff:      0.179D-01-0.750D-01 0.234D+00-0.598D+00 0.142D+01
 Gap=     0.382 Goal=   None    Shift=    0.000
 RMSDP=5.66D-09 MaxDP=7.45D-08 DE=-1.88D-12 OVMax= 4.00D-08

 Cycle  12  Pass 2  IDiag  1:
 SCF Done:  E(RPM3) = -0.185759959452E-01 A.U. after   12 cycles
            NFock= 11  Conv=0.57D-08     -V/T= 0.9998
 KE=-7.902129469963D+01 PE=-4.853296648909D+02 EE= 2.628183219134D+02
 Leave Link  502 at Thu Sep 16 16:24:46 2021, MaxMem=   131072000 cpu:               0.1 elap:               0.1
 (Enter /opt/g16/l601.exe)
 Copying SCF densities to generalized density rwf, IOpCl= 0 IROHF=0.

 **********************************************************************

            Population analysis using the SCF density.

 **********************************************************************

 Orbital symmetries:
       Occupied  (A) (A) (A) (A) (A) (A) (A) (A) (A) (A) (A) (A)
                 (A) (A) (A) (A) (A) (A) (A) (A) (A) (A) (A) (A)
                 (A) (A) (A) (A) (A)
       Virtual   (A) (A) (A) (A) (A) (A) (A) (A) (A) (A) (A) (A)
                 (A) (A) (A) (A) (A) (A) (A) (A) (A) (A) (A) (A)
                 (A) (A) (A) (A) (A)
 The electronic state is 1-A.
 Alpha  occ. eigenvalues --   -1.45154  -1.35155  -1.18699  -1.09692  -1.01339
 Alpha  occ. eigenvalues --   -0.95332  -0.86531  -0.80458  -0.66208  -0.64358
 Alpha  occ. eigenvalues --   -0.60598  -0.60186  -0.57541  -0.55389  -0.55087
 Alpha  occ. eigenvalues --   -0.54087  -0.51598  -0.50240  -0.48899  -0.48646
 Alpha  occ. eigenvalues --   -0.47864  -0.47724  -0.47390  -0.46644  -0.44736
 Alpha  occ. eigenvalues --   -0.43858  -0.42826  -0.34968  -0.34509
 Alpha virt. eigenvalues --    0.03687   0.04025   0.11379   0.12338   0.13068
 Alpha virt. eigenvalues --    0.13783   0.13938   0.14400   0.14887   0.15088
 Alpha virt. eigenvalues --    0.15451   0.15707   0.16044   0.16164   0.16411
 Alpha virt. eigenvalues --    0.16458   0.16518   0.16697   0.16765   0.16987
 Alpha virt. eigenvalues --    0.17035   0.17090   0.17557   0.17806   0.18148
 Alpha virt. eigenvalues --    0.20677   0.21031   0.22309   0.22568
          Condensed to atoms (all electrons):
               1          2          3          4          5          6
     1  C    4.050902   0.000000   0.000000   0.000000   0.000000   0.000000
     2  H    0.000000   0.945985   0.000000   0.000000   0.000000   0.000000
     3  H    0.000000   0.000000   0.944399   0.000000   0.000000   0.000000
     4  C    0.000000   0.000000   0.000000   4.118084   0.000000   0.000000
     5  C    0.000000   0.000000   0.000000   0.000000   4.070006   0.000000
     6  H    0.000000   0.000000   0.000000   0.000000   0.000000   0.954629
     7  H    0.000000   0.000000   0.000000   0.000000   0.000000   0.000000
     8  H    0.000000   0.000000   0.000000   0.000000   0.000000   0.000000
     9  C    0.000000   0.000000   0.000000   0.000000   0.000000   0.000000
    10  H    0.000000   0.000000   0.000000   0.000000   0.000000   0.000000
    11  C    0.000000   0.000000   0.000000   0.000000   0.000000   0.000000
    12  H    0.000000   0.000000   0.000000   0.000000   0.000000   0.000000
    13  H    0.000000   0.000000   0.000000   0.000000   0.000000   0.000000
    14  H    0.000000   0.000000   0.000000   0.000000   0.000000   0.000000
    15  C    0.000000   0.000000   0.000000   0.000000   0.000000   0.000000
    16  H    0.000000   0.000000   0.000000   0.000000   0.000000   0.000000
    17  H    0.000000   0.000000   0.000000   0.000000   0.000000   0.000000
    18  H    0.000000   0.000000   0.000000   0.000000   0.000000   0.000000
    19  C    0.000000   0.000000   0.000000   0.000000   0.000000   0.000000
    20  C    0.000000   0.000000   0.000000   0.000000   0.000000   0.000000
    21  H    0.000000   0.000000   0.000000   0.000000   0.000000   0.000000
    22  H    0.000000   0.000000   0.000000   0.000000   0.000000   0.000000
    23  H    0.000000   0.000000   0.000000   0.000000   0.000000   0.000000
    24  C    0.000000   0.000000   0.000000   0.000000   0.000000   0.000000
    25  H    0.000000   0.000000   0.000000   0.000000   0.000000   0.000000
    26  C    0.000000   0.000000   0.000000   0.000000   0.000000   0.000000
    27  H    0.000000   0.000000   0.000000   0.000000   0.000000   0.000000
    28  H    0.000000   0.000000   0.000000   0.000000   0.000000   0.000000
               7          8          9         10         11         12
     1  C    0.000000   0.000000   0.000000   0.000000   0.000000   0.000000
     2  H    0.000000   0.000000   0.000000   0.000000   0.000000   0.000000
     3  H    0.000000   0.000000   0.000000   0.000000   0.000000   0.000000
     4  C    0.000000   0.000000   0.000000   0.000000   0.000000   0.000000
     5  C    0.000000   0.000000   0.000000   0.000000   0.000000   0.000000
     6  H    0.000000   0.000000   0.000000   0.000000   0.000000   0.000000
     7  H    0.955806   0.000000   0.000000   0.000000   0.000000   0.000000
     8  H    0.000000   0.957041   0.000000   0.000000   0.000000   0.000000
     9  C    0.000000   0.000000   4.161641   0.000000   0.000000   0.000000
    10  H    0.000000   0.000000   0.000000   0.903877   0.000000   0.000000
    11  C    0.000000   0.000000   0.000000   0.000000   4.063814   0.000000
    12  H    0.000000   0.000000   0.000000   0.000000   0.000000   0.957850
    13  H    0.000000   0.000000   0.000000   0.000000   0.000000   0.000000
    14  H    0.000000   0.000000   0.000000   0.000000   0.000000   0.000000
    15  C    0.000000   0.000000   0.000000   0.000000   0.000000   0.000000
    16  H    0.000000   0.000000   0.000000   0.000000   0.000000   0.000000
    17  H    0.000000   0.000000   0.000000   0.000000   0.000000   0.000000
    18  H    0.000000   0.000000   0.000000   0.000000   0.000000   0.000000
    19  C    0.000000   0.000000   0.000000   0.000000   0.000000   0.000000
    20  C    0.000000   0.000000   0.000000   0.000000   0.000000   0.000000
    21  H    0.000000   0.000000   0.000000   0.000000   0.000000   0.000000
    22  H    0.000000   0.000000   0.000000   0.000000   0.000000   0.000000
    23  H    0.000000   0.000000   0.000000   0.000000   0.000000   0.000000
    24  C    0.000000   0.000000   0.000000   0.000000   0.000000   0.000000
    25  H    0.000000   0.000000   0.000000   0.000000   0.000000   0.000000
    26  C    0.000000   0.000000   0.000000   0.000000   0.000000   0.000000
    27  H    0.000000   0.000000   0.000000   0.000000   0.000000   0.000000
    28  H    0.000000   0.000000   0.000000   0.000000   0.000000   0.000000
              13         14         15         16         17         18
     1  C    0.000000   0.000000   0.000000   0.000000   0.000000   0.000000
     2  H    0.000000   0.000000   0.000000   0.000000   0.000000   0.000000
     3  H    0.000000   0.000000   0.000000   0.000000   0.000000   0.000000
     4  C    0.000000   0.000000   0.000000   0.000000   0.000000   0.000000
     5  C    0.000000   0.000000   0.000000   0.000000   0.000000   0.000000
     6  H    0.000000   0.000000   0.000000   0.000000   0.000000   0.000000
     7  H    0.000000   0.000000   0.000000   0.000000   0.000000   0.000000
     8  H    0.000000   0.000000   0.000000   0.000000   0.000000   0.000000
     9  C    0.000000   0.000000   0.000000   0.000000   0.000000   0.000000
    10  H    0.000000   0.000000   0.000000   0.000000   0.000000   0.000000
    11  C    0.000000   0.000000   0.000000   0.000000   0.000000   0.000000
    12  H    0.000000   0.000000   0.000000   0.000000   0.000000   0.000000
    13  H    0.956659   0.000000   0.000000   0.000000   0.000000   0.000000
    14  H    0.000000   0.959292   0.000000   0.000000   0.000000   0.000000
    15  C    0.000000   0.000000   4.068410   0.000000   0.000000   0.000000
    16  H    0.000000   0.000000   0.000000   0.954716   0.000000   0.000000
    17  H    0.000000   0.000000   0.000000   0.000000   0.953444   0.000000
    18  H    0.000000   0.000000   0.000000   0.000000   0.000000   0.956142
    19  C    0.000000   0.000000   0.000000   0.000000   0.000000   0.000000
    20  C    0.000000   0.000000   0.000000   0.000000   0.000000   0.000000
    21  H    0.000000   0.000000   0.000000   0.000000   0.000000   0.000000
    22  H    0.000000   0.000000   0.000000   0.000000   0.000000   0.000000
    23  H    0.000000   0.000000   0.000000   0.000000   0.000000   0.000000
    24  C    0.000000   0.000000   0.000000   0.000000   0.000000   0.000000
    25  H    0.000000   0.000000   0.000000   0.000000   0.000000   0.000000
    26  C    0.000000   0.000000   0.000000   0.000000   0.000000   0.000000
    27  H    0.000000   0.000000   0.000000   0.000000   0.000000   0.000000
    28  H    0.000000   0.000000   0.000000   0.000000   0.000000   0.000000
              19         20         21         22         23         24
     1  C    0.000000   0.000000   0.000000   0.000000   0.000000   0.000000
     2  H    0.000000   0.000000   0.000000   0.000000   0.000000   0.000000
     3  H    0.000000   0.000000   0.000000   0.000000   0.000000   0.000000
     4  C    0.000000   0.000000   0.000000   0.000000   0.000000   0.000000
     5  C    0.000000   0.000000   0.000000   0.000000   0.000000   0.000000
     6  H    0.000000   0.000000   0.000000   0.000000   0.000000   0.000000
     7  H    0.000000   0.000000   0.000000   0.000000   0.000000   0.000000
     8  H    0.000000   0.000000   0.000000   0.000000   0.000000   0.000000
     9  C    0.000000   0.000000   0.000000   0.000000   0.000000   0.000000
    10  H    0.000000   0.000000   0.000000   0.000000   0.000000   0.000000
    11  C    0.000000   0.000000   0.000000   0.000000   0.000000   0.000000
    12  H    0.000000   0.000000   0.000000   0.000000   0.000000   0.000000
    13  H    0.000000   0.000000   0.000000   0.000000   0.000000   0.000000
    14  H    0.000000   0.000000   0.000000   0.000000   0.000000   0.000000
    15  C    0.000000   0.000000   0.000000   0.000000   0.000000   0.000000
    16  H    0.000000   0.000000   0.000000   0.000000   0.000000   0.000000
    17  H    0.000000   0.000000   0.000000   0.000000   0.000000   0.000000
    18  H    0.000000   0.000000   0.000000   0.000000   0.000000   0.000000
    19  C    4.117364   0.000000   0.000000   0.000000   0.000000   0.000000
    20  C    0.000000   4.068837   0.000000   0.000000   0.000000   0.000000
    21  H    0.000000   0.000000   0.955615   0.000000   0.000000   0.000000
    22  H    0.000000   0.000000   0.000000   0.958948   0.000000   0.000000
    23  H    0.000000   0.000000   0.000000   0.000000   0.955458   0.000000
    24  C    0.000000   0.000000   0.000000   0.000000   0.000000   4.158410
    25  H    0.000000   0.000000   0.000000   0.000000   0.000000   0.000000
    26  C    0.000000   0.000000   0.000000   0.000000   0.000000   0.000000
    27  H    0.000000   0.000000   0.000000   0.000000   0.000000   0.000000
    28  H    0.000000   0.000000   0.000000   0.000000   0.000000   0.000000
              25         26         27         28
     1  C    0.000000   0.000000   0.000000   0.000000
     2  H    0.000000   0.000000   0.000000   0.000000
     3  H    0.000000   0.000000   0.000000   0.000000
     4  C    0.000000   0.000000   0.000000   0.000000
     5  C    0.000000   0.000000   0.000000   0.000000
     6  H    0.000000   0.000000   0.000000   0.000000
     7  H    0.000000   0.000000   0.000000   0.000000
     8  H    0.000000   0.000000   0.000000   0.000000
     9  C    0.000000   0.000000   0.000000   0.000000
    10  H    0.000000   0.000000   0.000000   0.000000
    11  C    0.000000   0.000000   0.000000   0.000000
    12  H    0.000000   0.000000   0.000000   0.000000
    13  H    0.000000   0.000000   0.000000   0.000000
    14  H    0.000000   0.000000   0.000000   0.000000
    15  C    0.000000   0.000000   0.000000   0.000000
    16  H    0.000000   0.000000   0.000000   0.000000
    17  H    0.000000   0.000000   0.000000   0.000000
    18  H    0.000000   0.000000   0.000000   0.000000
    19  C    0.000000   0.000000   0.000000   0.000000
    20  C    0.000000   0.000000   0.000000   0.000000
    21  H    0.000000   0.000000   0.000000   0.000000
    22  H    0.000000   0.000000   0.000000   0.000000
    23  H    0.000000   0.000000   0.000000   0.000000
    24  C    0.000000   0.000000   0.000000   0.000000
    25  H    0.904544   0.000000   0.000000   0.000000
    26  C    0.000000   4.057136   0.000000   0.000000
    27  H    0.000000   0.000000   0.943854   0.000000
    28  H    0.000000   0.000000   0.000000   0.947139
 Mulliken charges:
               1
     1  C   -0.050902
     2  H    0.054015
     3  H    0.055601
     4  C   -0.118084
     5  C   -0.070006
     6  H    0.045371
     7  H    0.044194
     8  H    0.042959
     9  C   -0.161641
    10  H    0.096123
    11  C   -0.063814
    12  H    0.042150
    13  H    0.043341
    14  H    0.040708
    15  C   -0.068410
    16  H    0.045284
    17  H    0.046556
    18  H    0.043858
    19  C   -0.117364
    20  C   -0.068837
    21  H    0.044385
    22  H    0.041052
    23  H    0.044542
    24  C   -0.158410
    25  H    0.095456
    26  C   -0.057136
    27  H    0.056146
    28  H    0.052861
 Sum of Mulliken charges =   0.00000
 Mulliken charges with hydrogens summed into heavy atoms:
               1
     1  C    0.058714
     4  C   -0.118084
     5  C    0.062519
     9  C   -0.065518
    11  C    0.062384
    15  C    0.067288
    19  C   -0.117364
    20  C    0.061142
    24  C   -0.062954
    26  C    0.051872
 Charge=              0.0000 electrons
 Dipole moment (field-independent basis, Debye):
    X=             -0.1869    Y=              0.0879    Z=              0.2393  Tot=              0.3161
 N-N= 3.015140616812D+02 E-N=-4.853296650926D+02  KE=-7.902129469963D+01
 Leave Link  601 at Thu Sep 16 16:24:46 2021, MaxMem=   131072000 cpu:               0.0 elap:               0.0
 (Enter /opt/g16/l701.exe)
 ... and contract with generalized density number  0.
 Compute integral first derivatives.
 Leave Link  701 at Thu Sep 16 16:24:46 2021, MaxMem=   131072000 cpu:               0.0 elap:               0.1
 (Enter /opt/g16/l702.exe)
 L702 exits ... SP integral derivatives will be done elsewhere.
 Leave Link  702 at Thu Sep 16 16:24:46 2021, MaxMem=   131072000 cpu:               0.0 elap:               0.0
 (Enter /opt/g16/l703.exe)
 Integral derivatives from FoFJK, PRISM(SPDF).
 Compute integral first derivatives, UseDBF=F ICtDFT=           0.
 Calling FoFJK, ICntrl=      2127 FMM=F ISym2X=0 I1Cent= 0 IOpClX= 0 NMat=1 NMatS=1 NMatT=0.
 FoFJK:  IHMeth= 9 ICntrl=    2127 DoSepK=F KAlg= 0 I1Cent=           0 FoldK=F
 IRaf=         0 NMat=       1 IRICut=       1 DoRegI=T DoRafI=F ISym2E= 0 IDoP0=3 IntGTp=3.
 FoFCou: FMM=F IPFlag=           0 FMFlag=      100000 FMFlg1=         800
         NFxFlg=           0 DoJE=F BraDBF=F KetDBF=F FulRan=T
         wScrn=  0.000000 ICntrl=      2127 IOpCl=  0 I1Cent=           0 NGrid=           0
         NMat0=    1 NMatS0=      1 NMatT0=    0 NMatD0=    1 NMtDS0=    0 NMtDT0=    0
 Symmetry not used in FoFCou.
 Leave Link  703 at Thu Sep 16 16:24:46 2021, MaxMem=   131072000 cpu:               0.0 elap:               0.0
 (Enter /opt/g16/l716.exe)
 Dipole        =-7.35440561D-02 3.45634996D-02 9.41594480D-02
 ***** Axes restored to original set *****
 -------------------------------------------------------------------
 Center     Atomic                   Forces (Hartrees/Bohr)
 Number     Number              X              Y              Z
 -------------------------------------------------------------------
      1        6          -0.011451636   -0.010685940    0.006081375
      2        1          -0.000651975    0.006194633   -0.000414679
      3        1           0.003097403   -0.001129880   -0.005338574
      4        6          -0.000284361   -0.002312979    0.001729301
      5        6           0.008272979   -0.006633317    0.014864921
      6        1          -0.005321357   -0.003532695    0.002323084
      7        1           0.000037607    0.002004655   -0.000137262
      8        1           0.001806391    0.000626105   -0.001426216
      9        6          -0.002653505    0.008630848   -0.012248529
     10        1           0.004483177   -0.001615102    0.005234656
     11        6           0.016438214    0.008229404    0.001236261
     12        1          -0.000130351    0.002905649   -0.005385767
     13        1          -0.000324164   -0.002166129   -0.000886666
     14        1          -0.001519966   -0.000250942    0.001866010
     15        6          -0.002196298    0.015252393    0.005623522
     16        1           0.001104810   -0.001185984    0.001093766
     17        1          -0.005088301   -0.000398306    0.000613398
     18        1           0.002254627    0.000028472   -0.000979273
     19        6          -0.003396051   -0.002262121   -0.002548338
     20        6          -0.013879036   -0.006604832   -0.002248106
     21        1           0.001554992   -0.001048453    0.000492968
     22        1          -0.000268997    0.001691609    0.000674510
     23        1           0.001555738   -0.000301096   -0.001115869
     24        6           0.000995722   -0.011883661   -0.005732770
     25        1          -0.000175618    0.005125361    0.001321103
     26        6           0.008129471    0.009425953   -0.008832116
     27        1           0.001838095   -0.008966751   -0.001437843
     28        1          -0.004227609    0.000863104    0.005577133
 -------------------------------------------------------------------
 Cartesian Forces:  Max     0.016438214 RMS     0.005542920
 Leave Link  716 at Thu Sep 16 16:24:46 2021, MaxMem=   131072000 cpu:               0.0 elap:               0.0
 (Enter /opt/g16/l103.exe)

 GradGradGradGradGradGradGradGradGradGradGradGradGradGradGradGradGradGrad
 Berny optimization.
 FormGI is forming the generalized inverse of G from B-inverse, IUseBI=4.
 Internal  Forces:  Max     0.024252105 RMS     0.005732075
 Search for a local minimum.
 Step number   1 out of a maximum of  138
 All quantities printed in internal units (Hartrees-Bohrs-Radians)
 RMS Force = .57321D-02 SwitMx=.10000D-02 MixMth= 1
 Mixed Optimization -- RFO/linear search
 Second derivative matrix not updated -- first step.
 ITU=  0
     Eigenvalues ---    0.00296   0.00422   0.00638   0.00677   0.00678
     Eigenvalues ---    0.00715   0.00802   0.01184   0.01286   0.01560
     Eigenvalues ---    0.01644   0.02766   0.02784   0.03498   0.04138
     Eigenvalues ---    0.05251   0.05380   0.06879   0.06960   0.06979
     Eigenvalues ---    0.07091   0.07300   0.07306   0.07347   0.07511
     Eigenvalues ---    0.09253   0.10117   0.12744   0.13337   0.15998
     Eigenvalues ---    0.16000   0.16000   0.16000   0.16000   0.16000
     Eigenvalues ---    0.16000   0.16000   0.16000   0.16000   0.16000
     Eigenvalues ---    0.16000   0.16000   0.16000   0.21890   0.22000
     Eigenvalues ---    0.22000   0.22051   0.24998   0.24999   0.25000
     Eigenvalues ---    0.25000   0.28917   0.29794   0.31385   0.31678
     Eigenvalues ---    0.31691   0.31974   0.32668   0.33813   0.33824
     Eigenvalues ---    0.33964   0.34174   0.34199   0.34229   0.34234
     Eigenvalues ---    0.34239   0.34247   0.34250   0.34267   0.34305
     Eigenvalues ---    0.34319   0.34550   0.34667   0.34713   0.34784
     Eigenvalues ---    0.35035   0.55282   0.55576
 RFO step:  Lambda=-1.32179253D-02 EMin= 2.95776801D-03
 Linear search not attempted -- first point.
 Iteration  1 RMS(Cart)=  0.11008067 RMS(Int)=  0.00157890
 Iteration  2 RMS(Cart)=  0.00250107 RMS(Int)=  0.00007271
 Iteration  3 RMS(Cart)=  0.00000217 RMS(Int)=  0.00007269
 Iteration  4 RMS(Cart)=  0.00000000 RMS(Int)=  0.00007269
 ITry= 1 IFail=0 DXMaxC= 4.26D-01 DCOld= 1.00D+10 DXMaxT= 3.00D-01 DXLimC= 3.00D+00 Rises=F
 Variable       Old X    -DE/DX   Delta X   Delta X   Delta X     New X
                                 (Linear)    (Quad)   (Total)
    R1        2.07647   0.00618   0.00000   0.01759   0.01759   2.09406
    R2        2.07628   0.00623   0.00000   0.01772   0.01772   2.09400
    R3        2.88375  -0.02261   0.00000  -0.07268  -0.07268   2.81107
    R4        2.90176  -0.01128   0.00000  -0.03730  -0.03730   2.86445
    R5        2.85285  -0.01791   0.00000  -0.05477  -0.05477   2.79808
    R6        2.54883  -0.02425   0.00000  -0.04285  -0.04285   2.50598
    R7        2.06220   0.00535   0.00000   0.01486   0.01486   2.07706
    R8        2.06928   0.00196   0.00000   0.00550   0.00550   2.07478
    R9        2.07037   0.00213   0.00000   0.00600   0.00600   2.07638
   R10        2.05619   0.00684   0.00000   0.01881   0.01881   2.07499
   R11        2.82938  -0.01603   0.00000  -0.04716  -0.04716   2.78222
   R12        2.06144   0.00535   0.00000   0.01483   0.01483   2.07627
   R13        2.06796   0.00228   0.00000   0.00641   0.00641   2.07436
   R14        2.06936   0.00234   0.00000   0.00659   0.00659   2.07595
   R15        2.06882   0.00192   0.00000   0.00539   0.00539   2.07420
   R16        2.06412   0.00426   0.00000   0.01189   0.01189   2.07601
   R17        2.06995   0.00215   0.00000   0.00606   0.00606   2.07601
   R18        2.84191  -0.01549   0.00000  -0.04653  -0.04653   2.79538
   R19        2.84713  -0.01287   0.00000  -0.03899  -0.03899   2.80814
   R20        2.54624  -0.01883   0.00000  -0.03310  -0.03310   2.51313
   R21        2.06910   0.00171   0.00000   0.00481   0.00481   2.07390
   R22        2.06945   0.00184   0.00000   0.00517   0.00517   2.07463
   R23        2.06915   0.00173   0.00000   0.00488   0.00488   2.07403
   R24        2.06026   0.00526   0.00000   0.01457   0.01457   2.07484
   R25        2.84737  -0.01684   0.00000  -0.05104  -0.05104   2.79633
   R26        2.06819   0.00910   0.00000   0.02554   0.02554   2.09373
   R27        2.07391   0.00701   0.00000   0.01987   0.01987   2.09378
    A1        1.85992  -0.00148   0.00000   0.00302   0.00275   1.86267
    A2        1.87723   0.00261   0.00000   0.00646   0.00652   1.88375
    A3        1.89157   0.00352   0.00000   0.01670   0.01652   1.90809
    A4        1.87985   0.00273   0.00000   0.00764   0.00772   1.88757
    A5        1.88870   0.00343   0.00000   0.01634   0.01619   1.90489
    A6        2.05747  -0.01023   0.00000  -0.04630  -0.04627   2.01120
    A7        1.96031   0.00602   0.00000   0.02286   0.02285   1.98316
    A8        2.16014   0.00026   0.00000   0.00099   0.00098   2.16113
    A9        2.16272  -0.00627   0.00000  -0.02382  -0.02383   2.13889
   A10        1.98816  -0.00595   0.00000  -0.03584  -0.03586   1.95230
   A11        1.91997   0.00111   0.00000   0.00526   0.00517   1.92514
   A12        1.92036   0.00138   0.00000   0.01055   0.01057   1.93093
   A13        1.87944   0.00157   0.00000   0.00437   0.00425   1.88370
   A14        1.86242   0.00273   0.00000   0.01772   0.01781   1.88022
   A15        1.89020  -0.00063   0.00000  -0.00065  -0.00071   1.88949
   A16        2.08168   0.00546   0.00000   0.02062   0.02061   2.10229
   A17        2.24067  -0.01469   0.00000  -0.06297  -0.06299   2.17769
   A18        1.96080   0.00923   0.00000   0.04242   0.04241   2.00321
   A19        1.99118  -0.00423   0.00000  -0.02652  -0.02654   1.96463
   A20        1.91489   0.00099   0.00000   0.00441   0.00430   1.91919
   A21        1.90826   0.00173   0.00000   0.01329   0.01329   1.92155
   A22        1.89013   0.00042   0.00000  -0.00352  -0.00364   1.88649
   A23        1.87110   0.00163   0.00000   0.01150   0.01159   1.88270
   A24        1.88515  -0.00038   0.00000   0.00211   0.00202   1.88717
   A25        1.88460   0.00082   0.00000   0.00101   0.00094   1.88554
   A26        1.89065  -0.00056   0.00000  -0.00265  -0.00265   1.88799
   A27        1.92154   0.00059   0.00000   0.00163   0.00158   1.92313
   A28        1.86358   0.00215   0.00000   0.01568   0.01573   1.87931
   A29        1.97963  -0.00364   0.00000  -0.02129  -0.02130   1.95833
   A30        1.92094   0.00075   0.00000   0.00644   0.00646   1.92740
   A31        1.99428   0.00328   0.00000   0.01251   0.01249   2.00677
   A32        2.18348  -0.00589   0.00000  -0.02234  -0.02236   2.16112
   A33        2.10538   0.00261   0.00000   0.00994   0.00992   2.11530
   A34        1.92345   0.00022   0.00000   0.00054   0.00053   1.92399
   A35        1.96060   0.00021   0.00000   0.00275   0.00274   1.96335
   A36        1.92489   0.00029   0.00000   0.00088   0.00088   1.92576
   A37        1.87880   0.00010   0.00000   0.00212   0.00212   1.88092
   A38        1.89488  -0.00091   0.00000  -0.00830  -0.00830   1.88658
   A39        1.87921   0.00004   0.00000   0.00163   0.00163   1.88084
   A40        2.06661   0.00570   0.00000   0.02453   0.02450   2.09111
   A41        2.22909  -0.01142   0.00000  -0.04890  -0.04893   2.18016
   A42        1.98734   0.00572   0.00000   0.02461   0.02457   2.01191
   A43        1.94409  -0.00562   0.00000  -0.02712  -0.02721   1.91688
   A44        1.92734   0.00155   0.00000   0.00092   0.00064   1.92798
   A45        1.91886   0.00147   0.00000   0.01048   0.01059   1.92945
   A46        1.94150   0.00097   0.00000  -0.00552  -0.00575   1.93575
   A47        1.87624   0.00241   0.00000   0.01614   0.01625   1.89249
   A48        1.85287  -0.00046   0.00000   0.00756   0.00753   1.86040
    D1        0.99277   0.00035   0.00000   0.00043   0.00033   0.99310
    D2       -2.15321   0.00052   0.00000   0.00776   0.00776  -2.14545
    D3       -1.00590  -0.00057   0.00000  -0.01004  -0.01005  -1.01595
    D4        2.13131  -0.00040   0.00000  -0.00271  -0.00261   2.12869
    D5        3.13586  -0.00009   0.00000  -0.00503  -0.00507   3.13079
    D6       -0.01012   0.00008   0.00000   0.00230   0.00236  -0.00776
    D7       -0.96781  -0.00159   0.00000  -0.01941  -0.01948  -0.98728
    D8       -3.13427   0.00005   0.00000   0.00644   0.00631  -3.12796
    D9        1.11011  -0.00119   0.00000  -0.00964  -0.00978   1.10033
   D10        1.04263   0.00029   0.00000   0.00135   0.00151   1.04413
   D11       -1.12383   0.00193   0.00000   0.02720   0.02729  -1.09654
   D12        3.12055   0.00070   0.00000   0.01112   0.01120   3.13174
   D13       -3.10362  -0.00060   0.00000  -0.00834  -0.00828  -3.11190
   D14        1.01311   0.00104   0.00000   0.01752   0.01750   1.03061
   D15       -1.02570  -0.00019   0.00000   0.00143   0.00141  -1.02429
   D16        3.03803   0.00086   0.00000   0.02023   0.02014   3.05817
   D17       -1.13326  -0.00040   0.00000   0.00499   0.00500  -1.12826
   D18        0.94780   0.00037   0.00000   0.01402   0.01406   0.96186
   D19       -0.09917   0.00067   0.00000   0.01281   0.01274  -0.08643
   D20        2.01272  -0.00059   0.00000  -0.00243  -0.00239   2.01033
   D21       -2.18940   0.00018   0.00000   0.00660   0.00667  -2.18273
   D22       -0.00951   0.00035   0.00000   0.00566   0.00573  -0.00379
   D23        3.12297   0.00067   0.00000   0.01644   0.01647   3.13944
   D24        3.12719   0.00057   0.00000   0.01396   0.01393   3.14112
   D25       -0.02351   0.00089   0.00000   0.02474   0.02468   0.00116
   D26       -0.13518   0.00080   0.00000   0.01418   0.01409  -0.12109
   D27        1.98890  -0.00086   0.00000  -0.00559  -0.00559   1.98330
   D28       -2.22986   0.00029   0.00000   0.00749   0.00755  -2.22231
   D29        2.99782   0.00110   0.00000   0.02430   0.02423   3.02206
   D30       -1.16129  -0.00057   0.00000   0.00453   0.00455  -1.15673
   D31        0.90314   0.00058   0.00000   0.01761   0.01770   0.92084
   D32        1.16517   0.00006   0.00000  -0.00908  -0.00906   1.15611
   D33       -1.98679   0.00039   0.00000   0.00284   0.00277  -1.98402
   D34       -3.00419  -0.00095   0.00000  -0.02126  -0.02117  -3.02536
   D35        0.12703  -0.00062   0.00000  -0.00933  -0.00933   0.11770
   D36       -0.91777  -0.00009   0.00000  -0.01086  -0.01084  -0.92861
   D37        2.21344   0.00024   0.00000   0.00107   0.00100   2.21444
   D38       -1.03976   0.00056   0.00000   0.01125   0.01133  -1.02843
   D39       -3.13466   0.00014   0.00000   0.00637   0.00645  -3.12821
   D40        1.05212  -0.00025   0.00000   0.00186   0.00193   1.05405
   D41        2.11170   0.00030   0.00000   0.00013   0.00005   2.11175
   D42        0.01680  -0.00012   0.00000  -0.00476  -0.00484   0.01196
   D43       -2.07961  -0.00051   0.00000  -0.00927  -0.00935  -2.08896
   D44       -3.12180  -0.00044   0.00000  -0.01028  -0.01022  -3.13202
   D45        0.03941  -0.00089   0.00000  -0.02619  -0.02616   0.01325
   D46        0.00880  -0.00009   0.00000   0.00236   0.00232   0.01112
   D47       -3.11317  -0.00054   0.00000  -0.01356  -0.01362  -3.12679
   D48       -1.81559   0.00036   0.00000   0.00175   0.00162  -1.81397
   D49        0.34284  -0.00101   0.00000  -0.02082  -0.02075   0.32210
   D50        2.36443   0.00036   0.00000  -0.00528  -0.00526   2.35917
   D51        1.34487  -0.00008   0.00000  -0.01361  -0.01372   1.33115
   D52       -2.77988  -0.00145   0.00000  -0.03618  -0.03609  -2.81596
   D53       -0.75829  -0.00007   0.00000  -0.02064  -0.02059  -0.77889
         Item               Value     Threshold  Converged?
 Maximum Force            0.024252     0.000450     NO 
 RMS     Force            0.005732     0.000300     NO 
 Maximum Displacement     0.426090     0.001800     NO 
 RMS     Displacement     0.110677     0.001200     NO 
 Predicted change in Energy=-6.958242D-03
 Lowest energy point so far.  Saving SCF results.
 GradGradGradGradGradGradGradGradGradGradGradGradGradGradGradGradGradGrad

 Leave Link  103 at Thu Sep 16 16:24:46 2021, MaxMem=   131072000 cpu:               0.0 elap:               0.0
 (Enter /opt/g16/l202.exe)
                          Input orientation:                          
 ---------------------------------------------------------------------
 Center     Atomic      Atomic             Coordinates (Angstroms)
 Number     Number       Type             X           Y           Z
 ---------------------------------------------------------------------
      1          6           0       -0.543110    0.663409   -0.336405
      2          1           0       -0.612681    1.766895   -0.262776
      3          1           0        0.114944    0.442331   -1.200097
      4          6           0       -1.900930    0.138295   -0.642023
      5          6           0       -2.493942    0.707417   -1.873626
      6          1           0       -3.457970    0.239292   -2.117760
      7          1           0       -2.662866    1.785447   -1.752130
      8          1           0       -1.823051    0.558539   -2.730971
      9          6           0       -2.534378   -0.752105    0.109304
     10          1           0       -2.061683   -1.152054    1.016105
     11          6           0       -3.878241   -1.283774   -0.171762
     12          1           0       -4.365323   -0.774513   -1.014721
     13          1           0       -3.815771   -2.353513   -0.409910
     14          1           0       -4.522451   -1.167059    0.710378
     15          6           0        2.722172   -1.218235    0.370737
     16          1           0        3.178565   -1.870070    1.126773
     17          1           0        1.754078   -1.652916    0.086622
     18          1           0        3.364959   -1.224479   -0.520138
     19          6           0        2.584274    0.156807    0.898402
     20          6           0        3.866868    0.861383    1.156735
     21          1           0        4.470219    0.298402    1.880229
     22          1           0        3.717335    1.871711    1.559406
     23          1           0        4.445400    0.953067    0.228586
     24          6           0        1.415305    0.744877    1.135678
     25          1           0        1.389559    1.773162    1.519705
     26          6           0        0.092592    0.115524    0.925880
     27          1           0        0.184251   -0.987024    0.866344
     28          1           0       -0.542622    0.333083    1.807236
 ---------------------------------------------------------------------
                    Distance matrix (angstroms):
                    1          2          3          4          5
     1  C    0.000000
     2  H    1.108126   0.000000
     3  H    1.108095   1.778336   0.000000
     4  C    1.487555   2.110865   2.113677   0.000000
     5  C    2.484096   2.693785   2.707434   1.480679   0.000000
     6  H    3.442312   3.724273   3.694461   2.147644   1.099132
     7  H    2.785070   2.534123   3.134474   2.127438   1.097928
     8  H    2.717203   3.002850   2.472428   2.132223   1.098772
     9  C    2.483442   3.190098   3.187494   1.326108   2.462489
    10  H    2.726032   3.500773   3.491607   2.107186   3.463384
    11  C    3.865453   4.469759   4.470172   2.480562   2.962679
    12  H    4.139691   4.594181   4.646274   2.654309   2.536908
    13  H    4.451689   5.221035   4.887910   3.151127   3.641290
    14  H    4.503501   4.984117   5.267398   3.225727   3.782273
    15  C    3.834410   4.520353   3.467368   4.923305   5.996095
    16  H    4.733949   5.434327   4.488575   5.741380   6.915431
    17  H    3.289587   4.173576   2.955075   4.135026   5.240174
    18  H    4.344063   4.983590   3.715266   5.440735   6.315922
    19  C    3.400283   3.763142   3.253124   4.742395   5.811678
    20  C    4.660104   4.785533   4.450529   6.084890   7.047461
    21  H    5.493648   5.708311   5.336436   6.854118   7.922012
    22  H    4.817208   4.698976   4.757648   6.278210   7.191750
    23  H    5.028753   5.146643   4.588555   6.457377   7.254937
    24  C    2.451338   2.667006   2.690413   3.811244   4.933511
    25  H    2.900328   2.680716   3.285282   4.263000   5.266127
    26  C    1.515802   2.153448   2.151065   2.536330   3.857166
    27  H    2.167853   3.081247   2.513571   2.808825   4.189426
    28  H    2.168942   2.519062   3.080321   2.807457   4.182885
                    6          7          8          9         10
     6  H    0.000000
     7  H    1.776646   0.000000
     8  H    1.775079   1.780090   0.000000
     9  C    2.606857   3.149701   3.207949   0.000000
    10  H    3.702239   4.080865   4.125973   1.098038   0.000000
    11  C    2.506645   3.659893   3.763971   1.472290   2.174456
    12  H    1.751510   3.161570   3.344501   2.148556   3.094115
    13  H    3.125286   4.501304   4.223542   2.115670   2.560048
    14  H    3.333063   4.270749   4.701844   2.117997   2.479732
    15  C    6.819909   6.521297   5.782437   5.283649   4.827644
    16  H    7.682448   7.468146   6.767311   5.909553   5.290368
    17  H    5.967009   5.891752   5.062135   4.382103   3.959145
    18  H    7.158727   6.849243   5.914590   5.951597   5.640366
    19  C    6.753721   6.100022   5.723483   5.258270   4.828239
    20  C    8.047520   7.207831   6.897910   6.684042   6.262702
    21  H    8.879391   8.141636   7.806157   7.300967   6.746575
    22  H    8.226260   7.188928   7.129350   6.933335   6.544875
    23  H    8.275148   7.425870   6.943206   7.186038   6.884320
    24  C    5.881266   5.104283   5.047044   4.346769   3.962587
    25  H    6.251595   5.208378   5.464834   4.874780   4.552095
    26  C    4.678200   4.189622   4.151928   2.884536   2.501159
    27  H    4.865645   4.759105   4.399853   2.831826   2.256963
    28  H    4.890158   4.390203   4.720768   2.833319   2.266951
                   11         12         13         14         15
    11  C    0.000000
    12  H    1.098715   0.000000
    13  H    1.097706   1.777932   0.000000
    14  H    1.098544   1.776161   1.778233   0.000000
    15  C    6.622994   7.235259   6.681539   7.252760   0.000000
    16  H    7.199198   7.918111   7.177455   7.744240   1.097622
    17  H    5.650314   6.279460   5.635655   6.326131   1.098578
    18  H    7.251815   7.759145   7.269784   7.983025   1.098578
    19  C    6.707058   7.268033   6.998141   7.231426   1.479252
    20  C    8.145755   8.669507   8.474249   8.642597   2.500587
    21  H    8.741323   9.359417   8.996389   9.186089   2.763046
    22  H    8.405165   8.885831   8.858805   8.823211   3.457030
    23  H    8.628252   9.064171   8.921217   9.227644   2.775658
    24  C    5.817770   6.352041   6.273199   6.252466   2.479284
    25  H    6.321046   6.784735   6.917248   6.652200   3.470510
    26  C    4.350904   4.942783   4.812045   4.794797   3.000298
    27  H    4.203518   4.927696   4.415461   4.712725   2.596176
    28  H    4.202024   4.878857   4.779857   4.392329   3.889601
                   16         17         18         19         20
    16  H    0.000000
    17  H    1.777142   0.000000
    18  H    1.778720   1.773881   0.000000
    19  C    2.124516   2.150188   2.128303   0.000000
    20  C    2.817002   3.454088   2.722984   1.486005   0.000000
    21  H    2.634072   3.795008   3.050005   2.130920   1.097462
    22  H    3.805046   4.294935   3.746341   2.159086   1.097846
    23  H    3.222067   3.748935   2.543551   2.132246   1.097528
    24  C    3.153905   2.639071   3.228195   1.329893   2.454420
    25  H    4.077754   3.731569   4.129045   2.103798   2.664611
    26  C    3.675075   2.567541   3.820335   2.492176   3.854188
    27  H    3.132653   1.875029   3.477876   2.658851   4.130691
    28  H    4.377688   3.489918   4.807479   3.261063   4.488414
                   21         22         23         24         25
    21  H    0.000000
    22  H    1.773433   0.000000
    23  H    1.776832   1.773434   0.000000
    24  C    3.175877   2.597815   3.169801   0.000000
    25  H    3.434438   2.330200   3.417267   1.097956   0.000000
    26  C    4.484177   4.077293   4.487164   1.479754   2.186896
    27  H    4.588007   4.597324   4.725261   2.141849   3.081927
    28  H    5.013492   4.536081   5.268480   2.110460   2.426896
                   26         27         28
    26  C    0.000000
    27  H    1.107952   0.000000
[...]
    26  C    4.354692   4.924395   4.692493   4.946066   3.007710
    27  H    4.491564   5.018348   4.605903   5.248793   2.551597
    28  H    3.916280   4.689567   4.198168   4.343327   3.629588
                   16         17         18         19         20
    16  H    0.000000
    17  H    1.777120   0.000000
    18  H    1.773359   1.777647   0.000000
    19  C    2.136263   2.156416   2.139299   0.000000
    20  C    2.828285   3.465259   2.746048   1.488048   0.000000
    21  H    2.648193   3.806731   3.071744   2.138200   1.098534
    22  H    3.818135   4.307120   3.770597   2.164024   1.098035
    23  H    3.234322   3.772055   2.576172   2.138401   1.098617
    24  C    3.176275   2.646222   3.242783   1.339823   2.463701
    25  H    4.099706   3.739718   4.148205   2.113482   2.674923
    26  C    3.693153   2.564615   3.823124   2.502302   3.866455
    27  H    3.237024   1.767745   3.315130   2.648093   4.131735
    28  H    4.050914   3.184421   4.592622   3.139774   4.419205
                   21         22         23         24         25
    21  H    0.000000
    22  H    1.772311   0.000000
    23  H    1.772103   1.772191   0.000000
    24  C    3.192820   2.608287   3.182165   0.000000
    25  H    3.450871   2.343391   3.429492   1.098383   0.000000
    26  C    4.503836   4.093806   4.503017   1.485726   2.196045
    27  H    4.679949   4.616613   4.638214   2.151263   3.108793
    28  H    4.872552   4.567803   5.221950   2.128483   2.612757
                   26         27         28
    26  C    0.000000
    27  H    1.113277   0.000000
    28  H    1.114658   1.773015   0.000000
 Stoichiometry    C10H18
 Framework group  C1[X(C10H18)]
 Deg. of freedom    78
 Full point group                 C1      NOp   1
 RotChk:  IX=0 Diff= 9.46D-16
 Largest Abelian subgroup         C1      NOp   1
 Largest concise Abelian subgroup C1      NOp   1
                         Standard orientation:                         
 ---------------------------------------------------------------------
 Center     Atomic      Atomic             Coordinates (Angstroms)
 Number     Number       Type             X           Y           Z
 ---------------------------------------------------------------------
      1          6           0        0.629913    0.859739   -0.232450
      2          1           0        0.582063    1.345368   -1.229165
      3          1           0        0.341774    1.644769    0.495400
      4          6           0        2.047770    0.439073    0.007917
      5          6           0        2.906671    1.459916    0.662679
      6          1           0        3.957203    1.131798    0.727751
      7          1           0        2.883630    2.405918    0.105830
      8          1           0        2.557113    1.664472    1.683634
      9          6           0        2.498449   -0.763064   -0.375726
     10          1           0        1.792179   -1.465380   -0.849304
     11          6           0        3.885983   -1.242180   -0.209451
     12          1           0        4.541291   -0.478971    0.242200
     13          1           0        3.913159   -2.130486    0.435315
     14          1           0        4.316734   -1.521216   -1.180003
     15          6           0       -2.946233   -0.764755    1.310762
     16          1           0       -3.473187   -1.724688    1.227922
     17          1           0       -1.951492   -0.964267    1.742083
     18          1           0       -3.501117   -0.139746    2.022894
     19          6           0       -2.854551   -0.101868   -0.016007
     20          6           0       -4.154877    0.319073   -0.604436
     21          1           0       -4.824748   -0.543963   -0.719409
     22          1           0       -4.042582    0.785614   -1.592065
     23          1           0       -4.658797    1.044076    0.049318
     24          6           0       -1.700571    0.112051   -0.662302
     25          1           0       -1.706198    0.611187   -1.640707
     26          6           0       -0.363402   -0.291798   -0.156075
     27          1           0       -0.431565   -0.670283    0.888668
     28          1           0        0.009633   -1.151331   -0.759823
 ---------------------------------------------------------------------
 Rotational constants (GHZ):           3.0479155           0.4582728           0.4416066
 Leave Link  202 at Thu Sep 16 16:25:04 2021, MaxMem=   131072000 cpu:               0.0 elap:               0.0
 (Enter /opt/g16/l601.exe)
 Copying SCF densities to generalized density rwf, IOpCl= 0 IROHF=0.

 **********************************************************************

            Population analysis using the SCF density.

 **********************************************************************

 Orbital symmetries:
       Occupied  (A) (A) (A) (A) (A) (A) (A) (A) (A) (A) (A) (A)
                 (A) (A) (A) (A) (A) (A) (A) (A) (A) (A) (A) (A)
                 (A) (A) (A) (A) (A)
       Virtual   (A) (A) (A) (A) (A) (A) (A) (A) (A) (A) (A) (A)
                 (A) (A) (A) (A) (A) (A) (A) (A) (A) (A) (A) (A)
                 (A) (A) (A) (A) (A)
 The electronic state is 1-A.
 Alpha  occ. eigenvalues --   -1.47190  -1.36652  -1.18861  -1.09010  -1.01419
 Alpha  occ. eigenvalues --   -0.95748  -0.86085  -0.79944  -0.66531  -0.64731
 Alpha  occ. eigenvalues --   -0.61056  -0.60037  -0.57830  -0.56288  -0.55178
 Alpha  occ. eigenvalues --   -0.53909  -0.51478  -0.50125  -0.48676  -0.48370
 Alpha  occ. eigenvalues --   -0.48179  -0.47601  -0.47574  -0.46816  -0.44867
 Alpha  occ. eigenvalues --   -0.43784  -0.42342  -0.34657  -0.34421
 Alpha virt. eigenvalues --    0.03670   0.04108   0.11906   0.12628   0.13090
 Alpha virt. eigenvalues --    0.13656   0.13918   0.14201   0.14883   0.14953
 Alpha virt. eigenvalues --    0.15337   0.15750   0.15876   0.16198   0.16349
 Alpha virt. eigenvalues --    0.16452   0.16530   0.16603   0.16789   0.16896
 Alpha virt. eigenvalues --    0.17041   0.17137   0.17623   0.17866   0.18114
 Alpha virt. eigenvalues --    0.20978   0.21421   0.22273   0.22567
          Condensed to atoms (all electrons):
               1          2          3          4          5          6
     1  C    4.053152   0.000000   0.000000   0.000000   0.000000   0.000000
     2  H    0.000000   0.943647   0.000000   0.000000   0.000000   0.000000
     3  H    0.000000   0.000000   0.944327   0.000000   0.000000   0.000000
     4  C    0.000000   0.000000   0.000000   4.124881   0.000000   0.000000
     5  C    0.000000   0.000000   0.000000   0.000000   4.075753   0.000000
     6  H    0.000000   0.000000   0.000000   0.000000   0.000000   0.950167
     7  H    0.000000   0.000000   0.000000   0.000000   0.000000   0.000000
     8  H    0.000000   0.000000   0.000000   0.000000   0.000000   0.000000
     9  C    0.000000   0.000000   0.000000   0.000000   0.000000   0.000000
    10  H    0.000000   0.000000   0.000000   0.000000   0.000000   0.000000
    11  C    0.000000   0.000000   0.000000   0.000000   0.000000   0.000000
    12  H    0.000000   0.000000   0.000000   0.000000   0.000000   0.000000
    13  H    0.000000   0.000000   0.000000   0.000000   0.000000   0.000000
    14  H    0.000000   0.000000   0.000000   0.000000   0.000000   0.000000
    15  C    0.000000   0.000000   0.000000   0.000000   0.000000   0.000000
    16  H    0.000000   0.000000   0.000000   0.000000   0.000000   0.000000
    17  H    0.000000   0.000000   0.000000   0.000000   0.000000   0.000000
    18  H    0.000000   0.000000   0.000000   0.000000   0.000000   0.000000
    19  C    0.000000   0.000000   0.000000   0.000000   0.000000   0.000000
    20  C    0.000000   0.000000   0.000000   0.000000   0.000000   0.000000
    21  H    0.000000   0.000000   0.000000   0.000000   0.000000   0.000000
    22  H    0.000000   0.000000   0.000000   0.000000   0.000000   0.000000
    23  H    0.000000   0.000000   0.000000   0.000000   0.000000   0.000000
    24  C    0.000000   0.000000   0.000000   0.000000   0.000000   0.000000
    25  H    0.000000   0.000000   0.000000   0.000000   0.000000   0.000000
    26  C    0.000000   0.000000   0.000000   0.000000   0.000000   0.000000
    27  H    0.000000   0.000000   0.000000   0.000000   0.000000   0.000000
    28  H    0.000000   0.000000   0.000000   0.000000   0.000000   0.000000
               7          8          9         10         11         12
     1  C    0.000000   0.000000   0.000000   0.000000   0.000000   0.000000
     2  H    0.000000   0.000000   0.000000   0.000000   0.000000   0.000000
     3  H    0.000000   0.000000   0.000000   0.000000   0.000000   0.000000
     4  C    0.000000   0.000000   0.000000   0.000000   0.000000   0.000000
     5  C    0.000000   0.000000   0.000000   0.000000   0.000000   0.000000
     6  H    0.000000   0.000000   0.000000   0.000000   0.000000   0.000000
     7  H    0.954765   0.000000   0.000000   0.000000   0.000000   0.000000
     8  H    0.000000   0.953361   0.000000   0.000000   0.000000   0.000000
     9  C    0.000000   0.000000   4.166198   0.000000   0.000000   0.000000
    10  H    0.000000   0.000000   0.000000   0.894745   0.000000   0.000000
    11  C    0.000000   0.000000   0.000000   0.000000   4.073824   0.000000
    12  H    0.000000   0.000000   0.000000   0.000000   0.000000   0.952926
    13  H    0.000000   0.000000   0.000000   0.000000   0.000000   0.000000
    14  H    0.000000   0.000000   0.000000   0.000000   0.000000   0.000000
    15  C    0.000000   0.000000   0.000000   0.000000   0.000000   0.000000
    16  H    0.000000   0.000000   0.000000   0.000000   0.000000   0.000000
    17  H    0.000000   0.000000   0.000000   0.000000   0.000000   0.000000
    18  H    0.000000   0.000000   0.000000   0.000000   0.000000   0.000000
    19  C    0.000000   0.000000   0.000000   0.000000   0.000000   0.000000
    20  C    0.000000   0.000000   0.000000   0.000000   0.000000   0.000000
    21  H    0.000000   0.000000   0.000000   0.000000   0.000000   0.000000
    22  H    0.000000   0.000000   0.000000   0.000000   0.000000   0.000000
    23  H    0.000000   0.000000   0.000000   0.000000   0.000000   0.000000
    24  C    0.000000   0.000000   0.000000   0.000000   0.000000   0.000000
    25  H    0.000000   0.000000   0.000000   0.000000   0.000000   0.000000
    26  C    0.000000   0.000000   0.000000   0.000000   0.000000   0.000000
    27  H    0.000000   0.000000   0.000000   0.000000   0.000000   0.000000
    28  H    0.000000   0.000000   0.000000   0.000000   0.000000   0.000000
              13         14         15         16         17         18
     1  C    0.000000   0.000000   0.000000   0.000000   0.000000   0.000000
     2  H    0.000000   0.000000   0.000000   0.000000   0.000000   0.000000
     3  H    0.000000   0.000000   0.000000   0.000000   0.000000   0.000000
     4  C    0.000000   0.000000   0.000000   0.000000   0.000000   0.000000
     5  C    0.000000   0.000000   0.000000   0.000000   0.000000   0.000000
     6  H    0.000000   0.000000   0.000000   0.000000   0.000000   0.000000
     7  H    0.000000   0.000000   0.000000   0.000000   0.000000   0.000000
     8  H    0.000000   0.000000   0.000000   0.000000   0.000000   0.000000
     9  C    0.000000   0.000000   0.000000   0.000000   0.000000   0.000000
    10  H    0.000000   0.000000   0.000000   0.000000   0.000000   0.000000
    11  C    0.000000   0.000000   0.000000   0.000000   0.000000   0.000000
    12  H    0.000000   0.000000   0.000000   0.000000   0.000000   0.000000
    13  H    0.956084   0.000000   0.000000   0.000000   0.000000   0.000000
    14  H    0.000000   0.956190   0.000000   0.000000   0.000000   0.000000
    15  C    0.000000   0.000000   4.076662   0.000000   0.000000   0.000000
    16  H    0.000000   0.000000   0.000000   0.953853   0.000000   0.000000
    17  H    0.000000   0.000000   0.000000   0.000000   0.949272   0.000000
    18  H    0.000000   0.000000   0.000000   0.000000   0.000000   0.954388
    19  C    0.000000   0.000000   0.000000   0.000000   0.000000   0.000000
    20  C    0.000000   0.000000   0.000000   0.000000   0.000000   0.000000
    21  H    0.000000   0.000000   0.000000   0.000000   0.000000   0.000000
    22  H    0.000000   0.000000   0.000000   0.000000   0.000000   0.000000
    23  H    0.000000   0.000000   0.000000   0.000000   0.000000   0.000000
    24  C    0.000000   0.000000   0.000000   0.000000   0.000000   0.000000
    25  H    0.000000   0.000000   0.000000   0.000000   0.000000   0.000000
    26  C    0.000000   0.000000   0.000000   0.000000   0.000000   0.000000
    27  H    0.000000   0.000000   0.000000   0.000000   0.000000   0.000000
    28  H    0.000000   0.000000   0.000000   0.000000   0.000000   0.000000
              19         20         21         22         23         24
     1  C    0.000000   0.000000   0.000000   0.000000   0.000000   0.000000
     2  H    0.000000   0.000000   0.000000   0.000000   0.000000   0.000000
     3  H    0.000000   0.000000   0.000000   0.000000   0.000000   0.000000
     4  C    0.000000   0.000000   0.000000   0.000000   0.000000   0.000000
     5  C    0.000000   0.000000   0.000000   0.000000   0.000000   0.000000
     6  H    0.000000   0.000000   0.000000   0.000000   0.000000   0.000000
     7  H    0.000000   0.000000   0.000000   0.000000   0.000000   0.000000
     8  H    0.000000   0.000000   0.000000   0.000000   0.000000   0.000000
     9  C    0.000000   0.000000   0.000000   0.000000   0.000000   0.000000
    10  H    0.000000   0.000000   0.000000   0.000000   0.000000   0.000000
    11  C    0.000000   0.000000   0.000000   0.000000   0.000000   0.000000
    12  H    0.000000   0.000000   0.000000   0.000000   0.000000   0.000000
    13  H    0.000000   0.000000   0.000000   0.000000   0.000000   0.000000
    14  H    0.000000   0.000000   0.000000   0.000000   0.000000   0.000000
    15  C    0.000000   0.000000   0.000000   0.000000   0.000000   0.000000
    16  H    0.000000   0.000000   0.000000   0.000000   0.000000   0.000000
    17  H    0.000000   0.000000   0.000000   0.000000   0.000000   0.000000
    18  H    0.000000   0.000000   0.000000   0.000000   0.000000   0.000000
    19  C    4.122460   0.000000   0.000000   0.000000   0.000000   0.000000
    20  C    0.000000   4.068877   0.000000   0.000000   0.000000   0.000000
    21  H    0.000000   0.000000   0.956367   0.000000   0.000000   0.000000
    22  H    0.000000   0.000000   0.000000   0.958405   0.000000   0.000000
    23  H    0.000000   0.000000   0.000000   0.000000   0.955924   0.000000
    24  C    0.000000   0.000000   0.000000   0.000000   0.000000   4.155697
    25  H    0.000000   0.000000   0.000000   0.000000   0.000000   0.000000
    26  C    0.000000   0.000000   0.000000   0.000000   0.000000   0.000000
    27  H    0.000000   0.000000   0.000000   0.000000   0.000000   0.000000
    28  H    0.000000   0.000000   0.000000   0.000000   0.000000   0.000000
              25         26         27         28
     1  C    0.000000   0.000000   0.000000   0.000000
     2  H    0.000000   0.000000   0.000000   0.000000
     3  H    0.000000   0.000000   0.000000   0.000000
     4  C    0.000000   0.000000   0.000000   0.000000
     5  C    0.000000   0.000000   0.000000   0.000000
     6  H    0.000000   0.000000   0.000000   0.000000
     7  H    0.000000   0.000000   0.000000   0.000000
     8  H    0.000000   0.000000   0.000000   0.000000
     9  C    0.000000   0.000000   0.000000   0.000000
    10  H    0.000000   0.000000   0.000000   0.000000
    11  C    0.000000   0.000000   0.000000   0.000000
    12  H    0.000000   0.000000   0.000000   0.000000
    13  H    0.000000   0.000000   0.000000   0.000000
    14  H    0.000000   0.000000   0.000000   0.000000
    15  C    0.000000   0.000000   0.000000   0.000000
    16  H    0.000000   0.000000   0.000000   0.000000
    17  H    0.000000   0.000000   0.000000   0.000000
    18  H    0.000000   0.000000   0.000000   0.000000
    19  C    0.000000   0.000000   0.000000   0.000000
    20  C    0.000000   0.000000   0.000000   0.000000
    21  H    0.000000   0.000000   0.000000   0.000000
    22  H    0.000000   0.000000   0.000000   0.000000
    23  H    0.000000   0.000000   0.000000   0.000000
    24  C    0.000000   0.000000   0.000000   0.000000
    25  H    0.898558   0.000000   0.000000   0.000000
    26  C    0.000000   4.076547   0.000000   0.000000
    27  H    0.000000   0.000000   0.936174   0.000000
    28  H    0.000000   0.000000   0.000000   0.936796
 Mulliken charges:
               1
     1  C   -0.053152
     2  H    0.056353
     3  H    0.055673
     4  C   -0.124881
     5  C   -0.075753
     6  H    0.049833
     7  H    0.045235
     8  H    0.046639
     9  C   -0.166198
    10  H    0.105255
    11  C   -0.073824
    12  H    0.047074
    13  H    0.043916
    14  H    0.043810
    15  C   -0.076662
    16  H    0.046147
    17  H    0.050728
    18  H    0.045612
    19  C   -0.122460
    20  C   -0.068877
    21  H    0.043633
    22  H    0.041595
    23  H    0.044076
    24  C   -0.155697
    25  H    0.101442
    26  C   -0.076547
    27  H    0.063826
    28  H    0.063204
 Sum of Mulliken charges =  -0.00000
 Mulliken charges with hydrogens summed into heavy atoms:
               1
     1  C    0.058874
     4  C   -0.124881
     5  C    0.065955
     9  C   -0.060943
    11  C    0.060975
    15  C    0.065825
    19  C   -0.122460
    20  C    0.060428
    24  C   -0.054256
    26  C    0.050483
 Charge=             -0.0000 electrons
 Dipole moment (field-independent basis, Debye):
    X=             -0.0764    Y=              0.0274    Z=              0.1997  Tot=              0.2156
 N-N= 3.033385024983D+02 E-N=-4.888222048228D+02  KE=-7.912284405891D+01
 Leave Link  601 at Thu Sep 16 16:25:04 2021, MaxMem=   131072000 cpu:               0.0 elap:               0.0
 (Enter /opt/g16/l9999.exe)
 1\1\GINC-TOTEM\FOpt\RPM3\ZDO\C10H18\JRAMOS\16-Sep-2021\0\\#p opt pm3\\
 Conformer number 007. Energy MM = 24.539 kcal/mol\\0,1\C,-0.6410907706
 ,0.7791600839,-0.3828268226\H,-0.7772757258,1.7750933611,0.087423306\H
 ,-0.1066565906,0.9701240733,-1.3351785896\C,-1.9992920277,0.2135339779
 ,-0.6663990093\C,-2.5645098638,0.5648836485,-1.9951678466\H,-3.5992372
 096,0.2020282081,-2.1100076747\H,-2.5713802079,1.6529623763,-2.1420292
 388\H,-1.9643248016,0.1225625753,-2.8017124615\C,-2.6546291162,-0.5269
 261313,0.2378571661\H,-2.1597914096,-0.7474287615,1.198510401\C,-4.007
 2999526,-1.0914172918,0.0532479486\H,-4.4515128974,-0.8063649037,-0.91
 49076027\H,-3.977489474,-2.1880849584,0.0977617224\H,-4.6820668585,-0.
 7436413884,0.8464187661\C,3.0012296539,-1.2271676849,0.3365184815\H,3.
 3871268478,-1.9009440421,1.1131285384\H,2.1205344384,-1.7094249676,-0.
 1186266774\H,3.7723371933,-1.136395404,-0.4398941956\C,2.6716497374,0.
 1020098242,0.9134129342\C,3.8343727214,0.8737248559,1.429957689\H,4.36
 11906543,0.304762667,2.2081105098\H,3.5435925496,1.8392389552,1.864596
 5523\H,4.5532919188,1.075943651,0.6242142805\C,1.4279075682,0.59560855
 79,0.9811810446\H,1.2567115472,1.5883950308,1.4188008493\C,0.212080007
 3,-0.1145683942,0.507058346\H,0.4831874876,-1.0483298405,-0.0351364591
 \H,-0.3831554191,-0.4454380778,1.3894880417\\Version=ES64L-G16RevA.03\
 State=1-A\HF=-0.027605\RMSD=6.497e-09\RMSF=2.407e-06\Dipole=0.0487149,
 -0.0377376,-0.0582641\PG=C01 [X(C10H18)]\\@


 ARTHROPOD AXIOM: A COMPUTER SYSTEM IS LIKE A SPIDER'S WEB.
 YOU CANNOT PULL ON ONE END WITHOUT MAKING THE OTHER END MOVE.
     -- GREG WETTSTEIN
 Job cpu time:       0 days  0 hours  0 minutes 18.3 seconds.
 Elapsed time:       0 days  0 hours  0 minutes 16.0 seconds.
 File lengths (MBytes):  RWF=      6 Int=      0 D2E=      0 Chk=      2 Scr=      1
 Normal termination of Gaussian 16 at Thu Sep 16 16:25:04 2021.
