 Entering Gaussian System, Link 0=/opt/g16/g16
 Input=03-IsoP_005_gaussian.com
 Output=03-IsoP_005_gaussian.log
 Initial command:
 /opt/g16/l1.exe "/tmp/Gau-154091.inp" -scrdir="/tmp/"
 Entering Link 1 = /opt/g16/l1.exe PID=    154093.
  
 Copyright (c) 1988,1990,1992,1993,1995,1998,2003,2009,2016,
            Gaussian, Inc.  All Rights Reserved.
  
 This is part of the Gaussian(R) 16 program.  It is based on
 the Gaussian(R) 09 system (copyright 2009, Gaussian, Inc.),
 the Gaussian(R) 03 system (copyright 2003, Gaussian, Inc.),
 the Gaussian(R) 98 system (copyright 1998, Gaussian, Inc.),
 the Gaussian(R) 94 system (copyright 1995, Gaussian, Inc.),
 the Gaussian 92(TM) system (copyright 1992, Gaussian, Inc.),
 the Gaussian 90(TM) system (copyright 1990, Gaussian, Inc.),
 the Gaussian 88(TM) system (copyright 1988, Gaussian, Inc.),
 the Gaussian 86(TM) system (copyright 1986, Carnegie Mellon
 University), and the Gaussian 82(TM) system (copyright 1983,
 Carnegie Mellon University). Gaussian is a federally registered
 trademark of Gaussian, Inc.
  
 This software contains proprietary and confidential information,
 including trade secrets, belonging to Gaussian, Inc.
  
 This software is provided under written license and may be
 used, copied, transmitted, or stored only in accord with that
 written license.
  
 The following legend is applicable only to US Government
 contracts under FAR:
  
                    RESTRICTED RIGHTS LEGEND
  
 Use, reproduction and disclosure by the US Government is
 subject to restrictions as set forth in subparagraphs (a)
 and (c) of the Commercial Computer Software - Restricted
 Rights clause in FAR 52.227-19.
  
 Gaussian, Inc.
 340 Quinnipiac St., Bldg. 40, Wallingford CT 06492
  
  
 ---------------------------------------------------------------
 Warning -- This program may not be used in any manner that
 competes with the business of Gaussian, Inc. or will provide
 assistance to any competitor of Gaussian, Inc.  The licensee
 of this program is prohibited from giving any competitor of
 Gaussian, Inc. access to this program.  By using this program,
 the user acknowledges that Gaussian, Inc. is engaged in the
 business of creating and licensing software in the field of
 computational chemistry and represents and warrants to the
 licensee that it is not a competitor of Gaussian, Inc. and that
 it will not use this program in any manner prohibited above.
 ---------------------------------------------------------------
  

 Cite this work as:
 Gaussian 16, Revision A.03,
 M. J. Frisch, G. W. Trucks, H. B. Schlegel, G. E. Scuseria, 
 M. A. Robb, J. R. Cheeseman, G. Scalmani, V. Barone, 
 G. A. Petersson, H. Nakatsuji, X. Li, M. Caricato, A. V. Marenich, 
 J. Bloino, B. G. Janesko, R. Gomperts, B. Mennucci, H. P. Hratchian, 
 J. V. Ortiz, A. F. Izmaylov, J. L. Sonnenberg, D. Williams-Young, 
 F. Ding, F. Lipparini, F. Egidi, J. Goings, B. Peng, A. Petrone, 
 T. Henderson, D. Ranasinghe, V. G. Zakrzewski, J. Gao, N. Rega, 
 G. Zheng, W. Liang, M. Hada, M. Ehara, K. Toyota, R. Fukuda, 
 J. Hasegawa, M. Ishida, T. Nakajima, Y. Honda, O. Kitao, H. Nakai, 
 T. Vreven, K. Throssell, J. A. Montgomery, Jr., J. E. Peralta, 
 F. Ogliaro, M. J. Bearpark, J. J. Heyd, E. N. Brothers, K. N. Kudin, 
 V. N. Staroverov, T. A. Keith, R. Kobayashi, J. Normand, 
 K. Raghavachari, A. P. Rendell, J. C. Burant, S. S. Iyengar, 
 J. Tomasi, M. Cossi, J. M. Millam, M. Klene, C. Adamo, R. Cammi, 
 J. W. Ochterski, R. L. Martin, K. Morokuma, O. Farkas, 
 J. B. Foresman, and D. J. Fox, Gaussian, Inc., Wallingford CT, 2016.
 
 ******************************************
 Gaussian 16:  ES64L-G16RevA.03 25-Dec-2016
                 6-Sep-2022 
 ******************************************
 %chk=03-IsoP_005_gaussian.chk
 %nproc=1
 Will use up to    1 processors via shared memory.
 %mem=1000Mb
 ----------
 #p opt pm3
 ----------
 1/18=20,19=15,26=1,38=1/1,3;
 2/9=110,12=2,17=6,18=5,40=1/2;
 3/5=2,25=1,41=800000,71=1/1,2,3;
 4/35=1/1;
 5/5=2,35=1,38=5/2;
 6/7=2,8=2,9=2,10=2,28=1/1;
 7//1,2,3,16;
 1/18=20,19=15,26=1/3(2);
 2/9=110/2;
 99//99;
 2/9=110/2;
 3/5=2,25=1,41=800000,71=1,135=20/1,2,3;
 4/5=5,16=3,35=1/1;
 5/5=2,35=1,38=5/2;
 7//1,2,3,16;
 1/18=20,19=15,26=1/3(-5);
 2/9=110/2;
 6/7=2,8=2,9=2,10=2,19=2,28=1/1;
 99/9=1/99;
 Leave Link    1 at Tue Sep  6 13:42:14 2022, MaxMem=   131072000 cpu:               0.0 elap:               0.0
 (Enter /opt/g16/l101.exe)
 -------------------------------------------------
 Conformer number 005. Energy MM = 23.242 kcal/mol
 -------------------------------------------------
 Symbolic Z-matrix:
 Charge =  0 Multiplicity = 1
 C                     0.8639    1.0656    0.114 
 H                     0.6601    0.664     1.1138 
 H                     0.8467    2.1565    0.24 
 C                     2.2404    0.6451   -0.3585 
 C                     2.9059    1.5995   -1.3166 
 H                     2.3044    1.7123   -2.2241 
 H                     3.0235    2.5837   -0.8516 
 H                     3.9005    1.2562   -1.6203 
 C                     2.8718   -0.477     0.04 
 H                     3.8723   -0.6763   -0.343 
 C                     2.3515   -1.5374    0.9581 
 H                     1.2972   -1.4128    1.2148 
 H                     2.9346   -1.5462    1.8839 
 H                     2.4565   -2.5168    0.4802 
 C                    -3.8737    0.9041    0.5967 
 H                    -4.6885    0.3817    0.0848 
 H                    -4.0262    0.8139    1.6772 
 H                    -3.9459    1.9658    0.3383 
 C                    -2.5465    0.3086    0.205 
 C                    -2.4033   -1.1523    0.5323 
 H                    -1.3949   -1.5378    0.3658 
 H                    -2.6378   -1.3253    1.5882 
 H                    -3.0956   -1.7437   -0.0756 
 C                    -1.5973    1.0683   -0.3759 
 H                    -1.8098    2.1237   -0.5469 
 C                    -0.2389    0.6325   -0.8571 
 H                    -0.1987   -0.4493   -1.0211 
 H                    -0.0719    1.0855   -1.8426 
 
 ITRead=  0  0  0  0  0  0  0  0  0  0  0  0  0  0  0  0  0  0  0  0
 ITRead=  0  0  0  0  0  0  0  0
 MicOpt= -1 -1 -1 -1 -1 -1 -1 -1 -1 -1 -1 -1 -1 -1 -1 -1 -1 -1 -1 -1
 MicOpt= -1 -1 -1 -1 -1 -1 -1 -1
 NAtoms=     28 NQM=       28 NQMF=       0 NMMI=      0 NMMIF=      0
                NMic=       0 NMicF=      0.
                    Isotopes and Nuclear Properties:
 (Nuclear quadrupole moments (NQMom) in fm**2, nuclear magnetic moments (NMagM)
  in nuclear magnetons)

  Atom         1           2           3           4           5           6           7           8           9          10
 IAtWgt=          12           1           1          12          12           1           1           1          12           1
 AtmWgt=  12.0000000   1.0078250   1.0078250  12.0000000  12.0000000   1.0078250   1.0078250   1.0078250  12.0000000   1.0078250
 NucSpn=           0           1           1           0           0           1           1           1           0           1
 AtZEff=  -0.0000000  -0.0000000  -0.0000000  -0.0000000  -0.0000000  -0.0000000  -0.0000000  -0.0000000  -0.0000000  -0.0000000
 NQMom=    0.0000000   0.0000000   0.0000000   0.0000000   0.0000000   0.0000000   0.0000000   0.0000000   0.0000000   0.0000000
 NMagM=    0.0000000   2.7928460   2.7928460   0.0000000   0.0000000   2.7928460   2.7928460   2.7928460   0.0000000   2.7928460
 AtZNuc=   6.0000000   1.0000000   1.0000000   6.0000000   6.0000000   1.0000000   1.0000000   1.0000000   6.0000000   1.0000000

  Atom        11          12          13          14          15          16          17          18          19          20
 IAtWgt=          12           1           1           1          12           1           1           1          12          12
 AtmWgt=  12.0000000   1.0078250   1.0078250   1.0078250  12.0000000   1.0078250   1.0078250   1.0078250  12.0000000  12.0000000
 NucSpn=           0           1           1           1           0           1           1           1           0           0
 AtZEff=  -0.0000000  -0.0000000  -0.0000000  -0.0000000  -0.0000000  -0.0000000  -0.0000000  -0.0000000  -0.0000000  -0.0000000
 NQMom=    0.0000000   0.0000000   0.0000000   0.0000000   0.0000000   0.0000000   0.0000000   0.0000000   0.0000000   0.0000000
 NMagM=    0.0000000   2.7928460   2.7928460   2.7928460   0.0000000   2.7928460   2.7928460   2.7928460   0.0000000   0.0000000
 AtZNuc=   6.0000000   1.0000000   1.0000000   1.0000000   6.0000000   1.0000000   1.0000000   1.0000000   6.0000000   6.0000000

  Atom        21          22          23          24          25          26          27          28
 IAtWgt=           1           1           1          12           1          12           1           1
 AtmWgt=   1.0078250   1.0078250   1.0078250  12.0000000   1.0078250  12.0000000   1.0078250   1.0078250
 NucSpn=           1           1           1           0           1           0           1           1
 AtZEff=  -0.0000000  -0.0000000  -0.0000000  -0.0000000  -0.0000000  -0.0000000  -0.0000000  -0.0000000
 NQMom=    0.0000000   0.0000000   0.0000000   0.0000000   0.0000000   0.0000000   0.0000000   0.0000000
 NMagM=    2.7928460   2.7928460   2.7928460   0.0000000   2.7928460   0.0000000   2.7928460   2.7928460
 AtZNuc=   1.0000000   1.0000000   1.0000000   6.0000000   1.0000000   6.0000000   1.0000000   1.0000000
 Leave Link  101 at Tue Sep  6 13:42:14 2022, MaxMem=   131072000 cpu:               0.1 elap:               0.1
 (Enter /opt/g16/l103.exe)

 GradGradGradGradGradGradGradGradGradGradGradGradGradGradGradGradGradGrad
 Berny optimization.
 Initialization pass.
                           ----------------------------
                           !    Initial Parameters    !
                           ! (Angstroms and Degrees)  !
 --------------------------                            --------------------------
 ! Name  Definition              Value          Derivative Info.                !
 --------------------------------------------------------------------------------
 ! R1    R(1,2)                  1.0965         estimate D2E/DX2                !
 ! R2    R(1,3)                  1.0983         estimate D2E/DX2                !
 ! R3    R(1,4)                  1.5149         estimate D2E/DX2                !
 ! R4    R(1,26)                 1.5319         estimate D2E/DX2                !
 ! R5    R(4,5)                  1.5072         estimate D2E/DX2                !
 ! R6    R(4,9)                  1.3478         estimate D2E/DX2                !
 ! R7    R(5,6)                  1.0946         estimate D2E/DX2                !
 ! R8    R(5,7)                  1.0949         estimate D2E/DX2                !
 ! R9    R(5,8)                  1.0951         estimate D2E/DX2                !
 ! R10   R(9,10)                 1.0897         estimate D2E/DX2                !
 ! R11   R(9,11)                 1.496          estimate D2E/DX2                !
 ! R12   R(11,12)                1.0922         estimate D2E/DX2                !
 ! R13   R(11,13)                1.0942         estimate D2E/DX2                !
 ! R14   R(11,14)                1.0948         estimate D2E/DX2                !
 ! R15   R(15,16)                1.0949         estimate D2E/DX2                !
 ! R16   R(15,17)                1.0949         estimate D2E/DX2                !
 ! R17   R(15,18)                1.0951         estimate D2E/DX2                !
 ! R18   R(15,19)                1.5065         estimate D2E/DX2                !
 ! R19   R(19,20)                1.5039         estimate D2E/DX2                !
 ! R20   R(19,24)                1.3474         estimate D2E/DX2                !
 ! R21   R(20,21)                1.0923         estimate D2E/DX2                !
 ! R22   R(20,22)                1.0954         estimate D2E/DX2                !
 ! R23   R(20,23)                1.0948         estimate D2E/DX2                !
 ! R24   R(24,25)                1.0901         estimate D2E/DX2                !
 ! R25   R(24,26)                1.5056         estimate D2E/DX2                !
 ! R26   R(26,27)                1.0949         estimate D2E/DX2                !
 ! R27   R(26,28)                1.0974         estimate D2E/DX2                !
 ! A1    A(2,1,3)              104.8485         estimate D2E/DX2                !
 ! A2    A(2,1,4)              110.5856         estimate D2E/DX2                !
 ! A3    A(2,1,26)             109.9161         estimate D2E/DX2                !
 ! A4    A(3,1,4)              109.0097         estimate D2E/DX2                !
 ! A5    A(3,1,26)             110.015          estimate D2E/DX2                !
 ! A6    A(4,1,26)             112.2054         estimate D2E/DX2                !
 ! A7    A(1,4,5)              115.0691         estimate D2E/DX2                !
 ! A8    A(1,4,9)              124.3712         estimate D2E/DX2                !
 ! A9    A(5,4,9)              120.5492         estimate D2E/DX2                !
 ! A10   A(4,5,6)              110.4657         estimate D2E/DX2                !
 ! A11   A(4,5,7)              110.2836         estimate D2E/DX2                !
 ! A12   A(4,5,8)              112.2588         estimate D2E/DX2                !
 ! A13   A(6,5,7)              108.5731         estimate D2E/DX2                !
 ! A14   A(6,5,8)              107.5457         estimate D2E/DX2                !
 ! A15   A(7,5,8)              107.5793         estimate D2E/DX2                !
 ! A16   A(4,9,10)             118.5858         estimate D2E/DX2                !
 ! A17   A(4,9,11)             127.4911         estimate D2E/DX2                !
 ! A18   A(10,9,11)            113.9153         estimate D2E/DX2                !
 ! A19   A(9,11,12)            113.521          estimate D2E/DX2                !
 ! A20   A(9,11,13)            109.8538         estimate D2E/DX2                !
 ! A21   A(9,11,14)            109.4418         estimate D2E/DX2                !
 ! A22   A(12,11,13)           108.4496         estimate D2E/DX2                !
 ! A23   A(12,11,14)           107.2905         estimate D2E/DX2                !
 ! A24   A(13,11,14)           108.1218         estimate D2E/DX2                !
 ! A25   A(16,15,17)           108.5669         estimate D2E/DX2                !
 ! A26   A(16,15,18)           107.6492         estimate D2E/DX2                !
 ! A27   A(16,15,19)           110.2089         estimate D2E/DX2                !
 ! A28   A(17,15,18)           107.6705         estimate D2E/DX2                !
 ! A29   A(17,15,19)           110.2869         estimate D2E/DX2                !
 ! A30   A(18,15,19)           112.3321         estimate D2E/DX2                !
 ! A31   A(15,19,20)           114.2849         estimate D2E/DX2                !
 ! A32   A(15,19,24)           120.6531         estimate D2E/DX2                !
 ! A33   A(20,19,24)           125.0592         estimate D2E/DX2                !
 ! A34   A(19,20,21)           113.4244         estimate D2E/DX2                !
 ! A35   A(19,20,22)           110.0486         estimate D2E/DX2                !
 ! A36   A(19,20,23)           110.1012         estimate D2E/DX2                !
 ! A37   A(21,20,22)           106.7877         estimate D2E/DX2                !
 ! A38   A(21,20,23)           107.9681         estimate D2E/DX2                !
 ! A39   A(22,20,23)           108.3343         estimate D2E/DX2                !
 ! A40   A(19,24,25)           118.4363         estimate D2E/DX2                !
 ! A41   A(19,24,26)           127.6028         estimate D2E/DX2                !
 ! A42   A(25,24,26)           113.9538         estimate D2E/DX2                !
 ! A43   A(1,26,24)            111.4121         estimate D2E/DX2                !
 ! A44   A(1,26,27)            110.3561         estimate D2E/DX2                !
 ! A45   A(1,26,28)            110.0607         estimate D2E/DX2                !
 ! A46   A(24,26,27)           111.5305         estimate D2E/DX2                !
 ! A47   A(24,26,28)           107.7483         estimate D2E/DX2                !
 ! A48   A(27,26,28)           105.5306         estimate D2E/DX2                !
 ! D1    D(2,1,4,5)           -151.412          estimate D2E/DX2                !
 ! D2    D(2,1,4,9)             27.414          estimate D2E/DX2                !
 ! D3    D(3,1,4,5)            -36.6449         estimate D2E/DX2                !
 ! D4    D(3,1,4,9)            142.1811         estimate D2E/DX2                !
 ! D5    D(26,1,4,5)            85.4715         estimate D2E/DX2                !
 ! D6    D(26,1,4,9)           -95.7025         estimate D2E/DX2                !
 ! D7    D(2,1,26,24)           56.943          estimate D2E/DX2                !
 ! D8    D(2,1,26,27)          -67.5258         estimate D2E/DX2                !
 ! D9    D(2,1,26,28)          176.4008         estimate D2E/DX2                !
 ! D10   D(3,1,26,24)          -58.022          estimate D2E/DX2                !
 ! D11   D(3,1,26,27)          177.5092         estimate D2E/DX2                !
 ! D12   D(3,1,26,28)           61.4358         estimate D2E/DX2                !
 ! D13   D(4,1,26,24)         -179.5645         estimate D2E/DX2                !
 ! D14   D(4,1,26,27)           55.9667         estimate D2E/DX2                !
 ! D15   D(4,1,26,28)          -60.1067         estimate D2E/DX2                !
 ! D16   D(1,4,5,6)            -60.5304         estimate D2E/DX2                !
 ! D17   D(1,4,5,7)             59.4948         estimate D2E/DX2                !
 ! D18   D(1,4,5,8)            179.4409         estimate D2E/DX2                !
 ! D19   D(9,4,5,6)            120.5948         estimate D2E/DX2                !
 ! D20   D(9,4,5,7)           -119.38           estimate D2E/DX2                !
 ! D21   D(9,4,5,8)              0.5661         estimate D2E/DX2                !
 ! D22   D(1,4,9,10)          -178.5983         estimate D2E/DX2                !
 ! D23   D(1,4,9,11)             2.4857         estimate D2E/DX2                !
 ! D24   D(5,4,9,10)             0.1669         estimate D2E/DX2                !
 ! D25   D(5,4,9,11)          -178.7492         estimate D2E/DX2                !
 ! D26   D(4,9,11,12)            7.9218         estimate D2E/DX2                !
 ! D27   D(4,9,11,13)         -113.6871         estimate D2E/DX2                !
 ! D28   D(4,9,11,14)          127.7487         estimate D2E/DX2                !
 ! D29   D(10,9,11,12)        -171.037          estimate D2E/DX2                !
 ! D30   D(10,9,11,13)          67.3541         estimate D2E/DX2                !
 ! D31   D(10,9,11,14)         -51.2101         estimate D2E/DX2                !
 ! D32   D(16,15,19,20)        -59.5948         estimate D2E/DX2                !
 ! D33   D(16,15,19,24)        120.98           estimate D2E/DX2                !
 ! D34   D(17,15,19,20)         60.2603         estimate D2E/DX2                !
 ! D35   D(17,15,19,24)       -119.1649         estimate D2E/DX2                !
 ! D36   D(18,15,19,20)       -179.627          estimate D2E/DX2                !
 ! D37   D(18,15,19,24)          0.9479         estimate D2E/DX2                !
 ! D38   D(15,19,20,21)       -172.3411         estimate D2E/DX2                !
 ! D39   D(15,19,20,22)        -52.7916         estimate D2E/DX2                !
 ! D40   D(15,19,20,23)         66.5573         estimate D2E/DX2                !
 ! D41   D(24,19,20,21)          7.0547         estimate D2E/DX2                !
 ! D42   D(24,19,20,22)        126.6043         estimate D2E/DX2                !
 ! D43   D(24,19,20,23)       -114.0468         estimate D2E/DX2                !
 ! D44   D(15,19,24,25)          0.5294         estimate D2E/DX2                !
 ! D45   D(15,19,24,26)       -178.4317         estimate D2E/DX2                !
 ! D46   D(20,19,24,25)       -178.8305         estimate D2E/DX2                !
 ! D47   D(20,19,24,26)          2.2084         estimate D2E/DX2                !
 ! D48   D(19,24,26,1)        -103.3632         estimate D2E/DX2                !
 ! D49   D(19,24,26,27)         20.4427         estimate D2E/DX2                !
 ! D50   D(19,24,26,28)        135.815          estimate D2E/DX2                !
 ! D51   D(25,24,26,1)          77.6364         estimate D2E/DX2                !
 ! D52   D(25,24,26,27)       -158.5577         estimate D2E/DX2                !
 ! D53   D(25,24,26,28)        -43.1854         estimate D2E/DX2                !
 --------------------------------------------------------------------------------
 Trust Radius=3.00D-01 FncErr=1.00D-07 GrdErr=1.00D-07 EigMax=2.50D+02 EigMin=1.00D-04
 Number of steps in this run=    138 maximum allowed number of steps=    168.
 GradGradGradGradGradGradGradGradGradGradGradGradGradGradGradGradGradGrad

 Leave Link  103 at Tue Sep  6 13:42:14 2022, MaxMem=   131072000 cpu:               0.0 elap:               0.0
 (Enter /opt/g16/l202.exe)
                          Input orientation:                          
 ---------------------------------------------------------------------
 Center     Atomic      Atomic             Coordinates (Angstroms)
 Number     Number       Type             X           Y           Z
 ---------------------------------------------------------------------
      1          6           0        0.863900    1.065600    0.114000
      2          1           0        0.660100    0.664000    1.113800
      3          1           0        0.846700    2.156500    0.240000
      4          6           0        2.240400    0.645100   -0.358500
      5          6           0        2.905900    1.599500   -1.316600
      6          1           0        2.304400    1.712300   -2.224100
      7          1           0        3.023500    2.583700   -0.851600
      8          1           0        3.900500    1.256200   -1.620300
      9          6           0        2.871800   -0.477000    0.040000
     10          1           0        3.872300   -0.676300   -0.343000
     11          6           0        2.351500   -1.537400    0.958100
     12          1           0        1.297200   -1.412800    1.214800
     13          1           0        2.934600   -1.546200    1.883900
     14          1           0        2.456500   -2.516800    0.480200
     15          6           0       -3.873700    0.904100    0.596700
     16          1           0       -4.688500    0.381700    0.084800
     17          1           0       -4.026200    0.813900    1.677200
     18          1           0       -3.945900    1.965800    0.338300
     19          6           0       -2.546500    0.308600    0.205000
     20          6           0       -2.403300   -1.152300    0.532300
     21          1           0       -1.394900   -1.537800    0.365800
     22          1           0       -2.637800   -1.325300    1.588200
     23          1           0       -3.095600   -1.743700   -0.075600
     24          6           0       -1.597300    1.068300   -0.375900
     25          1           0       -1.809800    2.123700   -0.546900
     26          6           0       -0.238900    0.632500   -0.857100
     27          1           0       -0.198700   -0.449300   -1.021100
     28          1           0       -0.071900    1.085500   -1.842600
 ---------------------------------------------------------------------
                    Distance matrix (angstroms):
                    1          2          3          4          5
     1  C    0.000000
     2  H    1.096548   0.000000
     3  H    1.098287   1.739512   0.000000
     4  C    1.514869   2.159947   2.141245   0.000000
     5  C    2.549790   3.438840   2.640749   1.507224   0.000000
     6  H    2.821342   3.865777   2.897239   2.150227   1.094569
     7  H    2.810851   3.624045   2.472357   2.148153   1.094854
     8  H    3.502151   4.280911   3.687404   2.172905   1.095134
     9  C    2.533131   2.710451   3.328115   1.347804   2.480600
    10  H    3.506214   3.773182   4.185559   2.099866   2.657271
    11  C    3.114654   2.780510   4.052775   2.551291   3.914302
    12  H    2.746266   2.174671   3.727343   2.756783   4.250865
    13  H    3.773837   3.263646   4.557600   3.211241   4.487700
    14  H    3.937520   3.707559   4.948625   3.278373   4.513798
    15  C    4.764865   4.569506   4.896725   6.193683   7.078649
    16  H    5.594436   5.453995   5.814847   6.948061   7.818048
    17  H    5.140041   4.722425   5.254833   6.591119   7.591707
    18  H    4.898453   4.848847   4.797400   6.363968   7.058331
    19  C    3.494590   3.351792   3.863905   4.831685   5.806062
    20  C    3.970976   3.608533   4.647160   5.058470   6.259268
    21  H    3.455904   3.103297   4.323014   4.301752   5.583010
    22  H    4.489050   3.880530   5.107085   5.609719   6.908323
    23  H    4.858575   4.617031   5.554538   5.853144   6.981051
    24  C    2.509485   2.734688   2.745296   3.861003   4.630972
    25  H    2.950430   3.314974   2.770790   4.315770   4.806771
    26  C    1.531920   2.166481   2.169039   2.528970   3.322047
    27  H    2.170828   2.556320   3.077893   2.754262   3.731413
    28  H    2.168963   3.074701   2.515569   2.782667   3.067273
                    6          7          8          9         10
     6  H    0.000000
     7  H    1.777695   0.000000
     8  H    1.766391   1.766999   0.000000
     9  C    3.200176   3.191528   2.611284   0.000000
    10  H    3.420856   3.406866   2.316646   1.089683   0.000000
    11  C    4.548534   4.550831   4.105088   1.496017   2.178804
    12  H    4.754654   4.818935   4.683858   2.176061   3.098437
    13  H    5.281159   4.954487   4.589752   2.132393   2.568091
    14  H    5.022117   5.301913   4.553325   2.127683   2.463653
    15  C    6.839519   7.244998   8.091801   6.907903   7.961232
    16  H    7.483459   8.074688   8.800173   7.609041   8.636531
    17  H    7.490244   7.695797   8.596610   7.206195   8.287835
    18  H    6.759912   7.097197   8.118229   7.248261   8.280647
    19  C    5.603760   6.108796   6.767088   5.477442   6.517003
    20  C    6.161665   6.732238   7.083252   5.340887   6.354202
    21  H    5.563771   6.163691   6.308113   4.408647   5.384048
    22  H    6.941613   7.299536   7.727094   5.785519   6.821447
    23  H    6.761656   7.534716   7.767298   6.101455   7.054252
    24  C    4.365071   4.886156   5.640004   4.746976   5.741188
    25  H    4.461938   4.864692   5.874714   5.387529   6.337810
    26  C    3.082699   3.801377   4.255127   3.422314   4.345023
    27  H    3.519266   4.428362   4.480091   3.248795   4.133327
    28  H    2.487011   3.578853   3.982275   3.827657   4.572686
                   11         12         13         14         15
    11  C    0.000000
    12  H    1.092231   0.000000
    13  H    1.094161   1.773857   0.000000
    14  H    1.094823   1.761372   1.772292   0.000000
    15  C    6.696615   5.699849   7.349408   7.196357   0.000000
    16  H    7.348959   6.350255   8.066301   7.720665   1.094917
    17  H    6.835260   5.788834   7.352927   7.385917   1.094930
    18  H    7.232829   6.298673   7.878090   7.816941   1.095075
    19  C    5.288221   4.330929   6.025068   5.752272   1.506489
    20  C    4.789335   3.771918   5.520431   5.047993   2.528835
    21  H    3.792932   2.825567   4.587948   3.975526   3.487211
    22  H    5.033401   3.953645   5.584611   5.347825   2.735095
    23  H    5.548152   4.590351   6.343655   5.633153   2.840470
    24  C    4.915511   4.130897   5.699160   5.478973   2.480909
    25  H    5.743265   5.026318   6.471962   6.386743   2.656112
    26  C    3.835830   3.291751   4.725560   4.355645   3.924165
    27  H    3.406569   2.857499   4.411324   3.684908   4.237286
    28  H    4.538325   4.178951   5.463670   4.976422   4.520705
                   16         17         18         19         20
    16  H    0.000000
    17  H    1.777970   0.000000
    18  H    1.767792   1.768043   0.000000
    19  C    2.146615   2.147606   2.173109   0.000000
    20  C    2.788468   2.794735   3.484221   1.503948   0.000000
    21  H    3.822465   3.764838   4.334002   2.182025   1.092338
    22  H    3.062586   2.551814   3.755624   2.142710   1.095374
    23  H    2.660899   3.237228   3.828148   2.142938   1.094795
    24  C    3.199872   3.190532   2.613716   1.347431   2.530914
    25  H    3.423525   3.402150   2.317636   2.098254   3.499870
    26  C    4.555109   4.560617   4.116858   2.560856   3.130586
    27  H    4.698072   4.850387   4.660706   2.754977   2.787027
    28  H    5.052049   5.300872   4.532012   3.304525   4.010402
                   21         22         23         24         25
    21  H    0.000000
    22  H    1.756194   0.000000
    23  H    1.769070   1.775632   0.000000
    24  C    2.717139   3.266443   3.200379   0.000000
    25  H    3.796280   4.140029   4.102705   1.090076   0.000000
    26  C    2.746274   3.945528   3.797078   1.505565   2.188065
    27  H    2.130544   3.677639   3.310811   2.162285   3.072595
    28  H    3.675468   4.915912   4.502158   2.116211   2.403538
                   26         27         28
    26  C    0.000000
    27  H    1.094899   0.000000
    28  H    1.097410   1.745437   0.000000
 Stoichiometry    C10H18
 Framework group  C1[X(C10H18)]
 Deg. of freedom    78
 Full point group                 C1      NOp   1
 Largest Abelian subgroup         C1      NOp   1
 Largest concise Abelian subgroup C1      NOp   1
                         Standard orientation:                         
 ---------------------------------------------------------------------
 Center     Atomic      Atomic             Coordinates (Angstroms)
 Number     Number       Type             X           Y           Z
 ---------------------------------------------------------------------
      1          6           0       -0.793743   -0.586502    0.589196
      2          1           0       -0.484624    0.235277    1.246114
      3          1           0       -0.746030   -1.484284    1.220026
      4          6           0       -2.220900   -0.386959    0.122041
      5          6           0       -2.975703   -1.655017   -0.184598
      6          1           0       -2.478689   -2.212212   -0.984970
      7          1           0       -3.025314   -2.291679    0.704730
      8          1           0       -4.003249   -1.458188   -0.508208
      9          6           0       -2.820183    0.813933   -0.001630
     10          1           0       -3.860362    0.846752   -0.324680
     11          6           0       -2.215743    2.161835    0.234759
     12          1           0       -1.137473    2.132020    0.406262
     13          1           0       -2.690847    2.635759    1.098970
     14          1           0       -2.388670    2.797227   -0.639890
     15          6           0        3.965102   -0.407952    0.429674
     16          1           0        4.709057   -0.227456   -0.353138
     17          1           0        4.237037    0.181226    1.311600
     18          1           0        4.023693   -1.466027    0.705781
     19          6           0        2.593398   -0.018254   -0.056197
     20          6           0        2.466023    1.425949   -0.456087
     21          1           0        1.439594    1.725928   -0.678930
     22          1           0        2.815407    2.072677    0.356020
     23          1           0        3.076414    1.626136   -1.342611
     24          6           0        1.596318   -0.923628   -0.097440
     25          1           0        1.804055   -1.940154    0.236905
     26          6           0        0.185933   -0.715557   -0.581428
     27          1           0        0.111223    0.157024   -1.238562
     28          1           0       -0.084239   -1.577113   -1.205156
 ---------------------------------------------------------------------
 Rotational constants (GHZ):           2.2181245           0.5802307           0.4854230
 Leave Link  202 at Tue Sep  6 13:42:14 2022, MaxMem=   131072000 cpu:               0.0 elap:               0.0
 (Enter /opt/g16/l301.exe)
 Standard basis: VSTO-6G (5D, 7F)
 Ernie: Thresh=  0.10000D-02 Tol=  0.10000D-05 Strict=F.
  NNHCO=     0 NNPyr=     0 NCTC=     0               EPep=         0.000000000
    EC=       248.196782715  ECS=         3.524661475   EG=         0.891745377
   EHC=         0.000000000  EAt=       -49.524085099  AtH=         4.217842293
 EPDDG=         0.000000000  ECC=       252.613189567 EAtT=        53.741927392
 There are    58 symmetry adapted cartesian basis functions of A   symmetry.
 There are    58 symmetry adapted basis functions of A   symmetry.
    58 basis functions,   348 primitive gaussians,    58 cartesian basis functions
    29 alpha electrons       29 beta electrons
       nuclear repulsion energy       306.3551169590 Hartrees.
 IExCor=    0 DFT=F Ex=HF Corr=None ExCW=0 ScaHFX=  1.000000
 ScaDFX=  1.000000  1.000000  1.000000  1.000000 ScalE2=  1.000000  1.000000
 IRadAn=      5 IRanWt=     -1 IRanGd=            0 ICorTp=0 IEmpDi=  4
 Integral buffers will be    131072 words long.
 Regular integral format.
 Two-electron integral symmetry is turned off.
 Leave Link  301 at Tue Sep  6 13:42:14 2022, MaxMem=   131072000 cpu:               0.0 elap:               0.0
 (Enter /opt/g16/l302.exe)
 Do NDO integrals.
 NPDir=0 NMtPBC=     1 NCelOv=     1 NCel=       1 NClECP=     1 NCelD=      1
         NCelK=      1 NCelE2=     1 NClLst=     1 CellRange=     0.0.
 One-electron integrals computed using PRISM.
 NBasis=    58 RedAO= F EigKep=  0.00D+00  NBF=    58
 NBsUse=    58 1.00D-04 EigRej=  0.00D+00 NBFU=    58
 Leave Link  302 at Tue Sep  6 13:42:14 2022, MaxMem=   131072000 cpu:               0.0 elap:               0.0
 (Enter /opt/g16/l303.exe)
 DipDrv:  MaxL=1.
 Leave Link  303 at Tue Sep  6 13:42:14 2022, MaxMem=   131072000 cpu:               0.0 elap:               0.0
 (Enter /opt/g16/l401.exe)
 Simple Huckel Guess.
 JPrj=0 DoOrth=F DoCkMO=F.
 Leave Link  401 at Tue Sep  6 13:42:14 2022, MaxMem=   131072000 cpu:               0.0 elap:               0.0
 (Enter /opt/g16/l502.exe)
 Keep J ints in memory in canonical form, NReq=866866.
 FoFCou: FMM=F IPFlag=           0 FMFlag=           0 FMFlg1=           0
         NFxFlg=           0 DoJE=F BraDBF=F KetDBF=F FulRan=T
         wScrn=  0.000000 ICntrl=       600 IOpCl=  2 I1Cent=           0 NGrid=           0
         NMat0=    1 NMatS0=    118 NMatT0=    0 NMatD0=    1 NMtDS0=    0 NMtDT0=    0
 Symmetry not used in FoFCou.
 Two-electron integral symmetry not used.
 Closed shell SCF:
 Using DIIS extrapolation, IDIIS=  1040.
 Overlap will be assumed to be unity.
 NGot=   131072000 LenX=   130997697 LenY=   130993892
 Requested convergence on RMS density matrix=1.00D-08 within 128 cycles.
 Requested convergence on MAX density matrix=1.00D-06.
 Requested convergence on             energy=1.00D-06.
 No special actions if energy rises.

 Cycle   1  Pass 1  IDiag  1:
 E= 0.216080650776178    
 DIIS: error= 2.74D-02 at cycle   1 NSaved=   1.
 NSaved= 1 IEnMin= 1 EnMin= 0.216080650776178     IErMin= 1 ErrMin= 2.74D-02
 ErrMax= 2.74D-02  0.00D+00 EMaxC= 1.00D-01 BMatC= 9.45D-02 BMatP= 9.45D-02
 IDIUse=3 WtCom= 7.26D-01 WtEn= 2.74D-01
 Coeff-Com:  0.100D+01
 Coeff-En:   0.100D+01
 Coeff:      0.100D+01
 GapD=    2.000 DampG=2.000 DampE=0.500 DampFc=1.0000 IDamp=-1.
 RMSDP=7.17D-03 MaxDP=8.49D-02              OVMax= 0.00D+00

 Cycle   2  Pass 1  IDiag  1:
 E=-0.406690247001507E-02 Delta-E=       -0.220147553246 Rises=F Damp=F
 DIIS: error= 7.94D-03 at cycle   2 NSaved=   2.
 NSaved= 2 IEnMin= 2 EnMin=-0.406690247001507E-02 IErMin= 2 ErrMin= 7.94D-03
 ErrMax= 7.94D-03  0.00D+00 EMaxC= 1.00D-01 BMatC= 6.07D-03 BMatP= 9.45D-02
 IDIUse=3 WtCom= 9.21D-01 WtEn= 7.94D-02
 Coeff-Com: -0.318D+00 0.132D+01
 Coeff-En:   0.000D+00 0.100D+01
 Coeff:     -0.292D+00 0.129D+01
 RMSDP=2.60D-03 MaxDP=2.88D-02 DE=-2.20D-01 OVMax= 0.00D+00

 Cycle   3  Pass 1  IDiag  3:
 E=-0.214405978252330E-01 Delta-E=       -0.017373695355 Rises=F Damp=F
 DIIS: error= 9.31D-04 at cycle   3 NSaved=   3.
 NSaved= 3 IEnMin= 3 EnMin=-0.214405978252330E-01 IErMin= 3 ErrMin= 9.31D-04
 ErrMax= 9.31D-04  0.00D+00 EMaxC= 1.00D-01 BMatC= 7.26D-05 BMatP= 6.07D-03
 IDIUse=3 WtCom= 9.91D-01 WtEn= 9.31D-03
 Coeff-Com:  0.108D+00-0.505D+00 0.140D+01
 Coeff-En:   0.000D+00 0.000D+00 0.100D+01
 Coeff:      0.107D+00-0.500D+00 0.139D+01
 Gap=     0.377 Goal=   None    Shift=    0.000
 RMSDP=4.23D-04 MaxDP=4.10D-03 DE=-1.74D-02 OVMax= 6.69D-03

 Cycle   4  Pass 1  IDiag  3:
 E=-0.217709657752039E-01 Delta-E=       -0.000330367950 Rises=F Damp=F
 DIIS: error= 1.89D-04 at cycle   4 NSaved=   4.
 NSaved= 4 IEnMin= 4 EnMin=-0.217709657752039E-01 IErMin= 4 ErrMin= 1.89D-04
 ErrMax= 1.89D-04  0.00D+00 EMaxC= 1.00D-01 BMatC= 3.12D-06 BMatP= 7.26D-05
 IDIUse=3 WtCom= 9.98D-01 WtEn= 1.89D-03
 Coeff-Com: -0.465D-01 0.223D+00-0.723D+00 0.155D+01
 Coeff-En:   0.000D+00 0.000D+00 0.000D+00 0.100D+01
 Coeff:     -0.464D-01 0.222D+00-0.721D+00 0.155D+01
 Gap=     0.377 Goal=   None    Shift=    0.000
 RMSDP=1.06D-04 MaxDP=1.14D-03 DE=-3.30D-04 OVMax= 7.43D-04

 Cycle   5  Pass 1  IDiag  3:
 E=-0.217886006140020E-01 Delta-E=       -0.000017634839 Rises=F Damp=F
 DIIS: error= 5.12D-05 at cycle   5 NSaved=   5.
 NSaved= 5 IEnMin= 5 EnMin=-0.217886006140020E-01 IErMin= 5 ErrMin= 5.12D-05
 ErrMax= 5.12D-05  0.00D+00 EMaxC= 1.00D-01 BMatC= 1.83D-07 BMatP= 3.12D-06
 IDIUse=1 WtCom= 1.00D+00 WtEn= 0.00D+00
 Coeff-Com:  0.122D-01-0.584D-01 0.198D+00-0.573D+00 0.142D+01
 Coeff:      0.122D-01-0.584D-01 0.198D+00-0.573D+00 0.142D+01
 Gap=     0.377 Goal=   None    Shift=    0.000
 RMSDP=2.70D-05 MaxDP=2.89D-04 DE=-1.76D-05 OVMax= 2.11D-04

 Cycle   6  Pass 1  IDiag  3:
 E=-0.217897403230154E-01 Delta-E=       -0.000001139709 Rises=F Damp=F
 DIIS: error= 1.77D-05 at cycle   6 NSaved=   6.
 NSaved= 6 IEnMin= 6 EnMin=-0.217897403230154E-01 IErMin= 6 ErrMin= 1.77D-05
 ErrMax= 1.77D-05  0.00D+00 EMaxC= 1.00D-01 BMatC= 1.63D-08 BMatP= 1.83D-07
 IDIUse=1 WtCom= 1.00D+00 WtEn= 0.00D+00
 Coeff-Com: -0.458D-02 0.219D-01-0.729D-01 0.216D+00-0.757D+00 0.160D+01
 Coeff:     -0.458D-02 0.219D-01-0.729D-01 0.216D+00-0.757D+00 0.160D+01
 Gap=     0.377 Goal=   None    Shift=    0.000
 RMSDP=9.53D-06 MaxDP=1.18D-04 DE=-1.14D-06 OVMax= 9.45D-05

 Cycle   7  Pass 1  IDiag  3:
 E=-0.217898533586549E-01 Delta-E=       -0.000000113036 Rises=F Damp=F
 DIIS: error= 4.14D-06 at cycle   7 NSaved=   7.
 NSaved= 7 IEnMin= 7 EnMin=-0.217898533586549E-01 IErMin= 7 ErrMin= 4.14D-06
 ErrMax= 4.14D-06  0.00D+00 EMaxC= 1.00D-01 BMatC= 1.03D-09 BMatP= 1.63D-08
 IDIUse=1 WtCom= 1.00D+00 WtEn= 0.00D+00
 Coeff-Com:  0.110D-02-0.523D-02 0.171D-01-0.527D-01 0.248D+00-0.758D+00
 Coeff-Com:  0.155D+01
 Coeff:      0.110D-02-0.523D-02 0.171D-01-0.527D-01 0.248D+00-0.758D+00
 Coeff:      0.155D+01
 Gap=     0.377 Goal=   None    Shift=    0.000
 RMSDP=2.39D-06 MaxDP=3.18D-05 DE=-1.13D-07 OVMax= 3.04D-05

 Cycle   8  Pass 1  IDiag  3:
 E=-0.217898601768525E-01 Delta-E=       -0.000000006818 Rises=F Damp=F
 DIIS: error= 1.15D-06 at cycle   8 NSaved=   8.
 NSaved= 8 IEnMin= 8 EnMin=-0.217898601768525E-01 IErMin= 8 ErrMin= 1.15D-06
 ErrMax= 1.15D-06  0.00D+00 EMaxC= 1.00D-01 BMatC= 4.80D-11 BMatP= 1.03D-09
 IDIUse=1 WtCom= 1.00D+00 WtEn= 0.00D+00
 Coeff-Com: -0.106D-03 0.496D-03-0.152D-02 0.533D-02-0.424D-01 0.173D+00
 Coeff-Com: -0.525D+00 0.139D+01
 Coeff:     -0.106D-03 0.496D-03-0.152D-02 0.533D-02-0.424D-01 0.173D+00
 Coeff:     -0.525D+00 0.139D+01
 Gap=     0.377 Goal=   None    Shift=    0.000
 RMSDP=4.69D-07 MaxDP=7.68D-06 DE=-6.82D-09 OVMax= 7.07D-06

 Cycle   9  Pass 1  IDiag  3:
 E=-0.217898604861375E-01 Delta-E=       -0.000000000309 Rises=F Damp=F
 DIIS: error= 2.81D-07 at cycle   9 NSaved=   9.
 NSaved= 9 IEnMin= 9 EnMin=-0.217898604861375E-01 IErMin= 9 ErrMin= 2.81D-07
 ErrMax= 2.81D-07  0.00D+00 EMaxC= 1.00D-01 BMatC= 4.56D-12 BMatP= 4.80D-11
 IDIUse=1 WtCom= 1.00D+00 WtEn= 0.00D+00
 Coeff-Com:  0.319D-04-0.145D-03 0.397D-03-0.150D-02 0.165D-01-0.747D-01
 Coeff-Com:  0.249D+00-0.865D+00 0.168D+01
 Coeff:      0.319D-04-0.145D-03 0.397D-03-0.150D-02 0.165D-01-0.747D-01
 Coeff:      0.249D+00-0.865D+00 0.168D+01
 Gap=     0.377 Goal=   None    Shift=    0.000
 RMSDP=1.65D-07 MaxDP=2.49D-06 DE=-3.09D-10 OVMax= 2.36D-06

 Cycle  10  Pass 1  IDiag  3:
 E=-0.217898605191635E-01 Delta-E=       -0.000000000033 Rises=F Damp=F
 DIIS: error= 6.95D-08 at cycle  10 NSaved=  10.
 NSaved=10 IEnMin=10 EnMin=-0.217898605191635E-01 IErMin=10 ErrMin= 6.95D-08
 ErrMax= 6.95D-08  0.00D+00 EMaxC= 1.00D-01 BMatC= 2.55D-13 BMatP= 4.56D-12
 IDIUse=1 WtCom= 1.00D+00 WtEn= 0.00D+00
 Coeff-Com: -0.392D-05 0.160D-04-0.242D-04 0.196D-03-0.440D-02 0.222D-01
 Coeff-Com: -0.782D-01 0.307D+00-0.797D+00 0.155D+01
 Coeff:     -0.392D-05 0.160D-04-0.242D-04 0.196D-03-0.440D-02 0.222D-01
 Coeff:     -0.782D-01 0.307D+00-0.797D+00 0.155D+01
 Gap=     0.377 Goal=   None    Shift=    0.000
 RMSDP=3.92D-08 MaxDP=4.96D-07 DE=-3.30D-11 OVMax= 4.53D-07

 Cycle  11  Pass 1  IDiag  3:
 E=-0.217898605197888E-01 Delta-E=       -0.000000000001 Rises=F Damp=F
 DIIS: error= 1.12D-08 at cycle  11 NSaved=  11.
 NSaved=11 IEnMin=11 EnMin=-0.217898605197888E-01 IErMin=11 ErrMin= 1.12D-08
 ErrMax= 1.12D-08  0.00D+00 EMaxC= 1.00D-01 BMatC= 8.44D-15 BMatP= 2.55D-13
 IDIUse=1 WtCom= 1.00D+00 WtEn= 0.00D+00
 Coeff-Com:  0.411D-06-0.108D-05-0.584D-05-0.224D-04 0.128D-02-0.680D-02
 Coeff-Com:  0.246D-01-0.100D+00 0.280D+00-0.659D+00 0.146D+01
 Coeff:      0.411D-06-0.108D-05-0.584D-05-0.224D-04 0.128D-02-0.680D-02
 Coeff:      0.246D-01-0.100D+00 0.280D+00-0.659D+00 0.146D+01
 Gap=     0.377 Goal=   None    Shift=    0.000
 RMSDP=5.89D-09 MaxDP=8.06D-08 DE=-6.25D-13 OVMax= 4.66D-08

 Cycle  12  Pass 2  IDiag  1:
 SCF Done:  E(RPM3) = -0.217898605198E-01 A.U. after   12 cycles
            NFock= 11  Conv=0.59D-08     -V/T= 0.9997
 KE=-7.902613765440D+01 PE=-4.950049655354D+02 EE= 2.676541963703D+02
 Leave Link  502 at Tue Sep  6 13:42:14 2022, MaxMem=   131072000 cpu:               0.0 elap:               0.0
 (Enter /opt/g16/l601.exe)
 Copying SCF densities to generalized density rwf, IOpCl= 0 IROHF=0.

 **********************************************************************

            Population analysis using the SCF density.

 **********************************************************************

 Orbital symmetries:
       Occupied  (A) (A) (A) (A) (A) (A) (A) (A) (A) (A) (A) (A)
                 (A) (A) (A) (A) (A) (A) (A) (A) (A) (A) (A) (A)
                 (A) (A) (A) (A) (A)
       Virtual   (A) (A) (A) (A) (A) (A) (A) (A) (A) (A) (A) (A)
                 (A) (A) (A) (A) (A) (A) (A) (A) (A) (A) (A) (A)
                 (A) (A) (A) (A) (A)
 The electronic state is 1-A.
 Alpha  occ. eigenvalues --   -1.45724  -1.34914  -1.17710  -1.10954  -1.01301
 Alpha  occ. eigenvalues --   -0.94687  -0.86485  -0.80548  -0.66821  -0.64733
 Alpha  occ. eigenvalues --   -0.61258  -0.58348  -0.57688  -0.56149  -0.54971
 Alpha  occ. eigenvalues --   -0.53203  -0.51101  -0.50537  -0.49358  -0.48648
 Alpha  occ. eigenvalues --   -0.48323  -0.47417  -0.47360  -0.47127  -0.45565
 Alpha  occ. eigenvalues --   -0.43300  -0.42138  -0.35490  -0.34278
 Alpha virt. eigenvalues --    0.03401   0.04216   0.11786   0.12354   0.13189
 Alpha virt. eigenvalues --    0.13734   0.13963   0.14337   0.14868   0.15013
 Alpha virt. eigenvalues --    0.15513   0.15707   0.15859   0.16103   0.16397
 Alpha virt. eigenvalues --    0.16460   0.16582   0.16691   0.16910   0.16924
 Alpha virt. eigenvalues --    0.17086   0.17191   0.17848   0.17949   0.18175
 Alpha virt. eigenvalues --    0.20786   0.21043   0.22374   0.22420
          Condensed to atoms (all electrons):
               1          2          3          4          5          6
     1  C    4.050219   0.000000   0.000000   0.000000   0.000000   0.000000
     2  H    0.000000   0.943249   0.000000   0.000000   0.000000   0.000000
     3  H    0.000000   0.000000   0.947796   0.000000   0.000000   0.000000
     4  C    0.000000   0.000000   0.000000   4.127137   0.000000   0.000000
     5  C    0.000000   0.000000   0.000000   0.000000   4.066382   0.000000
     6  H    0.000000   0.000000   0.000000   0.000000   0.000000   0.954721
     7  H    0.000000   0.000000   0.000000   0.000000   0.000000   0.000000
     8  H    0.000000   0.000000   0.000000   0.000000   0.000000   0.000000
     9  C    0.000000   0.000000   0.000000   0.000000   0.000000   0.000000
    10  H    0.000000   0.000000   0.000000   0.000000   0.000000   0.000000
    11  C    0.000000   0.000000   0.000000   0.000000   0.000000   0.000000
    12  H    0.000000   0.000000   0.000000   0.000000   0.000000   0.000000
    13  H    0.000000   0.000000   0.000000   0.000000   0.000000   0.000000
    14  H    0.000000   0.000000   0.000000   0.000000   0.000000   0.000000
    15  C    0.000000   0.000000   0.000000   0.000000   0.000000   0.000000
    16  H    0.000000   0.000000   0.000000   0.000000   0.000000   0.000000
    17  H    0.000000   0.000000   0.000000   0.000000   0.000000   0.000000
    18  H    0.000000   0.000000   0.000000   0.000000   0.000000   0.000000
    19  C    0.000000   0.000000   0.000000   0.000000   0.000000   0.000000
    20  C    0.000000   0.000000   0.000000   0.000000   0.000000   0.000000
    21  H    0.000000   0.000000   0.000000   0.000000   0.000000   0.000000
    22  H    0.000000   0.000000   0.000000   0.000000   0.000000   0.000000
    23  H    0.000000   0.000000   0.000000   0.000000   0.000000   0.000000
    24  C    0.000000   0.000000   0.000000   0.000000   0.000000   0.000000
    25  H    0.000000   0.000000   0.000000   0.000000   0.000000   0.000000
    26  C    0.000000   0.000000   0.000000   0.000000   0.000000   0.000000
    27  H    0.000000   0.000000   0.000000   0.000000   0.000000   0.000000
    28  H    0.000000   0.000000   0.000000   0.000000   0.000000   0.000000
               7          8          9         10         11         12
     1  C    0.000000   0.000000   0.000000   0.000000   0.000000   0.000000
     2  H    0.000000   0.000000   0.000000   0.000000   0.000000   0.000000
     3  H    0.000000   0.000000   0.000000   0.000000   0.000000   0.000000
     4  C    0.000000   0.000000   0.000000   0.000000   0.000000   0.000000
     5  C    0.000000   0.000000   0.000000   0.000000   0.000000   0.000000
     6  H    0.000000   0.000000   0.000000   0.000000   0.000000   0.000000
     7  H    0.955867   0.000000   0.000000   0.000000   0.000000   0.000000
     8  H    0.000000   0.960196   0.000000   0.000000   0.000000   0.000000
     9  C    0.000000   0.000000   4.150873   0.000000   0.000000   0.000000
    10  H    0.000000   0.000000   0.000000   0.906218   0.000000   0.000000
    11  C    0.000000   0.000000   0.000000   0.000000   4.069168   0.000000
    12  H    0.000000   0.000000   0.000000   0.000000   0.000000   0.955075
    13  H    0.000000   0.000000   0.000000   0.000000   0.000000   0.000000
    14  H    0.000000   0.000000   0.000000   0.000000   0.000000   0.000000
    15  C    0.000000   0.000000   0.000000   0.000000   0.000000   0.000000
    16  H    0.000000   0.000000   0.000000   0.000000   0.000000   0.000000
    17  H    0.000000   0.000000   0.000000   0.000000   0.000000   0.000000
    18  H    0.000000   0.000000   0.000000   0.000000   0.000000   0.000000
    19  C    0.000000   0.000000   0.000000   0.000000   0.000000   0.000000
    20  C    0.000000   0.000000   0.000000   0.000000   0.000000   0.000000
    21  H    0.000000   0.000000   0.000000   0.000000   0.000000   0.000000
    22  H    0.000000   0.000000   0.000000   0.000000   0.000000   0.000000
    23  H    0.000000   0.000000   0.000000   0.000000   0.000000   0.000000
    24  C    0.000000   0.000000   0.000000   0.000000   0.000000   0.000000
    25  H    0.000000   0.000000   0.000000   0.000000   0.000000   0.000000
    26  C    0.000000   0.000000   0.000000   0.000000   0.000000   0.000000
    27  H    0.000000   0.000000   0.000000   0.000000   0.000000   0.000000
    28  H    0.000000   0.000000   0.000000   0.000000   0.000000   0.000000
              13         14         15         16         17         18
     1  C    0.000000   0.000000   0.000000   0.000000   0.000000   0.000000
     2  H    0.000000   0.000000   0.000000   0.000000   0.000000   0.000000
     3  H    0.000000   0.000000   0.000000   0.000000   0.000000   0.000000
     4  C    0.000000   0.000000   0.000000   0.000000   0.000000   0.000000
     5  C    0.000000   0.000000   0.000000   0.000000   0.000000   0.000000
     6  H    0.000000   0.000000   0.000000   0.000000   0.000000   0.000000
     7  H    0.000000   0.000000   0.000000   0.000000   0.000000   0.000000
     8  H    0.000000   0.000000   0.000000   0.000000   0.000000   0.000000
     9  C    0.000000   0.000000   0.000000   0.000000   0.000000   0.000000
    10  H    0.000000   0.000000   0.000000   0.000000   0.000000   0.000000
    11  C    0.000000   0.000000   0.000000   0.000000   0.000000   0.000000
    12  H    0.000000   0.000000   0.000000   0.000000   0.000000   0.000000
    13  H    0.955376   0.000000   0.000000   0.000000   0.000000   0.000000
    14  H    0.000000   0.958426   0.000000   0.000000   0.000000   0.000000
    15  C    0.000000   0.000000   4.068616   0.000000   0.000000   0.000000
    16  H    0.000000   0.000000   0.000000   0.955781   0.000000   0.000000
    17  H    0.000000   0.000000   0.000000   0.000000   0.955665   0.000000
    18  H    0.000000   0.000000   0.000000   0.000000   0.000000   0.959038
    19  C    0.000000   0.000000   0.000000   0.000000   0.000000   0.000000
    20  C    0.000000   0.000000   0.000000   0.000000   0.000000   0.000000
    21  H    0.000000   0.000000   0.000000   0.000000   0.000000   0.000000
    22  H    0.000000   0.000000   0.000000   0.000000   0.000000   0.000000
    23  H    0.000000   0.000000   0.000000   0.000000   0.000000   0.000000
    24  C    0.000000   0.000000   0.000000   0.000000   0.000000   0.000000
    25  H    0.000000   0.000000   0.000000   0.000000   0.000000   0.000000
    26  C    0.000000   0.000000   0.000000   0.000000   0.000000   0.000000
    27  H    0.000000   0.000000   0.000000   0.000000   0.000000   0.000000
    28  H    0.000000   0.000000   0.000000   0.000000   0.000000   0.000000
              19         20         21         22         23         24
     1  C    0.000000   0.000000   0.000000   0.000000   0.000000   0.000000
     2  H    0.000000   0.000000   0.000000   0.000000   0.000000   0.000000
     3  H    0.000000   0.000000   0.000000   0.000000   0.000000   0.000000
     4  C    0.000000   0.000000   0.000000   0.000000   0.000000   0.000000
     5  C    0.000000   0.000000   0.000000   0.000000   0.000000   0.000000
     6  H    0.000000   0.000000   0.000000   0.000000   0.000000   0.000000
     7  H    0.000000   0.000000   0.000000   0.000000   0.000000   0.000000
     8  H    0.000000   0.000000   0.000000   0.000000   0.000000   0.000000
     9  C    0.000000   0.000000   0.000000   0.000000   0.000000   0.000000
    10  H    0.000000   0.000000   0.000000   0.000000   0.000000   0.000000
    11  C    0.000000   0.000000   0.000000   0.000000   0.000000   0.000000
    12  H    0.000000   0.000000   0.000000   0.000000   0.000000   0.000000
    13  H    0.000000   0.000000   0.000000   0.000000   0.000000   0.000000
    14  H    0.000000   0.000000   0.000000   0.000000   0.000000   0.000000
    15  C    0.000000   0.000000   0.000000   0.000000   0.000000   0.000000
    16  H    0.000000   0.000000   0.000000   0.000000   0.000000   0.000000
    17  H    0.000000   0.000000   0.000000   0.000000   0.000000   0.000000
    18  H    0.000000   0.000000   0.000000   0.000000   0.000000   0.000000
    19  C    4.118490   0.000000   0.000000   0.000000   0.000000   0.000000
    20  C    0.000000   4.068506   0.000000   0.000000   0.000000   0.000000
    21  H    0.000000   0.000000   0.953752   0.000000   0.000000   0.000000
    22  H    0.000000   0.000000   0.000000   0.956517   0.000000   0.000000
    23  H    0.000000   0.000000   0.000000   0.000000   0.954719   0.000000
    24  C    0.000000   0.000000   0.000000   0.000000   0.000000   4.158743
    25  H    0.000000   0.000000   0.000000   0.000000   0.000000   0.000000
    26  C    0.000000   0.000000   0.000000   0.000000   0.000000   0.000000
    27  H    0.000000   0.000000   0.000000   0.000000   0.000000   0.000000
    28  H    0.000000   0.000000   0.000000   0.000000   0.000000   0.000000
              25         26         27         28
     1  C    0.000000   0.000000   0.000000   0.000000
     2  H    0.000000   0.000000   0.000000   0.000000
     3  H    0.000000   0.000000   0.000000   0.000000
     4  C    0.000000   0.000000   0.000000   0.000000
     5  C    0.000000   0.000000   0.000000   0.000000
     6  H    0.000000   0.000000   0.000000   0.000000
     7  H    0.000000   0.000000   0.000000   0.000000
     8  H    0.000000   0.000000   0.000000   0.000000
     9  C    0.000000   0.000000   0.000000   0.000000
    10  H    0.000000   0.000000   0.000000   0.000000
    11  C    0.000000   0.000000   0.000000   0.000000
    12  H    0.000000   0.000000   0.000000   0.000000
    13  H    0.000000   0.000000   0.000000   0.000000
    14  H    0.000000   0.000000   0.000000   0.000000
    15  C    0.000000   0.000000   0.000000   0.000000
    16  H    0.000000   0.000000   0.000000   0.000000
    17  H    0.000000   0.000000   0.000000   0.000000
    18  H    0.000000   0.000000   0.000000   0.000000
    19  C    0.000000   0.000000   0.000000   0.000000
    20  C    0.000000   0.000000   0.000000   0.000000
    21  H    0.000000   0.000000   0.000000   0.000000
    22  H    0.000000   0.000000   0.000000   0.000000
    23  H    0.000000   0.000000   0.000000   0.000000
    24  C    0.000000   0.000000   0.000000   0.000000
    25  H    0.904928   0.000000   0.000000   0.000000
    26  C    0.000000   4.052840   0.000000   0.000000
    27  H    0.000000   0.000000   0.943274   0.000000
    28  H    0.000000   0.000000   0.000000   0.948429
 Mulliken charges:
               1
     1  C   -0.050219
     2  H    0.056751
     3  H    0.052204
     4  C   -0.127137
     5  C   -0.066382
     6  H    0.045279
     7  H    0.044133
     8  H    0.039804
     9  C   -0.150873
    10  H    0.093782
    11  C   -0.069168
    12  H    0.044925
    13  H    0.044624
    14  H    0.041574
    15  C   -0.068616
    16  H    0.044219
    17  H    0.044335
    18  H    0.040962
    19  C   -0.118490
    20  C   -0.068506
    21  H    0.046248
    22  H    0.043483
    23  H    0.045281
    24  C   -0.158743
    25  H    0.095072
    26  C   -0.052840
    27  H    0.056726
    28  H    0.051571
 Sum of Mulliken charges =  -0.00000
 Mulliken charges with hydrogens summed into heavy atoms:
               1
     1  C    0.058736
     4  C   -0.127137
     5  C    0.062835
     9  C   -0.057092
    11  C    0.061955
    15  C    0.060900
    19  C   -0.118490
    20  C    0.066506
    24  C   -0.063671
    26  C    0.055457
 Charge=              0.0000 electrons
 Dipole moment (field-independent basis, Debye):
    X=              0.2305    Y=              0.1683    Z=              0.0023  Tot=              0.2854
 N-N= 3.063551169590D+02 E-N=-4.950049657764D+02  KE=-7.902613765440D+01
 Leave Link  601 at Tue Sep  6 13:42:14 2022, MaxMem=   131072000 cpu:               0.0 elap:               0.0
 (Enter /opt/g16/l701.exe)
 ... and contract with generalized density number  0.
 Compute integral first derivatives.
 Leave Link  701 at Tue Sep  6 13:42:14 2022, MaxMem=   131072000 cpu:               0.0 elap:               0.0
 (Enter /opt/g16/l702.exe)
 L702 exits ... SP integral derivatives will be done elsewhere.
 Leave Link  702 at Tue Sep  6 13:42:14 2022, MaxMem=   131072000 cpu:               0.0 elap:               0.0
 (Enter /opt/g16/l703.exe)
 Integral derivatives from FoFJK, PRISM(SPDF).
 Compute integral first derivatives, UseDBF=F ICtDFT=           0.
 Calling FoFJK, ICntrl=      2127 FMM=F ISym2X=0 I1Cent= 0 IOpClX= 0 NMat=1 NMatS=1 NMatT=0.
 FoFJK:  IHMeth= 9 ICntrl=    2127 DoSepK=F KAlg= 0 I1Cent=           0 FoldK=F
 IRaf=         0 NMat=       1 IRICut=       1 DoRegI=T DoRafI=F ISym2E= 0 IDoP0=3 IntGTp=3.
 FoFCou: FMM=F IPFlag=           0 FMFlag=      100000 FMFlg1=         800
         NFxFlg=           0 DoJE=F BraDBF=F KetDBF=F FulRan=T
         wScrn=  0.000000 ICntrl=      2127 IOpCl=  0 I1Cent=           0 NGrid=           0
         NMat0=    1 NMatS0=      1 NMatT0=    0 NMatD0=    1 NMtDS0=    0 NMtDT0=    0
 Symmetry not used in FoFCou.
 Leave Link  703 at Tue Sep  6 13:42:14 2022, MaxMem=   131072000 cpu:               0.0 elap:               0.0
 (Enter /opt/g16/l716.exe)
 Dipole        = 9.06856160D-02 6.62110274D-02 9.22412782D-04
 ***** Axes restored to original set *****
 -------------------------------------------------------------------
 Center     Atomic                   Forces (Hartrees/Bohr)
 Number     Number              X              Y              Z
 -------------------------------------------------------------------
      1        6           0.008459757   -0.007254026   -0.010947675
      2        1          -0.000939551   -0.005230109    0.006359487
      3        1          -0.000049639    0.006931673   -0.000578023
      4        6          -0.003255840   -0.001157794    0.001666232
      5        6          -0.005433393   -0.011201400    0.010697335
      6        1          -0.001939879    0.000893224   -0.001349088
      7        1          -0.000370924    0.002108501    0.000179954
      8        1           0.001755679   -0.000643082   -0.000548754
      9        6          -0.014003242    0.003535613    0.002201364
     10        1           0.005273810   -0.000630215   -0.001681729
     11        6           0.004545562    0.012917360   -0.011135861
     12        1          -0.003974552    0.001891061    0.001133666
     13        1           0.000706051   -0.000186657    0.002180899
     14        1           0.000429436   -0.002361129   -0.000386822
     15        6           0.013938474   -0.004732030   -0.004813920
     16        1          -0.001532717   -0.001189645   -0.000011384
     17        1          -0.000917199   -0.000676684    0.001588745
     18        1          -0.000172779    0.001805761   -0.000399891
     19        6           0.004263411   -0.002013909    0.000497366
     20        6          -0.001808808    0.016077619   -0.003048797
     21        1           0.004806547    0.000406876   -0.002536706
     22        1          -0.001602339   -0.000451637    0.001796490
     23        1          -0.001366395   -0.001167725   -0.000727481
     24        6           0.001444071   -0.012931525    0.002965720
     25        1          -0.000800829    0.005269690   -0.000289467
     26        6          -0.009206064    0.006080495    0.012491781
     27        1          -0.000176324   -0.009136561    0.001167650
     28        1           0.001927676    0.003046254   -0.006471090
 -------------------------------------------------------------------
 Cartesian Forces:  Max     0.016077619 RMS     0.005407113
 Leave Link  716 at Tue Sep  6 13:42:14 2022, MaxMem=   131072000 cpu:               0.0 elap:               0.0
 (Enter /opt/g16/l103.exe)

 GradGradGradGradGradGradGradGradGradGradGradGradGradGradGradGradGradGrad
 Berny optimization.
 FormGI is forming the generalized inverse of G from B-inverse, IUseBI=4.
 GSVD:  received Info=                   1 from GESDD.
 Internal  Forces:  Max     0.018839234 RMS     0.004872936
 Search for a local minimum.
 Step number   1 out of a maximum of  138
 All quantities printed in internal units (Hartrees-Bohrs-Radians)
 RMS Force = .48729D-02 SwitMx=.10000D-02 MixMth= 1
 Mixed Optimization -- RFO/linear search
 Second derivative matrix not updated -- first step.
 ITU=  0
     Eigenvalues ---    0.00344   0.00569   0.00670   0.00680   0.00692
     Eigenvalues ---    0.00714   0.00819   0.01218   0.01286   0.01568
     Eigenvalues ---    0.01641   0.02779   0.02784   0.04018   0.04138
     Eigenvalues ---    0.05349   0.05399   0.06979   0.07035   0.07090
     Eigenvalues ---    0.07093   0.07269   0.07301   0.07347   0.07504
     Eigenvalues ---    0.09277   0.09361   0.12767   0.12842   0.15999
     Eigenvalues ---    0.15999   0.16000   0.16000   0.16000   0.16000
     Eigenvalues ---    0.16000   0.16000   0.16000   0.16000   0.16000
     Eigenvalues ---    0.16000   0.16000   0.16000   0.21859   0.21866
     Eigenvalues ---    0.22000   0.22000   0.24994   0.24997   0.24998
     Eigenvalues ---    0.24999   0.29247   0.30866   0.31631   0.31706
     Eigenvalues ---    0.31800   0.31967   0.32799   0.33872   0.33970
     Eigenvalues ---    0.34067   0.34199   0.34226   0.34233   0.34249
     Eigenvalues ---    0.34251   0.34253   0.34258   0.34261   0.34264
     Eigenvalues ---    0.34290   0.34336   0.34544   0.34556   0.34804
     Eigenvalues ---    0.34849   0.55491   0.55572
 RFO step:  Lambda=-9.52710820D-03 EMin= 3.43708098D-03
 Linear search not attempted -- first point.
 Iteration  1 RMS(Cart)=  0.14030290 RMS(Int)=  0.00237435
 Iteration  2 RMS(Cart)=  0.00421208 RMS(Int)=  0.00008865
 Iteration  3 RMS(Cart)=  0.00000536 RMS(Int)=  0.00008860
 Iteration  4 RMS(Cart)=  0.00000000 RMS(Int)=  0.00008860
 ITry= 1 IFail=0 DXMaxC= 5.75D-01 DCOld= 1.00D+10 DXMaxT= 3.00D-01 DXLimC= 3.00D+00 Rises=F
 Variable       Old X    -DE/DX   Delta X   Delta X   Delta X     New X
                                 (Linear)    (Quad)   (Total)
    R1        2.07217   0.00789   0.00000   0.02253   0.02253   2.09470
    R2        2.07546   0.00682   0.00000   0.01958   0.01958   2.09504
    R3        2.86269  -0.01714   0.00000  -0.05386  -0.05386   2.80883
    R4        2.89491  -0.00784   0.00000  -0.02597  -0.02597   2.86894
    R5        2.84824  -0.01395   0.00000  -0.04282  -0.04282   2.80542
    R6        2.54698  -0.01819   0.00000  -0.03223  -0.03223   2.51476
    R7        2.06844   0.00228   0.00000   0.00646   0.00646   2.07490
    R8        2.06897   0.00193   0.00000   0.00549   0.00549   2.07446
    R9        2.06950   0.00195   0.00000   0.00554   0.00554   2.07504
   R10        2.05920   0.00555   0.00000   0.01550   0.01550   2.07470
   R11        2.82706  -0.01432   0.00000  -0.04243  -0.04243   2.78463
   R12        2.06402   0.00432   0.00000   0.01216   0.01216   2.07618
   R13        2.06766   0.00222   0.00000   0.00630   0.00630   2.07396
   R14        2.06892   0.00232   0.00000   0.00659   0.00659   2.07551
   R15        2.06909   0.00171   0.00000   0.00487   0.00487   2.07396
   R16        2.06912   0.00175   0.00000   0.00498   0.00498   2.07409
   R17        2.06939   0.00186   0.00000   0.00528   0.00528   2.07467
   R18        2.84685  -0.01281   0.00000  -0.03922  -0.03922   2.80763
   R19        2.84205  -0.01542   0.00000  -0.04684  -0.04684   2.79521
   R20        2.54628  -0.01884   0.00000  -0.03333  -0.03333   2.51295
   R21        2.06422   0.00468   0.00000   0.01319   0.01319   2.07741
   R22        2.06996   0.00215   0.00000   0.00611   0.00611   2.07606
   R23        2.06886   0.00190   0.00000   0.00539   0.00539   2.07425
   R24        2.05995   0.00530   0.00000   0.01483   0.01483   2.07478
   R25        2.84511  -0.01614   0.00000  -0.04928  -0.04928   2.79583
   R26        2.06906   0.00885   0.00000   0.02513   0.02513   2.09419
   R27        2.07380   0.00736   0.00000   0.02108   0.02108   2.09488
    A1        1.82995   0.00053   0.00000   0.02065   0.02064   1.85059
    A2        1.93008   0.00083   0.00000  -0.00673  -0.00707   1.92301
    A3        1.91840   0.00083   0.00000  -0.00387  -0.00422   1.91418
    A4        1.90258   0.00176   0.00000   0.01087   0.01095   1.91353
    A5        1.92012   0.00131   0.00000   0.00923   0.00930   1.92942
    A6        1.95835  -0.00485   0.00000  -0.02663  -0.02681   1.93154
    A7        2.00833   0.00219   0.00000   0.00852   0.00848   2.01682
    A8        2.17069  -0.00496   0.00000  -0.01900  -0.01904   2.15164
    A9        2.10398   0.00277   0.00000   0.01078   0.01074   2.11472
   A10        1.92799  -0.00063   0.00000  -0.00506  -0.00507   1.92292
   A11        1.92481   0.00052   0.00000   0.00234   0.00233   1.92714
   A12        1.95929   0.00026   0.00000   0.00361   0.00360   1.96289
   A13        1.89496  -0.00076   0.00000  -0.00850  -0.00852   1.88644
   A14        1.87703   0.00049   0.00000   0.00426   0.00427   1.88129
   A15        1.87761   0.00010   0.00000   0.00316   0.00314   1.88075
   A16        2.06971   0.00457   0.00000   0.01970   0.01968   2.08939
   A17        2.22514  -0.00952   0.00000  -0.04143  -0.04146   2.18368
   A18        1.98820   0.00495   0.00000   0.02193   0.02190   2.01010
   A19        1.98131  -0.00193   0.00000  -0.01241  -0.01241   1.96890
   A20        1.91731   0.00069   0.00000   0.00287   0.00283   1.92015
   A21        1.91012   0.00125   0.00000   0.00953   0.00953   1.91965
   A22        1.89280  -0.00014   0.00000  -0.00471  -0.00475   1.88806
   A23        1.87257   0.00070   0.00000   0.00621   0.00624   1.87882
   A24        1.88708  -0.00054   0.00000  -0.00112  -0.00116   1.88592
   A25        1.89485  -0.00092   0.00000  -0.00861  -0.00862   1.88623
   A26        1.87883   0.00010   0.00000   0.00220   0.00220   1.88103
   A27        1.92351   0.00021   0.00000   0.00048   0.00048   1.92398
   A28        1.87920   0.00003   0.00000   0.00172   0.00171   1.88092
   A29        1.92487   0.00031   0.00000   0.00103   0.00102   1.92589
   A30        1.96056   0.00020   0.00000   0.00280   0.00279   1.96336
   A31        1.99465   0.00344   0.00000   0.01329   0.01327   2.00792
   A32        2.10579   0.00287   0.00000   0.01108   0.01107   2.11686
   A33        2.18270  -0.00631   0.00000  -0.02428  -0.02430   2.15840
   A34        1.97963  -0.00371   0.00000  -0.02221  -0.02222   1.95741
   A35        1.92071   0.00073   0.00000   0.00622   0.00624   1.92695
   A36        1.92163   0.00066   0.00000   0.00233   0.00229   1.92392
   A37        1.86380   0.00208   0.00000   0.01510   0.01514   1.87894
   A38        1.88440   0.00093   0.00000   0.00207   0.00201   1.88641
   A39        1.89079  -0.00057   0.00000  -0.00267  -0.00268   1.88811
   A40        2.06710   0.00596   0.00000   0.02609   0.02603   2.09313
   A41        2.22709  -0.01192   0.00000  -0.05188  -0.05194   2.17515
   A42        1.98887   0.00597   0.00000   0.02608   0.02603   2.01490
   A43        1.94451  -0.00390   0.00000  -0.02100  -0.02121   1.92330
   A44        1.92608   0.00043   0.00000  -0.00882  -0.00918   1.91690
   A45        1.92092   0.00078   0.00000   0.00845   0.00858   1.92950
   A46        1.94658   0.00048   0.00000  -0.00981  -0.01021   1.93636
   A47        1.88056   0.00224   0.00000   0.01996   0.02006   1.90063
   A48        1.84186   0.00029   0.00000   0.01424   0.01430   1.85616
    D1       -2.64264  -0.00128   0.00000  -0.01301  -0.01286  -2.65550
    D2        0.47846  -0.00087   0.00000   0.00397   0.00399   0.48246
    D3       -0.63957   0.00082   0.00000   0.01433   0.01441  -0.62516
    D4        2.48153   0.00123   0.00000   0.03131   0.03126   2.51279
    D5        1.49176   0.00050   0.00000   0.01596   0.01591   1.50767
    D6       -1.67032   0.00090   0.00000   0.03293   0.03276  -1.63756
    D7        0.99384   0.00031   0.00000   0.00326   0.00329   0.99714
    D8       -1.17855   0.00219   0.00000   0.03748   0.03734  -1.14121
    D9        3.07878   0.00113   0.00000   0.02032   0.02026   3.09904
   D10       -1.01268  -0.00155   0.00000  -0.02471  -0.02464  -1.03732
   D11        3.09812   0.00033   0.00000   0.00951   0.00940   3.10752
   D12        1.07226  -0.00073   0.00000  -0.00765  -0.00767   1.06458
   D13       -3.13399  -0.00142   0.00000  -0.02700  -0.02683   3.12236
   D14        0.97680   0.00046   0.00000   0.00722   0.00721   0.98401
   D15       -1.04906  -0.00061   0.00000  -0.00994  -0.00986  -1.05892
   D16       -1.05645   0.00068   0.00000   0.01846   0.01855  -1.03791
   D17        1.03838  -0.00033   0.00000   0.00612   0.00622   1.04460
   D18        3.13183   0.00032   0.00000   0.01412   0.01423  -3.13713
   D19        2.10478   0.00039   0.00000   0.00257   0.00247   2.10724
   D20       -2.08357  -0.00062   0.00000  -0.00977  -0.00986  -2.09344
   D21        0.00988   0.00003   0.00000  -0.00177  -0.00186   0.00802
   D22       -3.11713  -0.00012   0.00000  -0.00437  -0.00432  -3.12145
   D23        0.04338  -0.00048   0.00000  -0.01859  -0.01855   0.02484
   D24        0.00291   0.00029   0.00000   0.01343   0.01339   0.01631
   D25       -3.11976  -0.00007   0.00000  -0.00078  -0.00083  -3.12059
   D26        0.13826  -0.00037   0.00000  -0.00163  -0.00161   0.13666
   D27       -1.98421   0.00064   0.00000   0.01094   0.01094  -1.97327
   D28        2.22964   0.00014   0.00000   0.00485   0.00482   2.23445
   D29       -2.98516  -0.00072   0.00000  -0.01530  -0.01527  -3.00043
   D30        1.17555   0.00030   0.00000  -0.00273  -0.00273   1.17282
   D31       -0.89378  -0.00021   0.00000  -0.00883  -0.00885  -0.90263
   D32       -1.04013   0.00051   0.00000   0.01059   0.01066  -1.02947
   D33        2.11150   0.00034   0.00000   0.00138   0.00131   2.11281
   D34        1.05174  -0.00030   0.00000   0.00085   0.00092   1.05266
   D35       -2.07982  -0.00047   0.00000  -0.00835  -0.00842  -2.08824
   D36       -3.13508   0.00010   0.00000   0.00561   0.00568  -3.12940
   D37        0.01654  -0.00007   0.00000  -0.00360  -0.00367   0.01288
   D38       -3.00792  -0.00072   0.00000  -0.01623  -0.01615  -3.02407
   D39       -0.92139  -0.00002   0.00000  -0.00734  -0.00733  -0.92871
   D40        1.16164   0.00015   0.00000  -0.00530  -0.00528   1.15637
   D41        0.12313  -0.00048   0.00000  -0.00631  -0.00631   0.11682
   D42        2.20966   0.00022   0.00000   0.00258   0.00251   2.21218
   D43       -1.99049   0.00039   0.00000   0.00463   0.00457  -1.98593
   D44        0.00924   0.00013   0.00000   0.00907   0.00905   0.01829
   D45       -3.11422  -0.00039   0.00000  -0.01233  -0.01239  -3.12661
   D46       -3.12118  -0.00012   0.00000  -0.00143  -0.00138  -3.12256
   D47        0.03854  -0.00065   0.00000  -0.02284  -0.02281   0.01573
   D48       -1.80403   0.00084   0.00000   0.01977   0.01963  -1.78440
   D49        0.35679  -0.00113   0.00000  -0.01442  -0.01434   0.34245
   D50        2.37042   0.00079   0.00000   0.00916   0.00918   2.37960
   D51        1.35501   0.00033   0.00000  -0.00087  -0.00099   1.35402
   D52       -2.76735  -0.00165   0.00000  -0.03506  -0.03496  -2.80231
   D53       -0.75373   0.00028   0.00000  -0.01148  -0.01144  -0.76516
         Item               Value     Threshold  Converged?
 Maximum Force            0.018839     0.000450     NO 
 RMS     Force            0.004873     0.000300     NO 
 Maximum Displacement     0.574663     0.001800     NO 
 RMS     Displacement     0.140133     0.001200     NO 
 Predicted change in Energy=-4.958176D-03
 Lowest energy point so far.  Saving SCF results.
 GradGradGradGradGradGradGradGradGradGradGradGradGradGradGradGradGradGrad

 Leave Link  103 at Tue Sep  6 13:42:14 2022, MaxMem=   131072000 cpu:               0.0 elap:               0.0
 (Enter /opt/g16/l202.exe)
                          Input orientation:                          
 ---------------------------------------------------------------------
 Center     Atomic      Atomic             Coordinates (Angstroms)
 Number     Number       Type             X           Y           Z
 ---------------------------------------------------------------------
      1          6           0        0.848074    1.101909    0.103512
      2          1           0        0.630070    0.693718    1.110764
      3          1           0        0.848688    2.205061    0.213774
      4          6           0        2.185656    0.645127   -0.356394
      5          6           0        2.880534    1.551229   -1.305110
      6          1           0        2.273639    1.690155   -2.209519
      7          1           0        3.039898    2.536044   -0.847056
      8          1           0        3.860062    1.163373   -1.614688
      9          6           0        2.746025   -0.493466    0.044217
     10          1           0        3.746091   -0.764904   -0.318469
     11          6           0        2.126127   -1.466842    0.960544
     12          1           0        1.077449   -1.230335    1.187276
     13          1           0        2.682002   -1.499227    1.906297
     14          1           0        2.152402   -2.470693    0.515701
     15          6           0       -3.771085    0.822211    0.642624
     16          1           0       -4.577175    0.263358    0.150292
     17          1           0       -3.887124    0.702566    1.727458
     18          1           0       -3.907683    1.885610    0.406322
     19          6           0       -2.447641    0.308137    0.204871
     20          6           0       -2.209989   -1.125359    0.481511
     21          1           0       -1.178965   -1.427146    0.248254
     22          1           0       -2.389636   -1.345603    1.542714
     23          1           0       -2.890085   -1.745269   -0.116830
     24          6           0       -1.560695    1.101258   -0.388962
     25          1           0       -1.794666    2.162075   -0.548226
     26          6           0       -0.231575    0.664296   -0.869995
     27          1           0       -0.198699   -0.435976   -0.998129
     28          1           0       -0.051397    1.100792   -1.872953
 ---------------------------------------------------------------------
                    Distance matrix (angstroms):
                    1          2          3          4          5
     1  C    0.000000
     2  H    1.108468   0.000000
     3  H    1.108650   1.771029   0.000000
     4  C    1.486368   2.138870   2.132128   0.000000
     5  C    2.513364   3.411211   2.619715   1.484566   0.000000
     6  H    2.779997   3.836468   2.857965   2.129295   1.097988
     7  H    2.786470   3.610332   2.456891   2.132146   1.097757
     8  H    3.468149   4.252236   3.673794   2.157665   1.098064
     9  C    2.480112   2.650320   3.303134   1.330751   2.453478
    10  H    3.472975   3.725570   4.183171   2.103469   2.662165
    11  C    2.994395   2.632257   3.958838   2.489635   3.848515
    12  H    2.581960   1.976862   3.577986   2.669906   4.147312
    13  H    3.657763   3.106816   4.466255   3.156641   4.433715
    14  H    3.825527   3.561614   4.863488   3.235737   4.474527
    15  C    4.658917   4.427847   4.841331   6.042530   6.969159
    16  H    5.489871   5.312543   5.763179   6.792523   7.706765
    17  H    5.021830   4.559104   5.193905   6.420623   7.464442
    18  H    4.829400   4.744264   4.770973   6.264927   7.008616
    19  C    3.391472   3.231349   3.803180   4.679318   5.675805
    20  C    3.802020   3.430879   4.529777   4.812318   6.022421
    21  H    3.244373   2.917978   4.159987   3.997573   5.269079
    22  H    4.306319   3.669337   4.985984   5.338812   6.654053
    23  H    4.704126   4.455012   5.449112   5.615562   6.751218
    24  C    2.458597   2.686023   2.717866   3.774157   4.557007
    25  H    2.921094   3.284458   2.751329   4.263906   4.775301
    26  C    1.518178   2.160256   2.171516   2.471267   3.265149
    27  H    2.162044   2.531895   3.088819   2.695507   3.677621
    28  H    2.171512   3.087503   2.526656   2.740801   3.020192
                    6          7          8          9         10
     6  H    0.000000
     7  H    1.777353   0.000000
     8  H    1.774277   1.773739   0.000000
     9  C    3.173433   3.171540   2.595797   0.000000
    10  H    3.430962   3.416778   2.326247   1.097884   0.000000
    11  C    4.476348   4.486145   4.068953   1.473563   2.180109
    12  H    4.636631   4.709068   4.617767   2.152604   3.099281
    13  H    5.222917   4.898210   4.568873   2.117308   2.573150
    14  H    4.975358   5.264236   4.545448   2.117572   2.478992
    15  C    6.739936   7.179545   7.965316   6.675465   7.742775
    16  H    7.384993   8.011218   8.666727   7.362968   8.399632
    17  H    7.377678   7.614027   8.449922   6.947120   8.037740
    18  H    6.714877   7.089634   8.058782   7.075518   8.132084
    19  C    5.479940   6.015247   6.620373   5.257618   6.307742
    20  C    5.938997   6.536993   6.817467   5.015236   6.020364
    21  H    5.261054   5.891128   5.964322   4.039671   5.001591
    22  H    6.711275   7.089289   7.437934   5.417255   6.438040
    23  H    6.545650   7.350345   7.501217   5.775698   6.711229
    24  C    4.285248   4.840859   5.557955   4.612877   5.625789
    25  H    4.419696   4.858206   5.840436   5.293465   6.270564
    26  C    3.020399   3.769152   4.188692   3.322996   4.262466
    27  H    3.478557   4.398208   4.405860   3.124291   4.016404
    28  H    2.422070   3.559286   3.920476   3.747369   4.507567
                   11         12         13         14         15
    11  C    0.000000
    12  H    1.098667   0.000000
    13  H    1.097495   1.778731   0.000000
    14  H    1.098313   1.773422   1.777070   0.000000
    15  C    6.333873   5.293191   6.973398   6.778424   0.000000
    16  H    6.970248   5.939800   7.673716   7.272947   1.097492
    17  H    6.438454   5.354894   6.930606   6.929199   1.097563
    18  H    6.924808   5.930475   7.558505   7.464179   1.097868
    19  C    4.963964   3.969669   5.698653   5.383205   1.485734
    20  C    4.375841   3.363982   5.108950   4.565254   2.501201
    21  H    3.381208   2.451918   4.202543   3.501217   3.454594
    22  H    4.554749   3.487162   5.086974   4.790688   2.723597
    23  H    5.138155   4.207989   5.933105   5.133518   2.818668
    24  C    4.691371   3.857545   5.480074   5.231093   2.455170
    25  H    5.551400   4.771735   6.282545   6.178497   2.668256
    26  C    3.667613   3.087966   4.569197   4.175123   3.852413
    27  H    3.209969   2.652462   4.226657   3.458241   4.127595
    28  H    4.400348   4.009170   5.339878   4.828861   4.499090
                   16         17         18         19         20
    16  H    0.000000
    17  H    1.776662   0.000000
    18  H    1.773548   1.773531   0.000000
    19  C    2.130705   2.132125   2.158872   0.000000
    20  C    2.764382   2.776054   3.457419   1.479161   0.000000
    21  H    3.796739   3.749379   4.294792   2.150029   1.099316
    22  H    3.051708   2.543934   3.746543   2.127920   1.098605
    23  H    2.636704   3.222946   3.806898   2.125023   1.097648
    24  C    3.176795   3.170246   2.599238   1.329794   2.477322
    25  H    3.440263   3.418667   2.335045   2.104903   3.469880
    26  C    4.481738   4.484559   4.078524   2.488600   2.990577
    27  H    4.580282   4.725418   4.595520   2.656812   2.590341
    28  H    5.027671   5.275826   4.547744   3.269195   3.893426
                   21         22         23         24         25
    21  H    0.000000
    22  H    1.774260   0.000000
    23  H    1.778319   1.778839   0.000000
    24  C    2.635259   3.225778   3.153418   0.000000
    25  H    3.727730   4.126720   4.080855   1.097925   0.000000
    26  C    2.553852   3.810260   3.666188   1.479489   2.188636
    27  H    1.869976   3.476134   3.120014   2.142242   3.082108
    28  H    3.487319   4.808221   4.386590   2.116650   2.433148
                   26         27         28
    26  C    0.000000
[...]
    25  H    5.410798   4.658160   6.291467   5.835746   2.676318
    26  C    3.809876   3.384941   4.838106   4.057218   3.867271
    27  H    3.447846   3.150133   4.537920   3.401061   4.132928
    28  H    4.536417   4.296903   5.559591   4.756939   4.405445
                   16         17         18         19         20
    16  H    0.000000
    17  H    1.772096   0.000000
    18  H    1.772324   1.772193   0.000000
    19  C    2.138116   2.138456   2.163925   0.000000
    20  C    2.774362   2.793345   3.468876   1.486006   0.000000
    21  H    3.808598   3.769274   4.306547   2.156137   1.102487
    22  H    3.062753   2.573225   3.768150   2.139618   1.098015
    23  H    2.654663   3.244290   3.821851   2.136197   1.098179
    24  C    3.193363   3.181897   2.608570   1.339752   2.492111
    25  H    3.453206   3.429815   2.345118   2.113953   3.484466
    26  C    4.504917   4.503379   4.094812   2.502919   3.007133
    27  H    4.685030   4.635522   4.617484   2.649689   2.553275
    28  H    4.857063   5.208132   4.557920   3.124169   3.609219
                   21         22         23         24         25
    21  H    0.000000
    22  H    1.777762   0.000000
    23  H    1.777198   1.773344   0.000000
    24  C    2.645434   3.246146   3.171505   0.000000
    25  H    3.738715   4.151198   4.096856   1.098258   0.000000
    26  C    2.564103   3.829253   3.684549   1.486452   2.195863
    27  H    1.769047   3.319349   3.235543   2.151829   3.107865
    28  H    3.168984   4.578584   4.018567   2.118925   2.610001
                   26         27         28
    26  C    0.000000
    27  H    1.113558   0.000000
    28  H    1.109307   1.772330   0.000000
 Stoichiometry    C10H18
 Framework group  C1[X(C10H18)]
 Deg. of freedom    78
 Full point group                 C1      NOp   1
 RotChk:  IX=2 Diff= 2.17D-15
 Largest Abelian subgroup         C1      NOp   1
 Largest concise Abelian subgroup C1      NOp   1
                         Standard orientation:                         
 ---------------------------------------------------------------------
 Center     Atomic      Atomic             Coordinates (Angstroms)
 Number     Number       Type             X           Y           Z
 ---------------------------------------------------------------------
      1          6           0       -0.883431   -0.517593    0.676794
      2          1           0       -0.702313    0.355103    1.344438
      3          1           0       -0.859709   -1.412902    1.329480
      4          6           0       -2.231660   -0.396094    0.041224
      5          6           0       -2.822981   -1.657878   -0.479529
      6          1           0       -2.153831   -2.129298   -1.213263
      7          1           0       -2.976978   -2.377150    0.336657
      8          1           0       -3.792781   -1.500157   -0.969833
      9          6           0       -2.892064    0.766679   -0.049382
     10          1           0       -3.880918    0.797645   -0.525000
     11          6           0       -2.385801    2.060249    0.457687
     12          1           0       -1.489196    1.937992    1.088467
     13          1           0       -3.150276    2.570692    1.057536
     14          1           0       -2.118919    2.722653   -0.376553
     15          6           0        3.935510   -0.236634    0.638383
     16          1           0        4.714672   -0.480281   -0.096672
     17          1           0        4.257271    0.666872    1.174212
     18          1           0        3.897844   -1.057822    1.366329
     19          6           0        2.630216   -0.007857   -0.038400
     20          6           0        2.626888    1.073992   -1.057128
     21          1           0        1.613677    1.273626   -1.443170
     22          1           0        3.015534    2.010333   -0.635397
     23          1           0        3.262455    0.803196   -1.910780
     24          6           0        1.553061   -0.743531    0.267305
     25          1           0        1.624162   -1.526473    1.034193
     26          6           0        0.219583   -0.592826   -0.371964
     27          1           0        0.190583    0.310845   -1.022002
     28          1           0        0.052800   -1.455921   -1.048582
 ---------------------------------------------------------------------
 Rotational constants (GHZ):           2.2906584           0.5551389           0.4932908
 Leave Link  202 at Tue Sep  6 13:42:21 2022, MaxMem=   131072000 cpu:               0.0 elap:               0.0
 (Enter /opt/g16/l601.exe)
 Copying SCF densities to generalized density rwf, IOpCl= 0 IROHF=0.

 **********************************************************************

            Population analysis using the SCF density.

 **********************************************************************

 Orbital symmetries:
       Occupied  (A) (A) (A) (A) (A) (A) (A) (A) (A) (A) (A) (A)
                 (A) (A) (A) (A) (A) (A) (A) (A) (A) (A) (A) (A)
                 (A) (A) (A) (A) (A)
       Virtual   (A) (A) (A) (A) (A) (A) (A) (A) (A) (A) (A) (A)
                 (A) (A) (A) (A) (A) (A) (A) (A) (A) (A) (A) (A)
                 (A) (A) (A) (A) (A)
 The electronic state is 1-A.
 Alpha  occ. eigenvalues --   -1.47330  -1.36302  -1.17453  -1.11073  -1.01433
 Alpha  occ. eigenvalues --   -0.94486  -0.86190  -0.80100  -0.67510  -0.63998
 Alpha  occ. eigenvalues --   -0.61528  -0.59105  -0.57983  -0.56720  -0.55114
 Alpha  occ. eigenvalues --   -0.53262  -0.51103  -0.50837  -0.48766  -0.48376
 Alpha  occ. eigenvalues --   -0.48316  -0.47567  -0.47209  -0.46968  -0.45918
 Alpha  occ. eigenvalues --   -0.43156  -0.41918  -0.35260  -0.34220
 Alpha virt. eigenvalues --    0.03512   0.04208   0.12064   0.12661   0.13321
 Alpha virt. eigenvalues --    0.13446   0.14003   0.14195   0.14776   0.14925
 Alpha virt. eigenvalues --    0.15502   0.15731   0.15900   0.15948   0.16346
 Alpha virt. eigenvalues --    0.16358   0.16565   0.16615   0.16923   0.17017
 Alpha virt. eigenvalues --    0.17047   0.17164   0.17743   0.17935   0.18083
 Alpha virt. eigenvalues --    0.21018   0.21289   0.22409   0.22442
          Condensed to atoms (all electrons):
               1          2          3          4          5          6
     1  C    4.060711   0.000000   0.000000   0.000000   0.000000   0.000000
     2  H    0.000000   0.937240   0.000000   0.000000   0.000000   0.000000
     3  H    0.000000   0.000000   0.944613   0.000000   0.000000   0.000000
     4  C    0.000000   0.000000   0.000000   4.128516   0.000000   0.000000
     5  C    0.000000   0.000000   0.000000   0.000000   4.068412   0.000000
     6  H    0.000000   0.000000   0.000000   0.000000   0.000000   0.954590
     7  H    0.000000   0.000000   0.000000   0.000000   0.000000   0.000000
     8  H    0.000000   0.000000   0.000000   0.000000   0.000000   0.000000
     9  C    0.000000   0.000000   0.000000   0.000000   0.000000   0.000000
    10  H    0.000000   0.000000   0.000000   0.000000   0.000000   0.000000
    11  C    0.000000   0.000000   0.000000   0.000000   0.000000   0.000000
    12  H    0.000000   0.000000   0.000000   0.000000   0.000000   0.000000
    13  H    0.000000   0.000000   0.000000   0.000000   0.000000   0.000000
    14  H    0.000000   0.000000   0.000000   0.000000   0.000000   0.000000
    15  C    0.000000   0.000000   0.000000   0.000000   0.000000   0.000000
    16  H    0.000000   0.000000   0.000000   0.000000   0.000000   0.000000
    17  H    0.000000   0.000000   0.000000   0.000000   0.000000   0.000000
    18  H    0.000000   0.000000   0.000000   0.000000   0.000000   0.000000
    19  C    0.000000   0.000000   0.000000   0.000000   0.000000   0.000000
    20  C    0.000000   0.000000   0.000000   0.000000   0.000000   0.000000
    21  H    0.000000   0.000000   0.000000   0.000000   0.000000   0.000000
    22  H    0.000000   0.000000   0.000000   0.000000   0.000000   0.000000
    23  H    0.000000   0.000000   0.000000   0.000000   0.000000   0.000000
    24  C    0.000000   0.000000   0.000000   0.000000   0.000000   0.000000
    25  H    0.000000   0.000000   0.000000   0.000000   0.000000   0.000000
    26  C    0.000000   0.000000   0.000000   0.000000   0.000000   0.000000
    27  H    0.000000   0.000000   0.000000   0.000000   0.000000   0.000000
    28  H    0.000000   0.000000   0.000000   0.000000   0.000000   0.000000
               7          8          9         10         11         12
     1  C    0.000000   0.000000   0.000000   0.000000   0.000000   0.000000
     2  H    0.000000   0.000000   0.000000   0.000000   0.000000   0.000000
     3  H    0.000000   0.000000   0.000000   0.000000   0.000000   0.000000
     4  C    0.000000   0.000000   0.000000   0.000000   0.000000   0.000000
     5  C    0.000000   0.000000   0.000000   0.000000   0.000000   0.000000
     6  H    0.000000   0.000000   0.000000   0.000000   0.000000   0.000000
     7  H    0.955579   0.000000   0.000000   0.000000   0.000000   0.000000
     8  H    0.000000   0.958721   0.000000   0.000000   0.000000   0.000000
     9  C    0.000000   0.000000   4.149731   0.000000   0.000000   0.000000
    10  H    0.000000   0.000000   0.000000   0.901748   0.000000   0.000000
    11  C    0.000000   0.000000   0.000000   0.000000   4.080707   0.000000
    12  H    0.000000   0.000000   0.000000   0.000000   0.000000   0.949917
    13  H    0.000000   0.000000   0.000000   0.000000   0.000000   0.000000
    14  H    0.000000   0.000000   0.000000   0.000000   0.000000   0.000000
    15  C    0.000000   0.000000   0.000000   0.000000   0.000000   0.000000
    16  H    0.000000   0.000000   0.000000   0.000000   0.000000   0.000000
    17  H    0.000000   0.000000   0.000000   0.000000   0.000000   0.000000
    18  H    0.000000   0.000000   0.000000   0.000000   0.000000   0.000000
    19  C    0.000000   0.000000   0.000000   0.000000   0.000000   0.000000
    20  C    0.000000   0.000000   0.000000   0.000000   0.000000   0.000000
    21  H    0.000000   0.000000   0.000000   0.000000   0.000000   0.000000
    22  H    0.000000   0.000000   0.000000   0.000000   0.000000   0.000000
    23  H    0.000000   0.000000   0.000000   0.000000   0.000000   0.000000
    24  C    0.000000   0.000000   0.000000   0.000000   0.000000   0.000000
    25  H    0.000000   0.000000   0.000000   0.000000   0.000000   0.000000
    26  C    0.000000   0.000000   0.000000   0.000000   0.000000   0.000000
    27  H    0.000000   0.000000   0.000000   0.000000   0.000000   0.000000
    28  H    0.000000   0.000000   0.000000   0.000000   0.000000   0.000000
              13         14         15         16         17         18
     1  C    0.000000   0.000000   0.000000   0.000000   0.000000   0.000000
     2  H    0.000000   0.000000   0.000000   0.000000   0.000000   0.000000
     3  H    0.000000   0.000000   0.000000   0.000000   0.000000   0.000000
     4  C    0.000000   0.000000   0.000000   0.000000   0.000000   0.000000
     5  C    0.000000   0.000000   0.000000   0.000000   0.000000   0.000000
     6  H    0.000000   0.000000   0.000000   0.000000   0.000000   0.000000
     7  H    0.000000   0.000000   0.000000   0.000000   0.000000   0.000000
     8  H    0.000000   0.000000   0.000000   0.000000   0.000000   0.000000
     9  C    0.000000   0.000000   0.000000   0.000000   0.000000   0.000000
    10  H    0.000000   0.000000   0.000000   0.000000   0.000000   0.000000
    11  C    0.000000   0.000000   0.000000   0.000000   0.000000   0.000000
    12  H    0.000000   0.000000   0.000000   0.000000   0.000000   0.000000
    13  H    0.956794   0.000000   0.000000   0.000000   0.000000   0.000000
    14  H    0.000000   0.954422   0.000000   0.000000   0.000000   0.000000
    15  C    0.000000   0.000000   4.068766   0.000000   0.000000   0.000000
    16  H    0.000000   0.000000   0.000000   0.956380   0.000000   0.000000
    17  H    0.000000   0.000000   0.000000   0.000000   0.956043   0.000000
    18  H    0.000000   0.000000   0.000000   0.000000   0.000000   0.958436
    19  C    0.000000   0.000000   0.000000   0.000000   0.000000   0.000000
    20  C    0.000000   0.000000   0.000000   0.000000   0.000000   0.000000
    21  H    0.000000   0.000000   0.000000   0.000000   0.000000   0.000000
    22  H    0.000000   0.000000   0.000000   0.000000   0.000000   0.000000
    23  H    0.000000   0.000000   0.000000   0.000000   0.000000   0.000000
    24  C    0.000000   0.000000   0.000000   0.000000   0.000000   0.000000
    25  H    0.000000   0.000000   0.000000   0.000000   0.000000   0.000000
    26  C    0.000000   0.000000   0.000000   0.000000   0.000000   0.000000
    27  H    0.000000   0.000000   0.000000   0.000000   0.000000   0.000000
    28  H    0.000000   0.000000   0.000000   0.000000   0.000000   0.000000
              19         20         21         22         23         24
     1  C    0.000000   0.000000   0.000000   0.000000   0.000000   0.000000
     2  H    0.000000   0.000000   0.000000   0.000000   0.000000   0.000000
     3  H    0.000000   0.000000   0.000000   0.000000   0.000000   0.000000
     4  C    0.000000   0.000000   0.000000   0.000000   0.000000   0.000000
     5  C    0.000000   0.000000   0.000000   0.000000   0.000000   0.000000
     6  H    0.000000   0.000000   0.000000   0.000000   0.000000   0.000000
     7  H    0.000000   0.000000   0.000000   0.000000   0.000000   0.000000
     8  H    0.000000   0.000000   0.000000   0.000000   0.000000   0.000000
     9  C    0.000000   0.000000   0.000000   0.000000   0.000000   0.000000
    10  H    0.000000   0.000000   0.000000   0.000000   0.000000   0.000000
    11  C    0.000000   0.000000   0.000000   0.000000   0.000000   0.000000
    12  H    0.000000   0.000000   0.000000   0.000000   0.000000   0.000000
    13  H    0.000000   0.000000   0.000000   0.000000   0.000000   0.000000
    14  H    0.000000   0.000000   0.000000   0.000000   0.000000   0.000000
    15  C    0.000000   0.000000   0.000000   0.000000   0.000000   0.000000
    16  H    0.000000   0.000000   0.000000   0.000000   0.000000   0.000000
    17  H    0.000000   0.000000   0.000000   0.000000   0.000000   0.000000
    18  H    0.000000   0.000000   0.000000   0.000000   0.000000   0.000000
    19  C    4.122795   0.000000   0.000000   0.000000   0.000000   0.000000
    20  C    0.000000   4.076865   0.000000   0.000000   0.000000   0.000000
    21  H    0.000000   0.000000   0.949208   0.000000   0.000000   0.000000
    22  H    0.000000   0.000000   0.000000   0.954677   0.000000   0.000000
    23  H    0.000000   0.000000   0.000000   0.000000   0.953694   0.000000
    24  C    0.000000   0.000000   0.000000   0.000000   0.000000   4.157494
    25  H    0.000000   0.000000   0.000000   0.000000   0.000000   0.000000
    26  C    0.000000   0.000000   0.000000   0.000000   0.000000   0.000000
    27  H    0.000000   0.000000   0.000000   0.000000   0.000000   0.000000
    28  H    0.000000   0.000000   0.000000   0.000000   0.000000   0.000000
              25         26         27         28
     1  C    0.000000   0.000000   0.000000   0.000000
     2  H    0.000000   0.000000   0.000000   0.000000
     3  H    0.000000   0.000000   0.000000   0.000000
     4  C    0.000000   0.000000   0.000000   0.000000
     5  C    0.000000   0.000000   0.000000   0.000000
     6  H    0.000000   0.000000   0.000000   0.000000
     7  H    0.000000   0.000000   0.000000   0.000000
     8  H    0.000000   0.000000   0.000000   0.000000
     9  C    0.000000   0.000000   0.000000   0.000000
    10  H    0.000000   0.000000   0.000000   0.000000
    11  C    0.000000   0.000000   0.000000   0.000000
    12  H    0.000000   0.000000   0.000000   0.000000
    13  H    0.000000   0.000000   0.000000   0.000000
    14  H    0.000000   0.000000   0.000000   0.000000
    15  C    0.000000   0.000000   0.000000   0.000000
    16  H    0.000000   0.000000   0.000000   0.000000
    17  H    0.000000   0.000000   0.000000   0.000000
    18  H    0.000000   0.000000   0.000000   0.000000
    19  C    0.000000   0.000000   0.000000   0.000000
    20  C    0.000000   0.000000   0.000000   0.000000
    21  H    0.000000   0.000000   0.000000   0.000000
    22  H    0.000000   0.000000   0.000000   0.000000
    23  H    0.000000   0.000000   0.000000   0.000000
    24  C    0.000000   0.000000   0.000000   0.000000
    25  H    0.898790   0.000000   0.000000   0.000000
    26  C    0.000000   4.067146   0.000000   0.000000
    27  H    0.000000   0.000000   0.936268   0.000000
    28  H    0.000000   0.000000   0.000000   0.941735
 Mulliken charges:
               1
     1  C   -0.060711
     2  H    0.062760
     3  H    0.055387
     4  C   -0.128516
     5  C   -0.068412
     6  H    0.045410
     7  H    0.044421
     8  H    0.041279
     9  C   -0.149731
    10  H    0.098252
    11  C   -0.080707
    12  H    0.050083
    13  H    0.043206
    14  H    0.045578
    15  C   -0.068766
    16  H    0.043620
    17  H    0.043957
    18  H    0.041564
    19  C   -0.122795
    20  C   -0.076865
    21  H    0.050792
    22  H    0.045323
    23  H    0.046306
    24  C   -0.157494
    25  H    0.101210
    26  C   -0.067146
    27  H    0.063732
    28  H    0.058265
 Sum of Mulliken charges =  -0.00000
 Mulliken charges with hydrogens summed into heavy atoms:
               1
     1  C    0.057436
     4  C   -0.128516
     5  C    0.062697
     9  C   -0.051479
    11  C    0.058160
    15  C    0.060375
    19  C   -0.122795
    20  C    0.065556
    24  C   -0.056284
    26  C    0.054851
 Charge=             -0.0000 electrons
 Dipole moment (field-independent basis, Debye):
    X=              0.2316    Y=              0.1304    Z=             -0.0992  Tot=              0.2837
 N-N= 3.069539371140D+02 E-N=-4.960713704042D+02  KE=-7.910884205958D+01
 Leave Link  601 at Tue Sep  6 13:42:21 2022, MaxMem=   131072000 cpu:               0.0 elap:               0.0
 (Enter /opt/g16/l9999.exe)
 1\1\GINC-TOTEM2\FOpt\RPM3\ZDO\C10H18\JRAMOS\06-Sep-2022\0\\#p opt pm3\
 \Conformer number 005. Energy MM = 23.242 kcal/mol\\0,1\C,0.9521901189
 ,1.0805558698,0.1894657234\H,0.8537763277,0.7229044867,1.2394894931\H,
 0.9396568993,2.1875314837,0.2403251087\C,2.2554378199,0.6196263168,-0.
 381080475\C,2.7577698053,1.3801329764,-1.5567652044\H,2.019904679,1.37
 22142051,-2.3715393239\H,2.9409796357,2.4295107947,-1.2875658435\H,3.6
 956337695,0.9716573717,-1.9559452816\C,2.9531746272,-0.4039912338,0.13
 05377966\H,3.9060629298,-0.698809086,-0.3278177971\C,2.5358991338,-1.1
 990988211,1.3054552377\H,1.6824012417,-0.7430784604,1.834905131\H,3.36
 07731252,-1.2982604124,2.0227720001\H,2.2366444143,-2.2103138925,0.999
 105426\C,-3.8423407238,0.8560193101,0.7039229235\H,-4.680937731,0.6581
 930412,0.0224658549\H,-4.0891049489,0.4007885598,1.6728603806\H,-3.785
 3944093,1.9423730221,0.8531385179\C,-2.5805795772,0.2831722513,0.16173
 04576\C,-2.6070840949,-1.1813307828,-0.0887546064\H,-1.616864344,-1.56
 74453127,-0.3817707083\H,-2.9273452687,-1.7265168115,0.8089326817\H,-3
 .3120907859,-1.4229406591,-0.8953450047\C,-1.514316781,1.0583882055,-0
 .0771379697\H,-1.5614867999,2.1350620039,0.134330404\C,-0.2248795266,0
 .5711636701,-0.633469295\H,-0.2065656472,-0.5413552351,-0.6779517443\H
 ,-0.141013889,0.9159471385,-1.684493883\\Version=ES64L-G16RevA.03\Stat
 e=1-A\HF=-0.0281716\RMSD=4.331e-09\RMSF=2.668e-06\Dipole=-0.0915881,-0
 .0637423,0.0032422\PG=C01 [X(C10H18)]\\@


 "MATHEMATICS IS THE ART OF GIVING THE SAME NAME
 TO DIFFERENT THINGS."
                    - H. POINCARE
 Job cpu time:       0 days  0 hours  0 minutes  7.4 seconds.
 Elapsed time:       0 days  0 hours  0 minutes  6.1 seconds.
 File lengths (MBytes):  RWF=      6 Int=      0 D2E=      0 Chk=      2 Scr=      1
 Normal termination of Gaussian 16 at Tue Sep  6 13:42:21 2022.
