 Entering Gaussian System, Link 0=/opt/g16/g16
 Input=03-IsoP_007_gaussian.com
 Output=03-IsoP_007_gaussian.log
 Initial command:
 /opt/g16/l1.exe "/tmp/Gau-154129.inp" -scrdir="/tmp/"
 Entering Link 1 = /opt/g16/l1.exe PID=    154131.
  
 Copyright (c) 1988,1990,1992,1993,1995,1998,2003,2009,2016,
            Gaussian, Inc.  All Rights Reserved.
  
 This is part of the Gaussian(R) 16 program.  It is based on
 the Gaussian(R) 09 system (copyright 2009, Gaussian, Inc.),
 the Gaussian(R) 03 system (copyright 2003, Gaussian, Inc.),
 the Gaussian(R) 98 system (copyright 1998, Gaussian, Inc.),
 the Gaussian(R) 94 system (copyright 1995, Gaussian, Inc.),
 the Gaussian 92(TM) system (copyright 1992, Gaussian, Inc.),
 the Gaussian 90(TM) system (copyright 1990, Gaussian, Inc.),
 the Gaussian 88(TM) system (copyright 1988, Gaussian, Inc.),
 the Gaussian 86(TM) system (copyright 1986, Carnegie Mellon
 University), and the Gaussian 82(TM) system (copyright 1983,
 Carnegie Mellon University). Gaussian is a federally registered
 trademark of Gaussian, Inc.
  
 This software contains proprietary and confidential information,
 including trade secrets, belonging to Gaussian, Inc.
  
 This software is provided under written license and may be
 used, copied, transmitted, or stored only in accord with that
 written license.
  
 The following legend is applicable only to US Government
 contracts under FAR:
  
                    RESTRICTED RIGHTS LEGEND
  
 Use, reproduction and disclosure by the US Government is
 subject to restrictions as set forth in subparagraphs (a)
 and (c) of the Commercial Computer Software - Restricted
 Rights clause in FAR 52.227-19.
  
 Gaussian, Inc.
 340 Quinnipiac St., Bldg. 40, Wallingford CT 06492
  
  
 ---------------------------------------------------------------
 Warning -- This program may not be used in any manner that
 competes with the business of Gaussian, Inc. or will provide
 assistance to any competitor of Gaussian, Inc.  The licensee
 of this program is prohibited from giving any competitor of
 Gaussian, Inc. access to this program.  By using this program,
 the user acknowledges that Gaussian, Inc. is engaged in the
 business of creating and licensing software in the field of
 computational chemistry and represents and warrants to the
 licensee that it is not a competitor of Gaussian, Inc. and that
 it will not use this program in any manner prohibited above.
 ---------------------------------------------------------------
  

 Cite this work as:
 Gaussian 16, Revision A.03,
 M. J. Frisch, G. W. Trucks, H. B. Schlegel, G. E. Scuseria, 
 M. A. Robb, J. R. Cheeseman, G. Scalmani, V. Barone, 
 G. A. Petersson, H. Nakatsuji, X. Li, M. Caricato, A. V. Marenich, 
 J. Bloino, B. G. Janesko, R. Gomperts, B. Mennucci, H. P. Hratchian, 
 J. V. Ortiz, A. F. Izmaylov, J. L. Sonnenberg, D. Williams-Young, 
 F. Ding, F. Lipparini, F. Egidi, J. Goings, B. Peng, A. Petrone, 
 T. Henderson, D. Ranasinghe, V. G. Zakrzewski, J. Gao, N. Rega, 
 G. Zheng, W. Liang, M. Hada, M. Ehara, K. Toyota, R. Fukuda, 
 J. Hasegawa, M. Ishida, T. Nakajima, Y. Honda, O. Kitao, H. Nakai, 
 T. Vreven, K. Throssell, J. A. Montgomery, Jr., J. E. Peralta, 
 F. Ogliaro, M. J. Bearpark, J. J. Heyd, E. N. Brothers, K. N. Kudin, 
 V. N. Staroverov, T. A. Keith, R. Kobayashi, J. Normand, 
 K. Raghavachari, A. P. Rendell, J. C. Burant, S. S. Iyengar, 
 J. Tomasi, M. Cossi, J. M. Millam, M. Klene, C. Adamo, R. Cammi, 
 J. W. Ochterski, R. L. Martin, K. Morokuma, O. Farkas, 
 J. B. Foresman, and D. J. Fox, Gaussian, Inc., Wallingford CT, 2016.
 
 ******************************************
 Gaussian 16:  ES64L-G16RevA.03 25-Dec-2016
                 6-Sep-2022 
 ******************************************
 %chk=03-IsoP_007_gaussian.chk
 %nproc=1
 Will use up to    1 processors via shared memory.
 %mem=1000Mb
 ----------
 #p opt pm3
 ----------
 1/18=20,19=15,26=1,38=1/1,3;
 2/9=110,12=2,17=6,18=5,40=1/2;
 3/5=2,25=1,41=800000,71=1/1,2,3;
 4/35=1/1;
 5/5=2,35=1,38=5/2;
 6/7=2,8=2,9=2,10=2,28=1/1;
 7//1,2,3,16;
 1/18=20,19=15,26=1/3(2);
 2/9=110/2;
 99//99;
 2/9=110/2;
 3/5=2,25=1,41=800000,71=1,135=20/1,2,3;
 4/5=5,16=3,35=1/1;
 5/5=2,35=1,38=5/2;
 7//1,2,3,16;
 1/18=20,19=15,26=1/3(-5);
 2/9=110/2;
 6/7=2,8=2,9=2,10=2,19=2,28=1/1;
 99/9=1/99;
 Leave Link    1 at Tue Sep  6 13:42:14 2022, MaxMem=   131072000 cpu:               0.0 elap:               0.0
 (Enter /opt/g16/l101.exe)
 -------------------------------------------------
 Conformer number 007. Energy MM = 24.539 kcal/mol
 -------------------------------------------------
 Symbolic Z-matrix:
 Charge =  0 Multiplicity = 1
 C                     0.5727    0.3648   -0.828 
 H                     0.4347   -0.1194   -1.8046 
 H                     0.2112    1.3966   -0.936 
 C                     2.0723    0.4249   -0.5517 
 C                     2.8273    1.148    -1.6407 
 H                     3.886     1.2961   -1.4216 
 H                     2.7571    0.5892   -2.5798 
 H                     2.3963    2.1426   -1.7992 
 C                     2.6545   -0.1038    0.5441 
 H                     2.035    -0.5982    1.2896 
 C                     4.1069   -0.124     0.9069 
 H                     4.7681    0.2358    0.1174 
 H                     4.273     0.4872    1.7993 
 H                     4.4085   -1.1508    1.1389 
 C                    -2.6418    1.4662    1.258 
 H                    -3.1846    1.1797    2.1645 
 H                    -1.6071    1.6775    1.537 
 H                    -3.0664    2.4043    0.8843 
 C                    -2.772     0.3899    0.2157 
 C                    -4.1691    0.2118   -0.3192 
 H                    -4.8554   -0.0468    0.4939 
 H                    -4.2292   -0.5833   -1.0698 
 H                    -4.5172    1.1382   -0.7879 
 C                    -1.7587   -0.3697   -0.2444 
 H                    -1.9736   -1.1083   -1.0171 
 C                    -0.3183   -0.3511    0.1974 
 H                    -0.2122    0.1107    1.184 
 H                     0.0054   -1.3935    0.3115 
 
 ITRead=  0  0  0  0  0  0  0  0  0  0  0  0  0  0  0  0  0  0  0  0
 ITRead=  0  0  0  0  0  0  0  0
 MicOpt= -1 -1 -1 -1 -1 -1 -1 -1 -1 -1 -1 -1 -1 -1 -1 -1 -1 -1 -1 -1
 MicOpt= -1 -1 -1 -1 -1 -1 -1 -1
 NAtoms=     28 NQM=       28 NQMF=       0 NMMI=      0 NMMIF=      0
                NMic=       0 NMicF=      0.
                    Isotopes and Nuclear Properties:
 (Nuclear quadrupole moments (NQMom) in fm**2, nuclear magnetic moments (NMagM)
  in nuclear magnetons)

  Atom         1           2           3           4           5           6           7           8           9          10
 IAtWgt=          12           1           1          12          12           1           1           1          12           1
 AtmWgt=  12.0000000   1.0078250   1.0078250  12.0000000  12.0000000   1.0078250   1.0078250   1.0078250  12.0000000   1.0078250
 NucSpn=           0           1           1           0           0           1           1           1           0           1
 AtZEff=  -0.0000000  -0.0000000  -0.0000000  -0.0000000  -0.0000000  -0.0000000  -0.0000000  -0.0000000  -0.0000000  -0.0000000
 NQMom=    0.0000000   0.0000000   0.0000000   0.0000000   0.0000000   0.0000000   0.0000000   0.0000000   0.0000000   0.0000000
 NMagM=    0.0000000   2.7928460   2.7928460   0.0000000   0.0000000   2.7928460   2.7928460   2.7928460   0.0000000   2.7928460
 AtZNuc=   6.0000000   1.0000000   1.0000000   6.0000000   6.0000000   1.0000000   1.0000000   1.0000000   6.0000000   1.0000000

  Atom        11          12          13          14          15          16          17          18          19          20
 IAtWgt=          12           1           1           1          12           1           1           1          12          12
 AtmWgt=  12.0000000   1.0078250   1.0078250   1.0078250  12.0000000   1.0078250   1.0078250   1.0078250  12.0000000  12.0000000
 NucSpn=           0           1           1           1           0           1           1           1           0           0
 AtZEff=  -0.0000000  -0.0000000  -0.0000000  -0.0000000  -0.0000000  -0.0000000  -0.0000000  -0.0000000  -0.0000000  -0.0000000
 NQMom=    0.0000000   0.0000000   0.0000000   0.0000000   0.0000000   0.0000000   0.0000000   0.0000000   0.0000000   0.0000000
 NMagM=    0.0000000   2.7928460   2.7928460   2.7928460   0.0000000   2.7928460   2.7928460   2.7928460   0.0000000   0.0000000
 AtZNuc=   6.0000000   1.0000000   1.0000000   1.0000000   6.0000000   1.0000000   1.0000000   1.0000000   6.0000000   6.0000000

  Atom        21          22          23          24          25          26          27          28
 IAtWgt=           1           1           1          12           1          12           1           1
 AtmWgt=   1.0078250   1.0078250   1.0078250  12.0000000   1.0078250  12.0000000   1.0078250   1.0078250
 NucSpn=           1           1           1           0           1           0           1           1
 AtZEff=  -0.0000000  -0.0000000  -0.0000000  -0.0000000  -0.0000000  -0.0000000  -0.0000000  -0.0000000
 NQMom=    0.0000000   0.0000000   0.0000000   0.0000000   0.0000000   0.0000000   0.0000000   0.0000000
 NMagM=    2.7928460   2.7928460   2.7928460   0.0000000   2.7928460   0.0000000   2.7928460   2.7928460
 AtZNuc=   1.0000000   1.0000000   1.0000000   6.0000000   1.0000000   6.0000000   1.0000000   1.0000000
 Leave Link  101 at Tue Sep  6 13:42:14 2022, MaxMem=   131072000 cpu:               0.1 elap:               0.1
 (Enter /opt/g16/l103.exe)

 GradGradGradGradGradGradGradGradGradGradGradGradGradGradGradGradGradGrad
 Berny optimization.
 Initialization pass.
                           ----------------------------
                           !    Initial Parameters    !
                           ! (Angstroms and Degrees)  !
 --------------------------                            --------------------------
 ! Name  Definition              Value          Derivative Info.                !
 --------------------------------------------------------------------------------
 ! R1    R(1,2)                  1.0987         estimate D2E/DX2                !
 ! R2    R(1,3)                  1.0986         estimate D2E/DX2                !
 ! R3    R(1,4)                  1.526          estimate D2E/DX2                !
 ! R4    R(1,26)                 1.5355         estimate D2E/DX2                !
 ! R5    R(4,5)                  1.5096         estimate D2E/DX2                !
 ! R6    R(4,9)                  1.3488         estimate D2E/DX2                !
 ! R7    R(5,6)                  1.0912         estimate D2E/DX2                !
 ! R8    R(5,7)                  1.095          estimate D2E/DX2                !
 ! R9    R(5,8)                  1.0955         estimate D2E/DX2                !
 ! R10   R(9,10)                 1.0881         estimate D2E/DX2                !
 ! R11   R(9,11)                 1.4972         estimate D2E/DX2                !
 ! R12   R(11,12)                1.0908         estimate D2E/DX2                !
 ! R13   R(11,13)                1.0943         estimate D2E/DX2                !
 ! R14   R(11,14)                1.095          estimate D2E/DX2                !
 ! R15   R(15,16)                1.0947         estimate D2E/DX2                !
 ! R16   R(15,17)                1.0923         estimate D2E/DX2                !
 ! R17   R(15,18)                1.0954         estimate D2E/DX2                !
 ! R18   R(15,19)                1.5039         estimate D2E/DX2                !
 ! R19   R(19,20)                1.5066         estimate D2E/DX2                !
 ! R20   R(19,24)                1.3474         estimate D2E/DX2                !
 ! R21   R(20,21)                1.095          estimate D2E/DX2                !
 ! R22   R(20,22)                1.0951         estimate D2E/DX2                !
 ! R23   R(20,23)                1.095          estimate D2E/DX2                !
 ! R24   R(24,25)                1.0903         estimate D2E/DX2                !
 ! R25   R(24,26)                1.5067         estimate D2E/DX2                !
 ! R26   R(26,27)                1.0945         estimate D2E/DX2                !
 ! R27   R(26,28)                1.0975         estimate D2E/DX2                !
 ! A1    A(2,1,3)              106.5695         estimate D2E/DX2                !
 ! A2    A(2,1,4)              107.5603         estimate D2E/DX2                !
 ! A3    A(2,1,26)             108.3736         estimate D2E/DX2                !
 ! A4    A(3,1,4)              107.7078         estimate D2E/DX2                !
 ! A5    A(3,1,26)             108.2149         estimate D2E/DX2                !
 ! A6    A(4,1,26)             117.8827         estimate D2E/DX2                !
 ! A7    A(1,4,5)              112.317          estimate D2E/DX2                !
 ! A8    A(1,4,9)              123.7678         estimate D2E/DX2                !
 ! A9    A(5,4,9)              123.9148         estimate D2E/DX2                !
 ! A10   A(4,5,6)              113.916          estimate D2E/DX2                !
 ! A11   A(4,5,7)              110.0088         estimate D2E/DX2                !
 ! A12   A(4,5,8)              110.029          estimate D2E/DX2                !
 ! A13   A(6,5,7)              107.6767         estimate D2E/DX2                !
 ! A14   A(6,5,8)              106.7102         estimate D2E/DX2                !
 ! A15   A(7,5,8)              108.3006         estimate D2E/DX2                !
 ! A16   A(4,9,10)             119.273          estimate D2E/DX2                !
 ! A17   A(4,9,11)             128.3817         estimate D2E/DX2                !
 ! A18   A(10,9,11)            112.3435         estimate D2E/DX2                !
 ! A19   A(9,11,12)            114.0905         estimate D2E/DX2                !
 ! A20   A(9,11,13)            109.7138         estimate D2E/DX2                !
 ! A21   A(9,11,14)            109.3405         estimate D2E/DX2                !
 ! A22   A(12,11,13)           108.2995         estimate D2E/DX2                !
 ! A23   A(12,11,14)           107.198          estimate D2E/DX2                !
 ! A24   A(13,11,14)           108.0074         estimate D2E/DX2                !
 ! A25   A(16,15,17)           107.9872         estimate D2E/DX2                !
 ! A26   A(16,15,18)           108.3256         estimate D2E/DX2                !
 ! A27   A(16,15,19)           110.1004         estimate D2E/DX2                !
 ! A28   A(17,15,18)           106.7771         estimate D2E/DX2                !
 ! A29   A(17,15,19)           113.4207         estimate D2E/DX2                !
 ! A30   A(18,15,19)           110.0529         estimate D2E/DX2                !
 ! A31   A(15,19,20)           114.2648         estimate D2E/DX2                !
 ! A32   A(15,19,24)           125.1007         estimate D2E/DX2                !
 ! A33   A(20,19,24)           120.6319         estimate D2E/DX2                !
 ! A34   A(19,20,21)           110.2122         estimate D2E/DX2                !
 ! A35   A(19,20,22)           112.3391         estimate D2E/DX2                !
 ! A36   A(19,20,23)           110.2889         estimate D2E/DX2                !
 ! A37   A(21,20,22)           107.6441         estimate D2E/DX2                !
 ! A38   A(21,20,23)           108.5657         estimate D2E/DX2                !
 ! A39   A(22,20,23)           107.6638         estimate D2E/DX2                !
 ! A40   A(19,24,25)           118.4033         estimate D2E/DX2                !
 ! A41   A(19,24,26)           127.7232         estimate D2E/DX2                !
 ! A42   A(25,24,26)           113.865          estimate D2E/DX2                !
 ! A43   A(1,26,24)            111.3865         estimate D2E/DX2                !
 ! A44   A(1,26,27)            110.4258         estimate D2E/DX2                !
 ! A45   A(1,26,28)            109.9449         estimate D2E/DX2                !
 ! A46   A(24,26,27)           111.2349         estimate D2E/DX2                !
 ! A47   A(24,26,28)           107.5013         estimate D2E/DX2                !
 ! A48   A(27,26,28)           106.168          estimate D2E/DX2                !
 ! D1    D(2,1,4,5)             56.8842         estimate D2E/DX2                !
 ! D2    D(2,1,4,9)           -123.3653         estimate D2E/DX2                !
 ! D3    D(3,1,4,5)            -57.6373         estimate D2E/DX2                !
 ! D4    D(3,1,4,9)            122.1132         estimate D2E/DX2                !
 ! D5    D(26,1,4,5)           179.6683         estimate D2E/DX2                !
 ! D6    D(26,1,4,9)            -0.5812         estimate D2E/DX2                !
 ! D7    D(2,1,26,24)          -55.4566         estimate D2E/DX2                !
 ! D8    D(2,1,26,27)         -179.576          estimate D2E/DX2                !
 ! D9    D(2,1,26,28)           63.601          estimate D2E/DX2                !
 ! D10   D(3,1,26,24)           59.7351         estimate D2E/DX2                !
 ! D11   D(3,1,26,27)          -64.3843         estimate D2E/DX2                !
 ! D12   D(3,1,26,28)          178.7926         estimate D2E/DX2                !
 ! D13   D(4,1,26,24)         -177.8278         estimate D2E/DX2                !
 ! D14   D(4,1,26,27)           58.0527         estimate D2E/DX2                !
 ! D15   D(4,1,26,28)          -58.7703         estimate D2E/DX2                !
 ! D16   D(1,4,5,6)            174.0713         estimate D2E/DX2                !
 ! D17   D(1,4,5,7)            -64.9318         estimate D2E/DX2                !
 ! D18   D(1,4,5,8)             54.3058         estimate D2E/DX2                !
 ! D19   D(9,4,5,6)             -5.6788         estimate D2E/DX2                !
 ! D20   D(9,4,5,7)            115.3181         estimate D2E/DX2                !
 ! D21   D(9,4,5,8)           -125.4443         estimate D2E/DX2                !
 ! D22   D(1,4,9,10)            -0.5484         estimate D2E/DX2                !
 ! D23   D(1,4,9,11)           178.9321         estimate D2E/DX2                !
 ! D24   D(5,4,9,10)           179.1735         estimate D2E/DX2                !
 ! D25   D(5,4,9,11)            -1.346          estimate D2E/DX2                !
 ! D26   D(4,9,11,12)           -7.7476         estimate D2E/DX2                !
 ! D27   D(4,9,11,13)          113.959          estimate D2E/DX2                !
 ! D28   D(4,9,11,14)         -127.7602         estimate D2E/DX2                !
 ! D29   D(10,9,11,12)         171.7624         estimate D2E/DX2                !
 ! D30   D(10,9,11,13)         -66.531          estimate D2E/DX2                !
 ! D31   D(10,9,11,14)          51.7499         estimate D2E/DX2                !
 ! D32   D(16,15,19,20)         66.7484         estimate D2E/DX2                !
 ! D33   D(16,15,19,24)       -113.836          estimate D2E/DX2                !
 ! D34   D(17,15,19,20)       -172.1286         estimate D2E/DX2                !
 ! D35   D(17,15,19,24)          7.287          estimate D2E/DX2                !
 ! D36   D(18,15,19,20)        -52.592          estimate D2E/DX2                !
 ! D37   D(18,15,19,24)        126.8236         estimate D2E/DX2                !
 ! D38   D(15,19,20,21)        -59.567          estimate D2E/DX2                !
 ! D39   D(15,19,20,22)       -179.5996         estimate D2E/DX2                !
 ! D40   D(15,19,20,23)         60.2901         estimate D2E/DX2                !
 ! D41   D(24,19,20,21)        120.9886         estimate D2E/DX2                !
 ! D42   D(24,19,20,22)          0.9561         estimate D2E/DX2                !
 ! D43   D(24,19,20,23)       -119.1543         estimate D2E/DX2                !
 ! D44   D(15,19,24,25)       -178.8797         estimate D2E/DX2                !
 ! D45   D(15,19,24,26)          2.2524         estimate D2E/DX2                !
 ! D46   D(20,19,24,25)          0.5011         estimate D2E/DX2                !
 ! D47   D(20,19,24,26)       -178.3668         estimate D2E/DX2                !
 ! D48   D(19,24,26,1)        -104.0226         estimate D2E/DX2                !
 ! D49   D(19,24,26,27)         19.6385         estimate D2E/DX2                !
 ! D50   D(19,24,26,28)        135.4726         estimate D2E/DX2                !
 ! D51   D(25,24,26,1)          77.0663         estimate D2E/DX2                !
 ! D52   D(25,24,26,27)       -159.2726         estimate D2E/DX2                !
 ! D53   D(25,24,26,28)        -43.4385         estimate D2E/DX2                !
 --------------------------------------------------------------------------------
 Trust Radius=3.00D-01 FncErr=1.00D-07 GrdErr=1.00D-07 EigMax=2.50D+02 EigMin=1.00D-04
 Number of steps in this run=    138 maximum allowed number of steps=    168.
 GradGradGradGradGradGradGradGradGradGradGradGradGradGradGradGradGradGrad

 Leave Link  103 at Tue Sep  6 13:42:14 2022, MaxMem=   131072000 cpu:               0.0 elap:               0.0
 (Enter /opt/g16/l202.exe)
                          Input orientation:                          
 ---------------------------------------------------------------------
 Center     Atomic      Atomic             Coordinates (Angstroms)
 Number     Number       Type             X           Y           Z
 ---------------------------------------------------------------------
      1          6           0        0.572700    0.364800   -0.828000
      2          1           0        0.434700   -0.119400   -1.804600
      3          1           0        0.211200    1.396600   -0.936000
      4          6           0        2.072300    0.424900   -0.551700
      5          6           0        2.827300    1.148000   -1.640700
      6          1           0        3.886000    1.296100   -1.421600
      7          1           0        2.757100    0.589200   -2.579800
      8          1           0        2.396300    2.142600   -1.799200
      9          6           0        2.654500   -0.103800    0.544100
     10          1           0        2.035000   -0.598200    1.289600
     11          6           0        4.106900   -0.124000    0.906900
     12          1           0        4.768100    0.235800    0.117400
     13          1           0        4.273000    0.487200    1.799300
     14          1           0        4.408500   -1.150800    1.138900
     15          6           0       -2.641800    1.466200    1.258000
     16          1           0       -3.184600    1.179700    2.164500
     17          1           0       -1.607100    1.677500    1.537000
     18          1           0       -3.066400    2.404300    0.884300
     19          6           0       -2.772000    0.389900    0.215700
     20          6           0       -4.169100    0.211800   -0.319200
     21          1           0       -4.855400   -0.046800    0.493900
     22          1           0       -4.229200   -0.583300   -1.069800
     23          1           0       -4.517200    1.138200   -0.787900
     24          6           0       -1.758700   -0.369700   -0.244400
     25          1           0       -1.973600   -1.108300   -1.017100
     26          6           0       -0.318300   -0.351100    0.197400
     27          1           0       -0.212200    0.110700    1.184000
     28          1           0        0.005400   -1.393500    0.311500
 ---------------------------------------------------------------------
                    Distance matrix (angstroms):
                    1          2          3          4          5
     1  C    0.000000
     2  H    1.098745   0.000000
     3  H    1.098616   1.761441   0.000000
     4  C    1.526026   2.132547   2.134381   0.000000
     5  C    2.521330   2.712508   2.720732   1.509576   0.000000
     6  H    3.492512   3.749907   3.708108   2.192082   1.091231
     7  H    2.809050   2.548841   3.136173   2.146890   1.095032
     8  H    2.725678   2.994085   2.465014   2.147493   1.095496
     9  C    2.536954   3.231741   3.226703   1.348799   2.523928
    10  H    2.747712   3.516288   3.501252   2.106777   3.501944
    11  C    3.967288   4.564790   4.570009   2.562889   3.121799
    12  H    4.302535   4.753799   4.818967   2.784024   2.773036
    13  H    4.539814   5.299868   4.980672   3.220895   3.789499
    14  H    4.569365   5.051640   5.330271   3.286151   3.938382
    15  C    3.987165   4.621526   3.599735   5.155779   6.197965
    16  H    4.872004   5.526368   4.603434   5.965104   7.115019
    17  H    3.473893   4.308606   3.082345   4.412444   5.481063
    18  H    4.509388   5.084973   3.882218   5.690901   6.533729
    19  C    3.503849   3.824124   3.352512   4.904831   5.947529
    20  C    4.771473   4.848823   4.579435   6.249363   7.181396
    21  H    5.601884   5.768321   5.458796   7.022023   8.062750
    22  H    4.900572   4.744165   4.863647   6.402640   7.288177
    23  H    5.148479   5.209275   4.737771   6.632202   7.393852
    24  C    2.513067   2.703309   2.734709   3.924587   5.028366
    25  H    2.947783   2.719924   3.324824   4.351621   5.341199
    26  C    1.535526   2.151441   2.149284   2.622650   3.939633
    27  H    2.174576   3.066457   2.515394   2.886229   4.277088
    28  H    2.170693   2.507092   3.063212   2.885094   4.270062
                    6          7          8          9         10
     6  H    0.000000
     7  H    1.765092   0.000000
     8  H    1.754523   1.775546   0.000000
     9  C    2.709297   3.201488   3.256384   0.000000
    10  H    3.790142   4.111399   4.145263   1.088109   0.000000
    11  C    2.736310   3.806270   3.922576   1.497163   2.159651
    12  H    2.066605   3.382883   3.596481   2.182821   3.088599
    13  H    3.343394   4.635178   4.383099   2.131748   2.539002
    14  H    3.580012   4.425319   4.850553   2.127560   2.441635
    15  C    7.058425   6.681763   5.931816   5.570040   5.112260
    16  H    7.928874   7.626328   6.912636   6.194204   5.583064
    17  H    6.250834   6.097432   5.231994   4.724417   4.301733
    18  H    7.408181   7.014822   6.091859   6.255797   5.933258
    19  C    6.915990   6.198830   5.817483   5.458799   5.023629
    20  C    8.202172   7.295546   7.001633   6.885231   6.460278
    21  H    9.049011   8.234214   7.914476   7.510284   6.958074
    22  H    8.337408   7.243152   7.201375   7.086601   6.693817
    23  H    8.428540   7.511840   7.058897   7.399329   7.089599
    24  C    6.001944   5.173590   5.098341   4.490965   4.098479
    25  H    6.346627   5.263370   5.502368   4.986549   4.652950
    26  C    4.796933   4.249128   4.192136   3.003148   2.606143
    27  H    4.998957   4.817872   4.453355   2.945072   2.358728
    28  H    5.029577   4.456744   4.761876   2.955530   2.389238
                   11         12         13         14         15
    11  C    0.000000
    12  H    1.090849   0.000000
    13  H    1.094318   1.771190   0.000000
    14  H    1.095036   1.759385   1.771308   0.000000
    15  C    6.942403   7.597465   7.004706   7.521277   0.000000
    16  H    7.513133   8.266015   7.498582   8.008636   1.094740
    17  H    6.024303   6.688568   6.005097   6.659220   1.092288
    18  H    7.605856   8.165165   7.640634   8.281165   1.095431
    19  C    6.932612   7.542315   7.221446   7.401732   1.503916
    20  C    8.373067   8.947890   8.708211   8.806700   2.528582
    21  H    8.972143   9.635007   9.236715   9.351721   2.788018
    22  H    8.579561   9.112177   9.036875   8.933660   3.484098
    23  H    8.879223   9.372870   9.186132   9.413830   2.794712
    24  C    5.982568   6.564804   6.425916   6.368516   2.531324
    25  H    6.453147   6.967368   7.035463   6.736568   3.500089
    26  C    4.487467   5.120773   4.934457   4.885548   3.134662
    27  H    4.334339   5.094769   4.542837   4.790019   2.783130
    28  H    4.334563   5.037420   4.895201   4.486734   4.010164
                   16         17         18         19         20
    16  H    0.000000
    17  H    1.769200   0.000000
    18  H    1.775536   1.756079   0.000000
    19  C    2.142859   2.181912   2.142780   0.000000
    20  C    2.841626   3.486775   2.733389   1.506561   0.000000
    21  H    2.662101   3.822659   3.059546   2.146778   1.094995
    22  H    3.828845   4.333824   3.754513   2.173260   1.095078
    23  H    3.239477   3.763600   2.550310   2.147764   1.095021
    24  C    3.199473   2.717977   3.267892   1.347390   2.480678
    25  H    4.101712   3.797161   4.141001   2.098057   2.655174
    26  C    3.798487   2.751500   3.951723   2.563213   3.925862
    27  H    3.307462   2.127256   3.673810   2.751024   4.234016
    28  H    4.497896   3.678729   4.918063   3.302067   4.516771
                   21         22         23         24         25
    21  H    0.000000
    22  H    1.767800   0.000000
    23  H    1.778093   1.768042   0.000000
    24  C    3.199828   2.613481   3.190373   0.000000
    25  H    3.422671   2.316492   3.401352   1.090311   0.000000
    26  C    4.556949   4.117627   4.562849   1.506747   2.188237
    27  H    4.696845   4.658062   4.845325   2.159345   3.071373
    28  H    5.047202   4.527279   5.298311   2.114058   2.400616
                   26         27         28
    26  C    0.000000
    27  H    1.094484   0.000000
    28  H    1.097451   1.752491   0.000000
 Stoichiometry    C10H18
 Framework group  C1[X(C10H18)]
 Deg. of freedom    78
 Full point group                 C1      NOp   1
 Largest Abelian subgroup         C1      NOp   1
 Largest concise Abelian subgroup C1      NOp   1
                         Standard orientation:                         
 ---------------------------------------------------------------------
 Center     Atomic      Atomic             Coordinates (Angstroms)
 Number     Number       Type             X           Y           Z
 ---------------------------------------------------------------------
      1          6           0        0.545440    0.757103   -0.085379
      2          1           0        0.468368    1.640609   -0.734007
      3          1           0        0.161353    1.056869    0.899291
      4          6           0        2.027643    0.430968    0.074191
      5          6           0        2.814416    1.594792    0.626751
      6          1           0        3.856760    1.359113    0.847561
      7          1           0        2.805272    2.425611   -0.086517
      8          1           0        2.364412    1.940833    1.563695
      9          6           0        2.570309   -0.763629   -0.238395
     10          1           0        1.929202   -1.555824   -0.619695
     11          6           0        4.003398   -1.186699   -0.144775
     12          1           0        4.691980   -0.376210    0.097948
     13          1           0        4.109118   -1.966658    0.615502
     14          1           0        4.321524   -1.605049   -1.105444
     15          6           0       -2.795585   -0.967305    1.241820
     16          1           0       -3.373646   -1.885392    1.095471
     17          1           0       -1.781849   -1.249999    1.534251
     18          1           0       -3.227202   -0.419508    2.086565
     19          6           0       -2.845389   -0.121576   -0.000769
     20          6           0       -4.209457    0.434280   -0.317108
     21          1           0       -4.927029   -0.380903   -0.457040
     22          1           0       -4.211162    1.038420   -1.230458
     23          1           0       -4.559761    1.070251    0.502586
     24          6           0       -1.790439    0.156572   -0.791449
     25          1           0       -1.947186    0.798871   -1.658433
     26          6           0       -0.374233   -0.337034   -0.646543
     27          1           0       -0.328881   -1.232869   -0.019392
     28          1           0       -0.027892   -0.643002   -1.641948
 ---------------------------------------------------------------------
 Rotational constants (GHZ):           2.9094319           0.4568238           0.4357000
 Leave Link  202 at Tue Sep  6 13:42:14 2022, MaxMem=   131072000 cpu:               0.0 elap:               0.0
 (Enter /opt/g16/l301.exe)
 Standard basis: VSTO-6G (5D, 7F)
 Ernie: Thresh=  0.10000D-02 Tol=  0.10000D-05 Strict=F.
  NNHCO=     0 NNPyr=     0 NCTC=     0               EPep=         0.000000000
    EC=       243.366263106  ECS=         3.515530807   EG=         0.892393670
   EHC=         0.000000000  EAt=       -49.524085099  AtH=         4.217842293
 EPDDG=         0.000000000  ECC=       247.774187583 EAtT=        53.741927392
 There are    58 symmetry adapted cartesian basis functions of A   symmetry.
 There are    58 symmetry adapted basis functions of A   symmetry.
    58 basis functions,   348 primitive gaussians,    58 cartesian basis functions
    29 alpha electrons       29 beta electrons
       nuclear repulsion energy       301.5161149753 Hartrees.
 IExCor=    0 DFT=F Ex=HF Corr=None ExCW=0 ScaHFX=  1.000000
 ScaDFX=  1.000000  1.000000  1.000000  1.000000 ScalE2=  1.000000  1.000000
 IRadAn=      5 IRanWt=     -1 IRanGd=            0 ICorTp=0 IEmpDi=  4
 Integral buffers will be    131072 words long.
 Regular integral format.
 Two-electron integral symmetry is turned off.
 Leave Link  301 at Tue Sep  6 13:42:14 2022, MaxMem=   131072000 cpu:               0.0 elap:               0.0
 (Enter /opt/g16/l302.exe)
 Do NDO integrals.
 NPDir=0 NMtPBC=     1 NCelOv=     1 NCel=       1 NClECP=     1 NCelD=      1
         NCelK=      1 NCelE2=     1 NClLst=     1 CellRange=     0.0.
 One-electron integrals computed using PRISM.
 NBasis=    58 RedAO= F EigKep=  0.00D+00  NBF=    58
 NBsUse=    58 1.00D-04 EigRej=  0.00D+00 NBFU=    58
 Leave Link  302 at Tue Sep  6 13:42:14 2022, MaxMem=   131072000 cpu:               0.0 elap:               0.0
 (Enter /opt/g16/l303.exe)
 DipDrv:  MaxL=1.
 Leave Link  303 at Tue Sep  6 13:42:15 2022, MaxMem=   131072000 cpu:               0.0 elap:               0.0
 (Enter /opt/g16/l401.exe)
 Simple Huckel Guess.
 JPrj=0 DoOrth=F DoCkMO=F.
 Leave Link  401 at Tue Sep  6 13:42:15 2022, MaxMem=   131072000 cpu:               0.0 elap:               0.0
 (Enter /opt/g16/l502.exe)
 Keep J ints in memory in canonical form, NReq=866866.
 FoFCou: FMM=F IPFlag=           0 FMFlag=           0 FMFlg1=           0
         NFxFlg=           0 DoJE=F BraDBF=F KetDBF=F FulRan=T
         wScrn=  0.000000 ICntrl=       600 IOpCl=  2 I1Cent=           0 NGrid=           0
         NMat0=    1 NMatS0=    118 NMatT0=    0 NMatD0=    1 NMtDS0=    0 NMtDT0=    0
 Symmetry not used in FoFCou.
 Two-electron integral symmetry not used.
 Closed shell SCF:
 Using DIIS extrapolation, IDIIS=  1040.
 Overlap will be assumed to be unity.
 NGot=   131072000 LenX=   130997697 LenY=   130993892
 Requested convergence on RMS density matrix=1.00D-08 within 128 cycles.
 Requested convergence on MAX density matrix=1.00D-06.
 Requested convergence on             energy=1.00D-06.
 No special actions if energy rises.

 Cycle   1  Pass 1  IDiag  1:
 E= 0.217712170345010    
 DIIS: error= 2.74D-02 at cycle   1 NSaved=   1.
 NSaved= 1 IEnMin= 1 EnMin= 0.217712170345010     IErMin= 1 ErrMin= 2.74D-02
 ErrMax= 2.74D-02  0.00D+00 EMaxC= 1.00D-01 BMatC= 9.42D-02 BMatP= 9.42D-02
 IDIUse=3 WtCom= 7.26D-01 WtEn= 2.74D-01
 Coeff-Com:  0.100D+01
 Coeff-En:   0.100D+01
 Coeff:      0.100D+01
 GapD=    2.000 DampG=2.000 DampE=0.500 DampFc=1.0000 IDamp=-1.
 RMSDP=7.13D-03 MaxDP=8.49D-02              OVMax= 0.00D+00

 Cycle   2  Pass 1  IDiag  1:
 E=-0.992698798029323E-03 Delta-E=       -0.218704869143 Rises=F Damp=F
 DIIS: error= 7.96D-03 at cycle   2 NSaved=   2.
 NSaved= 2 IEnMin= 2 EnMin=-0.992698798029323E-03 IErMin= 2 ErrMin= 7.96D-03
 ErrMax= 7.96D-03  0.00D+00 EMaxC= 1.00D-01 BMatC= 6.04D-03 BMatP= 9.42D-02
 IDIUse=3 WtCom= 9.20D-01 WtEn= 7.96D-02
 Coeff-Com: -0.318D+00 0.132D+01
 Coeff-En:   0.000D+00 0.100D+01
 Coeff:     -0.292D+00 0.129D+01
 RMSDP=2.58D-03 MaxDP=2.87D-02 DE=-2.19D-01 OVMax= 0.00D+00

 Cycle   3  Pass 1  IDiag  3:
 E=-0.182318972491089E-01 Delta-E=       -0.017239198451 Rises=F Damp=F
 DIIS: error= 9.27D-04 at cycle   3 NSaved=   3.
 NSaved= 3 IEnMin= 3 EnMin=-0.182318972491089E-01 IErMin= 3 ErrMin= 9.27D-04
 ErrMax= 9.27D-04  0.00D+00 EMaxC= 1.00D-01 BMatC= 7.26D-05 BMatP= 6.04D-03
 IDIUse=3 WtCom= 9.91D-01 WtEn= 9.27D-03
 Coeff-Com:  0.109D+00-0.507D+00 0.140D+01
 Coeff-En:   0.000D+00 0.000D+00 0.100D+01
 Coeff:      0.108D+00-0.503D+00 0.139D+01
 Gap=     0.382 Goal=   None    Shift=    0.000
 RMSDP=4.22D-04 MaxDP=4.15D-03 DE=-1.72D-02 OVMax= 5.12D-03

 Cycle   4  Pass 1  IDiag  3:
 E=-0.185621932885169E-01 Delta-E=       -0.000330296039 Rises=F Damp=F
 DIIS: error= 1.64D-04 at cycle   4 NSaved=   4.
 NSaved= 4 IEnMin= 4 EnMin=-0.185621932885169E-01 IErMin= 4 ErrMin= 1.64D-04
 ErrMax= 1.64D-04  0.00D+00 EMaxC= 1.00D-01 BMatC= 3.04D-06 BMatP= 7.26D-05
 IDIUse=3 WtCom= 9.98D-01 WtEn= 1.64D-03
 Coeff-Com: -0.476D-01 0.228D+00-0.736D+00 0.156D+01
 Coeff-En:   0.000D+00 0.000D+00 0.000D+00 0.100D+01
 Coeff:     -0.475D-01 0.228D+00-0.735D+00 0.155D+01
 Gap=     0.382 Goal=   None    Shift=    0.000
 RMSDP=1.05D-04 MaxDP=1.15D-03 DE=-3.30D-04 OVMax= 7.10D-04

 Cycle   5  Pass 1  IDiag  3:
 E=-0.185792367544195E-01 Delta-E=       -0.000017043466 Rises=F Damp=F
 DIIS: error= 4.82D-05 at cycle   5 NSaved=   5.
 NSaved= 5 IEnMin= 5 EnMin=-0.185792367544195E-01 IErMin= 5 ErrMin= 4.82D-05
 ErrMax= 4.82D-05  0.00D+00 EMaxC= 1.00D-01 BMatC= 1.55D-07 BMatP= 3.04D-06
 IDIUse=1 WtCom= 1.00D+00 WtEn= 0.00D+00
 Coeff-Com:  0.138D-01-0.663D-01 0.221D+00-0.598D+00 0.143D+01
 Coeff:      0.138D-01-0.663D-01 0.221D+00-0.598D+00 0.143D+01
 Gap=     0.382 Goal=   None    Shift=    0.000
 RMSDP=2.45D-05 MaxDP=2.69D-04 DE=-1.70D-05 OVMax= 1.95D-04

 Cycle   6  Pass 1  IDiag  3:
 E=-0.185801786715274E-01 Delta-E=       -0.000000941917 Rises=F Damp=F
 DIIS: error= 1.44D-05 at cycle   6 NSaved=   6.
 NSaved= 6 IEnMin= 6 EnMin=-0.185801786715274E-01 IErMin= 6 ErrMin= 1.44D-05
 ErrMax= 1.44D-05  0.00D+00 EMaxC= 1.00D-01 BMatC= 1.24D-08 BMatP= 1.55D-07
 IDIUse=1 WtCom= 1.00D+00 WtEn= 0.00D+00
 Coeff-Com: -0.486D-02 0.232D-01-0.759D-01 0.208D+00-0.698D+00 0.155D+01
 Coeff:     -0.486D-02 0.232D-01-0.759D-01 0.208D+00-0.698D+00 0.155D+01
 Gap=     0.382 Goal=   None    Shift=    0.000
 RMSDP=8.05D-06 MaxDP=1.01D-04 DE=-9.42D-07 OVMax= 9.83D-05

 Cycle   7  Pass 1  IDiag  3:
 E=-0.185802628488432E-01 Delta-E=       -0.000000084177 Rises=F Damp=F
 DIIS: error= 3.18D-06 at cycle   7 NSaved=   7.
 NSaved= 7 IEnMin= 7 EnMin=-0.185802628488432E-01 IErMin= 7 ErrMin= 3.18D-06
 ErrMax= 3.18D-06  0.00D+00 EMaxC= 1.00D-01 BMatC= 8.73D-10 BMatP= 1.24D-08
 IDIUse=1 WtCom= 1.00D+00 WtEn= 0.00D+00
 Coeff-Com:  0.113D-02-0.535D-02 0.170D-01-0.471D-01 0.223D+00-0.754D+00
 Coeff-Com:  0.157D+01
 Coeff:      0.113D-02-0.535D-02 0.170D-01-0.471D-01 0.223D+00-0.754D+00
 Coeff:      0.157D+01
 Gap=     0.382 Goal=   None    Shift=    0.000
 RMSDP=2.20D-06 MaxDP=2.71D-05 DE=-8.42D-08 OVMax= 3.51D-05

 Cycle   8  Pass 1  IDiag  3:
 E=-0.185802686439729E-01 Delta-E=       -0.000000005795 Rises=F Damp=F
 DIIS: error= 8.86D-07 at cycle   8 NSaved=   8.
 NSaved= 8 IEnMin= 8 EnMin=-0.185802686439729E-01 IErMin= 8 ErrMin= 8.86D-07
 ErrMax= 8.86D-07  0.00D+00 EMaxC= 1.00D-01 BMatC= 3.90D-11 BMatP= 8.73D-10
 IDIUse=1 WtCom= 1.00D+00 WtEn= 0.00D+00
 Coeff-Com: -0.739D-04 0.340D-03-0.917D-03 0.247D-02-0.306D-01 0.155D+00
 Coeff-Com: -0.499D+00 0.137D+01
 Coeff:     -0.739D-04 0.340D-03-0.917D-03 0.247D-02-0.306D-01 0.155D+00
 Coeff:     -0.499D+00 0.137D+01
 Gap=     0.382 Goal=   None    Shift=    0.000
 RMSDP=4.20D-07 MaxDP=6.80D-06 DE=-5.80D-09 OVMax= 8.05D-06

 Cycle   9  Pass 1  IDiag  3:
 E=-0.185802688902186E-01 Delta-E=       -0.000000000246 Rises=F Damp=F
 DIIS: error= 2.59D-07 at cycle   9 NSaved=   9.
 NSaved= 9 IEnMin= 9 EnMin=-0.185802688902186E-01 IErMin= 9 ErrMin= 2.59D-07
 ErrMax= 2.59D-07  0.00D+00 EMaxC= 1.00D-01 BMatC= 3.48D-12 BMatP= 3.90D-11
 IDIUse=1 WtCom= 1.00D+00 WtEn= 0.00D+00
 Coeff-Com:  0.237D-04-0.105D-03 0.224D-03-0.459D-03 0.116D-01-0.666D-01
 Coeff-Com:  0.234D+00-0.829D+00 0.165D+01
 Coeff:      0.237D-04-0.105D-03 0.224D-03-0.459D-03 0.116D-01-0.666D-01
 Coeff:      0.234D+00-0.829D+00 0.165D+01
 Gap=     0.382 Goal=   None    Shift=    0.000
 RMSDP=1.40D-07 MaxDP=2.12D-06 DE=-2.46D-10 OVMax= 2.60D-06

 Cycle  10  Pass 1  IDiag  3:
 E=-0.185802689147181E-01 Delta-E=       -0.000000000024 Rises=F Damp=F
 DIIS: error= 6.08D-08 at cycle  10 NSaved=  10.
 NSaved=10 IEnMin=10 EnMin=-0.185802689147181E-01 IErMin=10 ErrMin= 6.08D-08
 ErrMax= 6.08D-08  0.00D+00 EMaxC= 1.00D-01 BMatC= 2.24D-13 BMatP= 3.48D-12
 IDIUse=1 WtCom= 1.00D+00 WtEn= 0.00D+00
 Coeff-Com: -0.339D-05 0.136D-04-0.623D-05-0.184D-04-0.312D-02 0.196D-01
 Coeff-Com: -0.716D-01 0.283D+00-0.781D+00 0.155D+01
 Coeff:     -0.339D-05 0.136D-04-0.623D-05-0.184D-04-0.312D-02 0.196D-01
 Coeff:     -0.716D-01 0.283D+00-0.781D+00 0.155D+01
 Gap=     0.382 Goal=   None    Shift=    0.000
 RMSDP=3.69D-08 MaxDP=4.90D-07 DE=-2.45D-11 OVMax= 5.68D-07

 Cycle  11  Pass 1  IDiag  3:
 E=-0.185802689157413E-01 Delta-E=       -0.000000000001 Rises=F Damp=F
 DIIS: error= 1.16D-08 at cycle  11 NSaved=  11.
 NSaved=11 IEnMin=11 EnMin=-0.185802689157413E-01 IErMin=11 ErrMin= 1.16D-08
 ErrMax= 1.16D-08  0.00D+00 EMaxC= 1.00D-01 BMatC= 7.36D-15 BMatP= 2.24D-13
 IDIUse=1 WtCom= 1.00D+00 WtEn= 0.00D+00
 Coeff-Com:  0.308D-06-0.692D-06-0.910D-05 0.357D-04 0.844D-03-0.566D-02
 Coeff-Com:  0.212D-01-0.866D-01 0.260D+00-0.631D+00 0.144D+01
 Coeff:      0.308D-06-0.692D-06-0.910D-05 0.357D-04 0.844D-03-0.566D-02
 Coeff:      0.212D-01-0.866D-01 0.260D+00-0.631D+00 0.144D+01
 Gap=     0.382 Goal=   None    Shift=    0.000
 RMSDP=5.45D-09 MaxDP=7.36D-08 DE=-1.02D-12 OVMax= 3.87D-08

 Cycle  12  Pass 2  IDiag  1:
 SCF Done:  E(RPM3) = -0.185802689157E-01 A.U. after   12 cycles
            NFock= 11  Conv=0.54D-08     -V/T= 0.9998
 KE=-7.902140812138D+01 PE=-4.853334299353D+02 EE= 2.628201428125D+02
 Leave Link  502 at Tue Sep  6 13:42:15 2022, MaxMem=   131072000 cpu:               0.0 elap:               0.0
 (Enter /opt/g16/l601.exe)
 Copying SCF densities to generalized density rwf, IOpCl= 0 IROHF=0.

 **********************************************************************

            Population analysis using the SCF density.

 **********************************************************************

 Orbital symmetries:
       Occupied  (A) (A) (A) (A) (A) (A) (A) (A) (A) (A) (A) (A)
                 (A) (A) (A) (A) (A) (A) (A) (A) (A) (A) (A) (A)
                 (A) (A) (A) (A) (A)
       Virtual   (A) (A) (A) (A) (A) (A) (A) (A) (A) (A) (A) (A)
                 (A) (A) (A) (A) (A) (A) (A) (A) (A) (A) (A) (A)
                 (A) (A) (A) (A) (A)
 The electronic state is 1-A.
 Alpha  occ. eigenvalues --   -1.45157  -1.35156  -1.18701  -1.09695  -1.01338
 Alpha  occ. eigenvalues --   -0.95332  -0.86531  -0.80458  -0.66207  -0.64358
 Alpha  occ. eigenvalues --   -0.60599  -0.60187  -0.57542  -0.55390  -0.55086
 Alpha  occ. eigenvalues --   -0.54088  -0.51599  -0.50241  -0.48899  -0.48645
 Alpha  occ. eigenvalues --   -0.47865  -0.47724  -0.47389  -0.46644  -0.44736
 Alpha  occ. eigenvalues --   -0.43858  -0.42826  -0.34969  -0.34508
 Alpha virt. eigenvalues --    0.03687   0.04025   0.11379   0.12338   0.13068
 Alpha virt. eigenvalues --    0.13784   0.13938   0.14400   0.14888   0.15088
 Alpha virt. eigenvalues --    0.15451   0.15706   0.16045   0.16165   0.16411
 Alpha virt. eigenvalues --    0.16458   0.16519   0.16697   0.16766   0.16987
 Alpha virt. eigenvalues --    0.17035   0.17090   0.17557   0.17806   0.18149
 Alpha virt. eigenvalues --    0.20677   0.21031   0.22309   0.22568
          Condensed to atoms (all electrons):
               1          2          3          4          5          6
     1  C    4.050894   0.000000   0.000000   0.000000   0.000000   0.000000
     2  H    0.000000   0.945986   0.000000   0.000000   0.000000   0.000000
     3  H    0.000000   0.000000   0.944397   0.000000   0.000000   0.000000
     4  C    0.000000   0.000000   0.000000   4.118077   0.000000   0.000000
     5  C    0.000000   0.000000   0.000000   0.000000   4.070011   0.000000
     6  H    0.000000   0.000000   0.000000   0.000000   0.000000   0.954633
     7  H    0.000000   0.000000   0.000000   0.000000   0.000000   0.000000
     8  H    0.000000   0.000000   0.000000   0.000000   0.000000   0.000000
     9  C    0.000000   0.000000   0.000000   0.000000   0.000000   0.000000
    10  H    0.000000   0.000000   0.000000   0.000000   0.000000   0.000000
    11  C    0.000000   0.000000   0.000000   0.000000   0.000000   0.000000
    12  H    0.000000   0.000000   0.000000   0.000000   0.000000   0.000000
    13  H    0.000000   0.000000   0.000000   0.000000   0.000000   0.000000
    14  H    0.000000   0.000000   0.000000   0.000000   0.000000   0.000000
    15  C    0.000000   0.000000   0.000000   0.000000   0.000000   0.000000
    16  H    0.000000   0.000000   0.000000   0.000000   0.000000   0.000000
    17  H    0.000000   0.000000   0.000000   0.000000   0.000000   0.000000
    18  H    0.000000   0.000000   0.000000   0.000000   0.000000   0.000000
    19  C    0.000000   0.000000   0.000000   0.000000   0.000000   0.000000
    20  C    0.000000   0.000000   0.000000   0.000000   0.000000   0.000000
    21  H    0.000000   0.000000   0.000000   0.000000   0.000000   0.000000
    22  H    0.000000   0.000000   0.000000   0.000000   0.000000   0.000000
    23  H    0.000000   0.000000   0.000000   0.000000   0.000000   0.000000
    24  C    0.000000   0.000000   0.000000   0.000000   0.000000   0.000000
    25  H    0.000000   0.000000   0.000000   0.000000   0.000000   0.000000
    26  C    0.000000   0.000000   0.000000   0.000000   0.000000   0.000000
    27  H    0.000000   0.000000   0.000000   0.000000   0.000000   0.000000
    28  H    0.000000   0.000000   0.000000   0.000000   0.000000   0.000000
               7          8          9         10         11         12
     1  C    0.000000   0.000000   0.000000   0.000000   0.000000   0.000000
     2  H    0.000000   0.000000   0.000000   0.000000   0.000000   0.000000
     3  H    0.000000   0.000000   0.000000   0.000000   0.000000   0.000000
     4  C    0.000000   0.000000   0.000000   0.000000   0.000000   0.000000
     5  C    0.000000   0.000000   0.000000   0.000000   0.000000   0.000000
     6  H    0.000000   0.000000   0.000000   0.000000   0.000000   0.000000
     7  H    0.955808   0.000000   0.000000   0.000000   0.000000   0.000000
     8  H    0.000000   0.957037   0.000000   0.000000   0.000000   0.000000
     9  C    0.000000   0.000000   4.161629   0.000000   0.000000   0.000000
    10  H    0.000000   0.000000   0.000000   0.903877   0.000000   0.000000
    11  C    0.000000   0.000000   0.000000   0.000000   4.063822   0.000000
    12  H    0.000000   0.000000   0.000000   0.000000   0.000000   0.957850
    13  H    0.000000   0.000000   0.000000   0.000000   0.000000   0.000000
    14  H    0.000000   0.000000   0.000000   0.000000   0.000000   0.000000
    15  C    0.000000   0.000000   0.000000   0.000000   0.000000   0.000000
    16  H    0.000000   0.000000   0.000000   0.000000   0.000000   0.000000
    17  H    0.000000   0.000000   0.000000   0.000000   0.000000   0.000000
    18  H    0.000000   0.000000   0.000000   0.000000   0.000000   0.000000
    19  C    0.000000   0.000000   0.000000   0.000000   0.000000   0.000000
    20  C    0.000000   0.000000   0.000000   0.000000   0.000000   0.000000
    21  H    0.000000   0.000000   0.000000   0.000000   0.000000   0.000000
    22  H    0.000000   0.000000   0.000000   0.000000   0.000000   0.000000
    23  H    0.000000   0.000000   0.000000   0.000000   0.000000   0.000000
    24  C    0.000000   0.000000   0.000000   0.000000   0.000000   0.000000
    25  H    0.000000   0.000000   0.000000   0.000000   0.000000   0.000000
    26  C    0.000000   0.000000   0.000000   0.000000   0.000000   0.000000
    27  H    0.000000   0.000000   0.000000   0.000000   0.000000   0.000000
    28  H    0.000000   0.000000   0.000000   0.000000   0.000000   0.000000
              13         14         15         16         17         18
     1  C    0.000000   0.000000   0.000000   0.000000   0.000000   0.000000
     2  H    0.000000   0.000000   0.000000   0.000000   0.000000   0.000000
     3  H    0.000000   0.000000   0.000000   0.000000   0.000000   0.000000
     4  C    0.000000   0.000000   0.000000   0.000000   0.000000   0.000000
     5  C    0.000000   0.000000   0.000000   0.000000   0.000000   0.000000
     6  H    0.000000   0.000000   0.000000   0.000000   0.000000   0.000000
     7  H    0.000000   0.000000   0.000000   0.000000   0.000000   0.000000
     8  H    0.000000   0.000000   0.000000   0.000000   0.000000   0.000000
     9  C    0.000000   0.000000   0.000000   0.000000   0.000000   0.000000
    10  H    0.000000   0.000000   0.000000   0.000000   0.000000   0.000000
    11  C    0.000000   0.000000   0.000000   0.000000   0.000000   0.000000
    12  H    0.000000   0.000000   0.000000   0.000000   0.000000   0.000000
    13  H    0.956657   0.000000   0.000000   0.000000   0.000000   0.000000
    14  H    0.000000   0.959298   0.000000   0.000000   0.000000   0.000000
    15  C    0.000000   0.000000   4.068414   0.000000   0.000000   0.000000
    16  H    0.000000   0.000000   0.000000   0.954706   0.000000   0.000000
    17  H    0.000000   0.000000   0.000000   0.000000   0.953436   0.000000
    18  H    0.000000   0.000000   0.000000   0.000000   0.000000   0.956153
    19  C    0.000000   0.000000   0.000000   0.000000   0.000000   0.000000
    20  C    0.000000   0.000000   0.000000   0.000000   0.000000   0.000000
    21  H    0.000000   0.000000   0.000000   0.000000   0.000000   0.000000
    22  H    0.000000   0.000000   0.000000   0.000000   0.000000   0.000000
    23  H    0.000000   0.000000   0.000000   0.000000   0.000000   0.000000
    24  C    0.000000   0.000000   0.000000   0.000000   0.000000   0.000000
    25  H    0.000000   0.000000   0.000000   0.000000   0.000000   0.000000
    26  C    0.000000   0.000000   0.000000   0.000000   0.000000   0.000000
    27  H    0.000000   0.000000   0.000000   0.000000   0.000000   0.000000
    28  H    0.000000   0.000000   0.000000   0.000000   0.000000   0.000000
              19         20         21         22         23         24
     1  C    0.000000   0.000000   0.000000   0.000000   0.000000   0.000000
     2  H    0.000000   0.000000   0.000000   0.000000   0.000000   0.000000
     3  H    0.000000   0.000000   0.000000   0.000000   0.000000   0.000000
     4  C    0.000000   0.000000   0.000000   0.000000   0.000000   0.000000
     5  C    0.000000   0.000000   0.000000   0.000000   0.000000   0.000000
     6  H    0.000000   0.000000   0.000000   0.000000   0.000000   0.000000
     7  H    0.000000   0.000000   0.000000   0.000000   0.000000   0.000000
     8  H    0.000000   0.000000   0.000000   0.000000   0.000000   0.000000
     9  C    0.000000   0.000000   0.000000   0.000000   0.000000   0.000000
    10  H    0.000000   0.000000   0.000000   0.000000   0.000000   0.000000
    11  C    0.000000   0.000000   0.000000   0.000000   0.000000   0.000000
    12  H    0.000000   0.000000   0.000000   0.000000   0.000000   0.000000
    13  H    0.000000   0.000000   0.000000   0.000000   0.000000   0.000000
    14  H    0.000000   0.000000   0.000000   0.000000   0.000000   0.000000
    15  C    0.000000   0.000000   0.000000   0.000000   0.000000   0.000000
    16  H    0.000000   0.000000   0.000000   0.000000   0.000000   0.000000
    17  H    0.000000   0.000000   0.000000   0.000000   0.000000   0.000000
    18  H    0.000000   0.000000   0.000000   0.000000   0.000000   0.000000
    19  C    4.117355   0.000000   0.000000   0.000000   0.000000   0.000000
    20  C    0.000000   4.068844   0.000000   0.000000   0.000000   0.000000
    21  H    0.000000   0.000000   0.955608   0.000000   0.000000   0.000000
    22  H    0.000000   0.000000   0.000000   0.958952   0.000000   0.000000
    23  H    0.000000   0.000000   0.000000   0.000000   0.955462   0.000000
    24  C    0.000000   0.000000   0.000000   0.000000   0.000000   4.158424
    25  H    0.000000   0.000000   0.000000   0.000000   0.000000   0.000000
    26  C    0.000000   0.000000   0.000000   0.000000   0.000000   0.000000
    27  H    0.000000   0.000000   0.000000   0.000000   0.000000   0.000000
    28  H    0.000000   0.000000   0.000000   0.000000   0.000000   0.000000
              25         26         27         28
     1  C    0.000000   0.000000   0.000000   0.000000
     2  H    0.000000   0.000000   0.000000   0.000000
     3  H    0.000000   0.000000   0.000000   0.000000
     4  C    0.000000   0.000000   0.000000   0.000000
     5  C    0.000000   0.000000   0.000000   0.000000
     6  H    0.000000   0.000000   0.000000   0.000000
     7  H    0.000000   0.000000   0.000000   0.000000
     8  H    0.000000   0.000000   0.000000   0.000000
     9  C    0.000000   0.000000   0.000000   0.000000
    10  H    0.000000   0.000000   0.000000   0.000000
    11  C    0.000000   0.000000   0.000000   0.000000
    12  H    0.000000   0.000000   0.000000   0.000000
    13  H    0.000000   0.000000   0.000000   0.000000
    14  H    0.000000   0.000000   0.000000   0.000000
    15  C    0.000000   0.000000   0.000000   0.000000
    16  H    0.000000   0.000000   0.000000   0.000000
    17  H    0.000000   0.000000   0.000000   0.000000
    18  H    0.000000   0.000000   0.000000   0.000000
    19  C    0.000000   0.000000   0.000000   0.000000
    20  C    0.000000   0.000000   0.000000   0.000000
    21  H    0.000000   0.000000   0.000000   0.000000
    22  H    0.000000   0.000000   0.000000   0.000000
    23  H    0.000000   0.000000   0.000000   0.000000
    24  C    0.000000   0.000000   0.000000   0.000000
    25  H    0.904553   0.000000   0.000000   0.000000
    26  C    0.000000   4.057137   0.000000   0.000000
    27  H    0.000000   0.000000   0.943855   0.000000
    28  H    0.000000   0.000000   0.000000   0.947125
 Mulliken charges:
               1
     1  C   -0.050894
     2  H    0.054014
     3  H    0.055603
     4  C   -0.118077
     5  C   -0.070011
     6  H    0.045367
     7  H    0.044192
     8  H    0.042963
     9  C   -0.161629
    10  H    0.096123
    11  C   -0.063822
    12  H    0.042150
    13  H    0.043343
    14  H    0.040702
    15  C   -0.068414
    16  H    0.045294
    17  H    0.046564
    18  H    0.043847
    19  C   -0.117355
    20  C   -0.068844
    21  H    0.044392
    22  H    0.041048
    23  H    0.044538
    24  C   -0.158424
    25  H    0.095447
    26  C   -0.057137
    27  H    0.056145
    28  H    0.052875
 Sum of Mulliken charges =  -0.00000
 Mulliken charges with hydrogens summed into heavy atoms:
               1
     1  C    0.058724
     4  C   -0.118077
     5  C    0.062511
     9  C   -0.065506
    11  C    0.062373
    15  C    0.067291
    19  C   -0.117355
    20  C    0.061133
    24  C   -0.062977
    26  C    0.051883
 Charge=              0.0000 electrons
 Dipole moment (field-independent basis, Debye):
    X=             -0.1870    Y=              0.0877    Z=              0.2392  Tot=              0.3160
 N-N= 3.015161149753D+02 E-N=-4.853334301291D+02  KE=-7.902140812138D+01
 Leave Link  601 at Tue Sep  6 13:42:15 2022, MaxMem=   131072000 cpu:               0.0 elap:               0.0
 (Enter /opt/g16/l701.exe)
 ... and contract with generalized density number  0.
 Compute integral first derivatives.
 Leave Link  701 at Tue Sep  6 13:42:15 2022, MaxMem=   131072000 cpu:               0.0 elap:               0.0
 (Enter /opt/g16/l702.exe)
 L702 exits ... SP integral derivatives will be done elsewhere.
 Leave Link  702 at Tue Sep  6 13:42:15 2022, MaxMem=   131072000 cpu:               0.0 elap:               0.0
 (Enter /opt/g16/l703.exe)
 Integral derivatives from FoFJK, PRISM(SPDF).
 Compute integral first derivatives, UseDBF=F ICtDFT=           0.
 Calling FoFJK, ICntrl=      2127 FMM=F ISym2X=0 I1Cent= 0 IOpClX= 0 NMat=1 NMatS=1 NMatT=0.
 FoFJK:  IHMeth= 9 ICntrl=    2127 DoSepK=F KAlg= 0 I1Cent=           0 FoldK=F
 IRaf=         0 NMat=       1 IRICut=       1 DoRegI=T DoRafI=F ISym2E= 0 IDoP0=3 IntGTp=3.
 FoFCou: FMM=F IPFlag=           0 FMFlag=      100000 FMFlg1=         800
         NFxFlg=           0 DoJE=F BraDBF=F KetDBF=F FulRan=T
         wScrn=  0.000000 ICntrl=      2127 IOpCl=  0 I1Cent=           0 NGrid=           0
         NMat0=    1 NMatS0=      1 NMatT0=    0 NMatD0=    1 NMtDS0=    0 NMtDT0=    0
 Symmetry not used in FoFCou.
 Leave Link  703 at Tue Sep  6 13:42:15 2022, MaxMem=   131072000 cpu:               0.0 elap:               0.0
 (Enter /opt/g16/l716.exe)
 Dipole        =-7.35523814D-02 3.45073789D-02 9.41042087D-02
 ***** Axes restored to original set *****
 -------------------------------------------------------------------
 Center     Atomic                   Forces (Hartrees/Bohr)
 Number     Number              X              Y              Z
 -------------------------------------------------------------------
      1        6           0.010959069   -0.004690702    0.011934509
      2        1          -0.000167563   -0.002194809   -0.005895288
      3        1          -0.001444057    0.006084699   -0.001043970
      4        6           0.000146923   -0.000760111    0.002849568
      5        6          -0.010733724   -0.008133662    0.012281291
      6        1           0.005027469   -0.002254866    0.004023223
      7        1          -0.000298489   -0.000629495   -0.001883023
      8        1          -0.001475337    0.001604985   -0.001106018
      9        6           0.004369963    0.006693921   -0.012941302
     10        1          -0.005392968   -0.002657889    0.003716425
     11        6          -0.017168337    0.000627724   -0.006512194
     12        1           0.001092610    0.003600161   -0.004849830
     13        1           0.000855343    0.001510180    0.001609261
     14        1           0.001004246   -0.002012041    0.000946321
     15        6          -0.001571394   -0.011331506   -0.011792452
     16        1          -0.001166513   -0.000192403    0.001571527
     17        1           0.004754307   -0.001880744    0.000467797
     18        1          -0.001886730    0.001483001   -0.000333740
     19        6           0.004249657    0.002115223    0.000999475
     20        6           0.014707128    0.000440632    0.004709943
     21        1          -0.001424994    0.000435864    0.001172885
     22        1          -0.000156546   -0.001331175   -0.001291304
     23        1          -0.001141732    0.001516499   -0.000105689
     24        6           0.002239818    0.009769371    0.008520417
     25        1          -0.000903587   -0.003125249   -0.004130529
     26        6          -0.006873567    0.006597522   -0.011912657
     27        1          -0.000084228    0.005180437    0.007644976
     28        1           0.002483232   -0.006465567    0.001350379
 -------------------------------------------------------------------
 Cartesian Forces:  Max     0.017168337 RMS     0.005539166
 Leave Link  716 at Tue Sep  6 13:42:15 2022, MaxMem=   131072000 cpu:               0.0 elap:               0.0
 (Enter /opt/g16/l103.exe)

 GradGradGradGradGradGradGradGradGradGradGradGradGradGradGradGradGradGrad
 Berny optimization.
 FormGI is forming the generalized inverse of G from B-inverse, IUseBI=4.
 GSVD:  received Info=                   1 from GESDD.
 Internal  Forces:  Max     0.024269555 RMS     0.005729315
 Search for a local minimum.
 Step number   1 out of a maximum of  138
 All quantities printed in internal units (Hartrees-Bohrs-Radians)
 RMS Force = .57293D-02 SwitMx=.10000D-02 MixMth= 1
 Mixed Optimization -- RFO/linear search
 Second derivative matrix not updated -- first step.
 ITU=  0
     Eigenvalues ---    0.00296   0.00422   0.00639   0.00677   0.00679
     Eigenvalues ---    0.00714   0.00803   0.01185   0.01287   0.01560
     Eigenvalues ---    0.01644   0.02766   0.02785   0.03499   0.04139
     Eigenvalues ---    0.05252   0.05380   0.06879   0.06960   0.06979
     Eigenvalues ---    0.07091   0.07300   0.07307   0.07347   0.07512
     Eigenvalues ---    0.09253   0.10117   0.12744   0.13337   0.15998
     Eigenvalues ---    0.16000   0.16000   0.16000   0.16000   0.16000
     Eigenvalues ---    0.16000   0.16000   0.16000   0.16000   0.16000
     Eigenvalues ---    0.16000   0.16000   0.16000   0.21891   0.22000
     Eigenvalues ---    0.22000   0.22051   0.24998   0.24999   0.25000
     Eigenvalues ---    0.25000   0.28919   0.29794   0.31393   0.31680
     Eigenvalues ---    0.31699   0.31970   0.32677   0.33821   0.33836
     Eigenvalues ---    0.33966   0.34185   0.34193   0.34232   0.34237
     Eigenvalues ---    0.34238   0.34239   0.34242   0.34271   0.34300
     Eigenvalues ---    0.34318   0.34550   0.34671   0.34715   0.34777
     Eigenvalues ---    0.35032   0.55278   0.55580
 RFO step:  Lambda=-1.32058975D-02 EMin= 2.96011507D-03
 Linear search not attempted -- first point.
 Iteration  1 RMS(Cart)=  0.11007465 RMS(Int)=  0.00157935
 Iteration  2 RMS(Cart)=  0.00250365 RMS(Int)=  0.00007263
 Iteration  3 RMS(Cart)=  0.00000217 RMS(Int)=  0.00007261
 Iteration  4 RMS(Cart)=  0.00000000 RMS(Int)=  0.00007261
 ITry= 1 IFail=0 DXMaxC= 3.74D-01 DCOld= 1.00D+10 DXMaxT= 3.00D-01 DXLimC= 3.00D+00 Rises=F
 Variable       Old X    -DE/DX   Delta X   Delta X   Delta X     New X
                                 (Linear)    (Quad)   (Total)
    R1        2.07633   0.00623   0.00000   0.01772   0.01772   2.09405
    R2        2.07608   0.00629   0.00000   0.01790   0.01790   2.09398
    R3        2.88377  -0.02261   0.00000  -0.07268  -0.07268   2.81109
    R4        2.90172  -0.01126   0.00000  -0.03724  -0.03724   2.86448
    R5        2.85269  -0.01786   0.00000  -0.05458  -0.05458   2.79810
    R6        2.54886  -0.02427   0.00000  -0.04288  -0.04288   2.50598
    R7        2.06213   0.00538   0.00000   0.01495   0.01495   2.07707
    R8        2.06931   0.00196   0.00000   0.00550   0.00550   2.07481
    R9        2.07019   0.00220   0.00000   0.00619   0.00619   2.07638
   R10        2.05623   0.00682   0.00000   0.01877   0.01877   2.07500
   R11        2.82923  -0.01598   0.00000  -0.04699  -0.04699   2.78224
   R12        2.06141   0.00536   0.00000   0.01487   0.01487   2.07628
   R13        2.06796   0.00229   0.00000   0.00641   0.00641   2.07438
   R14        2.06932   0.00236   0.00000   0.00665   0.00665   2.07597
   R15        2.06876   0.00193   0.00000   0.00542   0.00542   2.07418
   R16        2.06412   0.00426   0.00000   0.01187   0.01187   2.07600
   R17        2.07006   0.00212   0.00000   0.00596   0.00596   2.07602
   R18        2.84199  -0.01551   0.00000  -0.04659  -0.04659   2.79539
   R19        2.84699  -0.01283   0.00000  -0.03886  -0.03886   2.80813
   R20        2.54620  -0.01881   0.00000  -0.03305  -0.03305   2.51315
   R21        2.06924   0.00166   0.00000   0.00467   0.00467   2.07391
   R22        2.06940   0.00186   0.00000   0.00523   0.00523   2.07463
   R23        2.06929   0.00169   0.00000   0.00476   0.00476   2.07405
   R24        2.06039   0.00522   0.00000   0.01447   0.01447   2.07486
   R25        2.84734  -0.01683   0.00000  -0.05101  -0.05101   2.79633
   R26        2.06828   0.00907   0.00000   0.02546   0.02546   2.09374
   R27        2.07388   0.00701   0.00000   0.01988   0.01988   2.09376
    A1        1.85999  -0.00148   0.00000   0.00301   0.00274   1.86273
    A2        1.87728   0.00260   0.00000   0.00641   0.00648   1.88376
    A3        1.89148   0.00353   0.00000   0.01676   0.01659   1.90806
    A4        1.87986   0.00273   0.00000   0.00763   0.00771   1.88756
    A5        1.88871   0.00343   0.00000   0.01634   0.01618   1.90489
    A6        2.05744  -0.01023   0.00000  -0.04630  -0.04627   2.01117
    A7        1.96030   0.00602   0.00000   0.02288   0.02287   1.98317
    A8        2.16016   0.00025   0.00000   0.00095   0.00094   2.16109
    A9        2.16272  -0.00627   0.00000  -0.02380  -0.02381   2.13891
   A10        1.98821  -0.00596   0.00000  -0.03586  -0.03588   1.95233
   A11        1.92002   0.00111   0.00000   0.00523   0.00513   1.92515
   A12        1.92037   0.00138   0.00000   0.01056   0.01057   1.93094
   A13        1.87931   0.00158   0.00000   0.00444   0.00432   1.88363
   A14        1.86245   0.00273   0.00000   0.01771   0.01780   1.88025
   A15        1.89020  -0.00063   0.00000  -0.00065  -0.00072   1.88949
   A16        2.08171   0.00545   0.00000   0.02058   0.02056   2.10227
   A17        2.24068  -0.01469   0.00000  -0.06296  -0.06297   2.17771
   A18        1.96076   0.00924   0.00000   0.04245   0.04244   2.00320
   A19        1.99125  -0.00424   0.00000  -0.02656  -0.02658   1.96467
   A20        1.91487   0.00100   0.00000   0.00443   0.00432   1.91918
   A21        1.90835   0.00172   0.00000   0.01323   0.01324   1.92159
   A22        1.89018   0.00042   0.00000  -0.00356  -0.00368   1.88650
   A23        1.87096   0.00164   0.00000   0.01159   0.01168   1.88264
   A24        1.88508  -0.00038   0.00000   0.00214   0.00206   1.88714
   A25        1.88473   0.00082   0.00000   0.00094   0.00087   1.88560
   A26        1.89064  -0.00056   0.00000  -0.00264  -0.00265   1.88799
   A27        1.92162   0.00059   0.00000   0.00157   0.00153   1.92314
   A28        1.86361   0.00214   0.00000   0.01565   0.01570   1.87931
   A29        1.97956  -0.00363   0.00000  -0.02126  -0.02127   1.95829
   A30        1.92079   0.00077   0.00000   0.00656   0.00658   1.92736
   A31        1.99430   0.00328   0.00000   0.01250   0.01248   2.00678
   A32        2.18342  -0.00589   0.00000  -0.02234  -0.02235   2.16106
   A33        2.10542   0.00261   0.00000   0.00994   0.00992   2.11534
   A34        1.92357   0.00021   0.00000   0.00047   0.00046   1.92403
   A35        1.96069   0.00020   0.00000   0.00272   0.00271   1.96340
   A36        1.92491   0.00029   0.00000   0.00088   0.00088   1.92578
   A37        1.87874   0.00011   0.00000   0.00215   0.00215   1.88089
   A38        1.89483  -0.00091   0.00000  -0.00830  -0.00830   1.88653
   A39        1.87909   0.00005   0.00000   0.00171   0.00170   1.88079
   A40        2.06653   0.00571   0.00000   0.02458   0.02455   2.09108
   A41        2.22919  -0.01143   0.00000  -0.04897  -0.04900   2.18019
   A42        1.98732   0.00572   0.00000   0.02462   0.02459   2.01191
   A43        1.94406  -0.00561   0.00000  -0.02708  -0.02718   1.91688
   A44        1.92729   0.00155   0.00000   0.00095   0.00067   1.92796
   A45        1.91890   0.00146   0.00000   0.01046   0.01056   1.92946
   A46        1.94142   0.00097   0.00000  -0.00548  -0.00571   1.93571
   A47        1.87625   0.00241   0.00000   0.01613   0.01624   1.89249
   A48        1.85298  -0.00047   0.00000   0.00748   0.00745   1.86043
    D1        0.99282   0.00034   0.00000   0.00041   0.00030   0.99312
    D2       -2.15313   0.00051   0.00000   0.00772   0.00772  -2.14541
    D3       -1.00596  -0.00057   0.00000  -0.01003  -0.01003  -1.01599
    D4        2.13128  -0.00040   0.00000  -0.00271  -0.00262   2.12866
    D5        3.13580  -0.00009   0.00000  -0.00500  -0.00504   3.13076
    D6       -0.01014   0.00008   0.00000   0.00231   0.00237  -0.00777
    D7       -0.96790  -0.00159   0.00000  -0.01938  -0.01944  -0.98734
    D8       -3.13419   0.00004   0.00000   0.00637   0.00624  -3.12795
    D9        1.11005  -0.00119   0.00000  -0.00962  -0.00976   1.10029
   D10        1.04257   0.00030   0.00000   0.00140   0.00156   1.04413
   D11       -1.12372   0.00193   0.00000   0.02715   0.02724  -1.09648
   D12        3.12052   0.00070   0.00000   0.01116   0.01124   3.13176
   D13       -3.10368  -0.00059   0.00000  -0.00830  -0.00824  -3.11193
   D14        1.01321   0.00104   0.00000   0.01746   0.01744   1.03065
   D15       -1.02574  -0.00019   0.00000   0.00146   0.00144  -1.02430
   D16        3.03812   0.00086   0.00000   0.02020   0.02011   3.05822
   D17       -1.13327  -0.00040   0.00000   0.00500   0.00501  -1.12826
   D18        0.94781   0.00037   0.00000   0.01400   0.01405   0.96186
   D19       -0.09911   0.00067   0.00000   0.01280   0.01273  -0.08639
   D20        2.01268  -0.00059   0.00000  -0.00240  -0.00236   2.01032
   D21       -2.18942   0.00018   0.00000   0.00660   0.00667  -2.18274
   D22       -0.00957   0.00035   0.00000   0.00569   0.00576  -0.00381
   D23        3.12295   0.00067   0.00000   0.01646   0.01649   3.13944
   D24        3.12717   0.00057   0.00000   0.01397   0.01394   3.14111
   D25       -0.02349   0.00089   0.00000   0.02474   0.02467   0.00118
   D26       -0.13522   0.00081   0.00000   0.01422   0.01413  -0.12109
   D27        1.98896  -0.00087   0.00000  -0.00562  -0.00562   1.98334
   D28       -2.22984   0.00028   0.00000   0.00749   0.00754  -2.22229
   D29        2.99782   0.00110   0.00000   0.02433   0.02426   3.02208
   D30       -1.16119  -0.00057   0.00000   0.00448   0.00451  -1.15668
   D31        0.90321   0.00058   0.00000   0.01759   0.01767   0.92088
   D32        1.16498   0.00007   0.00000  -0.00899  -0.00897   1.15601
   D33       -1.98681   0.00040   0.00000   0.00282   0.00275  -1.98407
   D34       -3.00421  -0.00095   0.00000  -0.02128  -0.02118  -3.02539
   D35        0.12718  -0.00062   0.00000  -0.00947  -0.00947   0.11771
   D36       -0.91790  -0.00008   0.00000  -0.01081  -0.01079  -0.92869
   D37        2.21349   0.00024   0.00000   0.00100   0.00093   2.21442
   D38       -1.03964   0.00056   0.00000   0.01120   0.01128  -1.02836
   D39       -3.13460   0.00014   0.00000   0.00635   0.00643  -3.12818
   D40        1.05226  -0.00026   0.00000   0.00176   0.00183   1.05409
   D41        2.11165   0.00030   0.00000   0.00019   0.00011   2.11176
   D42        0.01669  -0.00012   0.00000  -0.00467  -0.00474   0.01194
   D43       -2.07963  -0.00051   0.00000  -0.00926  -0.00934  -2.08897
   D44       -3.12204  -0.00044   0.00000  -0.01013  -0.01007  -3.13211
   D45        0.03931  -0.00088   0.00000  -0.02616  -0.02613   0.01318
   D46        0.00875  -0.00009   0.00000   0.00238   0.00234   0.01109
   D47       -3.11309  -0.00054   0.00000  -0.01366  -0.01372  -3.12680
   D48       -1.81554   0.00036   0.00000   0.00175   0.00162  -1.81392
   D49        0.34276  -0.00101   0.00000  -0.02072  -0.02065   0.32211
   D50        2.36444   0.00036   0.00000  -0.00527  -0.00524   2.35920
   D51        1.34506  -0.00008   0.00000  -0.01372  -0.01383   1.33123
   D52       -2.77983  -0.00145   0.00000  -0.03619  -0.03610  -2.81593
   D53       -0.75815  -0.00008   0.00000  -0.02073  -0.02069  -0.77884
         Item               Value     Threshold  Converged?
 Maximum Force            0.024270     0.000450     NO 
 RMS     Force            0.005729     0.000300     NO 
 Maximum Displacement     0.373871     0.001800     NO 
 RMS     Displacement     0.110677     0.001200     NO 
 Predicted change in Energy=-6.951651D-03
 Lowest energy point so far.  Saving SCF results.
 GradGradGradGradGradGradGradGradGradGradGradGradGradGradGradGradGradGrad

 Leave Link  103 at Tue Sep  6 13:42:15 2022, MaxMem=   131072000 cpu:               0.0 elap:               0.0
 (Enter /opt/g16/l202.exe)
                          Input orientation:                          
 ---------------------------------------------------------------------
 Center     Atomic      Atomic             Coordinates (Angstroms)
 Number     Number       Type             X           Y           Z
 ---------------------------------------------------------------------
      1          6           0        0.535439    0.347049   -0.858536
      2          1           0        0.422983   -0.156537   -1.839196
      3          1           0        0.160881    1.382009   -0.986687
      4          6           0        1.987473    0.415542   -0.542703
      5          6           0        2.788299    1.106147   -1.579137
      6          1           0        3.840033    1.214702   -1.278840
      7          1           0        2.762172    0.541053   -2.520127
      8          1           0        2.389394    2.111932   -1.770373
      9          6           0        2.528521   -0.092069    0.556460
     10          1           0        1.901627   -0.597167    1.303171
     11          6           0        3.961841   -0.038576    0.888712
     12          1           0        4.570256    0.364834    0.067568
     13          1           0        4.118453    0.594412    1.771758
     14          1           0        4.333566   -1.046085    1.120157
     15          6           0       -2.493293    1.399267    1.244374
     16          1           0       -3.029299    1.117217    2.159739
     17          1           0       -1.432249    1.528989    1.497784
     18          1           0       -2.877366    2.372139    0.908379
     19          6           0       -2.696659    0.374300    0.197334
     20          6           0       -4.090685    0.257162   -0.303821
     21          1           0       -4.771597    0.013129    0.521552
     22          1           0       -4.197949   -0.523245   -1.068497
     23          1           0       -4.418055    1.206706   -0.746294
     24          6           0       -1.726064   -0.400293   -0.278675
     25          1           0       -1.949348   -1.134846   -1.063601
     26          6           0       -0.317088   -0.366036    0.172201
     27          1           0       -0.229507    0.131310    1.158379
     28          1           0        0.031619   -1.408446    0.311420
 ---------------------------------------------------------------------
                    Distance matrix (angstroms):
                    1          2          3          4          5
     1  C    0.000000
     2  H    1.108124   0.000000
     3  H    1.108088   1.778368   0.000000
     4  C    1.487564   2.110876   2.113674   0.000000
     5  C    2.484124   2.693829   2.707474   1.480693   0.000000
     6  H    3.442357   3.724315   3.694524   2.147680   1.099140
     7  H    2.785115   2.534187   3.134542   2.127467   1.097941
     8  H    2.717243   3.002908   2.472492   2.132241   1.098772
     9  C    2.483428   3.190080   3.187464   1.326107   2.462514
    10  H    2.725984   3.500716   3.491530   2.107179   3.463404
    11  C    3.865464   4.469777   4.470177   2.480585   2.962747
    12  H    4.139775   4.594284   4.646362   2.654386   2.537036
    13  H    4.451699   5.221054   4.887913   3.151158   3.641384
    14  H    4.503534   4.984147   5.267422   3.225773   3.782346
    15  C    3.834398   4.520354   3.467358   4.923274   5.996111
    16  H    4.733972   5.434352   4.488581   5.741389   6.915472
    17  H    3.289532   4.173526   2.955041   4.134955   5.240159
    18  H    4.343986   4.983541   3.715183   5.440641   6.315871
    19  C    3.400303   3.763165   3.253140   4.742410   5.811730
    20  C    4.660130   4.785575   4.450551   6.084913   7.047526
    21  H    5.493703   5.708378   5.336474   6.854167   7.922096
    22  H    4.817308   4.699093   4.757740   6.278315   7.191893
    23  H    5.028788   5.146700   4.588592   6.457413   7.255017
    24  C    2.451358   2.667030   2.690436   3.811254   4.933562
    25  H    2.900384   2.680782   3.285352   4.263050   5.266224
    26  C    1.515820   2.153442   2.151078   2.536327   3.857192
    27  H    2.167863   3.081242   2.513555   2.808820   4.189445
    28  H    2.168961   2.519045   3.080329   2.807458   4.182901
                    6          7          8          9         10
     6  H    0.000000
     7  H    1.776620   0.000000
     8  H    1.775101   1.780099   0.000000
     9  C    2.606921   3.149733   3.207978   0.000000
    10  H    3.702306   4.080893   4.125992   1.098043   0.000000
    11  C    2.506755   3.659967   3.764041   1.472297   2.174462
    12  H    1.751660   3.161706   3.344628   2.148594   3.094147
    13  H    3.125448   4.501402   4.223648   2.115677   2.560030
    14  H    3.333154   4.270826   4.701919   2.118039   2.479788
    15  C    6.819948   6.521343   5.782493   5.283553   4.827477
    16  H    7.682516   7.468215   6.767382   5.909504   5.290260
    17  H    5.967024   5.891757   5.062176   4.381966   3.958932
    18  H    7.158704   6.849228   5.914574   5.951453   5.640161
    19  C    6.753792   6.100101   5.723562   5.258230   4.828132
    20  C    8.047599   7.207930   6.897997   6.684006   6.262596
    21  H    8.879491   8.141756   7.806259   7.300960   6.746503
    22  H    8.226413   7.189106   7.129507   6.933383   6.544853
    23  H    8.275245   7.425984   6.943308   7.186021   6.884232
    24  C    5.881325   5.104361   5.047121   4.346717   3.962466
    25  H    6.251690   5.208505   5.464958   4.874760   4.552001
    26  C    4.678238   4.189664   4.151983   2.884477   2.501042
    27  H    4.865689   4.759142   4.399897   2.831771   2.256851
    28  H    4.890178   4.390230   4.720807   2.833269   2.266864
                   11         12         13         14         15
    11  C    0.000000
    12  H    1.098720   0.000000
    13  H    1.097712   1.777947   0.000000
    14  H    1.098554   1.776136   1.778226   0.000000
    15  C    6.622888   7.235237   6.681400   7.252668   0.000000
    16  H    7.199125   7.918112   7.177340   7.744184   1.097610
    17  H    5.650172   6.279398   5.635493   6.325997   1.098571
    18  H    7.251668   7.759079   7.269609   7.982897   1.098583
    19  C    6.707018   7.268079   6.998072   7.231401   1.479259
    20  C    8.145722   8.669569   8.474179   8.642580   2.500595
    21  H    8.741305   9.359488   8.996326   9.186090   2.763063
    22  H    8.405222   8.885986   8.858823   8.823283   3.457062
    23  H    8.628246   9.064262   8.921180   9.227653   2.775706
    24  C    5.817723   6.352082   6.273125   6.252432   2.479261
    25  H    6.321035   6.784822   6.917210   6.652194   3.470497
    26  C    4.350845   4.942798   4.811971   4.794755   3.000286
    27  H    4.203449   4.927690   4.415365   4.712681   2.596120
    28  H    4.201958   4.878853   4.779773   4.392278   3.889581
                   16         17         18         19         20
    16  H    0.000000
    17  H    1.777163   0.000000
    18  H    1.778711   1.773884   0.000000
    19  C    2.124525   2.150165   2.128286   0.000000
    20  C    2.816978   3.454072   2.722995   1.485997   0.000000
    21  H    2.634059   3.795010   3.050028   2.130946   1.097466
    22  H    3.805044   4.294946   3.746362   2.159117   1.097847
    23  H    3.222061   3.748972   2.543599   2.132261   1.097537
    24  C    3.153905   2.638990   3.228154   1.329900   2.454447
    25  H    4.077744   3.731501   4.129027   2.103795   2.664634
    26  C    3.675110   2.567465   3.820286   2.492205   3.854219
    27  H    3.132662   1.874911   3.477783   2.658851   4.130686
    28  H    4.377725   3.489827   4.807429   3.261089   4.488448
                   21         22         23         24         25
    21  H    0.000000
    22  H    1.773421   0.000000
    23  H    1.776809   1.773412   0.000000
    24  C    3.175933   2.597913   3.169847   0.000000
    25  H    3.434479   2.330298   3.417319   1.097967   0.000000
    26  C    4.484246   4.077393   4.487213   1.479756   2.186903
    27  H    4.588038   4.597385   4.725271   2.141824   3.081914
    28  H    5.013573   4.536188   5.268527   2.110458   2.426884
                   26         27         28
    26  C    0.000000
[...]
    26  C    4.354690   4.924407   4.692427   4.946106   3.007707
    27  H    4.491580   5.018416   4.605821   5.248820   2.551705
    28  H    3.916256   4.689552   4.198115   4.343324   3.629062
                   16         17         18         19         20
    16  H    0.000000
    17  H    1.777127   0.000000
    18  H    1.773348   1.777631   0.000000
    19  C    2.136267   2.156436   2.139304   0.000000
    20  C    2.828235   3.465285   2.746122   1.488048   0.000000
    21  H    2.648197   3.806776   3.071955   2.138206   1.098536
    22  H    3.818140   4.307150   3.770631   2.164032   1.098037
    23  H    3.234142   3.772071   2.576177   2.138403   1.098618
    24  C    3.176356   2.646242   3.242718   1.339816   2.463682
    25  H    4.099791   3.739737   4.148129   2.113473   2.674890
    26  C    3.693296   2.564637   3.823018   2.502283   3.866424
    27  H    3.237482   1.767865   3.314942   2.648142   4.131768
    28  H    4.050462   3.183813   4.592082   3.139461   4.418977
                   21         22         23         24         25
    21  H    0.000000
    22  H    1.772306   0.000000
    23  H    1.772095   1.772198   0.000000
    24  C    3.192795   2.608274   3.182167   0.000000
    25  H    3.450831   2.343359   3.429484   1.098382   0.000000
    26  C    4.503819   4.093773   4.502996   1.485705   2.196022
    27  H    4.680155   4.616620   4.638107   2.151263   3.108756
    28  H    4.872213   4.567763   5.221733   2.128442   2.613028
                   26         27         28
    26  C    0.000000
    27  H    1.113282   0.000000
    28  H    1.114668   1.772993   0.000000
 Stoichiometry    C10H18
 Framework group  C1[X(C10H18)]
 Deg. of freedom    78
 Full point group                 C1      NOp   1
 RotChk:  IX=0 Diff= 2.22D-15
 Largest Abelian subgroup         C1      NOp   1
 Largest concise Abelian subgroup C1      NOp   1
                         Standard orientation:                         
 ---------------------------------------------------------------------
 Center     Atomic      Atomic             Coordinates (Angstroms)
 Number     Number       Type             X           Y           Z
 ---------------------------------------------------------------------
      1          6           0        0.630048    0.860077   -0.231851
      2          1           0        0.582216    1.346182   -1.228328
      3          1           0        0.342100    1.644782    0.496418
      4          6           0        2.047871    0.439068    0.008155
      5          6           0        2.907017    1.459481    0.663299
      6          1           0        3.957469    1.131089    0.728262
      7          1           0        2.884196    2.405667    0.106747
      8          1           0        2.557528    1.663810    1.684326
      9          6           0        2.498327   -0.762941   -0.376156
     10          1           0        1.791911   -1.464898   -0.850047
     11          6           0        3.885786   -1.242391   -0.210167
     12          1           0        4.541292   -0.479448    0.241648
     13          1           0        3.912829   -2.130889    0.434345
     14          1           0        4.316404   -1.521246   -1.180831
     15          6           0       -2.946436   -0.766178    1.309964
     16          1           0       -3.473457   -1.725982    1.226052
     17          1           0       -1.951756   -0.966215    1.741182
     18          1           0       -3.501344   -0.141910    2.022732
     19          6           0       -2.854609   -0.101859   -0.016079
     20          6           0       -4.154867    0.319641   -0.604256
     21          1           0       -4.824630   -0.543327   -0.720384
     22          1           0       -4.042446    0.787365   -1.591312
     23          1           0       -4.658999    1.043802    0.050269
     24          6           0       -1.700552    0.112918   -0.661934
     25          1           0       -1.706069    0.613211   -1.639748
     26          6           0       -0.363432   -0.291321   -0.155949
     27          1           0       -0.431585   -0.670310    0.888617
     28          1           0        0.009420   -1.150660   -0.760104
 ---------------------------------------------------------------------
 Rotational constants (GHZ):           3.0477895           0.4582729           0.4415826
 Leave Link  202 at Tue Sep  6 13:42:29 2022, MaxMem=   131072000 cpu:               0.0 elap:               0.0
 (Enter /opt/g16/l601.exe)
 Copying SCF densities to generalized density rwf, IOpCl= 0 IROHF=0.

 **********************************************************************

            Population analysis using the SCF density.

 **********************************************************************

 Orbital symmetries:
       Occupied  (A) (A) (A) (A) (A) (A) (A) (A) (A) (A) (A) (A)
                 (A) (A) (A) (A) (A) (A) (A) (A) (A) (A) (A) (A)
                 (A) (A) (A) (A) (A)
       Virtual   (A) (A) (A) (A) (A) (A) (A) (A) (A) (A) (A) (A)
                 (A) (A) (A) (A) (A) (A) (A) (A) (A) (A) (A) (A)
                 (A) (A) (A) (A) (A)
 The electronic state is 1-A.
 Alpha  occ. eigenvalues --   -1.47190  -1.36651  -1.18862  -1.09010  -1.01419
 Alpha  occ. eigenvalues --   -0.95748  -0.86085  -0.79944  -0.66532  -0.64731
 Alpha  occ. eigenvalues --   -0.61056  -0.60035  -0.57830  -0.56288  -0.55178
 Alpha  occ. eigenvalues --   -0.53909  -0.51478  -0.50125  -0.48676  -0.48369
 Alpha  occ. eigenvalues --   -0.48178  -0.47601  -0.47574  -0.46816  -0.44867
 Alpha  occ. eigenvalues --   -0.43784  -0.42344  -0.34657  -0.34421
 Alpha virt. eigenvalues --    0.03670   0.04108   0.11905   0.12628   0.13089
 Alpha virt. eigenvalues --    0.13656   0.13918   0.14201   0.14883   0.14953
 Alpha virt. eigenvalues --    0.15337   0.15750   0.15876   0.16198   0.16349
 Alpha virt. eigenvalues --    0.16452   0.16530   0.16603   0.16789   0.16896
 Alpha virt. eigenvalues --    0.17041   0.17136   0.17623   0.17866   0.18114
 Alpha virt. eigenvalues --    0.20978   0.21421   0.22273   0.22567
          Condensed to atoms (all electrons):
               1          2          3          4          5          6
     1  C    4.053150   0.000000   0.000000   0.000000   0.000000   0.000000
     2  H    0.000000   0.943648   0.000000   0.000000   0.000000   0.000000
     3  H    0.000000   0.000000   0.944324   0.000000   0.000000   0.000000
     4  C    0.000000   0.000000   0.000000   4.124882   0.000000   0.000000
     5  C    0.000000   0.000000   0.000000   0.000000   4.075751   0.000000
     6  H    0.000000   0.000000   0.000000   0.000000   0.000000   0.950168
     7  H    0.000000   0.000000   0.000000   0.000000   0.000000   0.000000
     8  H    0.000000   0.000000   0.000000   0.000000   0.000000   0.000000
     9  C    0.000000   0.000000   0.000000   0.000000   0.000000   0.000000
    10  H    0.000000   0.000000   0.000000   0.000000   0.000000   0.000000
    11  C    0.000000   0.000000   0.000000   0.000000   0.000000   0.000000
    12  H    0.000000   0.000000   0.000000   0.000000   0.000000   0.000000
    13  H    0.000000   0.000000   0.000000   0.000000   0.000000   0.000000
    14  H    0.000000   0.000000   0.000000   0.000000   0.000000   0.000000
    15  C    0.000000   0.000000   0.000000   0.000000   0.000000   0.000000
    16  H    0.000000   0.000000   0.000000   0.000000   0.000000   0.000000
    17  H    0.000000   0.000000   0.000000   0.000000   0.000000   0.000000
    18  H    0.000000   0.000000   0.000000   0.000000   0.000000   0.000000
    19  C    0.000000   0.000000   0.000000   0.000000   0.000000   0.000000
    20  C    0.000000   0.000000   0.000000   0.000000   0.000000   0.000000
    21  H    0.000000   0.000000   0.000000   0.000000   0.000000   0.000000
    22  H    0.000000   0.000000   0.000000   0.000000   0.000000   0.000000
    23  H    0.000000   0.000000   0.000000   0.000000   0.000000   0.000000
    24  C    0.000000   0.000000   0.000000   0.000000   0.000000   0.000000
    25  H    0.000000   0.000000   0.000000   0.000000   0.000000   0.000000
    26  C    0.000000   0.000000   0.000000   0.000000   0.000000   0.000000
    27  H    0.000000   0.000000   0.000000   0.000000   0.000000   0.000000
    28  H    0.000000   0.000000   0.000000   0.000000   0.000000   0.000000
               7          8          9         10         11         12
     1  C    0.000000   0.000000   0.000000   0.000000   0.000000   0.000000
     2  H    0.000000   0.000000   0.000000   0.000000   0.000000   0.000000
     3  H    0.000000   0.000000   0.000000   0.000000   0.000000   0.000000
     4  C    0.000000   0.000000   0.000000   0.000000   0.000000   0.000000
     5  C    0.000000   0.000000   0.000000   0.000000   0.000000   0.000000
     6  H    0.000000   0.000000   0.000000   0.000000   0.000000   0.000000
     7  H    0.954766   0.000000   0.000000   0.000000   0.000000   0.000000
     8  H    0.000000   0.953361   0.000000   0.000000   0.000000   0.000000
     9  C    0.000000   0.000000   4.166195   0.000000   0.000000   0.000000
    10  H    0.000000   0.000000   0.000000   0.894744   0.000000   0.000000
    11  C    0.000000   0.000000   0.000000   0.000000   4.073825   0.000000
    12  H    0.000000   0.000000   0.000000   0.000000   0.000000   0.952926
    13  H    0.000000   0.000000   0.000000   0.000000   0.000000   0.000000
    14  H    0.000000   0.000000   0.000000   0.000000   0.000000   0.000000
    15  C    0.000000   0.000000   0.000000   0.000000   0.000000   0.000000
    16  H    0.000000   0.000000   0.000000   0.000000   0.000000   0.000000
    17  H    0.000000   0.000000   0.000000   0.000000   0.000000   0.000000
    18  H    0.000000   0.000000   0.000000   0.000000   0.000000   0.000000
    19  C    0.000000   0.000000   0.000000   0.000000   0.000000   0.000000
    20  C    0.000000   0.000000   0.000000   0.000000   0.000000   0.000000
    21  H    0.000000   0.000000   0.000000   0.000000   0.000000   0.000000
    22  H    0.000000   0.000000   0.000000   0.000000   0.000000   0.000000
    23  H    0.000000   0.000000   0.000000   0.000000   0.000000   0.000000
    24  C    0.000000   0.000000   0.000000   0.000000   0.000000   0.000000
    25  H    0.000000   0.000000   0.000000   0.000000   0.000000   0.000000
    26  C    0.000000   0.000000   0.000000   0.000000   0.000000   0.000000
    27  H    0.000000   0.000000   0.000000   0.000000   0.000000   0.000000
    28  H    0.000000   0.000000   0.000000   0.000000   0.000000   0.000000
              13         14         15         16         17         18
     1  C    0.000000   0.000000   0.000000   0.000000   0.000000   0.000000
     2  H    0.000000   0.000000   0.000000   0.000000   0.000000   0.000000
     3  H    0.000000   0.000000   0.000000   0.000000   0.000000   0.000000
     4  C    0.000000   0.000000   0.000000   0.000000   0.000000   0.000000
     5  C    0.000000   0.000000   0.000000   0.000000   0.000000   0.000000
     6  H    0.000000   0.000000   0.000000   0.000000   0.000000   0.000000
     7  H    0.000000   0.000000   0.000000   0.000000   0.000000   0.000000
     8  H    0.000000   0.000000   0.000000   0.000000   0.000000   0.000000
     9  C    0.000000   0.000000   0.000000   0.000000   0.000000   0.000000
    10  H    0.000000   0.000000   0.000000   0.000000   0.000000   0.000000
    11  C    0.000000   0.000000   0.000000   0.000000   0.000000   0.000000
    12  H    0.000000   0.000000   0.000000   0.000000   0.000000   0.000000
    13  H    0.956084   0.000000   0.000000   0.000000   0.000000   0.000000
    14  H    0.000000   0.956191   0.000000   0.000000   0.000000   0.000000
    15  C    0.000000   0.000000   4.076655   0.000000   0.000000   0.000000
    16  H    0.000000   0.000000   0.000000   0.953855   0.000000   0.000000
    17  H    0.000000   0.000000   0.000000   0.000000   0.949276   0.000000
    18  H    0.000000   0.000000   0.000000   0.000000   0.000000   0.954391
    19  C    0.000000   0.000000   0.000000   0.000000   0.000000   0.000000
    20  C    0.000000   0.000000   0.000000   0.000000   0.000000   0.000000
    21  H    0.000000   0.000000   0.000000   0.000000   0.000000   0.000000
    22  H    0.000000   0.000000   0.000000   0.000000   0.000000   0.000000
    23  H    0.000000   0.000000   0.000000   0.000000   0.000000   0.000000
    24  C    0.000000   0.000000   0.000000   0.000000   0.000000   0.000000
    25  H    0.000000   0.000000   0.000000   0.000000   0.000000   0.000000
    26  C    0.000000   0.000000   0.000000   0.000000   0.000000   0.000000
    27  H    0.000000   0.000000   0.000000   0.000000   0.000000   0.000000
    28  H    0.000000   0.000000   0.000000   0.000000   0.000000   0.000000
              19         20         21         22         23         24
     1  C    0.000000   0.000000   0.000000   0.000000   0.000000   0.000000
     2  H    0.000000   0.000000   0.000000   0.000000   0.000000   0.000000
     3  H    0.000000   0.000000   0.000000   0.000000   0.000000   0.000000
     4  C    0.000000   0.000000   0.000000   0.000000   0.000000   0.000000
     5  C    0.000000   0.000000   0.000000   0.000000   0.000000   0.000000
     6  H    0.000000   0.000000   0.000000   0.000000   0.000000   0.000000
     7  H    0.000000   0.000000   0.000000   0.000000   0.000000   0.000000
     8  H    0.000000   0.000000   0.000000   0.000000   0.000000   0.000000
     9  C    0.000000   0.000000   0.000000   0.000000   0.000000   0.000000
    10  H    0.000000   0.000000   0.000000   0.000000   0.000000   0.000000
    11  C    0.000000   0.000000   0.000000   0.000000   0.000000   0.000000
    12  H    0.000000   0.000000   0.000000   0.000000   0.000000   0.000000
    13  H    0.000000   0.000000   0.000000   0.000000   0.000000   0.000000
    14  H    0.000000   0.000000   0.000000   0.000000   0.000000   0.000000
    15  C    0.000000   0.000000   0.000000   0.000000   0.000000   0.000000
    16  H    0.000000   0.000000   0.000000   0.000000   0.000000   0.000000
    17  H    0.000000   0.000000   0.000000   0.000000   0.000000   0.000000
    18  H    0.000000   0.000000   0.000000   0.000000   0.000000   0.000000
    19  C    4.122466   0.000000   0.000000   0.000000   0.000000   0.000000
    20  C    0.000000   4.068876   0.000000   0.000000   0.000000   0.000000
    21  H    0.000000   0.000000   0.956369   0.000000   0.000000   0.000000
    22  H    0.000000   0.000000   0.000000   0.958404   0.000000   0.000000
    23  H    0.000000   0.000000   0.000000   0.000000   0.955925   0.000000
    24  C    0.000000   0.000000   0.000000   0.000000   0.000000   4.155695
    25  H    0.000000   0.000000   0.000000   0.000000   0.000000   0.000000
    26  C    0.000000   0.000000   0.000000   0.000000   0.000000   0.000000
    27  H    0.000000   0.000000   0.000000   0.000000   0.000000   0.000000
    28  H    0.000000   0.000000   0.000000   0.000000   0.000000   0.000000
              25         26         27         28
     1  C    0.000000   0.000000   0.000000   0.000000
     2  H    0.000000   0.000000   0.000000   0.000000
     3  H    0.000000   0.000000   0.000000   0.000000
     4  C    0.000000   0.000000   0.000000   0.000000
     5  C    0.000000   0.000000   0.000000   0.000000
     6  H    0.000000   0.000000   0.000000   0.000000
     7  H    0.000000   0.000000   0.000000   0.000000
     8  H    0.000000   0.000000   0.000000   0.000000
     9  C    0.000000   0.000000   0.000000   0.000000
    10  H    0.000000   0.000000   0.000000   0.000000
    11  C    0.000000   0.000000   0.000000   0.000000
    12  H    0.000000   0.000000   0.000000   0.000000
    13  H    0.000000   0.000000   0.000000   0.000000
    14  H    0.000000   0.000000   0.000000   0.000000
    15  C    0.000000   0.000000   0.000000   0.000000
    16  H    0.000000   0.000000   0.000000   0.000000
    17  H    0.000000   0.000000   0.000000   0.000000
    18  H    0.000000   0.000000   0.000000   0.000000
    19  C    0.000000   0.000000   0.000000   0.000000
    20  C    0.000000   0.000000   0.000000   0.000000
    21  H    0.000000   0.000000   0.000000   0.000000
    22  H    0.000000   0.000000   0.000000   0.000000
    23  H    0.000000   0.000000   0.000000   0.000000
    24  C    0.000000   0.000000   0.000000   0.000000
    25  H    0.898556   0.000000   0.000000   0.000000
    26  C    0.000000   4.076548   0.000000   0.000000
    27  H    0.000000   0.000000   0.936174   0.000000
    28  H    0.000000   0.000000   0.000000   0.936795
 Mulliken charges:
               1
     1  C   -0.053150
     2  H    0.056352
     3  H    0.055676
     4  C   -0.124882
     5  C   -0.075751
     6  H    0.049832
     7  H    0.045234
     8  H    0.046639
     9  C   -0.166195
    10  H    0.105256
    11  C   -0.073825
    12  H    0.047074
    13  H    0.043916
    14  H    0.043809
    15  C   -0.076655
    16  H    0.046145
    17  H    0.050724
    18  H    0.045609
    19  C   -0.122466
    20  C   -0.068876
    21  H    0.043631
    22  H    0.041596
    23  H    0.044075
    24  C   -0.155695
    25  H    0.101444
    26  C   -0.076548
    27  H    0.063826
    28  H    0.063205
 Sum of Mulliken charges =   0.00000
 Mulliken charges with hydrogens summed into heavy atoms:
               1
     1  C    0.058878
     4  C   -0.124882
     5  C    0.065954
     9  C   -0.060939
    11  C    0.060974
    15  C    0.065823
    19  C   -0.122466
    20  C    0.060426
    24  C   -0.054251
    26  C    0.050483
 Charge=              0.0000 electrons
 Dipole moment (field-independent basis, Debye):
    X=             -0.0763    Y=              0.0273    Z=              0.1996  Tot=              0.2155
 N-N= 3.033371351239D+02 E-N=-4.888194511076D+02  KE=-7.912283969587D+01
 Leave Link  601 at Tue Sep  6 13:42:30 2022, MaxMem=   131072000 cpu:               0.0 elap:               0.0
 (Enter /opt/g16/l9999.exe)
 1\1\GINC-TOTEM2\FOpt\RPM3\ZDO\C10H18\JRAMOS\06-Sep-2022\0\\#p opt pm3\
 \Conformer number 007. Energy MM = 24.539 kcal/mol\\0,1\C,0.623334255,
 0.3105533364,-0.9864010218\H,0.4875960599,-0.5235594921,-1.7056941114\
 H,0.3292876148,1.227848258,-1.5351802217\C,2.0762733268,0.3770232169,-
 0.6263670578\C,2.9061264539,1.2391840671,-1.507621134\H,3.9771073077,1
 .1752479232,-1.2538029479\H,2.7918649932,0.9476805055,-2.5600027244\H,
 2.6040928931,2.2913531194,-1.4175919892\C,2.5782917395,-0.3226932665,0
 .400183689\H,1.8911059635,-0.9336057814,1.0092003891\C,4.0003667358,-0
 .341572476,0.7999509991\H,4.631725975,0.26582799,0.1303581061\H,4.1202
 992673,0.0495798727,1.818858383\H,4.390819834,-1.3676313778,0.78848838
 22\C,-2.7489904236,1.5199256008,1.2447384406\H,-3.2187227461,1.2115850
 712,2.1882922456\H,-1.7204668835,1.8448956314,1.4725228314\H,-3.299853
 2823,2.3913557716,0.8668080019\C,-2.7758035091,0.4082869528,0.25899975
 74\C,-4.1317566334,0.00124112,-0.1992486599\H,-4.7516472306,-0.3074790
 267,0.6535168504\H,-4.1061279065,-0.8348940082,-0.910519078\H,-4.64166
 14275,0.8402810449,-0.6921684349\C,-1.6767487922,-0.2053080112,-0.2000
 053412\H,-1.7701385812,-1.0194176752,-0.9314060923\C,-0.2899013096,0.1
 254117416,0.2178432341\H,-0.2736669264,1.0382491153,0.8549156338\H,0.1
 005932322,-0.6947692238,0.8638318708\\Version=ES64L-G16RevA.03\State=1
 -A\HF=-0.027605\RMSD=6.069e-09\RMSF=3.830e-06\Dipole=-0.026052,0.07976
 99,0.0119709\PG=C01 [X(C10H18)]\\@


 MORNING PEOPLE ARE USUALLY ADMIRED AS EARLY BIRDS.
 RECALL BEN FRANKLIN'S APHORISM THAT THE EARLY BIRD GETS THE WORM.
 I IDENTIFY WITH THE WORM. --  CRAIG JAGGER, MINNEAPOLIS, KS.
 Job cpu time:       0 days  0 hours  0 minutes 15.2 seconds.
 Elapsed time:       0 days  0 hours  0 minutes 12.4 seconds.
 File lengths (MBytes):  RWF=      6 Int=      0 D2E=      0 Chk=      2 Scr=      1
 Normal termination of Gaussian 16 at Tue Sep  6 13:42:30 2022.
