 Entering Gaussian System, Link 0=/opt/g16/g16
 Input=03-IsoP_001_gaussian.com
 Output=03-IsoP_001_gaussian.log
 Initial command:
 /opt/g16/l1.exe "/tmp/Gau-153960.inp" -scrdir="/tmp/"
 Entering Link 1 = /opt/g16/l1.exe PID=    153962.
  
 Copyright (c) 1988,1990,1992,1993,1995,1998,2003,2009,2016,
            Gaussian, Inc.  All Rights Reserved.
  
 This is part of the Gaussian(R) 16 program.  It is based on
 the Gaussian(R) 09 system (copyright 2009, Gaussian, Inc.),
 the Gaussian(R) 03 system (copyright 2003, Gaussian, Inc.),
 the Gaussian(R) 98 system (copyright 1998, Gaussian, Inc.),
 the Gaussian(R) 94 system (copyright 1995, Gaussian, Inc.),
 the Gaussian 92(TM) system (copyright 1992, Gaussian, Inc.),
 the Gaussian 90(TM) system (copyright 1990, Gaussian, Inc.),
 the Gaussian 88(TM) system (copyright 1988, Gaussian, Inc.),
 the Gaussian 86(TM) system (copyright 1986, Carnegie Mellon
 University), and the Gaussian 82(TM) system (copyright 1983,
 Carnegie Mellon University). Gaussian is a federally registered
 trademark of Gaussian, Inc.
  
 This software contains proprietary and confidential information,
 including trade secrets, belonging to Gaussian, Inc.
  
 This software is provided under written license and may be
 used, copied, transmitted, or stored only in accord with that
 written license.
  
 The following legend is applicable only to US Government
 contracts under FAR:
  
                    RESTRICTED RIGHTS LEGEND
  
 Use, reproduction and disclosure by the US Government is
 subject to restrictions as set forth in subparagraphs (a)
 and (c) of the Commercial Computer Software - Restricted
 Rights clause in FAR 52.227-19.
  
 Gaussian, Inc.
 340 Quinnipiac St., Bldg. 40, Wallingford CT 06492
  
  
 ---------------------------------------------------------------
 Warning -- This program may not be used in any manner that
 competes with the business of Gaussian, Inc. or will provide
 assistance to any competitor of Gaussian, Inc.  The licensee
 of this program is prohibited from giving any competitor of
 Gaussian, Inc. access to this program.  By using this program,
 the user acknowledges that Gaussian, Inc. is engaged in the
 business of creating and licensing software in the field of
 computational chemistry and represents and warrants to the
 licensee that it is not a competitor of Gaussian, Inc. and that
 it will not use this program in any manner prohibited above.
 ---------------------------------------------------------------
  

 Cite this work as:
 Gaussian 16, Revision A.03,
 M. J. Frisch, G. W. Trucks, H. B. Schlegel, G. E. Scuseria, 
 M. A. Robb, J. R. Cheeseman, G. Scalmani, V. Barone, 
 G. A. Petersson, H. Nakatsuji, X. Li, M. Caricato, A. V. Marenich, 
 J. Bloino, B. G. Janesko, R. Gomperts, B. Mennucci, H. P. Hratchian, 
 J. V. Ortiz, A. F. Izmaylov, J. L. Sonnenberg, D. Williams-Young, 
 F. Ding, F. Lipparini, F. Egidi, J. Goings, B. Peng, A. Petrone, 
 T. Henderson, D. Ranasinghe, V. G. Zakrzewski, J. Gao, N. Rega, 
 G. Zheng, W. Liang, M. Hada, M. Ehara, K. Toyota, R. Fukuda, 
 J. Hasegawa, M. Ishida, T. Nakajima, Y. Honda, O. Kitao, H. Nakai, 
 T. Vreven, K. Throssell, J. A. Montgomery, Jr., J. E. Peralta, 
 F. Ogliaro, M. J. Bearpark, J. J. Heyd, E. N. Brothers, K. N. Kudin, 
 V. N. Staroverov, T. A. Keith, R. Kobayashi, J. Normand, 
 K. Raghavachari, A. P. Rendell, J. C. Burant, S. S. Iyengar, 
 J. Tomasi, M. Cossi, J. M. Millam, M. Klene, C. Adamo, R. Cammi, 
 J. W. Ochterski, R. L. Martin, K. Morokuma, O. Farkas, 
 J. B. Foresman, and D. J. Fox, Gaussian, Inc., Wallingford CT, 2016.
 
 ******************************************
 Gaussian 16:  ES64L-G16RevA.03 25-Dec-2016
                 6-Sep-2022 
 ******************************************
 %chk=03-IsoP_001_gaussian.chk
 %nproc=1
 Will use up to    1 processors via shared memory.
 %mem=1000Mb
 ----------
 #p opt pm3
 ----------
 1/18=20,19=15,26=1,38=1/1,3;
 2/9=110,12=2,17=6,18=5,40=1/2;
 3/5=2,25=1,41=800000,71=1/1,2,3;
 4/35=1/1;
 5/5=2,35=1,38=5/2;
 6/7=2,8=2,9=2,10=2,28=1/1;
 7//1,2,3,16;
 1/18=20,19=15,26=1/3(2);
 2/9=110/2;
 99//99;
 2/9=110/2;
 3/5=2,25=1,41=800000,71=1,135=20/1,2,3;
 4/5=5,16=3,35=1/1;
 5/5=2,35=1,38=5/2;
 7//1,2,3,16;
 1/18=20,19=15,26=1/3(-5);
 2/9=110/2;
 6/7=2,8=2,9=2,10=2,19=2,28=1/1;
 99/9=1/99;
 Leave Link    1 at Tue Sep  6 13:42:07 2022, MaxMem=   131072000 cpu:               0.0 elap:               0.0
 (Enter /opt/g16/l101.exe)
 -------------------------------------------------
 Conformer number 001. Energy MM = 23.712 kcal/mol
 -------------------------------------------------
 Symbolic Z-matrix:
 Charge =  0 Multiplicity = 1
 C                     0.6888    0.7493    0.3062 
 H                     0.8041    0.9213    1.385 
 H                     0.3337    1.7017   -0.1089 
 C                     2.0328    0.4119   -0.3171 
 C                     2.0726    0.4716   -1.821 
 H                     1.5873    1.3871   -2.1763 
 H                     1.5471   -0.3865   -2.2512 
 H                     3.0875    0.4824   -2.2248 
 C                     3.0902    0.121     0.4669 
 H                     2.952     0.132     1.5481 
 C                     4.4766   -0.249     0.0448 
 H                     4.575    -0.4298   -1.0272 
 H                     5.1753    0.5439    0.3284 
 H                     4.7796   -1.1679    0.5574 
 C                    -4.0179    0.6918    1.0481 
 H                    -4.8538    0.0872    0.6811 
 H                    -3.8598    0.4355    2.1009 
 H                    -4.3049    1.7475    1.0025 
 C                    -2.7909    0.4473    0.2088 
 C                    -2.9625    0.7762   -1.2485 
 H                    -2.0313    0.7252   -1.8174 
 H                    -3.6779    0.0867   -1.7083 
 H                    -3.3461    1.7961   -1.3608 
 C                    -1.6568   -0.0166    0.7693 
 H                    -1.6464   -0.2019    1.8436 
 C                    -0.3592   -0.3466    0.0805 
 H                     0.0061   -1.2986    0.4871 
 H                    -0.5117   -0.5229   -0.9887 
 
 ITRead=  0  0  0  0  0  0  0  0  0  0  0  0  0  0  0  0  0  0  0  0
 ITRead=  0  0  0  0  0  0  0  0
 MicOpt= -1 -1 -1 -1 -1 -1 -1 -1 -1 -1 -1 -1 -1 -1 -1 -1 -1 -1 -1 -1
 MicOpt= -1 -1 -1 -1 -1 -1 -1 -1
 NAtoms=     28 NQM=       28 NQMF=       0 NMMI=      0 NMMIF=      0
                NMic=       0 NMicF=      0.
                    Isotopes and Nuclear Properties:
 (Nuclear quadrupole moments (NQMom) in fm**2, nuclear magnetic moments (NMagM)
  in nuclear magnetons)

  Atom         1           2           3           4           5           6           7           8           9          10
 IAtWgt=          12           1           1          12          12           1           1           1          12           1
 AtmWgt=  12.0000000   1.0078250   1.0078250  12.0000000  12.0000000   1.0078250   1.0078250   1.0078250  12.0000000   1.0078250
 NucSpn=           0           1           1           0           0           1           1           1           0           1
 AtZEff=  -0.0000000  -0.0000000  -0.0000000  -0.0000000  -0.0000000  -0.0000000  -0.0000000  -0.0000000  -0.0000000  -0.0000000
 NQMom=    0.0000000   0.0000000   0.0000000   0.0000000   0.0000000   0.0000000   0.0000000   0.0000000   0.0000000   0.0000000
 NMagM=    0.0000000   2.7928460   2.7928460   0.0000000   0.0000000   2.7928460   2.7928460   2.7928460   0.0000000   2.7928460
 AtZNuc=   6.0000000   1.0000000   1.0000000   6.0000000   6.0000000   1.0000000   1.0000000   1.0000000   6.0000000   1.0000000

  Atom        11          12          13          14          15          16          17          18          19          20
 IAtWgt=          12           1           1           1          12           1           1           1          12          12
 AtmWgt=  12.0000000   1.0078250   1.0078250   1.0078250  12.0000000   1.0078250   1.0078250   1.0078250  12.0000000  12.0000000
 NucSpn=           0           1           1           1           0           1           1           1           0           0
 AtZEff=  -0.0000000  -0.0000000  -0.0000000  -0.0000000  -0.0000000  -0.0000000  -0.0000000  -0.0000000  -0.0000000  -0.0000000
 NQMom=    0.0000000   0.0000000   0.0000000   0.0000000   0.0000000   0.0000000   0.0000000   0.0000000   0.0000000   0.0000000
 NMagM=    0.0000000   2.7928460   2.7928460   2.7928460   0.0000000   2.7928460   2.7928460   2.7928460   0.0000000   0.0000000
 AtZNuc=   6.0000000   1.0000000   1.0000000   1.0000000   6.0000000   1.0000000   1.0000000   1.0000000   6.0000000   6.0000000

  Atom        21          22          23          24          25          26          27          28
 IAtWgt=           1           1           1          12           1          12           1           1
 AtmWgt=   1.0078250   1.0078250   1.0078250  12.0000000   1.0078250  12.0000000   1.0078250   1.0078250
 NucSpn=           1           1           1           0           1           0           1           1
 AtZEff=  -0.0000000  -0.0000000  -0.0000000  -0.0000000  -0.0000000  -0.0000000  -0.0000000  -0.0000000
 NQMom=    0.0000000   0.0000000   0.0000000   0.0000000   0.0000000   0.0000000   0.0000000   0.0000000
 NMagM=    2.7928460   2.7928460   2.7928460   0.0000000   2.7928460   0.0000000   2.7928460   2.7928460
 AtZNuc=   1.0000000   1.0000000   1.0000000   6.0000000   1.0000000   6.0000000   1.0000000   1.0000000
 Leave Link  101 at Tue Sep  6 13:42:07 2022, MaxMem=   131072000 cpu:               0.1 elap:               0.1
 (Enter /opt/g16/l103.exe)

 GradGradGradGradGradGradGradGradGradGradGradGradGradGradGradGradGradGrad
 Berny optimization.
 Initialization pass.
                           ----------------------------
                           !    Initial Parameters    !
                           ! (Angstroms and Degrees)  !
 --------------------------                            --------------------------
 ! Name  Definition              Value          Derivative Info.                !
 --------------------------------------------------------------------------------
 ! R1    R(1,2)                  1.0985         estimate D2E/DX2                !
 ! R2    R(1,3)                  1.0979         estimate D2E/DX2                !
 ! R3    R(1,4)                  1.5194         estimate D2E/DX2                !
 ! R4    R(1,26)                 1.533          estimate D2E/DX2                !
 ! R5    R(4,5)                  1.5056         estimate D2E/DX2                !
 ! R6    R(4,9)                  1.3481         estimate D2E/DX2                !
 ! R7    R(5,6)                  1.0954         estimate D2E/DX2                !
 ! R8    R(5,7)                  1.0943         estimate D2E/DX2                !
 ! R9    R(5,8)                  1.0923         estimate D2E/DX2                !
 ! R10   R(9,10)                 1.0901         estimate D2E/DX2                !
 ! R11   R(9,11)                 1.4957         estimate D2E/DX2                !
 ! R12   R(11,12)                1.0916         estimate D2E/DX2                !
 ! R13   R(11,13)                1.0942         estimate D2E/DX2                !
 ! R14   R(11,14)                1.095          estimate D2E/DX2                !
 ! R15   R(15,16)                1.095          estimate D2E/DX2                !
 ! R16   R(15,17)                1.095          estimate D2E/DX2                !
 ! R17   R(15,18)                1.095          estimate D2E/DX2                !
 ! R18   R(15,19)                1.5066         estimate D2E/DX2                !
 ! R19   R(19,20)                1.5038         estimate D2E/DX2                !
 ! R20   R(19,24)                1.3474         estimate D2E/DX2                !
 ! R21   R(20,21)                1.0924         estimate D2E/DX2                !
 ! R22   R(20,22)                1.0948         estimate D2E/DX2                !
 ! R23   R(20,23)                1.0954         estimate D2E/DX2                !
 ! R24   R(24,25)                1.0902         estimate D2E/DX2                !
 ! R25   R(24,26)                1.5057         estimate D2E/DX2                !
 ! R26   R(26,27)                1.0978         estimate D2E/DX2                !
 ! R27   R(26,28)                1.0943         estimate D2E/DX2                !
 ! A1    A(2,1,3)              105.6297         estimate D2E/DX2                !
 ! A2    A(2,1,4)              110.169          estimate D2E/DX2                !
 ! A3    A(2,1,26)             109.1636         estimate D2E/DX2                !
 ! A4    A(3,1,4)              108.8814         estimate D2E/DX2                !
 ! A5    A(3,1,26)             110.0803         estimate D2E/DX2                !
 ! A6    A(4,1,26)             112.6776         estimate D2E/DX2                !
 ! A7    A(1,4,5)              115.1083         estimate D2E/DX2                !
 ! A8    A(1,4,9)              120.2087         estimate D2E/DX2                !
 ! A9    A(5,4,9)              124.6611         estimate D2E/DX2                !
 ! A10   A(4,5,6)              110.2073         estimate D2E/DX2                !
 ! A11   A(4,5,7)              110.4191         estimate D2E/DX2                !
 ! A12   A(4,5,8)              113.2161         estimate D2E/DX2                !
 ! A13   A(6,5,7)              108.3667         estimate D2E/DX2                !
 ! A14   A(6,5,8)              106.4669         estimate D2E/DX2                !
 ! A15   A(7,5,8)              107.9744         estimate D2E/DX2                !
 ! A16   A(4,9,10)             118.3734         estimate D2E/DX2                !
 ! A17   A(4,9,11)             128.0462         estimate D2E/DX2                !
 ! A18   A(10,9,11)            113.5736         estimate D2E/DX2                !
 ! A19   A(9,11,12)            113.6827         estimate D2E/DX2                !
 ! A20   A(9,11,13)            109.8449         estimate D2E/DX2                !
 ! A21   A(9,11,14)            109.389          estimate D2E/DX2                !
 ! A22   A(12,11,13)           108.4811         estimate D2E/DX2                !
 ! A23   A(12,11,14)           107.2056         estimate D2E/DX2                !
 ! A24   A(13,11,14)           108.0642         estimate D2E/DX2                !
 ! A25   A(16,15,17)           107.6515         estimate D2E/DX2                !
 ! A26   A(16,15,18)           108.5607         estimate D2E/DX2                !
 ! A27   A(16,15,19)           110.2068         estimate D2E/DX2                !
 ! A28   A(17,15,18)           107.6709         estimate D2E/DX2                !
 ! A29   A(17,15,19)           112.3362         estimate D2E/DX2                !
 ! A30   A(18,15,19)           110.2881         estimate D2E/DX2                !
 ! A31   A(15,19,20)           114.2956         estimate D2E/DX2                !
 ! A32   A(15,19,24)           120.6392         estimate D2E/DX2                !
 ! A33   A(20,19,24)           125.0626         estimate D2E/DX2                !
 ! A34   A(19,20,21)           113.4028         estimate D2E/DX2                !
 ! A35   A(19,20,22)           110.1098         estimate D2E/DX2                !
 ! A36   A(19,20,23)           110.0564         estimate D2E/DX2                !
 ! A37   A(21,20,22)           107.9925         estimate D2E/DX2                !
 ! A38   A(21,20,23)           106.7731         estimate D2E/DX2                !
 ! A39   A(22,20,23)           108.3297         estimate D2E/DX2                !
 ! A40   A(19,24,25)           118.4541         estimate D2E/DX2                !
 ! A41   A(19,24,26)           127.627          estimate D2E/DX2                !
 ! A42   A(25,24,26)           113.9108         estimate D2E/DX2                !
 ! A43   A(1,26,24)            111.4141         estimate D2E/DX2                !
 ! A44   A(1,26,27)            109.7503         estimate D2E/DX2                !
 ! A45   A(1,26,28)            110.749          estimate D2E/DX2                !
 ! A46   A(24,26,27)           107.903          estimate D2E/DX2                !
 ! A47   A(24,26,28)           111.2339         estimate D2E/DX2                !
 ! A48   A(27,26,28)           105.578          estimate D2E/DX2                !
 ! D1    D(2,1,4,5)           -166.2629         estimate D2E/DX2                !
 ! D2    D(2,1,4,9)             12.1092         estimate D2E/DX2                !
 ! D3    D(3,1,4,5)            -50.8608         estimate D2E/DX2                !
 ! D4    D(3,1,4,9)            127.5113         estimate D2E/DX2                !
 ! D5    D(26,1,4,5)            71.5629         estimate D2E/DX2                !
 ! D6    D(26,1,4,9)          -110.065          estimate D2E/DX2                !
 ! D7    D(2,1,26,24)           54.3142         estimate D2E/DX2                !
 ! D8    D(2,1,26,27)          -65.1348         estimate D2E/DX2                !
 ! D9    D(2,1,26,28)          178.6881         estimate D2E/DX2                !
 ! D10   D(3,1,26,24)          -61.1994         estimate D2E/DX2                !
 ! D11   D(3,1,26,27)          179.3516         estimate D2E/DX2                !
 ! D12   D(3,1,26,28)           63.1746         estimate D2E/DX2                !
 ! D13   D(4,1,26,24)          177.0533         estimate D2E/DX2                !
 ! D14   D(4,1,26,27)           57.6043         estimate D2E/DX2                !
 ! D15   D(4,1,26,28)          -58.5727         estimate D2E/DX2                !
 ! D16   D(1,4,5,6)             45.936          estimate D2E/DX2                !
 ! D17   D(1,4,5,7)            -73.7536         estimate D2E/DX2                !
 ! D18   D(1,4,5,8)            165.0498         estimate D2E/DX2                !
 ! D19   D(9,4,5,6)           -132.3536         estimate D2E/DX2                !
 ! D20   D(9,4,5,7)            107.9568         estimate D2E/DX2                !
 ! D21   D(9,4,5,8)            -13.2398         estimate D2E/DX2                !
 ! D22   D(1,4,9,10)             0.1955         estimate D2E/DX2                !
 ! D23   D(1,4,9,11)           179.1742         estimate D2E/DX2                !
 ! D24   D(5,4,9,10)           178.4034         estimate D2E/DX2                !
 ! D25   D(5,4,9,11)            -2.618          estimate D2E/DX2                !
 ! D26   D(4,9,11,12)           -9.0439         estimate D2E/DX2                !
 ! D27   D(4,9,11,13)          112.7115         estimate D2E/DX2                !
 ! D28   D(4,9,11,14)         -128.8316         estimate D2E/DX2                !
 ! D29   D(10,9,11,12)         169.9756         estimate D2E/DX2                !
 ! D30   D(10,9,11,13)         -68.269          estimate D2E/DX2                !
 ! D31   D(10,9,11,14)          50.1879         estimate D2E/DX2                !
 ! D32   D(16,15,19,20)         59.5655         estimate D2E/DX2                !
 ! D33   D(16,15,19,24)       -120.9974         estimate D2E/DX2                !
 ! D34   D(17,15,19,20)        179.6019         estimate D2E/DX2                !
 ! D35   D(17,15,19,24)         -0.961          estimate D2E/DX2                !
 ! D36   D(18,15,19,20)        -60.2813         estimate D2E/DX2                !
 ! D37   D(18,15,19,24)        119.1558         estimate D2E/DX2                !
 ! D38   D(15,19,20,21)        172.0983         estimate D2E/DX2                !
 ! D39   D(15,19,20,22)        -66.7773         estimate D2E/DX2                !
 ! D40   D(15,19,20,23)         52.5762         estimate D2E/DX2                !
 ! D41   D(24,19,20,21)         -7.31           estimate D2E/DX2                !
 ! D42   D(24,19,20,22)        113.8144         estimate D2E/DX2                !
 ! D43   D(24,19,20,23)       -126.8321         estimate D2E/DX2                !
 ! D44   D(15,19,24,25)         -0.5225         estimate D2E/DX2                !
 ! D45   D(15,19,24,26)        178.3744         estimate D2E/DX2                !
 ! D46   D(20,19,24,25)        178.8507         estimate D2E/DX2                !
 ! D47   D(20,19,24,26)         -2.2524         estimate D2E/DX2                !
 ! D48   D(19,24,26,1)         103.1387         estimate D2E/DX2                !
 ! D49   D(19,24,26,27)       -136.3211         estimate D2E/DX2                !
 ! D50   D(19,24,26,28)        -20.9618         estimate D2E/DX2                !
 ! D51   D(25,24,26,1)         -77.9222         estimate D2E/DX2                !
 ! D52   D(25,24,26,27)         42.618          estimate D2E/DX2                !
 ! D53   D(25,24,26,28)        157.9773         estimate D2E/DX2                !
 --------------------------------------------------------------------------------
 Trust Radius=3.00D-01 FncErr=1.00D-07 GrdErr=1.00D-07 EigMax=2.50D+02 EigMin=1.00D-04
 Number of steps in this run=    138 maximum allowed number of steps=    168.
 GradGradGradGradGradGradGradGradGradGradGradGradGradGradGradGradGradGrad

 Leave Link  103 at Tue Sep  6 13:42:07 2022, MaxMem=   131072000 cpu:               0.0 elap:               0.0
 (Enter /opt/g16/l202.exe)
                          Input orientation:                          
 ---------------------------------------------------------------------
 Center     Atomic      Atomic             Coordinates (Angstroms)
 Number     Number       Type             X           Y           Z
 ---------------------------------------------------------------------
      1          6           0        0.688800    0.749300    0.306200
      2          1           0        0.804100    0.921300    1.385000
      3          1           0        0.333700    1.701700   -0.108900
      4          6           0        2.032800    0.411900   -0.317100
      5          6           0        2.072600    0.471600   -1.821000
      6          1           0        1.587300    1.387100   -2.176300
      7          1           0        1.547100   -0.386500   -2.251200
      8          1           0        3.087500    0.482400   -2.224800
      9          6           0        3.090200    0.121000    0.466900
     10          1           0        2.952000    0.132000    1.548100
     11          6           0        4.476600   -0.249000    0.044800
     12          1           0        4.575000   -0.429800   -1.027200
     13          1           0        5.175300    0.543900    0.328400
     14          1           0        4.779600   -1.167900    0.557400
     15          6           0       -4.017900    0.691800    1.048100
     16          1           0       -4.853800    0.087200    0.681100
     17          1           0       -3.859800    0.435500    2.100900
     18          1           0       -4.304900    1.747500    1.002500
     19          6           0       -2.790900    0.447300    0.208800
     20          6           0       -2.962500    0.776200   -1.248500
     21          1           0       -2.031300    0.725200   -1.817400
     22          1           0       -3.677900    0.086700   -1.708300
     23          1           0       -3.346100    1.796100   -1.360800
     24          6           0       -1.656800   -0.016600    0.769300
     25          1           0       -1.646400   -0.201900    1.843600
     26          6           0       -0.359200   -0.346600    0.080500
     27          1           0        0.006100   -1.298600    0.487100
     28          1           0       -0.511700   -0.522900   -0.988700
 ---------------------------------------------------------------------
                    Distance matrix (angstroms):
                    1          2          3          4          5
     1  C    0.000000
     2  H    1.098493   0.000000
     3  H    1.097939   1.749868   0.000000
     4  C    1.519433   2.160170   2.143332   0.000000
     5  C    2.552841   3.477033   2.732802   1.505611   0.000000
     6  H    2.716044   3.676034   2.438161   2.146185   1.095397
     7  H    2.926946   3.935015   3.228369   2.148043   1.094330
     8  H    3.497279   4.293857   3.680644   2.180982   1.092334
     9  C    2.487430   2.590297   3.229311   1.348100   2.528422
    10  H    2.654326   2.294138   3.473486   2.098152   3.498501
    11  C    3.925858   4.080808   4.581755   2.557327   3.127250
    12  H    4.274434   4.675881   4.834790   2.770466   2.775724
    13  H    4.491254   4.512895   4.997282   3.210826   3.775168
    14  H    4.524754   4.566649   5.333347   3.287161   3.958863
    15  C    4.765160   4.839200   4.614647   6.209113   6.736053
    16  H    5.594581   5.762207   5.490070   6.966139   7.374502
    17  H    4.899916   4.743467   4.906314   6.369460   7.111679
    18  H    5.139871   5.189489   4.770107   6.609963   7.090316
    19  C    3.494138   3.812105   3.381949   4.852412   5.270134
    20  C    3.968603   4.598223   3.608348   5.094433   5.076689
    21  H    3.450971   4.281742   3.076646   4.343497   4.111730
    22  H    4.854412   5.509391   4.610774   5.886704   5.764469
    23  H    4.489443   5.052609   3.888071   5.651361   5.597177
    24  C    2.510558   2.704583   2.772342   3.870016   4.566883
    25  H    2.953225   2.734382   3.369977   4.310671   5.264395
    26  C    1.533050   2.159296   2.170603   2.540683   3.193557
    27  H    2.166264   2.524081   3.076416   2.771292   3.568103
    28  H    2.176341   3.074328   2.537241   2.792737   2.891429
                    6          7          8          9         10
     6  H    0.000000
     7  H    1.775636   0.000000
     8  H    1.752551   1.768761   0.000000
     9  C    3.293664   3.166509   2.715855   0.000000
    10  H    4.160389   4.083781   3.791558   1.090052   0.000000
    11  C    3.994767   3.724580   2.759643   1.495718   2.174736
    12  H    3.680748   3.266226   2.116367   2.177234   3.095467
    13  H    4.456260   4.547946   3.298715   2.132057   2.569123
    14  H    4.918528   4.352916   3.650661   2.126858   2.451805
    15  C    6.503727   6.558760   7.825754   7.154627   7.010198
    16  H    7.165350   7.056507   8.465500   7.946959   7.853930
    17  H    6.990771   6.989351   8.184061   7.146423   6.840930
    18  H    6.704676   7.027547   8.164773   7.590776   7.454537
    19  C    5.073516   5.056191   6.362329   5.895797   5.905425
    20  C    4.683449   4.763798   6.135306   6.325114   6.573985
    21  H    3.696104   3.772135   5.140724   5.640288   6.042496
    22  H    5.443565   5.274399   6.796616   7.109138   7.386594
    23  H    5.017047   5.431387   6.622953   6.897275   7.134213
    24  C    4.601208   4.418735   5.632230   4.758612   4.676500
    25  H    5.398271   5.196143   6.279328   4.943172   4.619967
    26  C    3.447858   3.012042   4.228639   3.502330   3.653348
    27  H    4.099619   3.271833   4.474527   3.395194   3.442479
    28  H    3.076409   2.418919   3.936091   3.937901   4.342979
                   11         12         13         14         15
    11  C    0.000000
    12  H    1.091584   0.000000
    13  H    1.094213   1.773726   0.000000
    14  H    1.094963   1.760003   1.771801   0.000000
    15  C    8.605129   8.910824   9.222514   9.005292   0.000000
    16  H    9.358113   9.596241  10.045687   9.715605   1.094970
    17  H    8.613458   9.037677   9.207961   8.921464   1.095022
    18  H    9.056376   9.365519   9.580045   9.551220   1.094966
    19  C    7.302622   7.520205   7.967683   7.748733   1.506564
    20  C    7.619965   7.636578   8.292428   8.184187   2.528906
    21  H    6.838832   6.752899   7.521463   7.457336   3.486945
    22  H    8.347570   8.297049   9.095951   8.845153   2.842444
    23  H    8.206874   8.234667   8.776996   8.859559   2.733787
    24  C    6.180413   6.498729   6.869217   6.541990   2.480797
    25  H    6.381930   6.855600   7.027634   6.624269   2.656225
    26  C    4.836917   5.057692   5.611162   5.225824   3.924361
    27  H    4.613313   4.891090   5.490047   4.775806   4.524267
    28  H    5.101596   5.087698   5.934205   5.550163   4.232905
                   16         17         18         19         20
    16  H    0.000000
    17  H    1.767818   0.000000
    18  H    1.777972   1.768033   0.000000
    19  C    2.146694   2.173184   2.147714   0.000000
    20  C    2.788385   3.484208   2.795078   1.503777   0.000000
    21  H    3.823095   4.333637   3.763800   2.181675   1.092420
    22  H    2.663076   3.829459   3.240343   2.142912   1.094817
    23  H    3.059878   3.754795   2.550852   2.142698   1.095425
    24  C    3.199900   2.613573   3.190433   1.347422   2.530791
    25  H    3.423799   2.317676   3.402239   2.098550   3.499983
    26  C    4.555253   4.116782   4.561128   2.561231   3.131149
    27  H    5.057342   4.533943   5.303686   3.308901   4.016178
    28  H    4.691938   4.655527   4.848501   2.751372   2.785961
                   21         22         23         24         25
    21  H    0.000000
    22  H    1.769428   0.000000
    23  H    1.756135   1.775640   0.000000
    24  C    2.716898   3.199065   3.267559   0.000000
    25  H    3.796127   4.101984   4.141155   1.090213   0.000000
    26  C    2.747125   3.794908   3.948428   1.505693   2.187771
    27  H    3.682049   4.506739   4.922311   2.118584   2.402832
    28  H    2.133936   3.303674   3.681038   2.158277   3.067981
                   26         27         28
    26  C    0.000000
    27  H    1.097758   0.000000
    28  H    1.094316   1.745799   0.000000
 Stoichiometry    C10H18
 Framework group  C1[X(C10H18)]
 Deg. of freedom    78
 Full point group                 C1      NOp   1
 Largest Abelian subgroup         C1      NOp   1
 Largest concise Abelian subgroup C1      NOp   1
                         Standard orientation:                         
 ---------------------------------------------------------------------
 Center     Atomic      Atomic             Coordinates (Angstroms)
 Number     Number       Type             X           Y           Z
 ---------------------------------------------------------------------
      1          6           0       -0.572429   -0.345350   -0.548658
      2          1           0       -0.594675   -1.382775   -0.909133
      3          1           0       -0.180045    0.249646   -1.383813
      4          6           0       -1.979986    0.127644   -0.226574
      5          6           0       -2.126428    1.613845   -0.035199
      6          1           0       -1.602839    2.151494   -0.833123
      7          1           0       -1.698610    1.919184    0.924644
      8          1           0       -3.164877    1.951460   -0.064060
      9          6           0       -2.994993   -0.757274   -0.162898
     10          1           0       -2.776762   -1.809770   -0.344117
     11          6           0       -4.432229   -0.490267    0.153695
     12          1           0       -4.622662    0.526064    0.503497
     13          1           0       -5.047935   -0.673283   -0.732145
     14          1           0       -4.763125   -1.172134    0.943955
     15          6           0        4.159297   -0.800906   -0.217013
     16          1           0        4.919111   -0.494907    0.509628
     17          1           0        4.061116   -1.889817   -0.156143
     18          1           0        4.518867   -0.555245   -1.221658
     19          6           0        2.858946   -0.092397    0.060181
     20          6           0        2.945963    1.407544   -0.002684
     21          1           0        1.974009    1.901739    0.064078
     22          1           0        3.572836    1.782735    0.812721
     23          1           0        3.394045    1.718363   -0.952721
     24          6           0        1.738424   -0.792331    0.324884
     25          1           0        1.793941   -1.881129    0.324965
     26          6           0        0.372712   -0.250872    0.654681
     27          1           0       -0.030415   -0.838058    1.490008
     28          1           0        0.432351    0.778611    1.020924
 ---------------------------------------------------------------------
 Rotational constants (GHZ):           3.4681114           0.4559552           0.4195370
 Leave Link  202 at Tue Sep  6 13:42:07 2022, MaxMem=   131072000 cpu:               0.0 elap:               0.0
 (Enter /opt/g16/l301.exe)
 Standard basis: VSTO-6G (5D, 7F)
 Ernie: Thresh=  0.10000D-02 Tol=  0.10000D-05 Strict=F.
  NNHCO=     0 NNPyr=     0 NCTC=     0               EPep=         0.000000000
    EC=       244.066825977  ECS=         3.522743488   EG=         0.892036790
   EHC=         0.000000000  EAt=       -49.524085099  AtH=         4.217842293
 EPDDG=         0.000000000  ECC=       248.481606255 EAtT=        53.741927392
 There are    58 symmetry adapted cartesian basis functions of A   symmetry.
 There are    58 symmetry adapted basis functions of A   symmetry.
    58 basis functions,   348 primitive gaussians,    58 cartesian basis functions
    29 alpha electrons       29 beta electrons
       nuclear repulsion energy       302.2235336469 Hartrees.
 IExCor=    0 DFT=F Ex=HF Corr=None ExCW=0 ScaHFX=  1.000000
 ScaDFX=  1.000000  1.000000  1.000000  1.000000 ScalE2=  1.000000  1.000000
 IRadAn=      5 IRanWt=     -1 IRanGd=            0 ICorTp=0 IEmpDi=  4
 Integral buffers will be    131072 words long.
 Regular integral format.
 Two-electron integral symmetry is turned off.
 Leave Link  301 at Tue Sep  6 13:42:07 2022, MaxMem=   131072000 cpu:               0.0 elap:               0.0
 (Enter /opt/g16/l302.exe)
 Do NDO integrals.
 NPDir=0 NMtPBC=     1 NCelOv=     1 NCel=       1 NClECP=     1 NCelD=      1
         NCelK=      1 NCelE2=     1 NClLst=     1 CellRange=     0.0.
 One-electron integrals computed using PRISM.
 NBasis=    58 RedAO= F EigKep=  0.00D+00  NBF=    58
 NBsUse=    58 1.00D-04 EigRej=  0.00D+00 NBFU=    58
 Leave Link  302 at Tue Sep  6 13:42:07 2022, MaxMem=   131072000 cpu:               0.0 elap:               0.0
 (Enter /opt/g16/l303.exe)
 DipDrv:  MaxL=1.
 Leave Link  303 at Tue Sep  6 13:42:07 2022, MaxMem=   131072000 cpu:               0.0 elap:               0.0
 (Enter /opt/g16/l401.exe)
 Simple Huckel Guess.
 JPrj=0 DoOrth=F DoCkMO=F.
 Leave Link  401 at Tue Sep  6 13:42:07 2022, MaxMem=   131072000 cpu:               0.0 elap:               0.0
 (Enter /opt/g16/l502.exe)
 Keep J ints in memory in canonical form, NReq=866866.
 FoFCou: FMM=F IPFlag=           0 FMFlag=           0 FMFlg1=           0
         NFxFlg=           0 DoJE=F BraDBF=F KetDBF=F FulRan=T
         wScrn=  0.000000 ICntrl=       600 IOpCl=  2 I1Cent=           0 NGrid=           0
         NMat0=    1 NMatS0=    118 NMatT0=    0 NMatD0=    1 NMtDS0=    0 NMtDT0=    0
 Symmetry not used in FoFCou.
 Two-electron integral symmetry not used.
 Closed shell SCF:
 Using DIIS extrapolation, IDIIS=  1040.
 Overlap will be assumed to be unity.
 NGot=   131072000 LenX=   130997697 LenY=   130993892
 Requested convergence on RMS density matrix=1.00D-08 within 128 cycles.
 Requested convergence on MAX density matrix=1.00D-06.
 Requested convergence on             energy=1.00D-06.
 No special actions if energy rises.

 Cycle   1  Pass 1  IDiag  1:
 E= 0.216619402194056    
 DIIS: error= 2.74D-02 at cycle   1 NSaved=   1.
 NSaved= 1 IEnMin= 1 EnMin= 0.216619402194056     IErMin= 1 ErrMin= 2.74D-02
 ErrMax= 2.74D-02  0.00D+00 EMaxC= 1.00D-01 BMatC= 9.44D-02 BMatP= 9.44D-02
 IDIUse=3 WtCom= 7.26D-01 WtEn= 2.74D-01
 Coeff-Com:  0.100D+01
 Coeff-En:   0.100D+01
 Coeff:      0.100D+01
 GapD=    2.000 DampG=2.000 DampE=0.500 DampFc=1.0000 IDamp=-1.
 RMSDP=7.17D-03 MaxDP=8.52D-02              OVMax= 0.00D+00

 Cycle   2  Pass 1  IDiag  1:
 E=-0.327576260684737E-02 Delta-E=       -0.219895164801 Rises=F Damp=F
 DIIS: error= 7.94D-03 at cycle   2 NSaved=   2.
 NSaved= 2 IEnMin= 2 EnMin=-0.327576260684737E-02 IErMin= 2 ErrMin= 7.94D-03
 ErrMax= 7.94D-03  0.00D+00 EMaxC= 1.00D-01 BMatC= 6.06D-03 BMatP= 9.44D-02
 IDIUse=3 WtCom= 9.21D-01 WtEn= 7.94D-02
 Coeff-Com: -0.317D+00 0.132D+01
 Coeff-En:   0.000D+00 0.100D+01
 Coeff:     -0.292D+00 0.129D+01
 RMSDP=2.59D-03 MaxDP=2.87D-02 DE=-2.20D-01 OVMax= 0.00D+00

 Cycle   3  Pass 1  IDiag  3:
 E=-0.205988283174179E-01 Delta-E=       -0.017323065711 Rises=F Damp=F
 DIIS: error= 9.22D-04 at cycle   3 NSaved=   3.
 NSaved= 3 IEnMin= 3 EnMin=-0.205988283174179E-01 IErMin= 3 ErrMin= 9.22D-04
 ErrMax= 9.22D-04  0.00D+00 EMaxC= 1.00D-01 BMatC= 7.23D-05 BMatP= 6.06D-03
 IDIUse=3 WtCom= 9.91D-01 WtEn= 9.22D-03
 Coeff-Com:  0.108D+00-0.502D+00 0.139D+01
 Coeff-En:   0.000D+00 0.000D+00 0.100D+01
 Coeff:      0.107D+00-0.498D+00 0.139D+01
 Gap=     0.377 Goal=   None    Shift=    0.000
 RMSDP=4.21D-04 MaxDP=4.11D-03 DE=-1.73D-02 OVMax= 6.39D-03

 Cycle   4  Pass 1  IDiag  3:
 E=-0.209270053113073E-01 Delta-E=       -0.000328176994 Rises=F Damp=F
 DIIS: error= 1.94D-04 at cycle   4 NSaved=   4.
 NSaved= 4 IEnMin= 4 EnMin=-0.209270053113073E-01 IErMin= 4 ErrMin= 1.94D-04
 ErrMax= 1.94D-04  0.00D+00 EMaxC= 1.00D-01 BMatC= 3.12D-06 BMatP= 7.23D-05
 IDIUse=3 WtCom= 9.98D-01 WtEn= 1.94D-03
 Coeff-Com: -0.466D-01 0.224D+00-0.729D+00 0.155D+01
 Coeff-En:   0.000D+00 0.000D+00 0.000D+00 0.100D+01
 Coeff:     -0.465D-01 0.223D+00-0.728D+00 0.155D+01
 Gap=     0.377 Goal=   None    Shift=    0.000
 RMSDP=1.06D-04 MaxDP=1.14D-03 DE=-3.28D-04 OVMax= 9.40D-04

 Cycle   5  Pass 1  IDiag  3:
 E=-0.209445284564254E-01 Delta-E=       -0.000017523145 Rises=F Damp=F
 DIIS: error= 5.66D-05 at cycle   5 NSaved=   5.
 NSaved= 5 IEnMin= 5 EnMin=-0.209445284564254E-01 IErMin= 5 ErrMin= 5.66D-05
 ErrMax= 5.66D-05  0.00D+00 EMaxC= 1.00D-01 BMatC= 1.77D-07 BMatP= 3.12D-06
 IDIUse=1 WtCom= 1.00D+00 WtEn= 0.00D+00
 Coeff-Com:  0.131D-01-0.628D-01 0.212D+00-0.594D+00 0.143D+01
 Coeff:      0.131D-01-0.628D-01 0.212D+00-0.594D+00 0.143D+01
 Gap=     0.377 Goal=   None    Shift=    0.000
 RMSDP=2.63D-05 MaxDP=3.24D-04 DE=-1.75D-05 OVMax= 2.26D-04

 Cycle   6  Pass 1  IDiag  3:
 E=-0.209456140797784E-01 Delta-E=       -0.000001085623 Rises=F Damp=F
 DIIS: error= 1.80D-05 at cycle   6 NSaved=   6.
 NSaved= 6 IEnMin= 6 EnMin=-0.209456140797784E-01 IErMin= 6 ErrMin= 1.80D-05
 ErrMax= 1.80D-05  0.00D+00 EMaxC= 1.00D-01 BMatC= 1.48D-08 BMatP= 1.77D-07
 IDIUse=1 WtCom= 1.00D+00 WtEn= 0.00D+00
 Coeff-Com: -0.473D-02 0.227D-01-0.751D-01 0.212D+00-0.717D+00 0.156D+01
 Coeff:     -0.473D-02 0.227D-01-0.751D-01 0.212D+00-0.717D+00 0.156D+01
 Gap=     0.377 Goal=   None    Shift=    0.000
 RMSDP=8.90D-06 MaxDP=1.14D-04 DE=-1.09D-06 OVMax= 8.95D-05

 Cycle   7  Pass 1  IDiag  3:
 E=-0.209457156549888E-01 Delta-E=       -0.000000101575 Rises=F Damp=F
 DIIS: error= 4.28D-06 at cycle   7 NSaved=   7.
 NSaved= 7 IEnMin= 7 EnMin=-0.209457156549888E-01 IErMin= 7 ErrMin= 4.28D-06
 ErrMax= 4.28D-06  0.00D+00 EMaxC= 1.00D-01 BMatC= 1.03D-09 BMatP= 1.48D-08
 IDIUse=1 WtCom= 1.00D+00 WtEn= 0.00D+00
 Coeff-Com:  0.114D-02-0.545D-02 0.176D-01-0.498D-01 0.227D+00-0.748D+00
 Coeff-Com:  0.156D+01
 Coeff:      0.114D-02-0.545D-02 0.176D-01-0.498D-01 0.227D+00-0.748D+00
 Coeff:      0.156D+01
 Gap=     0.377 Goal=   None    Shift=    0.000
 RMSDP=2.42D-06 MaxDP=3.28D-05 DE=-1.02D-07 OVMax= 2.92D-05

 Cycle   8  Pass 1  IDiag  3:
 E=-0.209457225906249E-01 Delta-E=       -0.000000006936 Rises=F Damp=F
 DIIS: error= 1.25D-06 at cycle   8 NSaved=   8.
 NSaved= 8 IEnMin= 8 EnMin=-0.209457225906249E-01 IErMin= 8 ErrMin= 1.25D-06
 ErrMax= 1.25D-06  0.00D+00 EMaxC= 1.00D-01 BMatC= 4.92D-11 BMatP= 1.03D-09
 IDIUse=1 WtCom= 1.00D+00 WtEn= 0.00D+00
 Coeff-Com: -0.890D-04 0.415D-03-0.120D-02 0.332D-02-0.318D-01 0.157D+00
 Coeff-Com: -0.510D+00 0.138D+01
 Coeff:     -0.890D-04 0.415D-03-0.120D-02 0.332D-02-0.318D-01 0.157D+00
 Coeff:     -0.510D+00 0.138D+01
 Gap=     0.377 Goal=   None    Shift=    0.000
 RMSDP=4.77D-07 MaxDP=7.59D-06 DE=-6.94D-09 OVMax= 6.68D-06

 Cycle   9  Pass 1  IDiag  3:
 E=-0.209457229084364E-01 Delta-E=       -0.000000000318 Rises=F Damp=F
 DIIS: error= 3.58D-07 at cycle   9 NSaved=   9.
 NSaved= 9 IEnMin= 9 EnMin=-0.209457229084364E-01 IErMin= 9 ErrMin= 3.58D-07
 ErrMax= 3.58D-07  0.00D+00 EMaxC= 1.00D-01 BMatC= 4.47D-12 BMatP= 4.92D-11
 IDIUse=1 WtCom= 1.00D+00 WtEn= 0.00D+00
 Coeff-Com:  0.313D-04-0.143D-03 0.372D-03-0.841D-03 0.113D-01-0.634D-01
 Coeff-Com:  0.226D+00-0.813D+00 0.164D+01
 Coeff:      0.313D-04-0.143D-03 0.372D-03-0.841D-03 0.113D-01-0.634D-01
 Coeff:      0.226D+00-0.813D+00 0.164D+01
 Gap=     0.377 Goal=   None    Shift=    0.000
 RMSDP=1.61D-07 MaxDP=2.48D-06 DE=-3.18D-10 OVMax= 2.19D-06

 Cycle  10  Pass 1  IDiag  3:
 E=-0.209457229393593E-01 Delta-E=       -0.000000000031 Rises=F Damp=F
 DIIS: error= 6.67D-08 at cycle  10 NSaved=  10.
 NSaved=10 IEnMin=10 EnMin=-0.209457229393593E-01 IErMin=10 ErrMin= 6.67D-08
 ErrMax= 6.67D-08  0.00D+00 EMaxC= 1.00D-01 BMatC= 2.58D-13 BMatP= 4.47D-12
 IDIUse=1 WtCom= 1.00D+00 WtEn= 0.00D+00
 Coeff-Com: -0.414D-05 0.176D-04-0.257D-04 0.213D-04-0.273D-02 0.178D-01
 Coeff-Com: -0.677D-01 0.279D+00-0.771D+00 0.155D+01
 Coeff:     -0.414D-05 0.176D-04-0.257D-04 0.213D-04-0.273D-02 0.178D-01
 Coeff:     -0.677D-01 0.279D+00-0.771D+00 0.155D+01
 Gap=     0.377 Goal=   None    Shift=    0.000
 RMSDP=3.90D-08 MaxDP=5.52D-07 DE=-3.09D-11 OVMax= 4.17D-07

 Cycle  11  Pass 1  IDiag  3:
 E=-0.209457229412919E-01 Delta-E=       -0.000000000002 Rises=F Damp=F
 DIIS: error= 1.22D-08 at cycle  11 NSaved=  11.
 NSaved=11 IEnMin=11 EnMin=-0.209457229412919E-01 IErMin=11 ErrMin= 1.22D-08
 ErrMax= 1.22D-08  0.00D+00 EMaxC= 1.00D-01 BMatC= 7.74D-15 BMatP= 2.58D-13
 IDIUse=1 WtCom= 1.00D+00 WtEn= 0.00D+00
 Coeff-Com:  0.730D-06-0.278D-05-0.132D-05 0.219D-04 0.777D-03-0.543D-02
 Coeff-Com:  0.211D-01-0.903D-01 0.270D+00-0.648D+00 0.145D+01
 Coeff:      0.730D-06-0.278D-05-0.132D-05 0.219D-04 0.777D-03-0.543D-02
 Coeff:      0.211D-01-0.903D-01 0.270D+00-0.648D+00 0.145D+01
 Gap=     0.377 Goal=   None    Shift=    0.000
 RMSDP=5.55D-09 MaxDP=8.22D-08 DE=-1.93D-12 OVMax= 4.40D-08

 Cycle  12  Pass 2  IDiag  1:
 SCF Done:  E(RPM3) = -0.209457229413E-01 A.U. after   12 cycles
            NFock= 11  Conv=0.55D-08     -V/T= 0.9997
 KE=-7.902249008833D+01 PE=-4.867447888191D+02 EE= 2.635227995377D+02
 Leave Link  502 at Tue Sep  6 13:42:07 2022, MaxMem=   131072000 cpu:               0.0 elap:               0.0
 (Enter /opt/g16/l601.exe)
 Copying SCF densities to generalized density rwf, IOpCl= 0 IROHF=0.

 **********************************************************************

            Population analysis using the SCF density.

 **********************************************************************

 Orbital symmetries:
       Occupied  (A) (A) (A) (A) (A) (A) (A) (A) (A) (A) (A) (A)
                 (A) (A) (A) (A) (A) (A) (A) (A) (A) (A) (A) (A)
                 (A) (A) (A) (A) (A)
       Virtual   (A) (A) (A) (A) (A) (A) (A) (A) (A) (A) (A) (A)
                 (A) (A) (A) (A) (A) (A) (A) (A) (A) (A) (A) (A)
                 (A) (A) (A) (A) (A)
 The electronic state is 1-A.
 Alpha  occ. eigenvalues --   -1.45409  -1.35174  -1.19169  -1.07834  -1.01349
 Alpha  occ. eigenvalues --   -0.96844  -0.87375  -0.78858  -0.66701  -0.64975
 Alpha  occ. eigenvalues --   -0.60596  -0.59881  -0.56735  -0.56207  -0.55042
 Alpha  occ. eigenvalues --   -0.53470  -0.51188  -0.50530  -0.49419  -0.48633
 Alpha  occ. eigenvalues --   -0.48486  -0.47687  -0.47128  -0.46669  -0.44995
 Alpha  occ. eigenvalues --   -0.43790  -0.42183  -0.35431  -0.34323
 Alpha virt. eigenvalues --    0.03416   0.04202   0.11660   0.12400   0.13338
 Alpha virt. eigenvalues --    0.13644   0.13981   0.14253   0.14793   0.14957
 Alpha virt. eigenvalues --    0.15557   0.15760   0.16025   0.16259   0.16401
 Alpha virt. eigenvalues --    0.16451   0.16496   0.16715   0.16772   0.16989
 Alpha virt. eigenvalues --    0.17047   0.17142   0.17780   0.17895   0.18109
 Alpha virt. eigenvalues --    0.20724   0.21140   0.22245   0.22526
          Condensed to atoms (all electrons):
               1          2          3          4          5          6
     1  C    4.051340   0.000000   0.000000   0.000000   0.000000   0.000000
     2  H    0.000000   0.948819   0.000000   0.000000   0.000000   0.000000
     3  H    0.000000   0.000000   0.945265   0.000000   0.000000   0.000000
     4  C    0.000000   0.000000   0.000000   4.125577   0.000000   0.000000
     5  C    0.000000   0.000000   0.000000   0.000000   4.066157   0.000000
     6  H    0.000000   0.000000   0.000000   0.000000   0.000000   0.956897
     7  H    0.000000   0.000000   0.000000   0.000000   0.000000   0.000000
     8  H    0.000000   0.000000   0.000000   0.000000   0.000000   0.000000
     9  C    0.000000   0.000000   0.000000   0.000000   0.000000   0.000000
    10  H    0.000000   0.000000   0.000000   0.000000   0.000000   0.000000
    11  C    0.000000   0.000000   0.000000   0.000000   0.000000   0.000000
    12  H    0.000000   0.000000   0.000000   0.000000   0.000000   0.000000
    13  H    0.000000   0.000000   0.000000   0.000000   0.000000   0.000000
    14  H    0.000000   0.000000   0.000000   0.000000   0.000000   0.000000
    15  C    0.000000   0.000000   0.000000   0.000000   0.000000   0.000000
    16  H    0.000000   0.000000   0.000000   0.000000   0.000000   0.000000
    17  H    0.000000   0.000000   0.000000   0.000000   0.000000   0.000000
    18  H    0.000000   0.000000   0.000000   0.000000   0.000000   0.000000
    19  C    0.000000   0.000000   0.000000   0.000000   0.000000   0.000000
    20  C    0.000000   0.000000   0.000000   0.000000   0.000000   0.000000
    21  H    0.000000   0.000000   0.000000   0.000000   0.000000   0.000000
    22  H    0.000000   0.000000   0.000000   0.000000   0.000000   0.000000
    23  H    0.000000   0.000000   0.000000   0.000000   0.000000   0.000000
    24  C    0.000000   0.000000   0.000000   0.000000   0.000000   0.000000
    25  H    0.000000   0.000000   0.000000   0.000000   0.000000   0.000000
    26  C    0.000000   0.000000   0.000000   0.000000   0.000000   0.000000
    27  H    0.000000   0.000000   0.000000   0.000000   0.000000   0.000000
    28  H    0.000000   0.000000   0.000000   0.000000   0.000000   0.000000
               7          8          9         10         11         12
     1  C    0.000000   0.000000   0.000000   0.000000   0.000000   0.000000
     2  H    0.000000   0.000000   0.000000   0.000000   0.000000   0.000000
     3  H    0.000000   0.000000   0.000000   0.000000   0.000000   0.000000
     4  C    0.000000   0.000000   0.000000   0.000000   0.000000   0.000000
     5  C    0.000000   0.000000   0.000000   0.000000   0.000000   0.000000
     6  H    0.000000   0.000000   0.000000   0.000000   0.000000   0.000000
     7  H    0.953590   0.000000   0.000000   0.000000   0.000000   0.000000
     8  H    0.000000   0.956052   0.000000   0.000000   0.000000   0.000000
     9  C    0.000000   0.000000   4.151830   0.000000   0.000000   0.000000
    10  H    0.000000   0.000000   0.000000   0.906572   0.000000   0.000000
    11  C    0.000000   0.000000   0.000000   0.000000   4.066167   0.000000
    12  H    0.000000   0.000000   0.000000   0.000000   0.000000   0.957121
    13  H    0.000000   0.000000   0.000000   0.000000   0.000000   0.000000
    14  H    0.000000   0.000000   0.000000   0.000000   0.000000   0.000000
    15  C    0.000000   0.000000   0.000000   0.000000   0.000000   0.000000
    16  H    0.000000   0.000000   0.000000   0.000000   0.000000   0.000000
    17  H    0.000000   0.000000   0.000000   0.000000   0.000000   0.000000
    18  H    0.000000   0.000000   0.000000   0.000000   0.000000   0.000000
    19  C    0.000000   0.000000   0.000000   0.000000   0.000000   0.000000
    20  C    0.000000   0.000000   0.000000   0.000000   0.000000   0.000000
    21  H    0.000000   0.000000   0.000000   0.000000   0.000000   0.000000
    22  H    0.000000   0.000000   0.000000   0.000000   0.000000   0.000000
    23  H    0.000000   0.000000   0.000000   0.000000   0.000000   0.000000
    24  C    0.000000   0.000000   0.000000   0.000000   0.000000   0.000000
    25  H    0.000000   0.000000   0.000000   0.000000   0.000000   0.000000
    26  C    0.000000   0.000000   0.000000   0.000000   0.000000   0.000000
    27  H    0.000000   0.000000   0.000000   0.000000   0.000000   0.000000
    28  H    0.000000   0.000000   0.000000   0.000000   0.000000   0.000000
              13         14         15         16         17         18
     1  C    0.000000   0.000000   0.000000   0.000000   0.000000   0.000000
     2  H    0.000000   0.000000   0.000000   0.000000   0.000000   0.000000
     3  H    0.000000   0.000000   0.000000   0.000000   0.000000   0.000000
     4  C    0.000000   0.000000   0.000000   0.000000   0.000000   0.000000
     5  C    0.000000   0.000000   0.000000   0.000000   0.000000   0.000000
     6  H    0.000000   0.000000   0.000000   0.000000   0.000000   0.000000
     7  H    0.000000   0.000000   0.000000   0.000000   0.000000   0.000000
     8  H    0.000000   0.000000   0.000000   0.000000   0.000000   0.000000
     9  C    0.000000   0.000000   0.000000   0.000000   0.000000   0.000000
    10  H    0.000000   0.000000   0.000000   0.000000   0.000000   0.000000
    11  C    0.000000   0.000000   0.000000   0.000000   0.000000   0.000000
    12  H    0.000000   0.000000   0.000000   0.000000   0.000000   0.000000
    13  H    0.955538   0.000000   0.000000   0.000000   0.000000   0.000000
    14  H    0.000000   0.958503   0.000000   0.000000   0.000000   0.000000
    15  C    0.000000   0.000000   4.068556   0.000000   0.000000   0.000000
    16  H    0.000000   0.000000   0.000000   0.955823   0.000000   0.000000
    17  H    0.000000   0.000000   0.000000   0.000000   0.958946   0.000000
    18  H    0.000000   0.000000   0.000000   0.000000   0.000000   0.955642
    19  C    0.000000   0.000000   0.000000   0.000000   0.000000   0.000000
    20  C    0.000000   0.000000   0.000000   0.000000   0.000000   0.000000
    21  H    0.000000   0.000000   0.000000   0.000000   0.000000   0.000000
    22  H    0.000000   0.000000   0.000000   0.000000   0.000000   0.000000
    23  H    0.000000   0.000000   0.000000   0.000000   0.000000   0.000000
    24  C    0.000000   0.000000   0.000000   0.000000   0.000000   0.000000
    25  H    0.000000   0.000000   0.000000   0.000000   0.000000   0.000000
    26  C    0.000000   0.000000   0.000000   0.000000   0.000000   0.000000
    27  H    0.000000   0.000000   0.000000   0.000000   0.000000   0.000000
    28  H    0.000000   0.000000   0.000000   0.000000   0.000000   0.000000
              19         20         21         22         23         24
     1  C    0.000000   0.000000   0.000000   0.000000   0.000000   0.000000
     2  H    0.000000   0.000000   0.000000   0.000000   0.000000   0.000000
     3  H    0.000000   0.000000   0.000000   0.000000   0.000000   0.000000
     4  C    0.000000   0.000000   0.000000   0.000000   0.000000   0.000000
     5  C    0.000000   0.000000   0.000000   0.000000   0.000000   0.000000
     6  H    0.000000   0.000000   0.000000   0.000000   0.000000   0.000000
     7  H    0.000000   0.000000   0.000000   0.000000   0.000000   0.000000
     8  H    0.000000   0.000000   0.000000   0.000000   0.000000   0.000000
     9  C    0.000000   0.000000   0.000000   0.000000   0.000000   0.000000
    10  H    0.000000   0.000000   0.000000   0.000000   0.000000   0.000000
    11  C    0.000000   0.000000   0.000000   0.000000   0.000000   0.000000
    12  H    0.000000   0.000000   0.000000   0.000000   0.000000   0.000000
    13  H    0.000000   0.000000   0.000000   0.000000   0.000000   0.000000
    14  H    0.000000   0.000000   0.000000   0.000000   0.000000   0.000000
    15  C    0.000000   0.000000   0.000000   0.000000   0.000000   0.000000
    16  H    0.000000   0.000000   0.000000   0.000000   0.000000   0.000000
    17  H    0.000000   0.000000   0.000000   0.000000   0.000000   0.000000
    18  H    0.000000   0.000000   0.000000   0.000000   0.000000   0.000000
    19  C    4.118657   0.000000   0.000000   0.000000   0.000000   0.000000
    20  C    0.000000   4.067722   0.000000   0.000000   0.000000   0.000000
    21  H    0.000000   0.000000   0.954601   0.000000   0.000000   0.000000
    22  H    0.000000   0.000000   0.000000   0.954861   0.000000   0.000000
    23  H    0.000000   0.000000   0.000000   0.000000   0.956335   0.000000
    24  C    0.000000   0.000000   0.000000   0.000000   0.000000   4.158371
    25  H    0.000000   0.000000   0.000000   0.000000   0.000000   0.000000
    26  C    0.000000   0.000000   0.000000   0.000000   0.000000   0.000000
    27  H    0.000000   0.000000   0.000000   0.000000   0.000000   0.000000
    28  H    0.000000   0.000000   0.000000   0.000000   0.000000   0.000000
              25         26         27         28
     1  C    0.000000   0.000000   0.000000   0.000000
     2  H    0.000000   0.000000   0.000000   0.000000
     3  H    0.000000   0.000000   0.000000   0.000000
     4  C    0.000000   0.000000   0.000000   0.000000
     5  C    0.000000   0.000000   0.000000   0.000000
     6  H    0.000000   0.000000   0.000000   0.000000
     7  H    0.000000   0.000000   0.000000   0.000000
     8  H    0.000000   0.000000   0.000000   0.000000
     9  C    0.000000   0.000000   0.000000   0.000000
    10  H    0.000000   0.000000   0.000000   0.000000
    11  C    0.000000   0.000000   0.000000   0.000000
    12  H    0.000000   0.000000   0.000000   0.000000
    13  H    0.000000   0.000000   0.000000   0.000000
    14  H    0.000000   0.000000   0.000000   0.000000
    15  C    0.000000   0.000000   0.000000   0.000000
    16  H    0.000000   0.000000   0.000000   0.000000
    17  H    0.000000   0.000000   0.000000   0.000000
    18  H    0.000000   0.000000   0.000000   0.000000
    19  C    0.000000   0.000000   0.000000   0.000000
    20  C    0.000000   0.000000   0.000000   0.000000
    21  H    0.000000   0.000000   0.000000   0.000000
    22  H    0.000000   0.000000   0.000000   0.000000
    23  H    0.000000   0.000000   0.000000   0.000000
    24  C    0.000000   0.000000   0.000000   0.000000
    25  H    0.904670   0.000000   0.000000   0.000000
    26  C    0.000000   4.054578   0.000000   0.000000
    27  H    0.000000   0.000000   0.947090   0.000000
    28  H    0.000000   0.000000   0.000000   0.944722
 Mulliken charges:
               1
     1  C   -0.051340
     2  H    0.051181
     3  H    0.054735
     4  C   -0.125577
     5  C   -0.066157
     6  H    0.043103
     7  H    0.046410
     8  H    0.043948
     9  C   -0.151830
    10  H    0.093428
    11  C   -0.066167
    12  H    0.042879
    13  H    0.044462
    14  H    0.041497
    15  C   -0.068556
    16  H    0.044177
    17  H    0.041054
    18  H    0.044358
    19  C   -0.118657
    20  C   -0.067722
    21  H    0.045399
    22  H    0.045139
    23  H    0.043665
    24  C   -0.158371
    25  H    0.095330
    26  C   -0.054578
    27  H    0.052910
    28  H    0.055278
 Sum of Mulliken charges =  -0.00000
 Mulliken charges with hydrogens summed into heavy atoms:
               1
     1  C    0.054576
     4  C   -0.125577
     5  C    0.067304
     9  C   -0.058402
    11  C    0.062671
    15  C    0.061033
    19  C   -0.118657
    20  C    0.066482
    24  C   -0.063041
    26  C    0.053611
 Charge=             -0.0000 electrons
 Dipole moment (field-independent basis, Debye):
    X=              0.1604    Y=              0.2921    Z=             -0.0162  Tot=              0.3337
 N-N= 3.022235336469D+02 E-N=-4.867447890724D+02  KE=-7.902249008833D+01
 Leave Link  601 at Tue Sep  6 13:42:07 2022, MaxMem=   131072000 cpu:               0.0 elap:               0.0
 (Enter /opt/g16/l701.exe)
 ... and contract with generalized density number  0.
 Compute integral first derivatives.
 Leave Link  701 at Tue Sep  6 13:42:07 2022, MaxMem=   131072000 cpu:               0.0 elap:               0.0
 (Enter /opt/g16/l702.exe)
 L702 exits ... SP integral derivatives will be done elsewhere.
 Leave Link  702 at Tue Sep  6 13:42:07 2022, MaxMem=   131072000 cpu:               0.0 elap:               0.0
 (Enter /opt/g16/l703.exe)
 Integral derivatives from FoFJK, PRISM(SPDF).
 Compute integral first derivatives, UseDBF=F ICtDFT=           0.
 Calling FoFJK, ICntrl=      2127 FMM=F ISym2X=0 I1Cent= 0 IOpClX= 0 NMat=1 NMatS=1 NMatT=0.
 FoFJK:  IHMeth= 9 ICntrl=    2127 DoSepK=F KAlg= 0 I1Cent=           0 FoldK=F
 IRaf=         0 NMat=       1 IRICut=       1 DoRegI=T DoRafI=F ISym2E= 0 IDoP0=3 IntGTp=3.
 FoFCou: FMM=F IPFlag=           0 FMFlag=      100000 FMFlg1=         800
         NFxFlg=           0 DoJE=F BraDBF=F KetDBF=F FulRan=T
         wScrn=  0.000000 ICntrl=      2127 IOpCl=  0 I1Cent=           0 NGrid=           0
         NMat0=    1 NMatS0=      1 NMatT0=    0 NMatD0=    1 NMtDS0=    0 NMtDT0=    0
 Symmetry not used in FoFCou.
 Leave Link  703 at Tue Sep  6 13:42:07 2022, MaxMem=   131072000 cpu:               0.0 elap:               0.0
 (Enter /opt/g16/l716.exe)
 Dipole        = 6.31163619D-02 1.14931058D-01-6.38351980D-03
 ***** Axes restored to original set *****
 -------------------------------------------------------------------
 Center     Atomic                   Forces (Hartrees/Bohr)
 Number     Number              X              Y              Z
 -------------------------------------------------------------------
      1        6           0.008154566   -0.010400942   -0.007291946
      2        1           0.000777881    0.000695817    0.006418432
      3        1          -0.002309105    0.005162395   -0.003298716
      4        6           0.001229626   -0.000315014   -0.003178700
      5        6          -0.000333600    0.000559714    0.017545030
      6        1          -0.002382326    0.001225500   -0.000753430
      7        1          -0.001461034   -0.001721432   -0.000911449
      8        1           0.005105456   -0.001997749    0.000748510
      9        6          -0.002016005   -0.001497032   -0.013524330
     10        1          -0.000950262    0.000260843    0.005472878
     11        6          -0.017031225    0.003969496    0.003258878
     12        1          -0.000788498    0.001154572   -0.004807851
     13        1           0.001749738    0.001520685   -0.000006141
     14        1           0.001263911   -0.001674967    0.001206215
     15        6           0.013232219   -0.003230955   -0.007410635
     16        1          -0.001688271   -0.000179894   -0.000868048
     17        1           0.000225782   -0.000413007    0.001826412
     18        1          -0.001188984    0.001451488   -0.000469009
     19        6           0.003715968    0.000925891   -0.002624098
     20        6           0.001744259   -0.003024671    0.015920569
     21        1           0.004511089   -0.002137891   -0.000418838
     22        1          -0.001433261   -0.000885686   -0.000900069
     23        1          -0.001852459    0.001562124   -0.000119379
     24        6          -0.001179236    0.002977201   -0.012728298
     25        1           0.000190925   -0.000297342    0.005264000
     26        6          -0.008187965    0.011345930    0.008725142
     27        1           0.002594776   -0.005727627    0.002408952
     28        1          -0.001693966    0.000692552   -0.009484082
 -------------------------------------------------------------------
 Cartesian Forces:  Max     0.017545030 RMS     0.005382947
 Leave Link  716 at Tue Sep  6 13:42:07 2022, MaxMem=   131072000 cpu:               0.0 elap:               0.0
 (Enter /opt/g16/l103.exe)

 GradGradGradGradGradGradGradGradGradGradGradGradGradGradGradGradGradGrad
 Berny optimization.
 FormGI is forming the generalized inverse of G from B-inverse, IUseBI=4.
 Internal  Forces:  Max     0.019630926 RMS     0.005011145
 Search for a local minimum.
 Step number   1 out of a maximum of  138
 All quantities printed in internal units (Hartrees-Bohrs-Radians)
 RMS Force = .50111D-02 SwitMx=.10000D-02 MixMth= 1
 Mixed Optimization -- RFO/linear search
 Second derivative matrix not updated -- first step.
 ITU=  0
     Eigenvalues ---    0.00329   0.00509   0.00679   0.00691   0.00692
     Eigenvalues ---    0.00716   0.00823   0.01208   0.01287   0.01568
     Eigenvalues ---    0.01643   0.02775   0.02784   0.03987   0.04128
     Eigenvalues ---    0.05346   0.05392   0.06977   0.06982   0.07016
     Eigenvalues ---    0.07091   0.07291   0.07301   0.07347   0.07512
     Eigenvalues ---    0.09280   0.09379   0.12767   0.12860   0.15999
     Eigenvalues ---    0.15999   0.16000   0.16000   0.16000   0.16000
     Eigenvalues ---    0.16000   0.16000   0.16000   0.16000   0.16000
     Eigenvalues ---    0.16000   0.16000   0.16000   0.21869   0.21900
     Eigenvalues ---    0.22000   0.22000   0.24987   0.24993   0.24998
     Eigenvalues ---    0.24999   0.29144   0.30421   0.31698   0.31787
     Eigenvalues ---    0.31796   0.31984   0.32831   0.33849   0.33911
     Eigenvalues ---    0.33931   0.34193   0.34196   0.34239   0.34245
     Eigenvalues ---    0.34245   0.34245   0.34262   0.34317   0.34319
     Eigenvalues ---    0.34330   0.34534   0.34544   0.34630   0.34788
     Eigenvalues ---    0.34807   0.55428   0.55574
 RFO step:  Lambda=-1.01404221D-02 EMin= 3.28763712D-03
 Linear search not attempted -- first point.
 Iteration  1 RMS(Cart)=  0.11228215 RMS(Int)=  0.00216429
 Iteration  2 RMS(Cart)=  0.00371339 RMS(Int)=  0.00006787
 Iteration  3 RMS(Cart)=  0.00000450 RMS(Int)=  0.00006781
 Iteration  4 RMS(Cart)=  0.00000000 RMS(Int)=  0.00006781
 ITry= 1 IFail=0 DXMaxC= 3.84D-01 DCOld= 1.00D+10 DXMaxT= 3.00D-01 DXLimC= 3.00D+00 Rises=F
 Variable       Old X    -DE/DX   Delta X   Delta X   Delta X     New X
                                 (Linear)    (Quad)   (Total)
    R1        2.07585   0.00649   0.00000   0.01863   0.01863   2.09448
    R2        2.07480   0.00647   0.00000   0.01853   0.01853   2.09334
    R3        2.87131  -0.01621   0.00000  -0.05157  -0.05157   2.81974
    R4        2.89704  -0.00820   0.00000  -0.02720  -0.02720   2.86984
    R5        2.84519  -0.01666   0.00000  -0.05078  -0.05078   2.79441
    R6        2.54754  -0.01963   0.00000  -0.03478  -0.03478   2.51276
    R7        2.07000   0.00232   0.00000   0.00660   0.00660   2.07660
    R8        2.06798   0.00241   0.00000   0.00682   0.00682   2.07480
    R9        2.06421   0.00445   0.00000   0.01251   0.01251   2.07672
   R10        2.05990   0.00555   0.00000   0.01550   0.01550   2.07540
   R11        2.82650  -0.01485   0.00000  -0.04389  -0.04389   2.78261
   R12        2.06279   0.00446   0.00000   0.01251   0.01251   2.07530
   R13        2.06776   0.00222   0.00000   0.00627   0.00627   2.07404
   R14        2.06918   0.00232   0.00000   0.00658   0.00658   2.07576
   R15        2.06919   0.00168   0.00000   0.00476   0.00476   2.07396
   R16        2.06929   0.00189   0.00000   0.00535   0.00535   2.07464
   R17        2.06919   0.00173   0.00000   0.00491   0.00491   2.07409
   R18        2.84699  -0.01286   0.00000  -0.03931  -0.03931   2.80769
   R19        2.84173  -0.01535   0.00000  -0.04653  -0.04653   2.79519
   R20        2.54626  -0.01863   0.00000  -0.03292  -0.03292   2.51334
   R21        2.06437   0.00416   0.00000   0.01171   0.01171   2.07609
   R22        2.06890   0.00187   0.00000   0.00531   0.00531   2.07421
   R23        2.07005   0.00212   0.00000   0.00601   0.00601   2.07606
   R24        2.06020   0.00524   0.00000   0.01463   0.01463   2.07484
   R25        2.84535  -0.01590   0.00000  -0.04847  -0.04847   2.79688
   R26        2.07446   0.00672   0.00000   0.01924   0.01924   2.09370
   R27        2.06796   0.00939   0.00000   0.02658   0.02658   2.09454
    A1        1.84359  -0.00032   0.00000   0.00942   0.00936   1.85294
    A2        1.92281   0.00179   0.00000   0.00778   0.00777   1.93058
    A3        1.90526   0.00155   0.00000   0.00674   0.00675   1.91201
    A4        1.90034   0.00169   0.00000   0.00405   0.00393   1.90426
    A5        1.92126   0.00120   0.00000   0.00179   0.00171   1.92297
    A6        1.96660  -0.00555   0.00000  -0.02735  -0.02740   1.93919
    A7        2.00902   0.00354   0.00000   0.01373   0.01368   2.02270
    A8        2.09804   0.00213   0.00000   0.00836   0.00831   2.10635
    A9        2.17575  -0.00566   0.00000  -0.02162  -0.02167   2.15408
   A10        1.92348   0.00095   0.00000   0.00868   0.00872   1.93219
   A11        1.92718   0.00011   0.00000  -0.00249  -0.00257   1.92460
   A12        1.97599  -0.00372   0.00000  -0.02183  -0.02187   1.95412
   A13        1.89136  -0.00057   0.00000  -0.00342  -0.00342   1.88794
   A14        1.85820   0.00254   0.00000   0.02062   0.02068   1.87888
   A15        1.88451   0.00086   0.00000  -0.00046  -0.00061   1.88390
   A16        2.06600   0.00557   0.00000   0.02381   0.02377   2.08977
   A17        2.23483  -0.01176   0.00000  -0.05102  -0.05107   2.18376
   A18        1.98223   0.00619   0.00000   0.02747   0.02742   2.00966
   A19        1.98414  -0.00273   0.00000  -0.01755  -0.01756   1.96657
   A20        1.91716   0.00076   0.00000   0.00259   0.00252   1.91967
   A21        1.90920   0.00148   0.00000   0.01198   0.01198   1.92118
   A22        1.89335  -0.00016   0.00000  -0.00684  -0.00693   1.88642
   A23        1.87109   0.00121   0.00000   0.01036   0.01041   1.88150
   A24        1.88608  -0.00048   0.00000   0.00021   0.00016   1.88624
   A25        1.87887   0.00011   0.00000   0.00218   0.00217   1.88105
   A26        1.89474  -0.00091   0.00000  -0.00849  -0.00849   1.88625
   A27        1.92347   0.00021   0.00000   0.00048   0.00048   1.92395
   A28        1.87921   0.00004   0.00000   0.00172   0.00172   1.88093
   A29        1.96064   0.00019   0.00000   0.00270   0.00269   1.96333
   A30        1.92489   0.00031   0.00000   0.00103   0.00102   1.92591
   A31        1.99483   0.00307   0.00000   0.01185   0.01182   2.00666
   A32        2.10555   0.00254   0.00000   0.00979   0.00976   2.11531
   A33        2.18275  -0.00561   0.00000  -0.02152  -0.02154   2.16121
   A34        1.97925  -0.00351   0.00000  -0.02090  -0.02092   1.95834
   A35        1.92178   0.00058   0.00000   0.00151   0.00147   1.92325
   A36        1.92085   0.00074   0.00000   0.00655   0.00657   1.92742
   A37        1.88483   0.00077   0.00000   0.00066   0.00059   1.88541
   A38        1.86354   0.00210   0.00000   0.01580   0.01585   1.87939
   A39        1.89071  -0.00057   0.00000  -0.00282  -0.00283   1.88788
   A40        2.06741   0.00541   0.00000   0.02353   0.02348   2.09090
   A41        2.22751  -0.01095   0.00000  -0.04753  -0.04758   2.17994
   A42        1.98812   0.00555   0.00000   0.02428   0.02423   2.01235
   A43        1.94454  -0.00414   0.00000  -0.02165  -0.02179   1.92276
   A44        1.91550   0.00098   0.00000   0.00778   0.00789   1.92339
   A45        1.93293   0.00045   0.00000  -0.00671  -0.00695   1.92599
   A46        1.88326   0.00189   0.00000   0.01484   0.01491   1.89817
   A47        1.94140   0.00097   0.00000  -0.00407  -0.00438   1.93702
   A48        1.84268   0.00015   0.00000   0.01259   0.01260   1.85528
    D1       -2.90184  -0.00074   0.00000  -0.00809  -0.00823  -2.91006
    D2        0.21134  -0.00045   0.00000   0.00902   0.00912   0.22046
    D3       -0.88769   0.00083   0.00000   0.00983   0.00972  -0.87797
    D4        2.22549   0.00112   0.00000   0.02694   0.02706   2.25255
    D5        1.24901  -0.00017   0.00000  -0.00334  -0.00344   1.24557
    D6       -1.92100   0.00012   0.00000   0.01376   0.01390  -1.90709
    D7        0.94796   0.00112   0.00000   0.01899   0.01892   0.96688
    D8       -1.13682   0.00074   0.00000   0.00911   0.00912  -1.12769
    D9        3.11870  -0.00030   0.00000  -0.00697  -0.00689   3.11180
   D10       -1.06813  -0.00005   0.00000   0.00280   0.00274  -1.06539
   D11        3.13028  -0.00044   0.00000  -0.00707  -0.00705   3.12322
   D12        1.10260  -0.00147   0.00000  -0.02315  -0.02307   1.07953
   D13        3.09016   0.00075   0.00000   0.01515   0.01505   3.10522
   D14        1.00539   0.00036   0.00000   0.00528   0.00526   1.01064
   D15       -1.02229  -0.00067   0.00000  -0.01080  -0.01076  -1.03305
   D16        0.80173  -0.00003   0.00000   0.01673   0.01669   0.81843
   D17       -1.28724   0.00000   0.00000   0.01702   0.01702  -1.27022
   D18        2.88066   0.00140   0.00000   0.03459   0.03445   2.91511
   D19       -2.31001  -0.00049   0.00000  -0.00184  -0.00176  -2.31176
   D20        1.88420  -0.00045   0.00000  -0.00155  -0.00143   1.88277
   D21       -0.23108   0.00095   0.00000   0.01602   0.01600  -0.21508
   D22        0.00341   0.00035   0.00000   0.00301   0.00308   0.00650
   D23        3.12718   0.00087   0.00000   0.02287   0.02295  -3.13306
   D24        3.11373   0.00085   0.00000   0.02252   0.02243   3.13616
   D25       -0.04569   0.00137   0.00000   0.04237   0.04230  -0.00339
   D26       -0.15785   0.00076   0.00000   0.01245   0.01240  -0.14545
   D27        1.96719  -0.00080   0.00000  -0.00670  -0.00669   1.96050
   D28       -2.24854  -0.00004   0.00000   0.00230   0.00235  -2.24619
   D29        2.96663   0.00126   0.00000   0.03153   0.03147   2.99810
   D30       -1.19152  -0.00030   0.00000   0.01237   0.01238  -1.17914
   D31        0.87594   0.00046   0.00000   0.02138   0.02142   0.89736
   D32        1.03961  -0.00054   0.00000  -0.01193  -0.01201   1.02760
   D33       -2.11180  -0.00030   0.00000   0.00014   0.00022  -2.11158
   D34        3.13464  -0.00014   0.00000  -0.00704  -0.00712   3.12752
   D35       -0.01677   0.00011   0.00000   0.00503   0.00511  -0.01166
   D36       -1.05211   0.00025   0.00000  -0.00235  -0.00243  -1.05454
   D37        2.07966   0.00050   0.00000   0.00972   0.00980   2.08947
   D38        3.00368   0.00093   0.00000   0.02276   0.02266   3.02634
   D39       -1.16548  -0.00007   0.00000   0.01031   0.01029  -1.15520
   D40        0.91763   0.00006   0.00000   0.01187   0.01185   0.92947
   D41       -0.12758   0.00061   0.00000   0.00985   0.00985  -0.11773
   D42        1.98644  -0.00038   0.00000  -0.00259  -0.00252   1.98391
   D43       -2.21364  -0.00026   0.00000  -0.00103  -0.00096  -2.21460
   D44       -0.00912   0.00009   0.00000  -0.00331  -0.00327  -0.01239
   D45        3.11322   0.00058   0.00000   0.01616   0.01622   3.12944
   D46        3.12153   0.00043   0.00000   0.01035   0.01030   3.13183
   D47       -0.03931   0.00091   0.00000   0.02983   0.02979  -0.00952
   D48        1.80011  -0.00050   0.00000  -0.00310  -0.00301   1.79710
   D49       -2.37925  -0.00057   0.00000   0.00296   0.00292  -2.37633
   D50       -0.36585   0.00124   0.00000   0.02454   0.02451  -0.34134
   D51       -1.36000  -0.00002   0.00000   0.01567   0.01574  -1.34426
   D52        0.74382  -0.00009   0.00000   0.02172   0.02167   0.76549
   D53        2.75722   0.00172   0.00000   0.04331   0.04326   2.80049
         Item               Value     Threshold  Converged?
 Maximum Force            0.019631     0.000450     NO 
 RMS     Force            0.005011     0.000300     NO 
 Maximum Displacement     0.384182     0.001800     NO 
 RMS     Displacement     0.112503     0.001200     NO 
 Predicted change in Energy=-5.307331D-03
 Lowest energy point so far.  Saving SCF results.
 GradGradGradGradGradGradGradGradGradGradGradGradGradGradGradGradGradGrad

 Leave Link  103 at Tue Sep  6 13:42:07 2022, MaxMem=   131072000 cpu:               0.0 elap:               0.0
 (Enter /opt/g16/l202.exe)
                          Input orientation:                          
 ---------------------------------------------------------------------
 Center     Atomic      Atomic             Coordinates (Angstroms)
 Number     Number       Type             X           Y           Z
 ---------------------------------------------------------------------
      1          6           0        0.661199    0.751363    0.371881
      2          1           0        0.787844    0.904302    1.462298
      3          1           0        0.290391    1.713289   -0.033459
      4          6           0        1.968674    0.423312   -0.267945
      5          6           0        2.000892    0.494668   -1.744608
      6          1           0        1.532999    1.423661   -2.099019
      7          1           0        1.452694   -0.351946   -2.178420
      8          1           0        3.027821    0.468751   -2.135046
      9          6           0        3.025292    0.102945    0.473009
     10          1           0        2.934537    0.073183    1.567102
     11          6           0        4.360368   -0.226947   -0.053274
     12          1           0        4.371699   -0.326170   -1.146928
     13          1           0        5.077398    0.555920    0.225236
     14          1           0        4.709874   -1.176727    0.373745
     15          6           0       -3.961700    0.722837    0.978439
     16          1           0       -4.794268    0.123965    0.587715
     17          1           0       -3.856115    0.493244    2.046811
     18          1           0       -4.233015    1.782552    0.888786
     19          6           0       -2.721133    0.440491    0.211126
     20          6           0       -2.808731    0.713164   -1.240036
     21          1           0       -1.838448    0.600782   -1.742911
     22          1           0       -3.518543    0.022454   -1.713183
     23          1           0       -3.159424    1.739138   -1.417022
     24          6           0       -1.630011   -0.025038    0.812490
     25          1           0       -1.635335   -0.195254    1.897160
     26          6           0       -0.358101   -0.347637    0.127865
     27          1           0        0.020497   -1.313730    0.516264
     28          1           0       -0.517855   -0.490671   -0.959575
 ---------------------------------------------------------------------
                    Distance matrix (angstroms):
                    1          2          3          4          5
     1  C    0.000000
     2  H    1.108350   0.000000
     3  H    1.107745   1.771781   0.000000
     4  C    1.492141   2.149291   2.129708   0.000000
     5  C    2.517974   3.453047   2.709036   1.478737   0.000000
     6  H    2.705063   3.675319   2.427858   2.131512   1.098890
     7  H    2.889254   3.908326   3.196403   2.125365   1.097939
     8  H    3.459111   4.260057   3.668659   2.147073   1.098952
     9  C    2.453489   2.574303   3.213937   1.329695   2.473998
    10  H    2.656417   2.304351   3.499035   2.103064   3.466520
    11  C    3.849897   4.042229   4.508838   2.487795   2.991399
    12  H    4.151587   4.600667   4.696411   2.666246   2.579093
    13  H    4.422954   4.477942   4.931719   3.150393   3.653617
    14  H    4.484340   4.571427   5.296209   3.238220   3.823554
    15  C    4.662608   4.777574   4.481653   6.067332   6.558929
    16  H    5.495665   5.703841   5.363355   6.823427   7.193842
    17  H    4.824742   4.698614   4.796826   6.268265   6.977062
    18  H    5.028306   5.129256   4.616983   6.453410   6.888759
    19  C    3.400390   3.754128   3.278585   4.714244   5.111297
    20  C    3.826244   4.502721   3.472842   4.883909   4.840951
    21  H    3.277690   4.154865   2.948195   4.086710   3.840807
    22  H    4.727477   5.422758   4.493148   5.688493   5.539688
    23  H    4.332785   4.956648   3.717007   5.417487   5.318353
    24  C    2.458979   2.670571   2.724951   3.784031   4.471276
    25  H    2.914897   2.696280   3.328400   4.249609   5.192361
    26  C    1.518656   2.158994   2.166560   2.482923   3.127376
    27  H    2.167015   2.530508   3.088346   2.725379   3.507679
    28  H    2.169237   3.084846   2.523567   2.737982   2.816249
                    6          7          8          9         10
     6  H    0.000000
     7  H    1.779194   0.000000
     8  H    1.774160   1.776640   0.000000
     9  C    3.253699   3.116098   2.633585   0.000000
    10  H    4.150728   4.050374   3.724388   1.098253   0.000000
    11  C    3.860518   3.603671   2.567772   1.472492   2.179149
    12  H    3.467940   3.096003   1.847778   2.149686   3.096914
    13  H    4.326419   4.443001   3.127186   2.116062   2.574003
    14  H    4.792611   4.219364   3.439612   2.117837   2.477538
    15  C    6.336688   6.358975   7.655830   7.032622   6.951738
    16  H    6.995860   6.848542   8.289595   7.820429   7.790777
    17  H    6.862661   6.837424   8.054631   7.069861   6.820522
    18  H    6.504052   6.803757   7.974294   7.461699   7.399720
    19  C    4.939740   4.874291   6.209331   5.762284   5.827538
    20  C    4.482552   4.491632   5.909832   6.110868   6.424541
    21  H    3.488638   3.453834   4.883828   5.367877   5.832318
    22  H    5.256455   5.006976   6.575106   6.899832   7.239136
    23  H    4.752207   5.120936   6.356999   6.670836   6.986899
    24  C    4.536545   4.307607   5.534184   4.669419   4.627547
    25  H    5.350576   5.115742   6.200371   4.882475   4.589632
    26  C    3.416543   2.932225   4.153519   3.430670   3.618005
    27  H    4.076846   3.199615   4.387560   3.322293   3.394027
    28  H    3.028035   2.321182   3.856687   3.867631   4.315210
                   11         12         13         14         15
    11  C    0.000000
    12  H    1.098204   0.000000
    13  H    1.097533   1.777336   0.000000
    14  H    1.098445   1.774896   1.777412   0.000000
    15  C    8.439392   8.663899   9.071960   8.897763   0.000000
    16  H    9.183756   9.339517   9.887758   9.595119   1.097490
    17  H    8.511147   8.863878   9.117549   8.886175   1.097852
    18  H    8.875348   9.090211   9.414282   9.433868   1.097563
    19  C    7.117798   7.262256   7.799398   7.606689   1.485763
    20  C    7.327223   7.255857   8.022641   7.918674   2.500212
    21  H    6.478066   6.307168   7.190587   7.107763   3.453815
    22  H    8.055727   7.918214   8.827924   8.573223   2.816337
    23  H    7.891297   7.813851   8.481878   8.581082   2.723003
    24  C    6.055986   6.320643   6.758085   6.458563   2.454308
    25  H    6.305050   6.735582   6.958475   6.598921   2.664378
    26  C    4.723487   4.898630   5.510948   5.141227   3.854259
    27  H    4.509984   4.761770   5.399309   4.693543   4.496565
    28  H    4.968702   4.895907   5.814291   5.438526   4.133832
                   16         17         18         19         20
    16  H    0.000000
    17  H    1.773545   0.000000
    18  H    1.776671   1.773525   0.000000
    19  C    2.130703   2.158866   2.132167   0.000000
    20  C    2.762279   3.456695   2.775619   1.479153   0.000000
    21  H    3.794212   4.294710   3.749181   2.150136   1.098618
    22  H    2.632852   3.804359   3.221592   2.124519   1.097625
    23  H    3.049667   3.746434   2.543862   2.128250   1.098605
    24  C    3.175728   2.597634   3.169989   1.330001   2.479351
    25  H    3.434445   2.329869   3.417086   2.103768   3.470458
    26  C    4.484802   4.077442   4.486832   2.492388   3.000339
    27  H    5.025339   4.542669   5.274286   3.269088   3.898386
    28  H    4.589073   4.598959   4.731426   2.663088   2.603072
                   21         22         23         24         25
    21  H    0.000000
    22  H    1.777094   0.000000
    23  H    1.773988   1.778673   0.000000
    24  C    2.639161   3.154018   3.228334   0.000000
    25  H    3.731627   4.077799   4.128985   1.097958   0.000000
    26  C    2.567241   3.676251   3.819517   1.480046   2.187453
    27  H    3.496413   4.390971   4.813470   2.114864   2.428917
    28  H    1.883839   3.136136   3.487003   2.143343   3.081715
                   26         27         28
    26  C    0.000000
    27  H    1.107938   0.000000
[...]
    25  H    6.239380   6.710634   6.821331   6.602944   2.676148
    26  C    4.632328   4.902866   5.437856   4.964696   3.867302
    27  H    4.366012   4.790133   5.207500   4.468815   4.407958
    28  H    4.821944   4.859134   5.739145   5.131550   4.132185
                   16         17         18         19         20
    16  H    0.000000
    17  H    1.772312   0.000000
    18  H    1.772113   1.772189   0.000000
    19  C    2.138186   2.163925   2.138439   0.000000
    20  C    2.773821   3.468777   2.793603   1.486017   0.000000
    21  H    3.808133   4.306649   3.769633   2.156238   1.102494
    22  H    2.653740   3.821265   3.244385   2.136215   1.098180
    23  H    3.062321   3.768388   2.573748   2.139619   1.098015
    24  C    3.193749   2.608529   3.181480   1.339745   2.492265
    25  H    3.453568   2.344910   3.429090   2.113870   3.484522
    26  C    4.505359   4.094694   4.503079   2.503020   3.007686
    27  H    4.860811   4.559658   5.210040   3.126609   3.612284
    28  H    4.684046   4.616917   4.634913   2.648880   2.552493
                   21         22         23         24         25
    21  H    0.000000
    22  H    1.777148   0.000000
    23  H    1.777702   1.773384   0.000000
    24  C    2.645779   3.171871   3.246040   0.000000
    25  H    3.739061   4.096976   4.151074   1.098261   0.000000
    26  C    2.564932   3.685578   3.829354   1.486383   2.195718
    27  H    3.171480   4.022987   4.580890   2.120243   2.610454
    28  H    1.768527   3.234828   3.318565   2.151479   3.107838
                   26         27         28
    26  C    0.000000
    27  H    1.108645   0.000000
    28  H    1.114154   1.772184   0.000000
 Stoichiometry    C10H18
 Framework group  C1[X(C10H18)]
 Deg. of freedom    78
 Full point group                 C1      NOp   1
 RotChk:  IX=2 Diff= 1.24D-15
 Largest Abelian subgroup         C1      NOp   1
 Largest concise Abelian subgroup C1      NOp   1
                         Standard orientation:                         
 ---------------------------------------------------------------------
 Center     Atomic      Atomic             Coordinates (Angstroms)
 Number     Number       Type             X           Y           Z
 ---------------------------------------------------------------------
      1          6           0       -0.643541   -0.480947   -0.740133
      2          1           0       -0.695887   -1.565163   -0.967010
      3          1           0       -0.305930    0.004059   -1.677690
      4          6           0       -1.994764    0.041012   -0.359462
      5          6           0       -2.245398    1.472904   -0.665756
      6          1           0       -2.210569    1.650099   -1.749097
      7          1           0       -1.482737    2.110955   -0.198498
      8          1           0       -3.232066    1.804677   -0.302822
      9          6           0       -2.899129   -0.760463    0.219635
     10          1           0       -2.648538   -1.811242    0.415162
     11          6           0       -4.254549   -0.339729    0.634223
     12          1           0       -4.438163    0.730856    0.444537
     13          1           0       -5.018758   -0.911135    0.090976
     14          1           0       -4.403879   -0.519498    1.706987
     15          6           0        4.159029   -0.658894   -0.267524
     16          1           0        4.848838   -0.657771    0.587416
     17          1           0        4.062980   -1.696121   -0.614810
     18          1           0        4.631183   -0.081578   -1.074213
     19          6           0        2.852576   -0.056557    0.112737
     20          6           0        2.923144    1.338406    0.620032
     21          1           0        1.921422    1.770192    0.780046
     22          1           0        3.459599    1.374947    1.577571
     23          1           0        3.458131    1.985810   -0.087282
     24          6           0        1.711199   -0.748722   -0.001634
     25          1           0        1.730477   -1.776680   -0.387778
     26          6           0        0.369016   -0.230270    0.371311
     27          1           0        0.041892   -0.729728    1.305456
     28          1           0        0.416502    0.856875    0.610478
 ---------------------------------------------------------------------
 Rotational constants (GHZ):           3.3762626           0.4583520           0.4338354
 Leave Link  202 at Tue Sep  6 13:42:13 2022, MaxMem=   131072000 cpu:               0.0 elap:               0.0
 (Enter /opt/g16/l601.exe)
 Copying SCF densities to generalized density rwf, IOpCl= 0 IROHF=0.

 **********************************************************************

            Population analysis using the SCF density.

 **********************************************************************

 Orbital symmetries:
       Occupied  (A) (A) (A) (A) (A) (A) (A) (A) (A) (A) (A) (A)
                 (A) (A) (A) (A) (A) (A) (A) (A) (A) (A) (A) (A)
                 (A) (A) (A) (A) (A)
       Virtual   (A) (A) (A) (A) (A) (A) (A) (A) (A) (A) (A) (A)
                 (A) (A) (A) (A) (A) (A) (A) (A) (A) (A) (A) (A)
                 (A) (A) (A) (A) (A)
 The electronic state is 1-A.
 Alpha  occ. eigenvalues --   -1.46958  -1.36637  -1.19413  -1.07498  -1.01532
 Alpha  occ. eigenvalues --   -0.96532  -0.86779  -0.78719  -0.67180  -0.64778
 Alpha  occ. eigenvalues --   -0.61274  -0.59496  -0.57495  -0.56755  -0.55161
 Alpha  occ. eigenvalues --   -0.53463  -0.51324  -0.50624  -0.49069  -0.48372
 Alpha  occ. eigenvalues --   -0.48326  -0.47749  -0.47349  -0.46847  -0.44569
 Alpha  occ. eigenvalues --   -0.43746  -0.42171  -0.35073  -0.34364
 Alpha virt. eigenvalues --    0.03531   0.04202   0.12017   0.12730   0.13351
 Alpha virt. eigenvalues --    0.13582   0.13721   0.14241   0.14793   0.14885
 Alpha virt. eigenvalues --    0.15501   0.15795   0.15930   0.16324   0.16348
 Alpha virt. eigenvalues --    0.16489   0.16503   0.16586   0.16623   0.16810
 Alpha virt. eigenvalues --    0.17064   0.17102   0.17773   0.17971   0.18089
 Alpha virt. eigenvalues --    0.20994   0.21370   0.22280   0.22544
          Condensed to atoms (all electrons):
               1          2          3          4          5          6
     1  C    4.053899   0.000000   0.000000   0.000000   0.000000   0.000000
     2  H    0.000000   0.947276   0.000000   0.000000   0.000000   0.000000
     3  H    0.000000   0.000000   0.944141   0.000000   0.000000   0.000000
     4  C    0.000000   0.000000   0.000000   4.128111   0.000000   0.000000
     5  C    0.000000   0.000000   0.000000   0.000000   4.075262   0.000000
     6  H    0.000000   0.000000   0.000000   0.000000   0.000000   0.953251
     7  H    0.000000   0.000000   0.000000   0.000000   0.000000   0.000000
     8  H    0.000000   0.000000   0.000000   0.000000   0.000000   0.000000
     9  C    0.000000   0.000000   0.000000   0.000000   0.000000   0.000000
    10  H    0.000000   0.000000   0.000000   0.000000   0.000000   0.000000
    11  C    0.000000   0.000000   0.000000   0.000000   0.000000   0.000000
    12  H    0.000000   0.000000   0.000000   0.000000   0.000000   0.000000
    13  H    0.000000   0.000000   0.000000   0.000000   0.000000   0.000000
    14  H    0.000000   0.000000   0.000000   0.000000   0.000000   0.000000
    15  C    0.000000   0.000000   0.000000   0.000000   0.000000   0.000000
    16  H    0.000000   0.000000   0.000000   0.000000   0.000000   0.000000
    17  H    0.000000   0.000000   0.000000   0.000000   0.000000   0.000000
    18  H    0.000000   0.000000   0.000000   0.000000   0.000000   0.000000
    19  C    0.000000   0.000000   0.000000   0.000000   0.000000   0.000000
    20  C    0.000000   0.000000   0.000000   0.000000   0.000000   0.000000
    21  H    0.000000   0.000000   0.000000   0.000000   0.000000   0.000000
    22  H    0.000000   0.000000   0.000000   0.000000   0.000000   0.000000
    23  H    0.000000   0.000000   0.000000   0.000000   0.000000   0.000000
    24  C    0.000000   0.000000   0.000000   0.000000   0.000000   0.000000
    25  H    0.000000   0.000000   0.000000   0.000000   0.000000   0.000000
    26  C    0.000000   0.000000   0.000000   0.000000   0.000000   0.000000
    27  H    0.000000   0.000000   0.000000   0.000000   0.000000   0.000000
    28  H    0.000000   0.000000   0.000000   0.000000   0.000000   0.000000
               7          8          9         10         11         12
     1  C    0.000000   0.000000   0.000000   0.000000   0.000000   0.000000
     2  H    0.000000   0.000000   0.000000   0.000000   0.000000   0.000000
     3  H    0.000000   0.000000   0.000000   0.000000   0.000000   0.000000
     4  C    0.000000   0.000000   0.000000   0.000000   0.000000   0.000000
     5  C    0.000000   0.000000   0.000000   0.000000   0.000000   0.000000
     6  H    0.000000   0.000000   0.000000   0.000000   0.000000   0.000000
     7  H    0.953626   0.000000   0.000000   0.000000   0.000000   0.000000
     8  H    0.000000   0.950550   0.000000   0.000000   0.000000   0.000000
     9  C    0.000000   0.000000   4.150550   0.000000   0.000000   0.000000
    10  H    0.000000   0.000000   0.000000   0.901421   0.000000   0.000000
    11  C    0.000000   0.000000   0.000000   0.000000   4.078860   0.000000
    12  H    0.000000   0.000000   0.000000   0.000000   0.000000   0.952246
    13  H    0.000000   0.000000   0.000000   0.000000   0.000000   0.000000
    14  H    0.000000   0.000000   0.000000   0.000000   0.000000   0.000000
    15  C    0.000000   0.000000   0.000000   0.000000   0.000000   0.000000
    16  H    0.000000   0.000000   0.000000   0.000000   0.000000   0.000000
    17  H    0.000000   0.000000   0.000000   0.000000   0.000000   0.000000
    18  H    0.000000   0.000000   0.000000   0.000000   0.000000   0.000000
    19  C    0.000000   0.000000   0.000000   0.000000   0.000000   0.000000
    20  C    0.000000   0.000000   0.000000   0.000000   0.000000   0.000000
    21  H    0.000000   0.000000   0.000000   0.000000   0.000000   0.000000
    22  H    0.000000   0.000000   0.000000   0.000000   0.000000   0.000000
    23  H    0.000000   0.000000   0.000000   0.000000   0.000000   0.000000
    24  C    0.000000   0.000000   0.000000   0.000000   0.000000   0.000000
    25  H    0.000000   0.000000   0.000000   0.000000   0.000000   0.000000
    26  C    0.000000   0.000000   0.000000   0.000000   0.000000   0.000000
    27  H    0.000000   0.000000   0.000000   0.000000   0.000000   0.000000
    28  H    0.000000   0.000000   0.000000   0.000000   0.000000   0.000000
              13         14         15         16         17         18
     1  C    0.000000   0.000000   0.000000   0.000000   0.000000   0.000000
     2  H    0.000000   0.000000   0.000000   0.000000   0.000000   0.000000
     3  H    0.000000   0.000000   0.000000   0.000000   0.000000   0.000000
     4  C    0.000000   0.000000   0.000000   0.000000   0.000000   0.000000
     5  C    0.000000   0.000000   0.000000   0.000000   0.000000   0.000000
     6  H    0.000000   0.000000   0.000000   0.000000   0.000000   0.000000
     7  H    0.000000   0.000000   0.000000   0.000000   0.000000   0.000000
     8  H    0.000000   0.000000   0.000000   0.000000   0.000000   0.000000
     9  C    0.000000   0.000000   0.000000   0.000000   0.000000   0.000000
    10  H    0.000000   0.000000   0.000000   0.000000   0.000000   0.000000
    11  C    0.000000   0.000000   0.000000   0.000000   0.000000   0.000000
    12  H    0.000000   0.000000   0.000000   0.000000   0.000000   0.000000
    13  H    0.955199   0.000000   0.000000   0.000000   0.000000   0.000000
    14  H    0.000000   0.955791   0.000000   0.000000   0.000000   0.000000
    15  C    0.000000   0.000000   4.068711   0.000000   0.000000   0.000000
    16  H    0.000000   0.000000   0.000000   0.956433   0.000000   0.000000
    17  H    0.000000   0.000000   0.000000   0.000000   0.958390   0.000000
    18  H    0.000000   0.000000   0.000000   0.000000   0.000000   0.956045
    19  C    0.000000   0.000000   0.000000   0.000000   0.000000   0.000000
    20  C    0.000000   0.000000   0.000000   0.000000   0.000000   0.000000
    21  H    0.000000   0.000000   0.000000   0.000000   0.000000   0.000000
    22  H    0.000000   0.000000   0.000000   0.000000   0.000000   0.000000
    23  H    0.000000   0.000000   0.000000   0.000000   0.000000   0.000000
    24  C    0.000000   0.000000   0.000000   0.000000   0.000000   0.000000
    25  H    0.000000   0.000000   0.000000   0.000000   0.000000   0.000000
    26  C    0.000000   0.000000   0.000000   0.000000   0.000000   0.000000
    27  H    0.000000   0.000000   0.000000   0.000000   0.000000   0.000000
    28  H    0.000000   0.000000   0.000000   0.000000   0.000000   0.000000
              19         20         21         22         23         24
     1  C    0.000000   0.000000   0.000000   0.000000   0.000000   0.000000
     2  H    0.000000   0.000000   0.000000   0.000000   0.000000   0.000000
     3  H    0.000000   0.000000   0.000000   0.000000   0.000000   0.000000
     4  C    0.000000   0.000000   0.000000   0.000000   0.000000   0.000000
     5  C    0.000000   0.000000   0.000000   0.000000   0.000000   0.000000
     6  H    0.000000   0.000000   0.000000   0.000000   0.000000   0.000000
     7  H    0.000000   0.000000   0.000000   0.000000   0.000000   0.000000
     8  H    0.000000   0.000000   0.000000   0.000000   0.000000   0.000000
     9  C    0.000000   0.000000   0.000000   0.000000   0.000000   0.000000
    10  H    0.000000   0.000000   0.000000   0.000000   0.000000   0.000000
    11  C    0.000000   0.000000   0.000000   0.000000   0.000000   0.000000
    12  H    0.000000   0.000000   0.000000   0.000000   0.000000   0.000000
    13  H    0.000000   0.000000   0.000000   0.000000   0.000000   0.000000
    14  H    0.000000   0.000000   0.000000   0.000000   0.000000   0.000000
    15  C    0.000000   0.000000   0.000000   0.000000   0.000000   0.000000
    16  H    0.000000   0.000000   0.000000   0.000000   0.000000   0.000000
    17  H    0.000000   0.000000   0.000000   0.000000   0.000000   0.000000
    18  H    0.000000   0.000000   0.000000   0.000000   0.000000   0.000000
    19  C    4.122893   0.000000   0.000000   0.000000   0.000000   0.000000
    20  C    0.000000   4.076310   0.000000   0.000000   0.000000   0.000000
    21  H    0.000000   0.000000   0.950035   0.000000   0.000000   0.000000
    22  H    0.000000   0.000000   0.000000   0.953721   0.000000   0.000000
    23  H    0.000000   0.000000   0.000000   0.000000   0.954656   0.000000
    24  C    0.000000   0.000000   0.000000   0.000000   0.000000   4.156862
    25  H    0.000000   0.000000   0.000000   0.000000   0.000000   0.000000
    26  C    0.000000   0.000000   0.000000   0.000000   0.000000   0.000000
    27  H    0.000000   0.000000   0.000000   0.000000   0.000000   0.000000
    28  H    0.000000   0.000000   0.000000   0.000000   0.000000   0.000000
              25         26         27         28
     1  C    0.000000   0.000000   0.000000   0.000000
     2  H    0.000000   0.000000   0.000000   0.000000
     3  H    0.000000   0.000000   0.000000   0.000000
     4  C    0.000000   0.000000   0.000000   0.000000
     5  C    0.000000   0.000000   0.000000   0.000000
     6  H    0.000000   0.000000   0.000000   0.000000
     7  H    0.000000   0.000000   0.000000   0.000000
     8  H    0.000000   0.000000   0.000000   0.000000
     9  C    0.000000   0.000000   0.000000   0.000000
    10  H    0.000000   0.000000   0.000000   0.000000
    11  C    0.000000   0.000000   0.000000   0.000000
    12  H    0.000000   0.000000   0.000000   0.000000
    13  H    0.000000   0.000000   0.000000   0.000000
    14  H    0.000000   0.000000   0.000000   0.000000
    15  C    0.000000   0.000000   0.000000   0.000000
    16  H    0.000000   0.000000   0.000000   0.000000
    17  H    0.000000   0.000000   0.000000   0.000000
    18  H    0.000000   0.000000   0.000000   0.000000
    19  C    0.000000   0.000000   0.000000   0.000000
    20  C    0.000000   0.000000   0.000000   0.000000
    21  H    0.000000   0.000000   0.000000   0.000000
    22  H    0.000000   0.000000   0.000000   0.000000
    23  H    0.000000   0.000000   0.000000   0.000000
    24  C    0.000000   0.000000   0.000000   0.000000
    25  H    0.898775   0.000000   0.000000   0.000000
    26  C    0.000000   4.068711   0.000000   0.000000
    27  H    0.000000   0.000000   0.941187   0.000000
    28  H    0.000000   0.000000   0.000000   0.937087
 Mulliken charges:
               1
     1  C   -0.053899
     2  H    0.052724
     3  H    0.055859
     4  C   -0.128111
     5  C   -0.075262
     6  H    0.046749
     7  H    0.046374
     8  H    0.049450
     9  C   -0.150550
    10  H    0.098579
    11  C   -0.078860
    12  H    0.047754
    13  H    0.044801
    14  H    0.044209
    15  C   -0.068711
    16  H    0.043567
    17  H    0.041610
    18  H    0.043955
    19  C   -0.122893
    20  C   -0.076310
    21  H    0.049965
    22  H    0.046279
    23  H    0.045344
    24  C   -0.156862
    25  H    0.101225
    26  C   -0.068711
    27  H    0.058813
    28  H    0.062913
 Sum of Mulliken charges =  -0.00000
 Mulliken charges with hydrogens summed into heavy atoms:
               1
     1  C    0.054684
     4  C   -0.128111
     5  C    0.067311
     9  C   -0.051971
    11  C    0.057904
    15  C    0.060420
    19  C   -0.122893
    20  C    0.065278
    24  C   -0.055637
    26  C    0.053015
 Charge=              0.0000 electrons
 Dipole moment (field-independent basis, Debye):
    X=              0.0870    Y=              0.3355    Z=              0.0725  Tot=              0.3541
 N-N= 3.036140729508D+02 E-N=-4.893918720401D+02  KE=-7.910786595724D+01
 Leave Link  601 at Tue Sep  6 13:42:13 2022, MaxMem=   131072000 cpu:               0.0 elap:               0.0
 (Enter /opt/g16/l9999.exe)
 1\1\GINC-TOTEM2\FOpt\RPM3\ZDO\C10H18\JRAMOS\06-Sep-2022\0\\#p opt pm3\
 \Conformer number 001. Energy MM = 23.712 kcal/mol\\0,1\C,0.7794446543
 ,0.9577993558,0.4448854093\H,0.924155655,1.0361906305,1.5415405025\H,0
 .475643631,1.9699403143,0.1109669598\C,2.0600873516,0.5674751229,-0.22
 64987277\C,2.2300271159,1.0439281957,-1.6233022876\H,2.2595489376,2.14
 12596218,-1.6583623755\H,1.3930528136,0.712262472,-2.253033756\H,3.162
 6291182,0.668340377,-2.0755169619\C,2.9755253218,-0.1663060786,0.42090
 28876\H,2.7865549478,-0.482942915,1.4549211016\C,4.2650923299,-0.60378
 3835,-0.1550282441\H,4.3856085589,-0.2862275755,-1.2040661318\H,5.1042
 800139,-0.1882462256,0.4183213487\H,4.3504279601,-1.6979790251,-0.1251
 498826\C,-4.0199452986,0.7598914608,0.9412633285\H,-4.7668973548,-0.04
 37312077,0.8863667132\H,-3.8265443464,0.9609400317,2.0032653346\H,-4.4
 733982356,1.6629289081,0.5101321723\C,-2.7894961842,0.3832979813,0.194
 0020775\C,-2.9941339002,0.0695266892,-1.2440239835\H,-2.0392518222,-0.
 0930299234,-1.7705861961\H,-3.5982645722,-0.8402989672,-1.3590983229\H
 ,-3.5220881977,0.887315793,-1.7520818307\C,-1.5968615591,0.335571115,0
 .8024932808\H,-1.5161142573,0.5833259598,1.8693926312\C,-0.3244194961,
 -0.0470194124,0.1362725839\H,-0.0297913067,-1.0570483779,0.4857437751\
 H,-0.4653718785,-0.1374804855,-0.965221406\\Version=ES64L-G16RevA.03\S
 tate=1-A\HF=-0.0283334\RMSD=6.621e-09\RMSF=2.833e-06\Dipole=-0.0454103
 ,-0.0087537,-0.1314182\PG=C01 [X(C10H18)]\\@


 IT MATTERS NOT HOW DEEP YOU PLOW,
 BUT HOW LONG YOU STAY IN THE FURROW.
 Job cpu time:       0 days  0 hours  0 minutes  6.8 seconds.
 Elapsed time:       0 days  0 hours  0 minutes  5.7 seconds.
 File lengths (MBytes):  RWF=      6 Int=      0 D2E=      0 Chk=      2 Scr=      1
 Normal termination of Gaussian 16 at Tue Sep  6 13:42:13 2022.
