 Entering Gaussian System, Link 0=/opt/g16/g16
 Input=03-IsoP_004_gaussian.com
 Output=03-IsoP_004_gaussian.log
 Initial command:
 /opt/g16/l1.exe "/tmp/Gau-153965.inp" -scrdir="/tmp/"
 Entering Link 1 = /opt/g16/l1.exe PID=    153967.
  
 Copyright (c) 1988,1990,1992,1993,1995,1998,2003,2009,2016,
            Gaussian, Inc.  All Rights Reserved.
  
 This is part of the Gaussian(R) 16 program.  It is based on
 the Gaussian(R) 09 system (copyright 2009, Gaussian, Inc.),
 the Gaussian(R) 03 system (copyright 2003, Gaussian, Inc.),
 the Gaussian(R) 98 system (copyright 1998, Gaussian, Inc.),
 the Gaussian(R) 94 system (copyright 1995, Gaussian, Inc.),
 the Gaussian 92(TM) system (copyright 1992, Gaussian, Inc.),
 the Gaussian 90(TM) system (copyright 1990, Gaussian, Inc.),
 the Gaussian 88(TM) system (copyright 1988, Gaussian, Inc.),
 the Gaussian 86(TM) system (copyright 1986, Carnegie Mellon
 University), and the Gaussian 82(TM) system (copyright 1983,
 Carnegie Mellon University). Gaussian is a federally registered
 trademark of Gaussian, Inc.
  
 This software contains proprietary and confidential information,
 including trade secrets, belonging to Gaussian, Inc.
  
 This software is provided under written license and may be
 used, copied, transmitted, or stored only in accord with that
 written license.
  
 The following legend is applicable only to US Government
 contracts under FAR:
  
                    RESTRICTED RIGHTS LEGEND
  
 Use, reproduction and disclosure by the US Government is
 subject to restrictions as set forth in subparagraphs (a)
 and (c) of the Commercial Computer Software - Restricted
 Rights clause in FAR 52.227-19.
  
 Gaussian, Inc.
 340 Quinnipiac St., Bldg. 40, Wallingford CT 06492
  
  
 ---------------------------------------------------------------
 Warning -- This program may not be used in any manner that
 competes with the business of Gaussian, Inc. or will provide
 assistance to any competitor of Gaussian, Inc.  The licensee
 of this program is prohibited from giving any competitor of
 Gaussian, Inc. access to this program.  By using this program,
 the user acknowledges that Gaussian, Inc. is engaged in the
 business of creating and licensing software in the field of
 computational chemistry and represents and warrants to the
 licensee that it is not a competitor of Gaussian, Inc. and that
 it will not use this program in any manner prohibited above.
 ---------------------------------------------------------------
  

 Cite this work as:
 Gaussian 16, Revision A.03,
 M. J. Frisch, G. W. Trucks, H. B. Schlegel, G. E. Scuseria, 
 M. A. Robb, J. R. Cheeseman, G. Scalmani, V. Barone, 
 G. A. Petersson, H. Nakatsuji, X. Li, M. Caricato, A. V. Marenich, 
 J. Bloino, B. G. Janesko, R. Gomperts, B. Mennucci, H. P. Hratchian, 
 J. V. Ortiz, A. F. Izmaylov, J. L. Sonnenberg, D. Williams-Young, 
 F. Ding, F. Lipparini, F. Egidi, J. Goings, B. Peng, A. Petrone, 
 T. Henderson, D. Ranasinghe, V. G. Zakrzewski, J. Gao, N. Rega, 
 G. Zheng, W. Liang, M. Hada, M. Ehara, K. Toyota, R. Fukuda, 
 J. Hasegawa, M. Ishida, T. Nakajima, Y. Honda, O. Kitao, H. Nakai, 
 T. Vreven, K. Throssell, J. A. Montgomery, Jr., J. E. Peralta, 
 F. Ogliaro, M. J. Bearpark, J. J. Heyd, E. N. Brothers, K. N. Kudin, 
 V. N. Staroverov, T. A. Keith, R. Kobayashi, J. Normand, 
 K. Raghavachari, A. P. Rendell, J. C. Burant, S. S. Iyengar, 
 J. Tomasi, M. Cossi, J. M. Millam, M. Klene, C. Adamo, R. Cammi, 
 J. W. Ochterski, R. L. Martin, K. Morokuma, O. Farkas, 
 J. B. Foresman, and D. J. Fox, Gaussian, Inc., Wallingford CT, 2016.
 
 ******************************************
 Gaussian 16:  ES64L-G16RevA.03 25-Dec-2016
                 6-Sep-2022 
 ******************************************
 %chk=03-IsoP_004_gaussian.chk
 %nproc=1
 Will use up to    1 processors via shared memory.
 %mem=1000Mb
 ----------
 #p opt pm3
 ----------
 1/18=20,19=15,26=1,38=1/1,3;
 2/9=110,12=2,17=6,18=5,40=1/2;
 3/5=2,25=1,41=800000,71=1/1,2,3;
 4/35=1/1;
 5/5=2,35=1,38=5/2;
 6/7=2,8=2,9=2,10=2,28=1/1;
 7//1,2,3,16;
 1/18=20,19=15,26=1/3(2);
 2/9=110/2;
 99//99;
 2/9=110/2;
 3/5=2,25=1,41=800000,71=1,135=20/1,2,3;
 4/5=5,16=3,35=1/1;
 5/5=2,35=1,38=5/2;
 7//1,2,3,16;
 1/18=20,19=15,26=1/3(-5);
 2/9=110/2;
 6/7=2,8=2,9=2,10=2,19=2,28=1/1;
 99/9=1/99;
 Leave Link    1 at Tue Sep  6 13:42:07 2022, MaxMem=   131072000 cpu:               0.0 elap:               0.0
 (Enter /opt/g16/l101.exe)
 -------------------------------------------------
 Conformer number 004. Energy MM = 23.287 kcal/mol
 -------------------------------------------------
 Symbolic Z-matrix:
 Charge =  0 Multiplicity = 1
 C                     0.8317    0.4705    0.4387 
 H                     0.4615    1.3989    0.8942 
 H                     0.986    -0.2139    1.2814 
 C                     2.1427    0.7566   -0.2642 
 C                     2.2205    2.0991   -0.9455 
 H                     3.1891    2.263    -1.4296 
 H                     2.0746    2.9033   -0.2171 
 H                     1.4481    2.1829   -1.7164 
 C                     3.1965   -0.0834   -0.2841 
 H                     4.1033    0.2304   -0.8005 
 C                     3.2828   -1.4515    0.3148 
 H                     4.0046   -1.4523    1.1371 
 H                     2.3275   -1.8225    0.6926 
 H                     3.6303   -2.1602   -0.444 
 C                    -2.8473    1.6092   -0.5509 
 H                    -3.5707    1.4759   -1.3617 
 H                    -3.2316    2.3755    0.1311 
 H                    -1.9255    2.0053   -0.9829 
 C                    -2.6528    0.3132    0.1867 
 C                    -3.8661   -0.1554    0.9469 
 H                    -3.6915   -1.1039    1.4656 
 H                    -4.1528    0.5868    1.6991 
 H                    -4.7082   -0.3014    0.2625 
 C                    -1.5104   -0.4009    0.209 
 H                    -1.4832   -1.319     0.7961 
 C                    -0.224    -0.1005   -0.5133 
 H                     0.1407   -1.0373   -0.9542 
 H                    -0.3882    0.5762   -1.3578 
 
 ITRead=  0  0  0  0  0  0  0  0  0  0  0  0  0  0  0  0  0  0  0  0
 ITRead=  0  0  0  0  0  0  0  0
 MicOpt= -1 -1 -1 -1 -1 -1 -1 -1 -1 -1 -1 -1 -1 -1 -1 -1 -1 -1 -1 -1
 MicOpt= -1 -1 -1 -1 -1 -1 -1 -1
 NAtoms=     28 NQM=       28 NQMF=       0 NMMI=      0 NMMIF=      0
                NMic=       0 NMicF=      0.
                    Isotopes and Nuclear Properties:
 (Nuclear quadrupole moments (NQMom) in fm**2, nuclear magnetic moments (NMagM)
  in nuclear magnetons)

  Atom         1           2           3           4           5           6           7           8           9          10
 IAtWgt=          12           1           1          12          12           1           1           1          12           1
 AtmWgt=  12.0000000   1.0078250   1.0078250  12.0000000  12.0000000   1.0078250   1.0078250   1.0078250  12.0000000   1.0078250
 NucSpn=           0           1           1           0           0           1           1           1           0           1
 AtZEff=  -0.0000000  -0.0000000  -0.0000000  -0.0000000  -0.0000000  -0.0000000  -0.0000000  -0.0000000  -0.0000000  -0.0000000
 NQMom=    0.0000000   0.0000000   0.0000000   0.0000000   0.0000000   0.0000000   0.0000000   0.0000000   0.0000000   0.0000000
 NMagM=    0.0000000   2.7928460   2.7928460   0.0000000   0.0000000   2.7928460   2.7928460   2.7928460   0.0000000   2.7928460
 AtZNuc=   6.0000000   1.0000000   1.0000000   6.0000000   6.0000000   1.0000000   1.0000000   1.0000000   6.0000000   1.0000000

  Atom        11          12          13          14          15          16          17          18          19          20
 IAtWgt=          12           1           1           1          12           1           1           1          12          12
 AtmWgt=  12.0000000   1.0078250   1.0078250   1.0078250  12.0000000   1.0078250   1.0078250   1.0078250  12.0000000  12.0000000
 NucSpn=           0           1           1           1           0           1           1           1           0           0
 AtZEff=  -0.0000000  -0.0000000  -0.0000000  -0.0000000  -0.0000000  -0.0000000  -0.0000000  -0.0000000  -0.0000000  -0.0000000
 NQMom=    0.0000000   0.0000000   0.0000000   0.0000000   0.0000000   0.0000000   0.0000000   0.0000000   0.0000000   0.0000000
 NMagM=    0.0000000   2.7928460   2.7928460   2.7928460   0.0000000   2.7928460   2.7928460   2.7928460   0.0000000   0.0000000
 AtZNuc=   6.0000000   1.0000000   1.0000000   1.0000000   6.0000000   1.0000000   1.0000000   1.0000000   6.0000000   6.0000000

  Atom        21          22          23          24          25          26          27          28
 IAtWgt=           1           1           1          12           1          12           1           1
 AtmWgt=   1.0078250   1.0078250   1.0078250  12.0000000   1.0078250  12.0000000   1.0078250   1.0078250
 NucSpn=           1           1           1           0           1           0           1           1
 AtZEff=  -0.0000000  -0.0000000  -0.0000000  -0.0000000  -0.0000000  -0.0000000  -0.0000000  -0.0000000
 NQMom=    0.0000000   0.0000000   0.0000000   0.0000000   0.0000000   0.0000000   0.0000000   0.0000000
 NMagM=    2.7928460   2.7928460   2.7928460   0.0000000   2.7928460   0.0000000   2.7928460   2.7928460
 AtZNuc=   1.0000000   1.0000000   1.0000000   6.0000000   1.0000000   6.0000000   1.0000000   1.0000000
 Leave Link  101 at Tue Sep  6 13:42:07 2022, MaxMem=   131072000 cpu:               0.1 elap:               0.1
 (Enter /opt/g16/l103.exe)

 GradGradGradGradGradGradGradGradGradGradGradGradGradGradGradGradGradGrad
 Berny optimization.
 Initialization pass.
                           ----------------------------
                           !    Initial Parameters    !
                           ! (Angstroms and Degrees)  !
 --------------------------                            --------------------------
 ! Name  Definition              Value          Derivative Info.                !
 --------------------------------------------------------------------------------
 ! R1    R(1,2)                  1.0984         estimate D2E/DX2                !
 ! R2    R(1,3)                  1.0965         estimate D2E/DX2                !
 ! R3    R(1,4)                  1.5148         estimate D2E/DX2                !
 ! R4    R(1,26)                 1.5319         estimate D2E/DX2                !
 ! R5    R(4,5)                  1.5075         estimate D2E/DX2                !
 ! R6    R(4,9)                  1.3478         estimate D2E/DX2                !
 ! R7    R(5,6)                  1.0952         estimate D2E/DX2                !
 ! R8    R(5,7)                  1.0948         estimate D2E/DX2                !
 ! R9    R(5,8)                  1.0945         estimate D2E/DX2                !
 ! R10   R(9,10)                 1.0897         estimate D2E/DX2                !
 ! R11   R(9,11)                 1.4959         estimate D2E/DX2                !
 ! R12   R(11,12)                1.0942         estimate D2E/DX2                !
 ! R13   R(11,13)                1.0922         estimate D2E/DX2                !
 ! R14   R(11,14)                1.0949         estimate D2E/DX2                !
 ! R15   R(15,16)                1.0947         estimate D2E/DX2                !
 ! R16   R(15,17)                1.0955         estimate D2E/DX2                !
 ! R17   R(15,18)                1.0924         estimate D2E/DX2                !
 ! R18   R(15,19)                1.5038         estimate D2E/DX2                !
 ! R19   R(19,20)                1.5065         estimate D2E/DX2                !
 ! R20   R(19,24)                1.3474         estimate D2E/DX2                !
 ! R21   R(20,21)                1.0951         estimate D2E/DX2                !
 ! R22   R(20,22)                1.0949         estimate D2E/DX2                !
 ! R23   R(20,23)                1.0949         estimate D2E/DX2                !
 ! R24   R(24,25)                1.0901         estimate D2E/DX2                !
 ! R25   R(24,26)                1.5056         estimate D2E/DX2                !
 ! R26   R(26,27)                1.0977         estimate D2E/DX2                !
 ! R27   R(26,28)                1.0946         estimate D2E/DX2                !
 ! A1    A(2,1,3)              104.8497         estimate D2E/DX2                !
 ! A2    A(2,1,4)              108.9342         estimate D2E/DX2                !
 ! A3    A(2,1,26)             109.9068         estimate D2E/DX2                !
 ! A4    A(3,1,4)              110.653          estimate D2E/DX2                !
 ! A5    A(3,1,26)             109.9937         estimate D2E/DX2                !
 ! A6    A(4,1,26)             112.2376         estimate D2E/DX2                !
 ! A7    A(1,4,5)              114.9972         estimate D2E/DX2                !
 ! A8    A(1,4,9)              124.4595         estimate D2E/DX2                !
 ! A9    A(5,4,9)              120.5315         estimate D2E/DX2                !
 ! A10   A(4,5,6)              112.2528         estimate D2E/DX2                !
 ! A11   A(4,5,7)              110.2794         estimate D2E/DX2                !
 ! A12   A(4,5,8)              110.4927         estimate D2E/DX2                !
 ! A13   A(6,5,7)              107.5794         estimate D2E/DX2                !
 ! A14   A(6,5,8)              107.5389         estimate D2E/DX2                !
 ! A15   A(7,5,8)              108.5619         estimate D2E/DX2                !
 ! A16   A(4,9,10)             118.5661         estimate D2E/DX2                !
 ! A17   A(4,9,11)             127.5306         estimate D2E/DX2                !
 ! A18   A(10,9,11)            113.8962         estimate D2E/DX2                !
 ! A19   A(9,11,12)            109.8528         estimate D2E/DX2                !
 ! A20   A(9,11,13)            113.4949         estimate D2E/DX2                !
 ! A21   A(9,11,14)            109.4398         estimate D2E/DX2                !
 ! A22   A(12,11,13)           108.4683         estimate D2E/DX2                !
 ! A23   A(12,11,14)           108.1193         estimate D2E/DX2                !
 ! A24   A(13,11,14)           107.3045         estimate D2E/DX2                !
 ! A25   A(16,15,17)           108.328          estimate D2E/DX2                !
 ! A26   A(16,15,18)           107.9913         estimate D2E/DX2                !
 ! A27   A(16,15,19)           110.1081         estimate D2E/DX2                !
 ! A28   A(17,15,18)           106.7739         estimate D2E/DX2                !
 ! A29   A(17,15,19)           110.0515         estimate D2E/DX2                !
 ! A30   A(18,15,19)           113.4114         estimate D2E/DX2                !
 ! A31   A(15,19,20)           114.2928         estimate D2E/DX2                !
 ! A32   A(15,19,24)           125.0655         estimate D2E/DX2                !
 ! A33   A(20,19,24)           120.6392         estimate D2E/DX2                !
 ! A34   A(19,20,21)           112.3351         estimate D2E/DX2                !
 ! A35   A(19,20,22)           110.2853         estimate D2E/DX2                !
 ! A36   A(19,20,23)           110.2104         estimate D2E/DX2                !
 ! A37   A(21,20,22)           107.6662         estimate D2E/DX2                !
 ! A38   A(21,20,23)           107.6502         estimate D2E/DX2                !
 ! A39   A(22,20,23)           108.5672         estimate D2E/DX2                !
 ! A40   A(19,24,25)           118.4521         estimate D2E/DX2                !
 ! A41   A(19,24,26)           127.6427         estimate D2E/DX2                !
 ! A42   A(25,24,26)           113.8974         estimate D2E/DX2                !
 ! A43   A(1,26,24)            111.41           estimate D2E/DX2                !
 ! A44   A(1,26,27)            109.7999         estimate D2E/DX2                !
 ! A45   A(1,26,28)            110.6345         estimate D2E/DX2                !
 ! A46   A(24,26,27)           107.8354         estimate D2E/DX2                !
 ! A47   A(24,26,28)           111.4275         estimate D2E/DX2                !
 ! A48   A(27,26,28)           105.519          estimate D2E/DX2                !
 ! D1    D(2,1,4,5)            -36.9587         estimate D2E/DX2                !
 ! D2    D(2,1,4,9)            141.7935         estimate D2E/DX2                !
 ! D3    D(3,1,4,5)           -151.7212         estimate D2E/DX2                !
 ! D4    D(3,1,4,9)             27.0311         estimate D2E/DX2                !
 ! D5    D(26,1,4,5)            84.9892         estimate D2E/DX2                !
 ! D6    D(26,1,4,9)           -96.2586         estimate D2E/DX2                !
 ! D7    D(2,1,26,24)          -59.6298         estimate D2E/DX2                !
 ! D8    D(2,1,26,27)         -179.0243         estimate D2E/DX2                !
 ! D9    D(2,1,26,28)           64.9081         estimate D2E/DX2                !
 ! D10   D(3,1,26,24)           55.3192         estimate D2E/DX2                !
 ! D11   D(3,1,26,27)          -64.0753         estimate D2E/DX2                !
 ! D12   D(3,1,26,28)          179.857          estimate D2E/DX2                !
 ! D13   D(4,1,26,24)          178.9781         estimate D2E/DX2                !
 ! D14   D(4,1,26,27)           59.5836         estimate D2E/DX2                !
 ! D15   D(4,1,26,28)          -56.484          estimate D2E/DX2                !
 ! D16   D(1,4,5,6)            179.4157         estimate D2E/DX2                !
 ! D17   D(1,4,5,7)             59.4762         estimate D2E/DX2                !
 ! D18   D(1,4,5,8)            -60.5497         estimate D2E/DX2                !
 ! D19   D(9,4,5,6)              0.6101         estimate D2E/DX2                !
 ! D20   D(9,4,5,7)           -119.3294         estimate D2E/DX2                !
 ! D21   D(9,4,5,8)            120.6448         estimate D2E/DX2                !
 ! D22   D(1,4,9,10)          -178.5613         estimate D2E/DX2                !
 ! D23   D(1,4,9,11)             2.4722         estimate D2E/DX2                !
 ! D24   D(5,4,9,10)             0.1257         estimate D2E/DX2                !
 ! D25   D(5,4,9,11)          -178.8408         estimate D2E/DX2                !
 ! D26   D(4,9,11,12)         -113.5712         estimate D2E/DX2                !
 ! D27   D(4,9,11,13)            8.0432         estimate D2E/DX2                !
 ! D28   D(4,9,11,14)          127.8694         estimate D2E/DX2                !
 ! D29   D(10,9,11,12)          67.4216         estimate D2E/DX2                !
 ! D30   D(10,9,11,13)        -170.9641         estimate D2E/DX2                !
 ! D31   D(10,9,11,14)         -51.1379         estimate D2E/DX2                !
 ! D32   D(16,15,19,20)        -66.757          estimate D2E/DX2                !
 ! D33   D(16,15,19,24)        113.8242         estimate D2E/DX2                !
 ! D34   D(17,15,19,20)         52.5902         estimate D2E/DX2                !
 ! D35   D(17,15,19,24)       -126.8286         estimate D2E/DX2                !
 ! D36   D(18,15,19,20)        172.1155         estimate D2E/DX2                !
 ! D37   D(18,15,19,24)         -7.3033         estimate D2E/DX2                !
 ! D38   D(15,19,20,21)        179.6024         estimate D2E/DX2                !
 ! D39   D(15,19,20,22)        -60.2895         estimate D2E/DX2                !
 ! D40   D(15,19,20,23)         59.566          estimate D2E/DX2                !
 ! D41   D(24,19,20,21)         -0.9505         estimate D2E/DX2                !
 ! D42   D(24,19,20,22)        119.1577         estimate D2E/DX2                !
 ! D43   D(24,19,20,23)       -120.9868         estimate D2E/DX2                !
 ! D44   D(15,19,24,25)        178.8614         estimate D2E/DX2                !
 ! D45   D(15,19,24,26)         -2.2278         estimate D2E/DX2                !
 ! D46   D(20,19,24,25)         -0.523          estimate D2E/DX2                !
 ! D47   D(20,19,24,26)        178.3878         estimate D2E/DX2                !
 ! D48   D(19,24,26,1)         103.6586         estimate D2E/DX2                !
 ! D49   D(19,24,26,27)       -135.7861         estimate D2E/DX2                !
 ! D50   D(19,24,26,28)        -20.4325         estimate D2E/DX2                !
 ! D51   D(25,24,26,1)         -77.3888         estimate D2E/DX2                !
 ! D52   D(25,24,26,27)         43.1665         estimate D2E/DX2                !
 ! D53   D(25,24,26,28)        158.5201         estimate D2E/DX2                !
 --------------------------------------------------------------------------------
 Trust Radius=3.00D-01 FncErr=1.00D-07 GrdErr=1.00D-07 EigMax=2.50D+02 EigMin=1.00D-04
 Number of steps in this run=    138 maximum allowed number of steps=    168.
 GradGradGradGradGradGradGradGradGradGradGradGradGradGradGradGradGradGrad

 Leave Link  103 at Tue Sep  6 13:42:07 2022, MaxMem=   131072000 cpu:               0.0 elap:               0.0
 (Enter /opt/g16/l202.exe)
                          Input orientation:                          
 ---------------------------------------------------------------------
 Center     Atomic      Atomic             Coordinates (Angstroms)
 Number     Number       Type             X           Y           Z
 ---------------------------------------------------------------------
      1          6           0        0.831700    0.470500    0.438700
      2          1           0        0.461500    1.398900    0.894200
      3          1           0        0.986000   -0.213900    1.281400
      4          6           0        2.142700    0.756600   -0.264200
      5          6           0        2.220500    2.099100   -0.945500
      6          1           0        3.189100    2.263000   -1.429600
      7          1           0        2.074600    2.903300   -0.217100
      8          1           0        1.448100    2.182900   -1.716400
      9          6           0        3.196500   -0.083400   -0.284100
     10          1           0        4.103300    0.230400   -0.800500
     11          6           0        3.282800   -1.451500    0.314800
     12          1           0        4.004600   -1.452300    1.137100
     13          1           0        2.327500   -1.822500    0.692600
     14          1           0        3.630300   -2.160200   -0.444000
     15          6           0       -2.847300    1.609200   -0.550900
     16          1           0       -3.570700    1.475900   -1.361700
     17          1           0       -3.231600    2.375500    0.131100
     18          1           0       -1.925500    2.005300   -0.982900
     19          6           0       -2.652800    0.313200    0.186700
     20          6           0       -3.866100   -0.155400    0.946900
     21          1           0       -3.691500   -1.103900    1.465600
     22          1           0       -4.152800    0.586800    1.699100
     23          1           0       -4.708200   -0.301400    0.262500
     24          6           0       -1.510400   -0.400900    0.209000
     25          1           0       -1.483200   -1.319000    0.796100
     26          6           0       -0.224000   -0.100500   -0.513300
     27          1           0        0.140700   -1.037300   -0.954200
     28          1           0       -0.388200    0.576200   -1.357800
 ---------------------------------------------------------------------
                    Distance matrix (angstroms):
                    1          2          3          4          5
     1  C    0.000000
     2  H    1.098387   0.000000
     3  H    1.096520   1.739583   0.000000
     4  C    1.514808   2.140297   2.160719   0.000000
     5  C    2.548944   2.639859   3.439919   1.507491   0.000000
     6  H    3.501562   3.685989   4.282313   2.173097   1.095172
     7  H    2.809518   2.469878   3.625947   2.148296   1.094802
     8  H    2.820766   2.898839   3.865875   2.150741   1.094491
     9  C    2.534073   3.326534   2.711850   1.347772   2.480591
    10  H    3.506655   4.183313   3.774820   2.099632   2.656690
    11  C    3.117263   4.052187   2.782312   2.551622   3.914537
    12  H    3.775211   4.554328   3.265946   3.210849   4.486945
    13  H    2.749497   3.728273   2.175753   2.757059   4.251325
    14  H    3.941054   4.949673   3.709098   3.279177   4.514496
    15  C    3.976303   3.616725   4.623333   5.070426   5.106692
    16  H    4.861419   4.621001   5.532171   5.862153   5.839486
    17  H    4.498227   3.895518   5.080977   5.626740   5.564248
    18  H    3.461027   3.096610   4.304502   4.315789   4.147230
    19  C    3.497140   3.373154   3.836283   4.837017   5.312285
    20  C    4.766481   4.598559   4.863968   6.197111   6.760965
    21  H    4.898224   4.882409   4.764980   6.363298   7.143134
    22  H    5.142701   4.753855   5.217553   6.596719   7.063987
    23  H    5.596192   5.478673   5.785303   6.952094   7.431591
    24  C    2.509488   2.756296   2.723421   3.861200   4.637077
    25  H    2.947678   3.343421   2.748401   4.310395   5.332351
    26  C    1.531942   2.167756   2.167466   2.529415   3.316718
    27  H    2.165898   3.074828   2.527929   2.775280   3.763329
    28  H    2.174107   2.543684   3.078646   2.762962   3.048693
                    6          7          8          9         10
     6  H    0.000000
     7  H    1.766989   0.000000
     8  H    1.766282   1.777464   0.000000
     9  C    2.611095   3.191164   3.200703   0.000000
    10  H    2.315813   3.405932   3.420704   1.089691   0.000000
    11  C    4.104780   4.550489   4.549809   1.495937   2.178509
    12  H    4.588730   4.952778   5.281367   2.132304   2.568173
    13  H    4.683738   4.819201   4.756033   2.175678   3.097937
    14  H    4.553105   5.301954   5.024293   2.127639   2.462882
    15  C    6.134957   5.100119   4.487536   6.282006   7.090432
    16  H    6.805809   5.934391   5.080749   7.027634   7.794645
    17  H    6.608618   5.343742   5.034873   6.894857   7.698707
    18  H    5.140533   4.170570   3.456984   5.575471   6.287286
    19  C    6.367255   5.405551   4.892336   5.881603   6.828346
    20  C    7.827660   6.782511   6.387608   7.169440   8.167838
    21  H    8.189069   7.220598   6.880673   7.179653   8.226450
    22  H    8.154870   6.915093   6.751537   7.641627   8.633551
    23  H    8.473883   7.517080   6.927324   7.926574   8.891305
    24  C    5.645057   4.894029   4.374461   4.743296   5.738576
    25  H    6.294033   5.613585   5.212339   4.959146   6.013215
    26  C    4.251469   3.793957   3.075270   3.428213   4.349426
    27  H    4.517823   4.451024   3.558080   3.270607   4.163278
    28  H    3.955695   3.575189   2.466187   3.799734   4.539134
                   11         12         13         14         15
    11  C    0.000000
    12  H    1.094154   0.000000
    13  H    1.092233   1.774061   0.000000
    14  H    1.094892   1.772315   1.761587   0.000000
    15  C    6.906189   7.692247   6.332568   7.495272   0.000000
    16  H    7.638769   8.497266   7.063169   8.118978   1.094748
    17  H    7.557584   8.247829   6.988711   8.245543   1.095457
    18  H    6.384347   7.184392   5.962161   6.964820   1.092353
    19  C    6.193700   6.952785   5.442475   6.781802   1.503828
    20  C    7.292887   7.979100   6.419079   7.883517   2.528868
    21  H    7.077148   7.710982   6.110833   7.640098   3.484230
    22  H    7.833205   8.427155   6.986563   8.527340   2.795019
    23  H    8.073509   8.831896   7.211089   8.572331   2.788362
    24  C    4.908128   5.690522   4.121200   5.472508   2.530860
    25  H    4.792073   5.500000   3.845212   5.328541   3.499933
    26  C    3.848194   4.736269   3.305999   4.370674   3.131484
    27  H    3.413900   4.413104   2.847909   3.701151   4.011827
    28  H    4.515019   5.443898   4.163283   4.946843   2.786638
                   16         17         18         19         20
    16  H    0.000000
    17  H    1.775590   0.000000
    18  H    1.769304   1.756115   0.000000
    19  C    2.142885   2.142704   2.181773   0.000000
    20  C    2.842188   2.733784   3.486930   1.506515   0.000000
    21  H    3.829306   3.754813   4.333709   2.173167   1.095074
    22  H    3.240036   2.550820   3.763792   2.147606   1.094926
    23  H    2.662842   3.059968   3.822997   2.146660   1.094921
    24  C    3.199111   3.267567   2.717118   1.347410   2.480744
    25  H    4.101856   4.141070   3.796240   2.098430   2.656110
    26  C    3.795421   3.948605   2.747730   2.561292   3.924295
    27  H    4.500747   4.919094   3.677964   3.305926   4.521767
    28  H    3.307232   3.679569   2.132175   2.753736   4.235879
                   21         22         23         24         25
    21  H    0.000000
    22  H    1.767989   0.000000
    23  H    1.767805   1.777973   0.000000
    24  C    2.613513   3.190333   3.199795   0.000000
    25  H    2.317561   3.402094   3.423575   1.090107   0.000000
    26  C    4.116602   4.560983   4.555247   1.505584   2.187431
    27  H    4.532728   5.302060   5.053092   2.117586   2.404154
    28  H    4.658982   4.849429   4.696590   2.160768   3.070846
                   26         27         28
    26  C    0.000000
    27  H    1.097722   0.000000
    28  H    1.094561   1.745282   0.000000
 Stoichiometry    C10H18
 Framework group  C1[X(C10H18)]
 Deg. of freedom    78
 Full point group                 C1      NOp   1
 Largest Abelian subgroup         C1      NOp   1
 Largest concise Abelian subgroup C1      NOp   1
                         Standard orientation:                         
 ---------------------------------------------------------------------
 Center     Atomic      Atomic             Coordinates (Angstroms)
 Number     Number       Type             X           Y           Z
 ---------------------------------------------------------------------
      1          6           0        0.745812   -0.045502    0.580296
      2          1           0        0.286618    0.606621    1.335498
      3          1           0        0.871492   -1.012058    1.082620
      4          6           0        2.090174    0.530309    0.185613
      5          6           0        2.144053    2.035409    0.120032
      6          1           0        3.137239    2.403097   -0.158875
      7          1           0        1.893341    2.466903    1.094479
      8          1           0        1.432608    2.412350   -0.621367
      9          6           0        3.189379   -0.206012   -0.071424
     10          1           0        4.114922    0.310344   -0.324748
     11          6           0        3.306911   -1.697320   -0.075140
     12          1           0        3.959027   -2.020696    0.741772
     13          1           0        2.347597   -2.209962    0.024301
     14          1           0        3.755097   -2.025176   -1.018766
     15          6           0       -2.901810    1.323943   -0.213721
     16          1           0       -3.548617    1.520300   -1.074858
     17          1           0       -3.383797    1.735072    0.679972
     18          1           0       -1.972935    1.881022   -0.355455
     19          6           0       -2.691980   -0.156323   -0.051598
     20          6           0       -3.933086   -0.920053    0.330452
     21          1           0       -3.745727   -1.994091    0.433051
     22          1           0       -4.322197   -0.557711    1.287615
     23          1           0       -4.707434   -0.789535   -0.432570
     24          6           0       -1.515356   -0.793364   -0.210497
     25          1           0       -1.481945   -1.870735   -0.047742
     26          6           0       -0.194746   -0.197056   -0.619383
     27          1           0        0.258291   -0.862939   -1.365272
     28          1           0       -0.329683    0.763016   -1.127436
 ---------------------------------------------------------------------
 Rotational constants (GHZ):           2.4778715           0.5324369           0.4581631
 Leave Link  202 at Tue Sep  6 13:42:07 2022, MaxMem=   131072000 cpu:               0.0 elap:               0.0
 (Enter /opt/g16/l301.exe)
 Standard basis: VSTO-6G (5D, 7F)
 Ernie: Thresh=  0.10000D-02 Tol=  0.10000D-05 Strict=F.
  NNHCO=     0 NNPyr=     0 NCTC=     0               EPep=         0.000000000
    EC=       246.537030318  ECS=         3.524537930   EG=         0.891776816
   EHC=         0.000000000  EAt=       -49.524085099  AtH=         4.217842293
 EPDDG=         0.000000000  ECC=       250.953345064 EAtT=        53.741927392
 There are    58 symmetry adapted cartesian basis functions of A   symmetry.
 There are    58 symmetry adapted basis functions of A   symmetry.
    58 basis functions,   348 primitive gaussians,    58 cartesian basis functions
    29 alpha electrons       29 beta electrons
       nuclear repulsion energy       304.6952724558 Hartrees.
 IExCor=    0 DFT=F Ex=HF Corr=None ExCW=0 ScaHFX=  1.000000
 ScaDFX=  1.000000  1.000000  1.000000  1.000000 ScalE2=  1.000000  1.000000
 IRadAn=      5 IRanWt=     -1 IRanGd=            0 ICorTp=0 IEmpDi=  4
 Integral buffers will be    131072 words long.
 Regular integral format.
 Two-electron integral symmetry is turned off.
 Leave Link  301 at Tue Sep  6 13:42:07 2022, MaxMem=   131072000 cpu:               0.0 elap:               0.0
 (Enter /opt/g16/l302.exe)
 Do NDO integrals.
 NPDir=0 NMtPBC=     1 NCelOv=     1 NCel=       1 NClECP=     1 NCelD=      1
         NCelK=      1 NCelE2=     1 NClLst=     1 CellRange=     0.0.
 One-electron integrals computed using PRISM.
 NBasis=    58 RedAO= F EigKep=  0.00D+00  NBF=    58
 NBsUse=    58 1.00D-04 EigRej=  0.00D+00 NBFU=    58
 Leave Link  302 at Tue Sep  6 13:42:07 2022, MaxMem=   131072000 cpu:               0.0 elap:               0.0
 (Enter /opt/g16/l303.exe)
 DipDrv:  MaxL=1.
 Leave Link  303 at Tue Sep  6 13:42:07 2022, MaxMem=   131072000 cpu:               0.0 elap:               0.0
 (Enter /opt/g16/l401.exe)
 Simple Huckel Guess.
 JPrj=0 DoOrth=F DoCkMO=F.
 Leave Link  401 at Tue Sep  6 13:42:07 2022, MaxMem=   131072000 cpu:               0.0 elap:               0.0
 (Enter /opt/g16/l502.exe)
 Keep J ints in memory in canonical form, NReq=866866.
 FoFCou: FMM=F IPFlag=           0 FMFlag=           0 FMFlg1=           0
         NFxFlg=           0 DoJE=F BraDBF=F KetDBF=F FulRan=T
         wScrn=  0.000000 ICntrl=       600 IOpCl=  2 I1Cent=           0 NGrid=           0
         NMat0=    1 NMatS0=    118 NMatT0=    0 NMatD0=    1 NMtDS0=    0 NMtDT0=    0
 Symmetry not used in FoFCou.
 Two-electron integral symmetry not used.
 Closed shell SCF:
 Using DIIS extrapolation, IDIIS=  1040.
 Overlap will be assumed to be unity.
 NGot=   131072000 LenX=   130997697 LenY=   130993892
 Requested convergence on RMS density matrix=1.00D-08 within 128 cycles.
 Requested convergence on MAX density matrix=1.00D-06.
 Requested convergence on             energy=1.00D-06.
 No special actions if energy rises.

 Cycle   1  Pass 1  IDiag  1:
 E= 0.216327247795732    
 DIIS: error= 2.74D-02 at cycle   1 NSaved=   1.
 NSaved= 1 IEnMin= 1 EnMin= 0.216327247795732     IErMin= 1 ErrMin= 2.74D-02
 ErrMax= 2.74D-02  0.00D+00 EMaxC= 1.00D-01 BMatC= 9.45D-02 BMatP= 9.45D-02
 IDIUse=3 WtCom= 7.26D-01 WtEn= 2.74D-01
 Coeff-Com:  0.100D+01
 Coeff-En:   0.100D+01
 Coeff:      0.100D+01
 GapD=    2.000 DampG=2.000 DampE=0.500 DampFc=1.0000 IDamp=-1.
 RMSDP=7.17D-03 MaxDP=8.49D-02              OVMax= 0.00D+00

 Cycle   2  Pass 1  IDiag  1:
 E=-0.378850269316899E-02 Delta-E=       -0.220115750489 Rises=F Damp=F
 DIIS: error= 7.93D-03 at cycle   2 NSaved=   2.
 NSaved= 2 IEnMin= 2 EnMin=-0.378850269316899E-02 IErMin= 2 ErrMin= 7.93D-03
 ErrMax= 7.93D-03  0.00D+00 EMaxC= 1.00D-01 BMatC= 6.06D-03 BMatP= 9.45D-02
 IDIUse=3 WtCom= 9.21D-01 WtEn= 7.93D-02
 Coeff-Com: -0.317D+00 0.132D+01
 Coeff-En:   0.000D+00 0.100D+01
 Coeff:     -0.292D+00 0.129D+01
 RMSDP=2.60D-03 MaxDP=2.87D-02 DE=-2.20D-01 OVMax= 0.00D+00

 Cycle   3  Pass 1  IDiag  3:
 E=-0.211407375199997E-01 Delta-E=       -0.017352234827 Rises=F Damp=F
 DIIS: error= 9.33D-04 at cycle   3 NSaved=   3.
 NSaved= 3 IEnMin= 3 EnMin=-0.211407375199997E-01 IErMin= 3 ErrMin= 9.33D-04
 ErrMax= 9.33D-04  0.00D+00 EMaxC= 1.00D-01 BMatC= 7.26D-05 BMatP= 6.06D-03
 IDIUse=3 WtCom= 9.91D-01 WtEn= 9.33D-03
 Coeff-Com:  0.107D+00-0.502D+00 0.139D+01
 Coeff-En:   0.000D+00 0.000D+00 0.100D+01
 Coeff:      0.106D+00-0.497D+00 0.139D+01
 Gap=     0.377 Goal=   None    Shift=    0.000
 RMSDP=4.22D-04 MaxDP=4.11D-03 DE=-1.74D-02 OVMax= 6.22D-03

 Cycle   4  Pass 1  IDiag  3:
 E=-0.214708888988184E-01 Delta-E=       -0.000330151379 Rises=F Damp=F
 DIIS: error= 1.81D-04 at cycle   4 NSaved=   4.
 NSaved= 4 IEnMin= 4 EnMin=-0.214708888988184E-01 IErMin= 4 ErrMin= 1.81D-04
 ErrMax= 1.81D-04  0.00D+00 EMaxC= 1.00D-01 BMatC= 3.15D-06 BMatP= 7.26D-05
 IDIUse=3 WtCom= 9.98D-01 WtEn= 1.81D-03
 Coeff-Com: -0.474D-01 0.227D+00-0.740D+00 0.156D+01
 Coeff-En:   0.000D+00 0.000D+00 0.000D+00 0.100D+01
 Coeff:     -0.473D-01 0.227D+00-0.738D+00 0.156D+01
 Gap=     0.377 Goal=   None    Shift=    0.000
 RMSDP=1.08D-04 MaxDP=1.17D-03 DE=-3.30D-04 OVMax= 7.77D-04

 Cycle   5  Pass 1  IDiag  3:
 E=-0.214886873025648E-01 Delta-E=       -0.000017798404 Rises=F Damp=F
 DIIS: error= 5.26D-05 at cycle   5 NSaved=   5.
 NSaved= 5 IEnMin= 5 EnMin=-0.214886873025648E-01 IErMin= 5 ErrMin= 5.26D-05
 ErrMax= 5.26D-05  0.00D+00 EMaxC= 1.00D-01 BMatC= 1.78D-07 BMatP= 3.15D-06
 IDIUse=1 WtCom= 1.00D+00 WtEn= 0.00D+00
 Coeff-Com:  0.140D-01-0.674D-01 0.227D+00-0.616D+00 0.144D+01
 Coeff:      0.140D-01-0.674D-01 0.227D+00-0.616D+00 0.144D+01
 Gap=     0.377 Goal=   None    Shift=    0.000
 RMSDP=2.65D-05 MaxDP=3.14D-04 DE=-1.78D-05 OVMax= 1.99D-04

 Cycle   6  Pass 1  IDiag  3:
 E=-0.214897832558449E-01 Delta-E=       -0.000001095953 Rises=F Damp=F
 DIIS: error= 1.79D-05 at cycle   6 NSaved=   6.
 NSaved= 6 IEnMin= 6 EnMin=-0.214897832558449E-01 IErMin= 6 ErrMin= 1.79D-05
 ErrMax= 1.79D-05  0.00D+00 EMaxC= 1.00D-01 BMatC= 1.48D-08 BMatP= 1.78D-07
 IDIUse=1 WtCom= 1.00D+00 WtEn= 0.00D+00
 Coeff-Com: -0.520D-02 0.249D-01-0.821D-01 0.224D+00-0.729D+00 0.157D+01
 Coeff:     -0.520D-02 0.249D-01-0.821D-01 0.224D+00-0.729D+00 0.157D+01
 Gap=     0.377 Goal=   None    Shift=    0.000
 RMSDP=8.97D-06 MaxDP=1.15D-04 DE=-1.10D-06 OVMax= 8.44D-05

 Cycle   7  Pass 1  IDiag  3:
 E=-0.214898852528336E-01 Delta-E=       -0.000000101997 Rises=F Damp=F
 DIIS: error= 4.55D-06 at cycle   7 NSaved=   7.
 NSaved= 7 IEnMin= 7 EnMin=-0.214898852528336E-01 IErMin= 7 ErrMin= 4.55D-06
 ErrMax= 4.55D-06  0.00D+00 EMaxC= 1.00D-01 BMatC= 9.92D-10 BMatP= 1.48D-08
 IDIUse=1 WtCom= 1.00D+00 WtEn= 0.00D+00
 Coeff-Com:  0.120D-02-0.570D-02 0.183D-01-0.494D-01 0.218D+00-0.721D+00
 Coeff-Com:  0.154D+01
 Coeff:      0.120D-02-0.570D-02 0.183D-01-0.494D-01 0.218D+00-0.721D+00
 Coeff:      0.154D+01
 Gap=     0.377 Goal=   None    Shift=    0.000
 RMSDP=2.34D-06 MaxDP=3.25D-05 DE=-1.02D-07 OVMax= 2.65D-05

 Cycle   8  Pass 1  IDiag  3:
 E=-0.214898918316067E-01 Delta-E=       -0.000000006579 Rises=F Damp=F
 DIIS: error= 1.29D-06 at cycle   8 NSaved=   8.
 NSaved= 8 IEnMin= 8 EnMin=-0.214898918316067E-01 IErMin= 8 ErrMin= 1.29D-06
 ErrMax= 1.29D-06  0.00D+00 EMaxC= 1.00D-01 BMatC= 4.68D-11 BMatP= 9.92D-10
 IDIUse=1 WtCom= 1.00D+00 WtEn= 0.00D+00
 Coeff-Com: -0.100D-03 0.465D-03-0.134D-02 0.330D-02-0.303D-01 0.151D+00
 Coeff-Com: -0.505D+00 0.138D+01
 Coeff:     -0.100D-03 0.465D-03-0.134D-02 0.330D-02-0.303D-01 0.151D+00
 Coeff:     -0.505D+00 0.138D+01
 Gap=     0.377 Goal=   None    Shift=    0.000
 RMSDP=4.59D-07 MaxDP=7.63D-06 DE=-6.58D-09 OVMax= 6.23D-06

 Cycle   9  Pass 1  IDiag  3:
 E=-0.214898921296367E-01 Delta-E=       -0.000000000298 Rises=F Damp=F
 DIIS: error= 3.32D-07 at cycle   9 NSaved=   9.
 NSaved= 9 IEnMin= 9 EnMin=-0.214898921296367E-01 IErMin= 9 ErrMin= 3.32D-07
 ErrMax= 3.32D-07  0.00D+00 EMaxC= 1.00D-01 BMatC= 4.25D-12 BMatP= 4.68D-11
 IDIUse=1 WtCom= 1.00D+00 WtEn= 0.00D+00
 Coeff-Com:  0.323D-04-0.146D-03 0.367D-03-0.687D-03 0.104D-01-0.606D-01
 Coeff-Com:  0.225D+00-0.821D+00 0.165D+01
 Coeff:      0.323D-04-0.146D-03 0.367D-03-0.687D-03 0.104D-01-0.606D-01
 Coeff:      0.225D+00-0.821D+00 0.165D+01
 Gap=     0.377 Goal=   None    Shift=    0.000
 RMSDP=1.57D-07 MaxDP=2.50D-06 DE=-2.98D-10 OVMax= 2.10D-06

 Cycle  10  Pass 1  IDiag  3:
 E=-0.214898921589679E-01 Delta-E=       -0.000000000029 Rises=F Damp=F
 DIIS: error= 6.15D-08 at cycle  10 NSaved=  10.
 NSaved=10 IEnMin=10 EnMin=-0.214898921589679E-01 IErMin=10 ErrMin= 6.15D-08
 ErrMax= 6.15D-08  0.00D+00 EMaxC= 1.00D-01 BMatC= 2.46D-13 BMatP= 4.25D-12
 IDIUse=1 WtCom= 1.00D+00 WtEn= 0.00D+00
 Coeff-Com: -0.300D-05 0.115D-04-0.724D-08-0.882D-04-0.236D-02 0.172D-01
 Coeff-Com: -0.699D-01 0.294D+00-0.798D+00 0.156D+01
 Coeff:     -0.300D-05 0.115D-04-0.724D-08-0.882D-04-0.236D-02 0.172D-01
 Coeff:     -0.699D-01 0.294D+00-0.798D+00 0.156D+01
 Gap=     0.377 Goal=   None    Shift=    0.000
 RMSDP=3.82D-08 MaxDP=5.16D-07 DE=-2.93D-11 OVMax= 4.03D-07

 Cycle  11  Pass 1  IDiag  3:
 E=-0.214898921607301E-01 Delta-E=       -0.000000000002 Rises=F Damp=F
 DIIS: error= 1.11D-08 at cycle  11 NSaved=  11.
 NSaved=11 IEnMin=11 EnMin=-0.214898921607301E-01 IErMin=11 ErrMin= 1.11D-08
 ErrMax= 1.11D-08  0.00D+00 EMaxC= 1.00D-01 BMatC= 7.75D-15 BMatP= 2.46D-13
 IDIUse=1 WtCom= 1.00D+00 WtEn= 0.00D+00
 Coeff-Com:  0.208D-06-0.117D-06-0.115D-04 0.591D-04 0.630D-03-0.509D-02
 Coeff-Com:  0.212D-01-0.931D-01 0.272D+00-0.644D+00 0.145D+01
 Coeff:      0.208D-06-0.117D-06-0.115D-04 0.591D-04 0.630D-03-0.509D-02
 Coeff:      0.212D-01-0.931D-01 0.272D+00-0.644D+00 0.145D+01
 Gap=     0.377 Goal=   None    Shift=    0.000
 RMSDP=5.62D-09 MaxDP=7.81D-08 DE=-1.76D-12 OVMax= 4.07D-08

 Cycle  12  Pass 2  IDiag  1:
 SCF Done:  E(RPM3) = -0.214898921607E-01 A.U. after   12 cycles
            NFock= 11  Conv=0.56D-08     -V/T= 0.9997
 KE=-7.902398010479D+01 PE=-4.916880286947D+02 EE= 2.659952464516D+02
 Leave Link  502 at Tue Sep  6 13:42:07 2022, MaxMem=   131072000 cpu:               0.0 elap:               0.0
 (Enter /opt/g16/l601.exe)
 Copying SCF densities to generalized density rwf, IOpCl= 0 IROHF=0.

 **********************************************************************

            Population analysis using the SCF density.

 **********************************************************************

 Orbital symmetries:
       Occupied  (A) (A) (A) (A) (A) (A) (A) (A) (A) (A) (A) (A)
                 (A) (A) (A) (A) (A) (A) (A) (A) (A) (A) (A) (A)
                 (A) (A) (A) (A) (A)
       Virtual   (A) (A) (A) (A) (A) (A) (A) (A) (A) (A) (A) (A)
                 (A) (A) (A) (A) (A) (A) (A) (A) (A) (A) (A) (A)
                 (A) (A) (A) (A) (A)
 The electronic state is 1-A.
 Alpha  occ. eigenvalues --   -1.45655  -1.35027  -1.17467  -1.11160  -1.01325
 Alpha  occ. eigenvalues --   -0.94638  -0.86442  -0.80579  -0.66717  -0.65065
 Alpha  occ. eigenvalues --   -0.60925  -0.58218  -0.57956  -0.55843  -0.54968
 Alpha  occ. eigenvalues --   -0.53177  -0.51336  -0.50976  -0.49367  -0.48629
 Alpha  occ. eigenvalues --   -0.48145  -0.47415  -0.47147  -0.47086  -0.45315
 Alpha  occ. eigenvalues --   -0.43725  -0.42014  -0.35447  -0.34310
 Alpha virt. eigenvalues --    0.03403   0.04218   0.11785   0.12377   0.13147
 Alpha virt. eigenvalues --    0.13741   0.14080   0.14223   0.14893   0.15025
 Alpha virt. eigenvalues --    0.15610   0.15742   0.15844   0.16121   0.16312
 Alpha virt. eigenvalues --    0.16457   0.16530   0.16664   0.16886   0.17032
 Alpha virt. eigenvalues --    0.17092   0.17146   0.17829   0.17959   0.18162
 Alpha virt. eigenvalues --    0.20728   0.21152   0.22196   0.22557
          Condensed to atoms (all electrons):
               1          2          3          4          5          6
     1  C    4.050072   0.000000   0.000000   0.000000   0.000000   0.000000
     2  H    0.000000   0.946084   0.000000   0.000000   0.000000   0.000000
     3  H    0.000000   0.000000   0.945055   0.000000   0.000000   0.000000
     4  C    0.000000   0.000000   0.000000   4.127327   0.000000   0.000000
     5  C    0.000000   0.000000   0.000000   0.000000   4.066425   0.000000
     6  H    0.000000   0.000000   0.000000   0.000000   0.000000   0.960217
     7  H    0.000000   0.000000   0.000000   0.000000   0.000000   0.000000
     8  H    0.000000   0.000000   0.000000   0.000000   0.000000   0.000000
     9  C    0.000000   0.000000   0.000000   0.000000   0.000000   0.000000
    10  H    0.000000   0.000000   0.000000   0.000000   0.000000   0.000000
    11  C    0.000000   0.000000   0.000000   0.000000   0.000000   0.000000
    12  H    0.000000   0.000000   0.000000   0.000000   0.000000   0.000000
    13  H    0.000000   0.000000   0.000000   0.000000   0.000000   0.000000
    14  H    0.000000   0.000000   0.000000   0.000000   0.000000   0.000000
    15  C    0.000000   0.000000   0.000000   0.000000   0.000000   0.000000
    16  H    0.000000   0.000000   0.000000   0.000000   0.000000   0.000000
    17  H    0.000000   0.000000   0.000000   0.000000   0.000000   0.000000
    18  H    0.000000   0.000000   0.000000   0.000000   0.000000   0.000000
    19  C    0.000000   0.000000   0.000000   0.000000   0.000000   0.000000
    20  C    0.000000   0.000000   0.000000   0.000000   0.000000   0.000000
    21  H    0.000000   0.000000   0.000000   0.000000   0.000000   0.000000
    22  H    0.000000   0.000000   0.000000   0.000000   0.000000   0.000000
    23  H    0.000000   0.000000   0.000000   0.000000   0.000000   0.000000
    24  C    0.000000   0.000000   0.000000   0.000000   0.000000   0.000000
    25  H    0.000000   0.000000   0.000000   0.000000   0.000000   0.000000
    26  C    0.000000   0.000000   0.000000   0.000000   0.000000   0.000000
    27  H    0.000000   0.000000   0.000000   0.000000   0.000000   0.000000
    28  H    0.000000   0.000000   0.000000   0.000000   0.000000   0.000000
               7          8          9         10         11         12
     1  C    0.000000   0.000000   0.000000   0.000000   0.000000   0.000000
     2  H    0.000000   0.000000   0.000000   0.000000   0.000000   0.000000
     3  H    0.000000   0.000000   0.000000   0.000000   0.000000   0.000000
     4  C    0.000000   0.000000   0.000000   0.000000   0.000000   0.000000
     5  C    0.000000   0.000000   0.000000   0.000000   0.000000   0.000000
     6  H    0.000000   0.000000   0.000000   0.000000   0.000000   0.000000
     7  H    0.955806   0.000000   0.000000   0.000000   0.000000   0.000000
     8  H    0.000000   0.955083   0.000000   0.000000   0.000000   0.000000
     9  C    0.000000   0.000000   4.150619   0.000000   0.000000   0.000000
    10  H    0.000000   0.000000   0.000000   0.906320   0.000000   0.000000
    11  C    0.000000   0.000000   0.000000   0.000000   4.068265   0.000000
    12  H    0.000000   0.000000   0.000000   0.000000   0.000000   0.955535
    13  H    0.000000   0.000000   0.000000   0.000000   0.000000   0.000000
    14  H    0.000000   0.000000   0.000000   0.000000   0.000000   0.000000
    15  C    0.000000   0.000000   0.000000   0.000000   0.000000   0.000000
    16  H    0.000000   0.000000   0.000000   0.000000   0.000000   0.000000
    17  H    0.000000   0.000000   0.000000   0.000000   0.000000   0.000000
    18  H    0.000000   0.000000   0.000000   0.000000   0.000000   0.000000
    19  C    0.000000   0.000000   0.000000   0.000000   0.000000   0.000000
    20  C    0.000000   0.000000   0.000000   0.000000   0.000000   0.000000
    21  H    0.000000   0.000000   0.000000   0.000000   0.000000   0.000000
    22  H    0.000000   0.000000   0.000000   0.000000   0.000000   0.000000
    23  H    0.000000   0.000000   0.000000   0.000000   0.000000   0.000000
    24  C    0.000000   0.000000   0.000000   0.000000   0.000000   0.000000
    25  H    0.000000   0.000000   0.000000   0.000000   0.000000   0.000000
    26  C    0.000000   0.000000   0.000000   0.000000   0.000000   0.000000
    27  H    0.000000   0.000000   0.000000   0.000000   0.000000   0.000000
    28  H    0.000000   0.000000   0.000000   0.000000   0.000000   0.000000
              13         14         15         16         17         18
     1  C    0.000000   0.000000   0.000000   0.000000   0.000000   0.000000
     2  H    0.000000   0.000000   0.000000   0.000000   0.000000   0.000000
     3  H    0.000000   0.000000   0.000000   0.000000   0.000000   0.000000
     4  C    0.000000   0.000000   0.000000   0.000000   0.000000   0.000000
     5  C    0.000000   0.000000   0.000000   0.000000   0.000000   0.000000
     6  H    0.000000   0.000000   0.000000   0.000000   0.000000   0.000000
     7  H    0.000000   0.000000   0.000000   0.000000   0.000000   0.000000
     8  H    0.000000   0.000000   0.000000   0.000000   0.000000   0.000000
     9  C    0.000000   0.000000   0.000000   0.000000   0.000000   0.000000
    10  H    0.000000   0.000000   0.000000   0.000000   0.000000   0.000000
    11  C    0.000000   0.000000   0.000000   0.000000   0.000000   0.000000
    12  H    0.000000   0.000000   0.000000   0.000000   0.000000   0.000000
    13  H    0.955673   0.000000   0.000000   0.000000   0.000000   0.000000
    14  H    0.000000   0.958156   0.000000   0.000000   0.000000   0.000000
    15  C    0.000000   0.000000   4.067694   0.000000   0.000000   0.000000
    16  H    0.000000   0.000000   0.000000   0.954859   0.000000   0.000000
    17  H    0.000000   0.000000   0.000000   0.000000   0.956433   0.000000
    18  H    0.000000   0.000000   0.000000   0.000000   0.000000   0.954487
    19  C    0.000000   0.000000   0.000000   0.000000   0.000000   0.000000
    20  C    0.000000   0.000000   0.000000   0.000000   0.000000   0.000000
    21  H    0.000000   0.000000   0.000000   0.000000   0.000000   0.000000
    22  H    0.000000   0.000000   0.000000   0.000000   0.000000   0.000000
    23  H    0.000000   0.000000   0.000000   0.000000   0.000000   0.000000
    24  C    0.000000   0.000000   0.000000   0.000000   0.000000   0.000000
    25  H    0.000000   0.000000   0.000000   0.000000   0.000000   0.000000
    26  C    0.000000   0.000000   0.000000   0.000000   0.000000   0.000000
    27  H    0.000000   0.000000   0.000000   0.000000   0.000000   0.000000
    28  H    0.000000   0.000000   0.000000   0.000000   0.000000   0.000000
              19         20         21         22         23         24
     1  C    0.000000   0.000000   0.000000   0.000000   0.000000   0.000000
     2  H    0.000000   0.000000   0.000000   0.000000   0.000000   0.000000
     3  H    0.000000   0.000000   0.000000   0.000000   0.000000   0.000000
     4  C    0.000000   0.000000   0.000000   0.000000   0.000000   0.000000
     5  C    0.000000   0.000000   0.000000   0.000000   0.000000   0.000000
     6  H    0.000000   0.000000   0.000000   0.000000   0.000000   0.000000
     7  H    0.000000   0.000000   0.000000   0.000000   0.000000   0.000000
     8  H    0.000000   0.000000   0.000000   0.000000   0.000000   0.000000
     9  C    0.000000   0.000000   0.000000   0.000000   0.000000   0.000000
    10  H    0.000000   0.000000   0.000000   0.000000   0.000000   0.000000
    11  C    0.000000   0.000000   0.000000   0.000000   0.000000   0.000000
    12  H    0.000000   0.000000   0.000000   0.000000   0.000000   0.000000
    13  H    0.000000   0.000000   0.000000   0.000000   0.000000   0.000000
    14  H    0.000000   0.000000   0.000000   0.000000   0.000000   0.000000
    15  C    0.000000   0.000000   0.000000   0.000000   0.000000   0.000000
    16  H    0.000000   0.000000   0.000000   0.000000   0.000000   0.000000
    17  H    0.000000   0.000000   0.000000   0.000000   0.000000   0.000000
    18  H    0.000000   0.000000   0.000000   0.000000   0.000000   0.000000
    19  C    4.118634   0.000000   0.000000   0.000000   0.000000   0.000000
    20  C    0.000000   4.068576   0.000000   0.000000   0.000000   0.000000
    21  H    0.000000   0.000000   0.959045   0.000000   0.000000   0.000000
    22  H    0.000000   0.000000   0.000000   0.955661   0.000000   0.000000
    23  H    0.000000   0.000000   0.000000   0.000000   0.955804   0.000000
    24  C    0.000000   0.000000   0.000000   0.000000   0.000000   4.158608
    25  H    0.000000   0.000000   0.000000   0.000000   0.000000   0.000000
    26  C    0.000000   0.000000   0.000000   0.000000   0.000000   0.000000
    27  H    0.000000   0.000000   0.000000   0.000000   0.000000   0.000000
    28  H    0.000000   0.000000   0.000000   0.000000   0.000000   0.000000
              25         26         27         28
     1  C    0.000000   0.000000   0.000000   0.000000
     2  H    0.000000   0.000000   0.000000   0.000000
     3  H    0.000000   0.000000   0.000000   0.000000
     4  C    0.000000   0.000000   0.000000   0.000000
     5  C    0.000000   0.000000   0.000000   0.000000
     6  H    0.000000   0.000000   0.000000   0.000000
     7  H    0.000000   0.000000   0.000000   0.000000
     8  H    0.000000   0.000000   0.000000   0.000000
     9  C    0.000000   0.000000   0.000000   0.000000
    10  H    0.000000   0.000000   0.000000   0.000000
    11  C    0.000000   0.000000   0.000000   0.000000
    12  H    0.000000   0.000000   0.000000   0.000000
    13  H    0.000000   0.000000   0.000000   0.000000
    14  H    0.000000   0.000000   0.000000   0.000000
    15  C    0.000000   0.000000   0.000000   0.000000
    16  H    0.000000   0.000000   0.000000   0.000000
    17  H    0.000000   0.000000   0.000000   0.000000
    18  H    0.000000   0.000000   0.000000   0.000000
    19  C    0.000000   0.000000   0.000000   0.000000
    20  C    0.000000   0.000000   0.000000   0.000000
    21  H    0.000000   0.000000   0.000000   0.000000
    22  H    0.000000   0.000000   0.000000   0.000000
    23  H    0.000000   0.000000   0.000000   0.000000
    24  C    0.000000   0.000000   0.000000   0.000000
    25  H    0.904964   0.000000   0.000000   0.000000
    26  C    0.000000   4.052947   0.000000   0.000000
    27  H    0.000000   0.000000   0.947134   0.000000
    28  H    0.000000   0.000000   0.000000   0.944517
 Mulliken charges:
               1
     1  C   -0.050072
     2  H    0.053916
     3  H    0.054945
     4  C   -0.127327
     5  C   -0.066425
     6  H    0.039783
     7  H    0.044194
     8  H    0.044917
     9  C   -0.150619
    10  H    0.093680
    11  C   -0.068265
    12  H    0.044465
    13  H    0.044327
    14  H    0.041844
    15  C   -0.067694
    16  H    0.045141
    17  H    0.043567
    18  H    0.045513
    19  C   -0.118634
    20  C   -0.068576
    21  H    0.040955
    22  H    0.044339
    23  H    0.044196
    24  C   -0.158608
    25  H    0.095036
    26  C   -0.052947
    27  H    0.052866
    28  H    0.055483
 Sum of Mulliken charges =  -0.00000
 Mulliken charges with hydrogens summed into heavy atoms:
               1
     1  C    0.058789
     4  C   -0.127327
     5  C    0.062469
     9  C   -0.056939
    11  C    0.062372
    15  C    0.066527
    19  C   -0.118634
    20  C    0.060913
    24  C   -0.063572
    26  C    0.055402
 Charge=             -0.0000 electrons
 Dipole moment (field-independent basis, Debye):
    X=             -0.2734    Y=              0.1430    Z=              0.0307  Tot=              0.3101
 N-N= 3.046952724558D+02 E-N=-4.916880289248D+02  KE=-7.902398010479D+01
 Leave Link  601 at Tue Sep  6 13:42:07 2022, MaxMem=   131072000 cpu:               0.0 elap:               0.0
 (Enter /opt/g16/l701.exe)
 ... and contract with generalized density number  0.
 Compute integral first derivatives.
 Leave Link  701 at Tue Sep  6 13:42:07 2022, MaxMem=   131072000 cpu:               0.0 elap:               0.0
 (Enter /opt/g16/l702.exe)
 L702 exits ... SP integral derivatives will be done elsewhere.
 Leave Link  702 at Tue Sep  6 13:42:07 2022, MaxMem=   131072000 cpu:               0.0 elap:               0.0
 (Enter /opt/g16/l703.exe)
 Integral derivatives from FoFJK, PRISM(SPDF).
 Compute integral first derivatives, UseDBF=F ICtDFT=           0.
 Calling FoFJK, ICntrl=      2127 FMM=F ISym2X=0 I1Cent= 0 IOpClX= 0 NMat=1 NMatS=1 NMatT=0.
 FoFJK:  IHMeth= 9 ICntrl=    2127 DoSepK=F KAlg= 0 I1Cent=           0 FoldK=F
 IRaf=         0 NMat=       1 IRICut=       1 DoRegI=T DoRafI=F ISym2E= 0 IDoP0=3 IntGTp=3.
 FoFCou: FMM=F IPFlag=           0 FMFlag=      100000 FMFlg1=         800
         NFxFlg=           0 DoJE=F BraDBF=F KetDBF=F FulRan=T
         wScrn=  0.000000 ICntrl=      2127 IOpCl=  0 I1Cent=           0 NGrid=           0
         NMat0=    1 NMatS0=      1 NMatT0=    0 NMatD0=    1 NMtDS0=    0 NMtDT0=    0
 Symmetry not used in FoFCou.
 Leave Link  703 at Tue Sep  6 13:42:07 2022, MaxMem=   131072000 cpu:               0.0 elap:               0.0
 (Enter /opt/g16/l716.exe)
 Dipole        =-1.07567935D-01 5.62789418D-02 1.20870655D-02
 ***** Axes restored to original set *****
 -------------------------------------------------------------------
 Center     Atomic                   Forces (Hartrees/Bohr)
 Number     Number              X              Y              Z
 -------------------------------------------------------------------
      1        6           0.007663238    0.000591129   -0.013582137
      2        1          -0.002534037    0.006257378    0.001454400
      3        1           0.002203475   -0.006553086    0.004620570
      4        6          -0.002205264   -0.002665864    0.001499434
      5        6           0.001297841   -0.014763610    0.007266751
      6        1           0.001704907    0.000255326   -0.000871055
      7        1          -0.001045716    0.001702221    0.000877636
      8        1          -0.002445339    0.000358297   -0.000878068
      9        6          -0.013576664   -0.002886924    0.004490863
     10        1           0.004700739    0.001949328   -0.002294365
     11        6          -0.002888079    0.015872799   -0.007099431
     12        1           0.001135105   -0.000421318    0.001957488
     13        1          -0.003554580    0.000001769    0.002062790
     14        1           0.001117084   -0.001806238   -0.001071134
     15        6           0.001971573   -0.013796082    0.008561784
     16        1          -0.001478496    0.000042903   -0.001279105
     17        1          -0.001845319    0.001110948    0.001084745
     18        1           0.004585399   -0.001088587   -0.001945885
     19        6           0.003688377    0.002629382   -0.001181037
     20        6           0.013125565    0.003392759   -0.007485978
     21        1           0.000247394   -0.001602261    0.000908508
     22        1          -0.001211320    0.001330598    0.000784140
     23        1          -0.001726097    0.000501285   -0.000716336
     24        6          -0.001517279    0.011510819   -0.006501803
     25        1           0.000293952   -0.004143737    0.003364753
     26        6          -0.008641684    0.000555393    0.014157346
     27        1           0.002879874   -0.005856103   -0.002588307
     28        1          -0.001944649    0.007521476   -0.005596569
 -------------------------------------------------------------------
 Cartesian Forces:  Max     0.015872799 RMS     0.005392834
 Leave Link  716 at Tue Sep  6 13:42:07 2022, MaxMem=   131072000 cpu:               0.0 elap:               0.0
 (Enter /opt/g16/l103.exe)

 GradGradGradGradGradGradGradGradGradGradGradGradGradGradGradGradGradGrad
 Berny optimization.
 FormGI is forming the generalized inverse of G from B-inverse, IUseBI=4.
 Internal  Forces:  Max     0.018658918 RMS     0.004788016
 Search for a local minimum.
 Step number   1 out of a maximum of  138
 All quantities printed in internal units (Hartrees-Bohrs-Radians)
 RMS Force = .47880D-02 SwitMx=.10000D-02 MixMth= 1
 Mixed Optimization -- RFO/linear search
 Second derivative matrix not updated -- first step.
 ITU=  0
     Eigenvalues ---    0.00343   0.00570   0.00667   0.00680   0.00692
     Eigenvalues ---    0.00715   0.00820   0.01219   0.01287   0.01569
     Eigenvalues ---    0.01642   0.02780   0.02784   0.04014   0.04133
     Eigenvalues ---    0.05351   0.05403   0.06980   0.07038   0.07088
     Eigenvalues ---    0.07092   0.07265   0.07301   0.07348   0.07506
     Eigenvalues ---    0.09279   0.09366   0.12770   0.12846   0.15999
     Eigenvalues ---    0.15999   0.16000   0.16000   0.16000   0.16000
     Eigenvalues ---    0.16000   0.16000   0.16000   0.16000   0.16000
     Eigenvalues ---    0.16000   0.16000   0.16000   0.21860   0.21867
     Eigenvalues ---    0.22000   0.22000   0.24993   0.24996   0.24998
     Eigenvalues ---    0.24999   0.29245   0.30872   0.31604   0.31703
     Eigenvalues ---    0.31799   0.31979   0.32807   0.33861   0.33935
     Eigenvalues ---    0.34070   0.34190   0.34222   0.34233   0.34250
     Eigenvalues ---    0.34250   0.34253   0.34264   0.34270   0.34291
     Eigenvalues ---    0.34299   0.34337   0.34542   0.34556   0.34800
     Eigenvalues ---    0.34848   0.55498   0.55576
 RFO step:  Lambda=-9.13887019D-03 EMin= 3.43410928D-03
 Linear search not attempted -- first point.
 Iteration  1 RMS(Cart)=  0.09649648 RMS(Int)=  0.00102976
 Iteration  2 RMS(Cart)=  0.00177705 RMS(Int)=  0.00006760
 Iteration  3 RMS(Cart)=  0.00000137 RMS(Int)=  0.00006760
 Iteration  4 RMS(Cart)=  0.00000000 RMS(Int)=  0.00006760
 ITry= 1 IFail=0 DXMaxC= 3.24D-01 DCOld= 1.00D+10 DXMaxT= 3.00D-01 DXLimC= 3.00D+00 Rises=F
 Variable       Old X    -DE/DX   Delta X   Delta X   Delta X     New X
                                 (Linear)    (Quad)   (Total)
    R1        2.07565   0.00675   0.00000   0.01940   0.01940   2.09505
    R2        2.07212   0.00795   0.00000   0.02273   0.02273   2.09485
    R3        2.86257  -0.01685   0.00000  -0.05301  -0.05301   2.80956
    R4        2.89495  -0.00757   0.00000  -0.02509  -0.02509   2.86986
    R5        2.84874  -0.01400   0.00000  -0.04306  -0.04306   2.80569
    R6        2.54692  -0.01811   0.00000  -0.03210  -0.03210   2.51482
    R7        2.06958   0.00193   0.00000   0.00550   0.00550   2.07507
    R8        2.06888   0.00197   0.00000   0.00561   0.00561   2.07449
    R9        2.06829   0.00237   0.00000   0.00674   0.00674   2.07502
   R10        2.05922   0.00556   0.00000   0.01555   0.01555   2.07477
   R11        2.82691  -0.01438   0.00000  -0.04266  -0.04266   2.78425
   R12        2.06765   0.00222   0.00000   0.00630   0.00630   2.07395
   R13        2.06402   0.00382   0.00000   0.01077   0.01077   2.07480
   R14        2.06905   0.00227   0.00000   0.00644   0.00644   2.07549
   R15        2.06877   0.00192   0.00000   0.00545   0.00545   2.07423
   R16        2.07011   0.00210   0.00000   0.00598   0.00598   2.07610
   R17        2.06425   0.00424   0.00000   0.01197   0.01197   2.07622
   R18        2.84182  -0.01540   0.00000  -0.04682  -0.04682   2.79500
   R19        2.84690  -0.01282   0.00000  -0.03929  -0.03929   2.80761
   R20        2.54624  -0.01866   0.00000  -0.03303  -0.03303   2.51321
   R21        2.06939   0.00186   0.00000   0.00529   0.00529   2.07468
   R22        2.06911   0.00176   0.00000   0.00500   0.00500   2.07411
   R23        2.06910   0.00171   0.00000   0.00486   0.00486   2.07396
   R24        2.06000   0.00531   0.00000   0.01487   0.01487   2.07487
   R25        2.84514  -0.01588   0.00000  -0.04853  -0.04853   2.79661
   R26        2.07439   0.00699   0.00000   0.02007   0.02007   2.09446
   R27        2.06842   0.00926   0.00000   0.02630   0.02630   2.09472
    A1        1.82997   0.00055   0.00000   0.02067   0.02064   1.85061
    A2        1.90126   0.00162   0.00000   0.00797   0.00799   1.90925
    A3        1.91824   0.00101   0.00000   0.00544   0.00545   1.92369
    A4        1.93126   0.00085   0.00000  -0.00438  -0.00460   1.92666
    A5        1.91975   0.00104   0.00000  -0.00044  -0.00069   1.91906
    A6        1.95891  -0.00467   0.00000  -0.02586  -0.02600   1.93291
    A7        2.00708   0.00188   0.00000   0.00735   0.00732   2.01439
    A8        2.17223  -0.00420   0.00000  -0.01610  -0.01613   2.15610
    A9        2.10367   0.00232   0.00000   0.00904   0.00901   2.11268
   A10        1.95918   0.00027   0.00000   0.00369   0.00369   1.96287
   A11        1.92474   0.00051   0.00000   0.00226   0.00224   1.92698
   A12        1.92846  -0.00065   0.00000  -0.00517  -0.00517   1.92329
   A13        1.87761   0.00010   0.00000   0.00319   0.00317   1.88079
   A14        1.87691   0.00050   0.00000   0.00441   0.00442   1.88133
   A15        1.89476  -0.00075   0.00000  -0.00857  -0.00859   1.88618
   A16        2.06937   0.00434   0.00000   0.01870   0.01866   2.08803
   A17        2.22583  -0.00907   0.00000  -0.03952  -0.03956   2.18626
   A18        1.98786   0.00474   0.00000   0.02107   0.02103   2.00889
   A19        1.91729   0.00064   0.00000   0.00227   0.00223   1.91953
   A20        1.98086  -0.00181   0.00000  -0.01171  -0.01172   1.96914
   A21        1.91008   0.00130   0.00000   0.01012   0.01012   1.92020
   A22        1.89313  -0.00027   0.00000  -0.00598  -0.00602   1.88710
   A23        1.88704  -0.00054   0.00000  -0.00118  -0.00121   1.88583
   A24        1.87282   0.00072   0.00000   0.00684   0.00687   1.87968
   A25        1.89068  -0.00057   0.00000  -0.00275  -0.00276   1.88792
   A26        1.88480   0.00079   0.00000   0.00063   0.00055   1.88536
   A27        1.92175   0.00059   0.00000   0.00151   0.00147   1.92322
   A28        1.86356   0.00212   0.00000   0.01608   0.01613   1.87968
   A29        1.92076   0.00076   0.00000   0.00675   0.00677   1.92753
   A30        1.97940  -0.00357   0.00000  -0.02139  -0.02140   1.95800
   A31        1.99479   0.00313   0.00000   0.01211   0.01208   2.00687
   A32        2.18280  -0.00573   0.00000  -0.02207  -0.02210   2.16071
   A33        2.10555   0.00260   0.00000   0.01008   0.01006   2.11561
   A34        1.96062   0.00019   0.00000   0.00277   0.00276   1.96338
   A35        1.92484   0.00032   0.00000   0.00107   0.00107   1.92591
   A36        1.92353   0.00021   0.00000   0.00044   0.00043   1.92397
   A37        1.87913   0.00004   0.00000   0.00178   0.00178   1.88090
   A38        1.87885   0.00011   0.00000   0.00220   0.00220   1.88105
   A39        1.89486  -0.00092   0.00000  -0.00865  -0.00865   1.88621
   A40        2.06738   0.00549   0.00000   0.02400   0.02395   2.09133
   A41        2.22778  -0.01107   0.00000  -0.04826  -0.04831   2.17947
   A42        1.98788   0.00559   0.00000   0.02455   0.02450   2.01238
   A43        1.94447  -0.00378   0.00000  -0.02046  -0.02060   1.92387
   A44        1.91637   0.00065   0.00000   0.00577   0.00588   1.92225
   A45        1.93094   0.00046   0.00000  -0.00670  -0.00695   1.92398
   A46        1.88208   0.00195   0.00000   0.01593   0.01599   1.89807
   A47        1.94478   0.00069   0.00000  -0.00608  -0.00639   1.93838
   A48        1.84165   0.00032   0.00000   0.01438   0.01439   1.85604
    D1       -0.64505   0.00074   0.00000   0.00372   0.00379  -0.64127
    D2        2.47476   0.00112   0.00000   0.01985   0.01981   2.49458
    D3       -2.64803  -0.00132   0.00000  -0.02330  -0.02318  -2.67122
    D4        0.47178  -0.00094   0.00000  -0.00717  -0.00716   0.46463
    D5        1.48334   0.00007   0.00000  -0.00089  -0.00092   1.48242
    D6       -1.68003   0.00045   0.00000   0.01523   0.01511  -1.66492
    D7       -1.04074  -0.00005   0.00000   0.00445   0.00438  -1.03636
    D8       -3.12456  -0.00052   0.00000  -0.00621  -0.00622  -3.13079
    D9        1.13286  -0.00157   0.00000  -0.02324  -0.02319   1.10967
   D10        0.96550   0.00178   0.00000   0.03224   0.03215   0.99765
   D11       -1.11833   0.00132   0.00000   0.02158   0.02155  -1.09677
   D12        3.13910   0.00027   0.00000   0.00455   0.00459  -3.13950
   D13        3.12376   0.00033   0.00000   0.00791   0.00789   3.13164
   D14        1.03993  -0.00014   0.00000  -0.00275  -0.00271   1.03722
   D15       -0.98583  -0.00119   0.00000  -0.01978  -0.01967  -1.00551
   D16        3.13139   0.00032   0.00000   0.01446   0.01454  -3.13725
   D17        1.03805  -0.00033   0.00000   0.00643   0.00650   1.04456
   D18       -1.05679   0.00069   0.00000   0.01897   0.01904  -1.03775
   D19        0.01065   0.00005   0.00000  -0.00064  -0.00071   0.00994
   D20       -2.08269  -0.00061   0.00000  -0.00867  -0.00875  -2.09144
   D21        2.10565   0.00042   0.00000   0.00388   0.00379   2.10944
   D22       -3.11648  -0.00029   0.00000  -0.00814  -0.00810  -3.12458
   D23        0.04315  -0.00075   0.00000  -0.02640  -0.02637   0.01678
   D24        0.00219   0.00010   0.00000   0.00879   0.00875   0.01095
   D25       -3.12136  -0.00036   0.00000  -0.00947  -0.00951  -3.13087
   D26       -1.98219   0.00066   0.00000   0.00925   0.00924  -1.97295
   D27        0.14038  -0.00048   0.00000  -0.00491  -0.00489   0.13549
   D28        2.23174   0.00016   0.00000   0.00322   0.00319   2.23493
   D29        1.17673   0.00021   0.00000  -0.00831  -0.00831   1.16842
   D30       -2.98389  -0.00092   0.00000  -0.02247  -0.02244  -3.00633
   D31       -0.89252  -0.00029   0.00000  -0.01434  -0.01436  -0.90688
   D32       -1.16513  -0.00007   0.00000   0.01125   0.01123  -1.15390
   D33        1.98661  -0.00039   0.00000  -0.00226  -0.00218   1.98442
   D34        0.91787   0.00007   0.00000   0.01302   0.01299   0.93087
   D35       -2.21358  -0.00025   0.00000  -0.00049  -0.00042  -2.21400
   D36        3.00398   0.00094   0.00000   0.02408   0.02398   3.02796
   D37       -0.12747   0.00062   0.00000   0.01057   0.01057  -0.11690
   D38        3.13465  -0.00014   0.00000  -0.00743  -0.00751   3.12714
   D39       -1.05225   0.00026   0.00000  -0.00258  -0.00267  -1.05492
   D40        1.03962  -0.00054   0.00000  -0.01236  -0.01245   1.02718
   D41       -0.01659   0.00011   0.00000   0.00522   0.00531  -0.01128
   D42        2.07969   0.00051   0.00000   0.01007   0.01016   2.08985
   D43       -2.11162  -0.00030   0.00000   0.00029   0.00038  -2.11124
   D44        3.12172   0.00044   0.00000   0.01099   0.01093   3.13265
   D45       -0.03888   0.00093   0.00000   0.03126   0.03122  -0.00766
   D46       -0.00913   0.00011   0.00000  -0.00332  -0.00328  -0.01241
   D47        3.11345   0.00059   0.00000   0.01695   0.01701   3.13047
   D48        1.80918  -0.00042   0.00000  -0.00147  -0.00137   1.80782
   D49       -2.36991  -0.00064   0.00000   0.00354   0.00351  -2.36641
   D50       -0.35661   0.00127   0.00000   0.02689   0.02685  -0.32977
   D51       -1.35069   0.00006   0.00000   0.01806   0.01814  -1.33255
   D52        0.75340  -0.00016   0.00000   0.02307   0.02302   0.77642
   D53        2.76670   0.00175   0.00000   0.04642   0.04636   2.81305
         Item               Value     Threshold  Converged?
 Maximum Force            0.018659     0.000450     NO 
 RMS     Force            0.004788     0.000300     NO 
 Maximum Displacement     0.323634     0.001800     NO 
 RMS     Displacement     0.096389     0.001200     NO 
 Predicted change in Energy=-4.756898D-03
 Lowest energy point so far.  Saving SCF results.
 GradGradGradGradGradGradGradGradGradGradGradGradGradGradGradGradGradGrad

 Leave Link  103 at Tue Sep  6 13:42:07 2022, MaxMem=   131072000 cpu:               0.0 elap:               0.0
 (Enter /opt/g16/l202.exe)
                          Input orientation:                          
 ---------------------------------------------------------------------
 Center     Atomic      Atomic             Coordinates (Angstroms)
 Number     Number       Type             X           Y           Z
 ---------------------------------------------------------------------
      1          6           0        0.818301    0.451862    0.460894
      2          1           0        0.427842    1.369530    0.945188
      3          1           0        1.007984   -0.269906    1.280618
      4          6           0        2.083501    0.770114   -0.252146
      5          6           0        2.129296    2.102955   -0.904673
      6          1           0        3.081787    2.285486   -1.419671
      7          1           0        1.993191    2.898390   -0.160457
      8          1           0        1.324635    2.189559   -1.646796
      9          6           0        3.122181   -0.059645   -0.312429
     10          1           0        4.032463    0.247724   -0.843782
     11          6           0        3.172848   -1.404114    0.288103
     12          1           0        3.905302   -1.422510    1.105202
     13          1           0        2.203924   -1.727529    0.690655
     14          1           0        3.484270   -2.140681   -0.464726
     15          6           0       -2.707802    1.548158   -0.577762
     16          1           0       -3.432464    1.418732   -1.391958
     17          1           0       -3.064313    2.358695    0.072547
     18          1           0       -1.754240    1.869041   -1.019201
     19          6           0       -2.572847    0.291308    0.190162
     20          6           0       -3.788182   -0.119968    0.939283
     21          1           0       -3.647657   -1.063873    1.482069
     22          1           0       -4.063756    0.649704    1.671627
     23          1           0       -4.632192   -0.252092    0.250314
     24          6           0       -1.462125   -0.439355    0.224025
     25          1           0       -1.431312   -1.358665    0.823582
     26          6           0       -0.212900   -0.114076   -0.499670
     27          1           0        0.174446   -1.037517   -0.974688
     28          1           0       -0.404580    0.603273   -1.322712
 ---------------------------------------------------------------------
                    Distance matrix (angstroms):
                    1          2          3          4          5
     1  C    0.000000
     2  H    1.108653   0.000000
     3  H    1.108547   1.771110   0.000000
     4  C    1.486755   2.129346   2.141902   0.000000
     5  C    2.511889   2.618175   3.415158   1.484707   0.000000
     6  H    3.467286   3.670825   4.257024   2.157786   1.098081
     7  H    2.784231   2.451567   3.617379   2.132164   1.097771
     8  H    2.778187   2.862702   3.836534   2.129730   1.098055
     9  C    2.483451   3.299030   2.655529   1.330785   2.452226
    10  H    3.474865   4.177577   3.732089   2.102707   2.658503
    11  C    3.003064   3.957261   2.637830   2.491147   3.848538
    12  H    3.668512   4.462490   3.123094   3.157365   4.429752
    13  H    2.592775   3.579249   1.975599   2.672376   4.150090
    14  H    3.832159   4.863249   3.560620   3.237294   4.476377
    15  C    3.835893   3.490493   4.534975   4.864973   4.879773
    16  H    4.736761   4.512940   5.450848   5.669721   5.624835
    17  H    4.342985   3.732974   4.995256   5.397129   5.290929
    18  H    3.288928   2.978224   4.182601   4.065006   3.892260
    19  C    3.405724   3.276699   3.785024   4.701751   5.156634
    20  C    4.666427   4.471409   4.810635   6.057096   6.584687
    21  H    4.825457   4.776964   4.727152   6.262363   7.007034
    22  H    5.033836   4.606552   5.169248   6.442373   6.863174
    23  H    5.499798   5.358773   5.733536   6.811601   7.252445
    24  C    2.459821   2.713690   2.691940   3.776377   4.542643
    25  H    2.910380   3.303678   2.710064   4.247682   5.258099
    26  C    1.518665   2.167775   2.164316   2.473159   3.250405
    27  H    2.166494   3.089337   2.523968   2.726552   3.699851
    28  H    2.167860   2.534451   3.087897   2.713760   2.973942
                    6          7          8          9         10
     6  H    0.000000
     7  H    1.773786   0.000000
     8  H    1.774365   1.777249   0.000000
     9  C    2.593695   3.169809   3.173425   0.000000
    10  H    2.321187   3.413444   3.427520   1.097918   0.000000
    11  C    4.066685   4.483786   4.480425   1.473364   2.179144
    12  H    4.560964   4.891650   5.223062   2.116686   2.569900
    13  H    4.618269   4.708283   4.645472   2.152025   3.098334
    14  H    4.545862   5.263852   4.981194   2.117785   2.479653
    15  C    5.896762   4.908829   4.220755   6.053439   6.869721
    16  H    6.571719   5.757057   4.825879   6.805464   7.576073
    17  H    6.325079   5.091552   4.716737   6.653516   7.460569
    18  H    4.870418   3.979980   3.158494   5.291393   6.012103
    19  C    6.208317   5.269584   4.708305   5.727923   6.685885
    20  C    7.651625   6.613939   6.177590   7.023072   8.029758
    21  H    8.057526   7.086366   6.715528   7.075267   8.131059
    22  H    7.955545   6.715633   6.512898   7.488481   8.487499
    23  H    8.290575   7.347787   6.711518   7.777147   8.747749
    24  C    5.547399   4.819500   4.263472   4.631180   5.639396
    25  H    6.219332   5.551402   5.127173   4.869525   5.934090
    26  C    4.178428   3.749247   2.997773   3.340776   4.274625
    27  H    4.437678   4.411595   3.491229   3.175525   4.068571
    28  H    3.872209   3.516775   2.368865   3.728026   4.476957
                   11         12         13         14         15
    11  C    0.000000
    12  H    1.097487   0.000000
    13  H    1.097934   1.777519   0.000000
    14  H    1.098302   1.776996   1.773383   0.000000
    15  C    6.636842   7.442471   6.038547   7.208472   0.000000
    16  H    7.377073   8.255378   6.782706   7.833925   1.097634
    17  H    7.287481   7.996213   6.695790   7.963478   1.098623
    18  H    6.057952   6.883155   5.614801   6.620219   1.098687
    19  C    5.991415   6.763201   5.209965   6.559886   1.479051
    20  C    7.108376   7.804732   6.208978   7.677440   2.500258
    21  H    6.932576   7.570855   5.942035   7.470871   3.456724
    22  H    7.648578   8.253533   6.774759   8.326041   2.775893
    23  H    7.889692   8.659649   7.007375   8.363911   2.762225
    24  C    4.734749   5.527418   3.913701   5.275956   2.478867
    25  H    4.635418   5.344422   3.656320   5.141423   3.470275
    26  C    3.707839   4.609468   3.140245   4.216327   2.998943
    27  H    3.274057   4.288758   2.714454   3.525899   3.892380
    28  H    4.407076   5.345433   4.036159   4.836174   2.598574
                   16         17         18         19         20
    16  H    0.000000
    17  H    1.778718   0.000000
    18  H    1.777121   1.774250   0.000000
    19  C    2.124413   2.128254   2.149865   0.000000
    20  C    2.815816   2.723782   3.453800   1.485722   0.000000
    21  H    3.803902   3.747134   4.294574   2.158878   1.097871
    22  H    3.221100   2.544915   3.749827   2.132134   1.097571
    23  H    2.632121   3.050583   3.793874   2.130682   1.097492
    24  C    3.153747   3.227853   2.638112   1.329931   2.454413
    25  H    4.077641   4.129105   3.730712   2.103979   2.665069
    26  C    3.675768   3.817406   2.564838   2.491898   3.853994
    27  H    4.383728   4.808380   3.488537   3.266538   4.495287
    28  H    3.136534   3.478855   1.875065   2.662234   4.133819
                   21         22         23         24         25
    21  H    0.000000
    22  H    1.773532   0.000000
    23  H    1.773561   1.776650   0.000000
    24  C    2.597931   3.170187   3.175702   0.000000
    25  H    2.330814   3.417965   3.434934   1.097974   0.000000
    26  C    4.077618   4.486311   4.484604   1.479901   2.187356
    27  H    4.543658   5.273714   5.022081   2.114965   2.432154
    28  H    4.600404   4.728402   4.591161   2.144264   3.083821
                   26         27         28
    26  C    0.000000
    27  H    1.108342   0.000000
[...]
    26  C    3.804798   4.834865   3.382021   4.046597   3.008003
    27  H    3.441530   4.531574   3.140852   3.390424   3.612235
    28  H    4.523471   5.549092   4.290790   4.735644   2.551847
                   16         17         18         19         20
    16  H    0.000000
    17  H    1.773389   0.000000
    18  H    1.777129   1.777687   0.000000
    19  C    2.136194   2.139610   2.156290   0.000000
    20  C    2.833824   2.741679   3.464759   1.488019   0.000000
    21  H    3.821380   3.768132   4.306667   2.163924   1.098030
    22  H    3.244368   2.573319   3.769389   2.138433   1.098622
    23  H    2.653937   3.062125   3.808231   2.138168   1.098527
    24  C    3.171758   3.246177   2.645969   1.339725   2.463821
    25  H    4.096815   4.151072   3.739228   2.113766   2.675940
    26  C    3.685625   3.829884   2.565435   2.503195   3.867432
    27  H    4.022574   4.581030   3.171872   3.126338   4.407603
    28  H    3.233847   3.318345   1.768192   2.648115   4.131424
                   21         22         23         24         25
    21  H    0.000000
    22  H    1.772184   0.000000
    23  H    1.772312   1.772116   0.000000
    24  C    2.608484   3.181528   3.193614   0.000000
    25  H    2.344677   3.429034   3.453225   1.098263   0.000000
    26  C    4.094775   4.503294   4.505425   1.486508   2.195847
    27  H    4.559326   5.209793   4.860303   2.119997   2.610292
    28  H    4.616221   4.634251   4.683184   2.150940   3.107503
                   26         27         28
    26  C    0.000000
    27  H    1.108604   0.000000
    28  H    1.114202   1.772234   0.000000
 Stoichiometry    C10H18
 Framework group  C1[X(C10H18)]
 Deg. of freedom    78
 Full point group                 C1      NOp   1
 RotChk:  IX=0 Diff= 4.47D-15
 Largest Abelian subgroup         C1      NOp   1
 Largest concise Abelian subgroup C1      NOp   1
                         Standard orientation:                         
 ---------------------------------------------------------------------
 Center     Atomic      Atomic             Coordinates (Angstroms)
 Number     Number       Type             X           Y           Z
 ---------------------------------------------------------------------
      1          6           0        0.850229   -0.146957    0.669655
      2          1           0        0.499256    0.327405    1.606970
      3          1           0        1.037983   -1.216995    0.917163
      4          6           0        2.124319    0.498447    0.226225
      5          6           0        2.174637    1.981486    0.331055
      6          1           0        3.114433    2.401320   -0.051414
      7          1           0        2.071944    2.297404    1.378387
      8          1           0        1.351946    2.441514   -0.234626
      9          6           0        3.175583   -0.199604   -0.225319
     10          1           0        4.087588    0.326067   -0.536563
     11          6           0        3.215349   -1.673200   -0.342354
     12          1           0        4.135524   -2.075616    0.100489
     13          1           0        2.360628   -2.153802    0.162841
     14          1           0        3.192481   -1.976218   -1.397629
     15          6           0       -2.949363    1.211259   -0.596883
     16          1           0       -3.521882    1.152953   -1.532204
     17          1           0       -3.528188    1.818482    0.111553
     18          1           0       -2.010422    1.747849   -0.811251
     19          6           0       -2.700571   -0.147943   -0.050165
     20          6           0       -3.914294   -0.880247    0.402395
     21          1           0       -3.687220   -1.886924    0.777505
     22          1           0       -4.418759   -0.331677    1.209585
     23          1           0       -4.631328   -0.987593   -0.422892
     24          6           0       -1.484071   -0.702203    0.038074
     25          1           0       -1.371289   -1.711440    0.456287
     26          6           0       -0.224781   -0.049027   -0.406061
     27          1           0        0.121295   -0.541249   -1.337164
     28          1           0       -0.406217    1.016450   -0.676772
 ---------------------------------------------------------------------
 Rotational constants (GHZ):           2.5381886           0.5297816           0.4649546
 Leave Link  202 at Tue Sep  6 13:42:14 2022, MaxMem=   131072000 cpu:               0.0 elap:               0.0
 (Enter /opt/g16/l601.exe)
 Copying SCF densities to generalized density rwf, IOpCl= 0 IROHF=0.

 **********************************************************************

            Population analysis using the SCF density.

 **********************************************************************

 Orbital symmetries:
       Occupied  (A) (A) (A) (A) (A) (A) (A) (A) (A) (A) (A) (A)
                 (A) (A) (A) (A) (A) (A) (A) (A) (A) (A) (A) (A)
                 (A) (A) (A) (A) (A)
       Virtual   (A) (A) (A) (A) (A) (A) (A) (A) (A) (A) (A) (A)
                 (A) (A) (A) (A) (A) (A) (A) (A) (A) (A) (A) (A)
                 (A) (A) (A) (A) (A)
 The electronic state is 1-A.
 Alpha  occ. eigenvalues --   -1.47345  -1.36328  -1.17288  -1.11255  -1.01492
 Alpha  occ. eigenvalues --   -0.94425  -0.86176  -0.80121  -0.67393  -0.64418
 Alpha  occ. eigenvalues --   -0.61364  -0.58805  -0.58518  -0.55876  -0.55098
 Alpha  occ. eigenvalues --   -0.53301  -0.51724  -0.50924  -0.49152  -0.48394
 Alpha  occ. eigenvalues --   -0.48072  -0.47644  -0.47168  -0.47054  -0.44910
 Alpha  occ. eigenvalues --   -0.44010  -0.41691  -0.35126  -0.34349
 Alpha virt. eigenvalues --    0.03549   0.04167   0.12058   0.12682   0.13199
 Alpha virt. eigenvalues --    0.13510   0.13908   0.14254   0.14679   0.14956
 Alpha virt. eigenvalues --    0.15690   0.15698   0.15848   0.16043   0.16336
 Alpha virt. eigenvalues --    0.16360   0.16530   0.16588   0.16734   0.17027
 Alpha virt. eigenvalues --    0.17089   0.17151   0.17646   0.17997   0.18080
 Alpha virt. eigenvalues --    0.20998   0.21349   0.22253   0.22544
          Condensed to atoms (all electrons):
               1          2          3          4          5          6
     1  C    4.060603   0.000000   0.000000   0.000000   0.000000   0.000000
     2  H    0.000000   0.942186   0.000000   0.000000   0.000000   0.000000
     3  H    0.000000   0.000000   0.939707   0.000000   0.000000   0.000000
     4  C    0.000000   0.000000   0.000000   4.128355   0.000000   0.000000
     5  C    0.000000   0.000000   0.000000   0.000000   4.068100   0.000000
     6  H    0.000000   0.000000   0.000000   0.000000   0.000000   0.958782
     7  H    0.000000   0.000000   0.000000   0.000000   0.000000   0.000000
     8  H    0.000000   0.000000   0.000000   0.000000   0.000000   0.000000
     9  C    0.000000   0.000000   0.000000   0.000000   0.000000   0.000000
    10  H    0.000000   0.000000   0.000000   0.000000   0.000000   0.000000
    11  C    0.000000   0.000000   0.000000   0.000000   0.000000   0.000000
    12  H    0.000000   0.000000   0.000000   0.000000   0.000000   0.000000
    13  H    0.000000   0.000000   0.000000   0.000000   0.000000   0.000000
    14  H    0.000000   0.000000   0.000000   0.000000   0.000000   0.000000
    15  C    0.000000   0.000000   0.000000   0.000000   0.000000   0.000000
    16  H    0.000000   0.000000   0.000000   0.000000   0.000000   0.000000
    17  H    0.000000   0.000000   0.000000   0.000000   0.000000   0.000000
    18  H    0.000000   0.000000   0.000000   0.000000   0.000000   0.000000
    19  C    0.000000   0.000000   0.000000   0.000000   0.000000   0.000000
    20  C    0.000000   0.000000   0.000000   0.000000   0.000000   0.000000
    21  H    0.000000   0.000000   0.000000   0.000000   0.000000   0.000000
    22  H    0.000000   0.000000   0.000000   0.000000   0.000000   0.000000
    23  H    0.000000   0.000000   0.000000   0.000000   0.000000   0.000000
    24  C    0.000000   0.000000   0.000000   0.000000   0.000000   0.000000
    25  H    0.000000   0.000000   0.000000   0.000000   0.000000   0.000000
    26  C    0.000000   0.000000   0.000000   0.000000   0.000000   0.000000
    27  H    0.000000   0.000000   0.000000   0.000000   0.000000   0.000000
    28  H    0.000000   0.000000   0.000000   0.000000   0.000000   0.000000
               7          8          9         10         11         12
     1  C    0.000000   0.000000   0.000000   0.000000   0.000000   0.000000
     2  H    0.000000   0.000000   0.000000   0.000000   0.000000   0.000000
     3  H    0.000000   0.000000   0.000000   0.000000   0.000000   0.000000
     4  C    0.000000   0.000000   0.000000   0.000000   0.000000   0.000000
     5  C    0.000000   0.000000   0.000000   0.000000   0.000000   0.000000
     6  H    0.000000   0.000000   0.000000   0.000000   0.000000   0.000000
     7  H    0.955210   0.000000   0.000000   0.000000   0.000000   0.000000
     8  H    0.000000   0.955257   0.000000   0.000000   0.000000   0.000000
     9  C    0.000000   0.000000   4.149878   0.000000   0.000000   0.000000
    10  H    0.000000   0.000000   0.000000   0.901635   0.000000   0.000000
    11  C    0.000000   0.000000   0.000000   0.000000   4.079962   0.000000
    12  H    0.000000   0.000000   0.000000   0.000000   0.000000   0.956902
    13  H    0.000000   0.000000   0.000000   0.000000   0.000000   0.000000
    14  H    0.000000   0.000000   0.000000   0.000000   0.000000   0.000000
    15  C    0.000000   0.000000   0.000000   0.000000   0.000000   0.000000
    16  H    0.000000   0.000000   0.000000   0.000000   0.000000   0.000000
    17  H    0.000000   0.000000   0.000000   0.000000   0.000000   0.000000
    18  H    0.000000   0.000000   0.000000   0.000000   0.000000   0.000000
    19  C    0.000000   0.000000   0.000000   0.000000   0.000000   0.000000
    20  C    0.000000   0.000000   0.000000   0.000000   0.000000   0.000000
    21  H    0.000000   0.000000   0.000000   0.000000   0.000000   0.000000
    22  H    0.000000   0.000000   0.000000   0.000000   0.000000   0.000000
    23  H    0.000000   0.000000   0.000000   0.000000   0.000000   0.000000
    24  C    0.000000   0.000000   0.000000   0.000000   0.000000   0.000000
    25  H    0.000000   0.000000   0.000000   0.000000   0.000000   0.000000
    26  C    0.000000   0.000000   0.000000   0.000000   0.000000   0.000000
    27  H    0.000000   0.000000   0.000000   0.000000   0.000000   0.000000
    28  H    0.000000   0.000000   0.000000   0.000000   0.000000   0.000000
              13         14         15         16         17         18
     1  C    0.000000   0.000000   0.000000   0.000000   0.000000   0.000000
     2  H    0.000000   0.000000   0.000000   0.000000   0.000000   0.000000
     3  H    0.000000   0.000000   0.000000   0.000000   0.000000   0.000000
     4  C    0.000000   0.000000   0.000000   0.000000   0.000000   0.000000
     5  C    0.000000   0.000000   0.000000   0.000000   0.000000   0.000000
     6  H    0.000000   0.000000   0.000000   0.000000   0.000000   0.000000
     7  H    0.000000   0.000000   0.000000   0.000000   0.000000   0.000000
     8  H    0.000000   0.000000   0.000000   0.000000   0.000000   0.000000
     9  C    0.000000   0.000000   0.000000   0.000000   0.000000   0.000000
    10  H    0.000000   0.000000   0.000000   0.000000   0.000000   0.000000
    11  C    0.000000   0.000000   0.000000   0.000000   0.000000   0.000000
    12  H    0.000000   0.000000   0.000000   0.000000   0.000000   0.000000
    13  H    0.951266   0.000000   0.000000   0.000000   0.000000   0.000000
    14  H    0.000000   0.953904   0.000000   0.000000   0.000000   0.000000
    15  C    0.000000   0.000000   4.076260   0.000000   0.000000   0.000000
    16  H    0.000000   0.000000   0.000000   0.953704   0.000000   0.000000
    17  H    0.000000   0.000000   0.000000   0.000000   0.954588   0.000000
    18  H    0.000000   0.000000   0.000000   0.000000   0.000000   0.950106
    19  C    0.000000   0.000000   0.000000   0.000000   0.000000   0.000000
    20  C    0.000000   0.000000   0.000000   0.000000   0.000000   0.000000
    21  H    0.000000   0.000000   0.000000   0.000000   0.000000   0.000000
    22  H    0.000000   0.000000   0.000000   0.000000   0.000000   0.000000
    23  H    0.000000   0.000000   0.000000   0.000000   0.000000   0.000000
    24  C    0.000000   0.000000   0.000000   0.000000   0.000000   0.000000
    25  H    0.000000   0.000000   0.000000   0.000000   0.000000   0.000000
    26  C    0.000000   0.000000   0.000000   0.000000   0.000000   0.000000
    27  H    0.000000   0.000000   0.000000   0.000000   0.000000   0.000000
    28  H    0.000000   0.000000   0.000000   0.000000   0.000000   0.000000
              19         20         21         22         23         24
     1  C    0.000000   0.000000   0.000000   0.000000   0.000000   0.000000
     2  H    0.000000   0.000000   0.000000   0.000000   0.000000   0.000000
     3  H    0.000000   0.000000   0.000000   0.000000   0.000000   0.000000
     4  C    0.000000   0.000000   0.000000   0.000000   0.000000   0.000000
     5  C    0.000000   0.000000   0.000000   0.000000   0.000000   0.000000
     6  H    0.000000   0.000000   0.000000   0.000000   0.000000   0.000000
     7  H    0.000000   0.000000   0.000000   0.000000   0.000000   0.000000
     8  H    0.000000   0.000000   0.000000   0.000000   0.000000   0.000000
     9  C    0.000000   0.000000   0.000000   0.000000   0.000000   0.000000
    10  H    0.000000   0.000000   0.000000   0.000000   0.000000   0.000000
    11  C    0.000000   0.000000   0.000000   0.000000   0.000000   0.000000
    12  H    0.000000   0.000000   0.000000   0.000000   0.000000   0.000000
    13  H    0.000000   0.000000   0.000000   0.000000   0.000000   0.000000
    14  H    0.000000   0.000000   0.000000   0.000000   0.000000   0.000000
    15  C    0.000000   0.000000   0.000000   0.000000   0.000000   0.000000
    16  H    0.000000   0.000000   0.000000   0.000000   0.000000   0.000000
    17  H    0.000000   0.000000   0.000000   0.000000   0.000000   0.000000
    18  H    0.000000   0.000000   0.000000   0.000000   0.000000   0.000000
    19  C    4.122813   0.000000   0.000000   0.000000   0.000000   0.000000
    20  C    0.000000   4.068741   0.000000   0.000000   0.000000   0.000000
    21  H    0.000000   0.000000   0.958458   0.000000   0.000000   0.000000
    22  H    0.000000   0.000000   0.000000   0.955981   0.000000   0.000000
    23  H    0.000000   0.000000   0.000000   0.000000   0.956400   0.000000
    24  C    0.000000   0.000000   0.000000   0.000000   0.000000   4.156923
    25  H    0.000000   0.000000   0.000000   0.000000   0.000000   0.000000
    26  C    0.000000   0.000000   0.000000   0.000000   0.000000   0.000000
    27  H    0.000000   0.000000   0.000000   0.000000   0.000000   0.000000
    28  H    0.000000   0.000000   0.000000   0.000000   0.000000   0.000000
              25         26         27         28
     1  C    0.000000   0.000000   0.000000   0.000000
     2  H    0.000000   0.000000   0.000000   0.000000
     3  H    0.000000   0.000000   0.000000   0.000000
     4  C    0.000000   0.000000   0.000000   0.000000
     5  C    0.000000   0.000000   0.000000   0.000000
     6  H    0.000000   0.000000   0.000000   0.000000
     7  H    0.000000   0.000000   0.000000   0.000000
     8  H    0.000000   0.000000   0.000000   0.000000
     9  C    0.000000   0.000000   0.000000   0.000000
    10  H    0.000000   0.000000   0.000000   0.000000
    11  C    0.000000   0.000000   0.000000   0.000000
    12  H    0.000000   0.000000   0.000000   0.000000
    13  H    0.000000   0.000000   0.000000   0.000000
    14  H    0.000000   0.000000   0.000000   0.000000
    15  C    0.000000   0.000000   0.000000   0.000000
    16  H    0.000000   0.000000   0.000000   0.000000
    17  H    0.000000   0.000000   0.000000   0.000000
    18  H    0.000000   0.000000   0.000000   0.000000
    19  C    0.000000   0.000000   0.000000   0.000000
    20  C    0.000000   0.000000   0.000000   0.000000
    21  H    0.000000   0.000000   0.000000   0.000000
    22  H    0.000000   0.000000   0.000000   0.000000
    23  H    0.000000   0.000000   0.000000   0.000000
    24  C    0.000000   0.000000   0.000000   0.000000
    25  H    0.899110   0.000000   0.000000   0.000000
    26  C    0.000000   4.067321   0.000000   0.000000
    27  H    0.000000   0.000000   0.941032   0.000000
    28  H    0.000000   0.000000   0.000000   0.936815
 Mulliken charges:
               1
     1  C   -0.060603
     2  H    0.057814
     3  H    0.060293
     4  C   -0.128355
     5  C   -0.068100
     6  H    0.041218
     7  H    0.044790
     8  H    0.044743
     9  C   -0.149878
    10  H    0.098365
    11  C   -0.079962
    12  H    0.043098
    13  H    0.048734
    14  H    0.046096
    15  C   -0.076260
    16  H    0.046296
    17  H    0.045412
    18  H    0.049894
    19  C   -0.122813
    20  C   -0.068741
    21  H    0.041542
    22  H    0.044019
    23  H    0.043600
    24  C   -0.156923
    25  H    0.100890
    26  C   -0.067321
    27  H    0.058968
    28  H    0.063185
 Sum of Mulliken charges =   0.00000
 Mulliken charges with hydrogens summed into heavy atoms:
               1
     1  C    0.057503
     4  C   -0.128355
     5  C    0.062651
     9  C   -0.051513
    11  C    0.057966
    15  C    0.065342
    19  C   -0.122813
    20  C    0.060419
    24  C   -0.056033
    26  C    0.054833
 Charge=              0.0000 electrons
 Dipole moment (field-independent basis, Debye):
    X=             -0.2593    Y=              0.1189    Z=             -0.0537  Tot=              0.2903
 N-N= 3.060044600616D+02 E-N=-4.941699252170D+02  KE=-7.910679657908D+01
 Leave Link  601 at Tue Sep  6 13:42:14 2022, MaxMem=   131072000 cpu:               0.0 elap:               0.0
 (Enter /opt/g16/l9999.exe)
 1\1\GINC-TOTEM2\FOpt\RPM3\ZDO\C10H18\JRAMOS\06-Sep-2022\0\\#p opt pm3\
 \Conformer number 004. Energy MM = 23.287 kcal/mol\\0,1\C,0.9416602354
 ,0.4316498763,0.5715798969\H,0.6802152438,1.2731783356,1.2425773538\H,
 1.1307208475,-0.4438568054,1.2343286897\C,2.1846823171,0.7640659294,-0
 .1905751451\C,2.2701239062,2.149313627,-0.7260317318\H,3.181288683,2.3
 203095966,-1.3145023247\H,2.2625595594,2.8805232349,0.0940471932\H,1.4
 105997132,2.3715515835,-1.3743149262\C,3.1811203976,-0.112710393,-0.37
 68468215\H,4.072543946,0.1855326221,-0.9437422663\C,3.1845511281,-1.49
 92118616,0.1373182537\H,4.131763193,-1.725875831,0.6434650686\H,2.3675
 000043,-1.6781905366,0.8564439598\H,3.066582684,-2.2155325525,-0.68664
 63191\C,-2.9271448785,1.3285335913,-0.8822801727\H,-3.5781219507,0.912
 9121849,-1.6629802375\H,-3.4326904195,2.2062448467,-0.4583856909\H,-2.
 0004495258,1.6759308098,-1.3681240352\C,-2.6569648613,0.3134086014,0.1
 687915274\C,-3.8406167348,-0.09706073,0.9717135595\H,-3.6004007338,-0.
 8636406726,1.7202592834\H,-4.2647244344,0.7650821848,1.5044547987\H,-4
 .6270716683,-0.503415533,0.321232914\C,-1.4474256641,-0.2151067129,0.3
 980288453\H,-1.3174468318,-0.9599676196,1.1945648812\C,-0.219069914,0.
 1248248521,-0.3670168464\H,0.0377072501,-0.7300244953,-1.0245130307\H,
 -0.4038914915,0.986131867,-1.049246677\\Version=ES64L-G16RevA.03\State
 =1-A\HF=-0.0281201\RMSD=4.392e-09\RMSF=2.092e-06\Dipole=-0.1025848,0.0
 388419,-0.0317677\PG=C01 [X(C10H18)]\\@


 GETTING A SIMPLE ANSWER FROM A PROFESSOR IS LIKE
 GETTING A THIMBLE OF WATER FROM A FIRE HYDRANT.
     -- PROF. LEN SHAPIRO, NDSU
 Job cpu time:       0 days  0 hours  0 minutes  7.5 seconds.
 Elapsed time:       0 days  0 hours  0 minutes  6.2 seconds.
 File lengths (MBytes):  RWF=      6 Int=      0 D2E=      0 Chk=      2 Scr=      1
 Normal termination of Gaussian 16 at Tue Sep  6 13:42:14 2022.
