 Entering Gaussian System, Link 0=/opt/g16/g16
 Input=03-IsoP_008_gaussian.com
 Output=03-IsoP_008_gaussian.log
 Initial command:
 /opt/g16/l1.exe "/tmp/Gau-154243.inp" -scrdir="/tmp/"
 Entering Link 1 = /opt/g16/l1.exe PID=    154245.
  
 Copyright (c) 1988,1990,1992,1993,1995,1998,2003,2009,2016,
            Gaussian, Inc.  All Rights Reserved.
  
 This is part of the Gaussian(R) 16 program.  It is based on
 the Gaussian(R) 09 system (copyright 2009, Gaussian, Inc.),
 the Gaussian(R) 03 system (copyright 2003, Gaussian, Inc.),
 the Gaussian(R) 98 system (copyright 1998, Gaussian, Inc.),
 the Gaussian(R) 94 system (copyright 1995, Gaussian, Inc.),
 the Gaussian 92(TM) system (copyright 1992, Gaussian, Inc.),
 the Gaussian 90(TM) system (copyright 1990, Gaussian, Inc.),
 the Gaussian 88(TM) system (copyright 1988, Gaussian, Inc.),
 the Gaussian 86(TM) system (copyright 1986, Carnegie Mellon
 University), and the Gaussian 82(TM) system (copyright 1983,
 Carnegie Mellon University). Gaussian is a federally registered
 trademark of Gaussian, Inc.
  
 This software contains proprietary and confidential information,
 including trade secrets, belonging to Gaussian, Inc.
  
 This software is provided under written license and may be
 used, copied, transmitted, or stored only in accord with that
 written license.
  
 The following legend is applicable only to US Government
 contracts under FAR:
  
                    RESTRICTED RIGHTS LEGEND
  
 Use, reproduction and disclosure by the US Government is
 subject to restrictions as set forth in subparagraphs (a)
 and (c) of the Commercial Computer Software - Restricted
 Rights clause in FAR 52.227-19.
  
 Gaussian, Inc.
 340 Quinnipiac St., Bldg. 40, Wallingford CT 06492
  
  
 ---------------------------------------------------------------
 Warning -- This program may not be used in any manner that
 competes with the business of Gaussian, Inc. or will provide
 assistance to any competitor of Gaussian, Inc.  The licensee
 of this program is prohibited from giving any competitor of
 Gaussian, Inc. access to this program.  By using this program,
 the user acknowledges that Gaussian, Inc. is engaged in the
 business of creating and licensing software in the field of
 computational chemistry and represents and warrants to the
 licensee that it is not a competitor of Gaussian, Inc. and that
 it will not use this program in any manner prohibited above.
 ---------------------------------------------------------------
  

 Cite this work as:
 Gaussian 16, Revision A.03,
 M. J. Frisch, G. W. Trucks, H. B. Schlegel, G. E. Scuseria, 
 M. A. Robb, J. R. Cheeseman, G. Scalmani, V. Barone, 
 G. A. Petersson, H. Nakatsuji, X. Li, M. Caricato, A. V. Marenich, 
 J. Bloino, B. G. Janesko, R. Gomperts, B. Mennucci, H. P. Hratchian, 
 J. V. Ortiz, A. F. Izmaylov, J. L. Sonnenberg, D. Williams-Young, 
 F. Ding, F. Lipparini, F. Egidi, J. Goings, B. Peng, A. Petrone, 
 T. Henderson, D. Ranasinghe, V. G. Zakrzewski, J. Gao, N. Rega, 
 G. Zheng, W. Liang, M. Hada, M. Ehara, K. Toyota, R. Fukuda, 
 J. Hasegawa, M. Ishida, T. Nakajima, Y. Honda, O. Kitao, H. Nakai, 
 T. Vreven, K. Throssell, J. A. Montgomery, Jr., J. E. Peralta, 
 F. Ogliaro, M. J. Bearpark, J. J. Heyd, E. N. Brothers, K. N. Kudin, 
 V. N. Staroverov, T. A. Keith, R. Kobayashi, J. Normand, 
 K. Raghavachari, A. P. Rendell, J. C. Burant, S. S. Iyengar, 
 J. Tomasi, M. Cossi, J. M. Millam, M. Klene, C. Adamo, R. Cammi, 
 J. W. Ochterski, R. L. Martin, K. Morokuma, O. Farkas, 
 J. B. Foresman, and D. J. Fox, Gaussian, Inc., Wallingford CT, 2016.
 
 ******************************************
 Gaussian 16:  ES64L-G16RevA.03 25-Dec-2016
                 6-Sep-2022 
 ******************************************
 %chk=03-IsoP_008_gaussian.chk
 %nproc=1
 Will use up to    1 processors via shared memory.
 %mem=1000Mb
 ----------
 #p opt pm3
 ----------
 1/18=20,19=15,26=1,38=1/1,3;
 2/9=110,12=2,17=6,18=5,40=1/2;
 3/5=2,25=1,41=800000,71=1/1,2,3;
 4/35=1/1;
 5/5=2,35=1,38=5/2;
 6/7=2,8=2,9=2,10=2,28=1/1;
 7//1,2,3,16;
 1/18=20,19=15,26=1/3(2);
 2/9=110/2;
 99//99;
 2/9=110/2;
 3/5=2,25=1,41=800000,71=1,135=20/1,2,3;
 4/5=5,16=3,35=1/1;
 5/5=2,35=1,38=5/2;
 7//1,2,3,16;
 1/18=20,19=15,26=1/3(-5);
 2/9=110/2;
 6/7=2,8=2,9=2,10=2,19=2,28=1/1;
 99/9=1/99;
 Leave Link    1 at Tue Sep  6 13:42:21 2022, MaxMem=   131072000 cpu:               0.0 elap:               0.0
 (Enter /opt/g16/l101.exe)
 -------------------------------------------------
 Conformer number 008. Energy MM = 23.486 kcal/mol
 -------------------------------------------------
 Symbolic Z-matrix:
 Charge =  0 Multiplicity = 1
 C                     0.8202   -0.197    -1.3304 
 H                     0.591    -1.1634   -0.8682 
 H                     1.1233   -0.4453   -2.3564 
 C                     1.9936    0.479    -0.6455 
 C                     2.7034    1.5199   -1.4745 
 H                     3.0608    1.0804   -2.4115 
 H                     2.029     2.3482   -1.7123 
 H                     3.5718    1.9412   -0.9568 
 C                     2.4315    0.1865    0.5956 
 H                     3.2998    0.7215    0.9794 
 C                     1.8552   -0.7954    1.5664 
 H                     2.5788   -1.5935    1.7582 
 H                     0.9233   -1.2532    1.2296 
 H                     1.647    -0.2901    2.5151 
 C                    -2.6236    0.7392    1.8766 
 H                    -3.658     1.0939    1.8213 
 H                    -2.5826   -0.1104    2.5661 
 H                    -2.0188    1.5449    2.3061 
 C                    -2.141     0.3266    0.5105 
 C                    -2.9455   -0.7738   -0.1235 
 H                    -2.5084   -1.1527   -1.0501 
 H                    -3.0225   -1.6253    0.5614 
 H                    -3.9569   -0.4195   -0.3474 
 C                    -1.0636    0.9175   -0.0422 
 H                    -0.5479    1.6914    0.5271 
 C                    -0.4564    0.6543   -1.395 
 H                    -0.2459    1.6205   -1.8696 
 H                    -1.1743    0.1611   -2.0583 
 
 ITRead=  0  0  0  0  0  0  0  0  0  0  0  0  0  0  0  0  0  0  0  0
 ITRead=  0  0  0  0  0  0  0  0
 MicOpt= -1 -1 -1 -1 -1 -1 -1 -1 -1 -1 -1 -1 -1 -1 -1 -1 -1 -1 -1 -1
 MicOpt= -1 -1 -1 -1 -1 -1 -1 -1
 NAtoms=     28 NQM=       28 NQMF=       0 NMMI=      0 NMMIF=      0
                NMic=       0 NMicF=      0.
                    Isotopes and Nuclear Properties:
 (Nuclear quadrupole moments (NQMom) in fm**2, nuclear magnetic moments (NMagM)
  in nuclear magnetons)

  Atom         1           2           3           4           5           6           7           8           9          10
 IAtWgt=          12           1           1          12          12           1           1           1          12           1
 AtmWgt=  12.0000000   1.0078250   1.0078250  12.0000000  12.0000000   1.0078250   1.0078250   1.0078250  12.0000000   1.0078250
 NucSpn=           0           1           1           0           0           1           1           1           0           1
 AtZEff=  -0.0000000  -0.0000000  -0.0000000  -0.0000000  -0.0000000  -0.0000000  -0.0000000  -0.0000000  -0.0000000  -0.0000000
 NQMom=    0.0000000   0.0000000   0.0000000   0.0000000   0.0000000   0.0000000   0.0000000   0.0000000   0.0000000   0.0000000
 NMagM=    0.0000000   2.7928460   2.7928460   0.0000000   0.0000000   2.7928460   2.7928460   2.7928460   0.0000000   2.7928460
 AtZNuc=   6.0000000   1.0000000   1.0000000   6.0000000   6.0000000   1.0000000   1.0000000   1.0000000   6.0000000   1.0000000

  Atom        11          12          13          14          15          16          17          18          19          20
 IAtWgt=          12           1           1           1          12           1           1           1          12          12
 AtmWgt=  12.0000000   1.0078250   1.0078250   1.0078250  12.0000000   1.0078250   1.0078250   1.0078250  12.0000000  12.0000000
 NucSpn=           0           1           1           1           0           1           1           1           0           0
 AtZEff=  -0.0000000  -0.0000000  -0.0000000  -0.0000000  -0.0000000  -0.0000000  -0.0000000  -0.0000000  -0.0000000  -0.0000000
 NQMom=    0.0000000   0.0000000   0.0000000   0.0000000   0.0000000   0.0000000   0.0000000   0.0000000   0.0000000   0.0000000
 NMagM=    0.0000000   2.7928460   2.7928460   2.7928460   0.0000000   2.7928460   2.7928460   2.7928460   0.0000000   0.0000000
 AtZNuc=   6.0000000   1.0000000   1.0000000   1.0000000   6.0000000   1.0000000   1.0000000   1.0000000   6.0000000   6.0000000

  Atom        21          22          23          24          25          26          27          28
 IAtWgt=           1           1           1          12           1          12           1           1
 AtmWgt=   1.0078250   1.0078250   1.0078250  12.0000000   1.0078250  12.0000000   1.0078250   1.0078250
 NucSpn=           1           1           1           0           1           0           1           1
 AtZEff=  -0.0000000  -0.0000000  -0.0000000  -0.0000000  -0.0000000  -0.0000000  -0.0000000  -0.0000000
 NQMom=    0.0000000   0.0000000   0.0000000   0.0000000   0.0000000   0.0000000   0.0000000   0.0000000
 NMagM=    2.7928460   2.7928460   2.7928460   0.0000000   2.7928460   0.0000000   2.7928460   2.7928460
 AtZNuc=   1.0000000   1.0000000   1.0000000   6.0000000   1.0000000   6.0000000   1.0000000   1.0000000
 Leave Link  101 at Tue Sep  6 13:42:21 2022, MaxMem=   131072000 cpu:               0.1 elap:               0.1
 (Enter /opt/g16/l103.exe)

 GradGradGradGradGradGradGradGradGradGradGradGradGradGradGradGradGradGrad
 Berny optimization.
 Initialization pass.
                           ----------------------------
                           !    Initial Parameters    !
                           ! (Angstroms and Degrees)  !
 --------------------------                            --------------------------
 ! Name  Definition              Value          Derivative Info.                !
 --------------------------------------------------------------------------------
 ! R1    R(1,2)                  1.0955         estimate D2E/DX2                !
 ! R2    R(1,3)                  1.0983         estimate D2E/DX2                !
 ! R3    R(1,4)                  1.5175         estimate D2E/DX2                !
 ! R4    R(1,26)                 1.5358         estimate D2E/DX2                !
 ! R5    R(4,5)                  1.5082         estimate D2E/DX2                !
 ! R6    R(4,9)                  1.3482         estimate D2E/DX2                !
 ! R7    R(5,6)                  1.0949         estimate D2E/DX2                !
 ! R8    R(5,7)                  1.0943         estimate D2E/DX2                !
 ! R9    R(5,8)                  1.0953         estimate D2E/DX2                !
 ! R10   R(9,10)                 1.0897         estimate D2E/DX2                !
 ! R11   R(9,11)                 1.4962         estimate D2E/DX2                !
 ! R12   R(11,12)                1.0942         estimate D2E/DX2                !
 ! R13   R(11,13)                1.0915         estimate D2E/DX2                !
 ! R14   R(11,14)                1.0949         estimate D2E/DX2                !
 ! R15   R(15,16)                1.0949         estimate D2E/DX2                !
 ! R16   R(15,17)                1.0949         estimate D2E/DX2                !
 ! R17   R(15,18)                1.0952         estimate D2E/DX2                !
 ! R18   R(15,19)                1.5064         estimate D2E/DX2                !
 ! R19   R(19,20)                1.5033         estimate D2E/DX2                !
 ! R20   R(19,24)                1.3474         estimate D2E/DX2                !
 ! R21   R(20,21)                1.0923         estimate D2E/DX2                !
 ! R22   R(20,22)                1.0955         estimate D2E/DX2                !
 ! R23   R(20,23)                1.0948         estimate D2E/DX2                !
 ! R24   R(24,25)                1.0904         estimate D2E/DX2                !
 ! R25   R(24,26)                1.506          estimate D2E/DX2                !
 ! R26   R(26,27)                1.0969         estimate D2E/DX2                !
 ! R27   R(26,28)                1.0948         estimate D2E/DX2                !
 ! A1    A(2,1,3)              104.6224         estimate D2E/DX2                !
 ! A2    A(2,1,4)              111.366          estimate D2E/DX2                !
 ! A3    A(2,1,26)             109.4406         estimate D2E/DX2                !
 ! A4    A(3,1,4)              107.9953         estimate D2E/DX2                !
 ! A5    A(3,1,26)             108.3869         estimate D2E/DX2                !
 ! A6    A(4,1,26)             114.5066         estimate D2E/DX2                !
 ! A7    A(1,4,5)              115.0416         estimate D2E/DX2                !
 ! A8    A(1,4,9)              124.7482         estimate D2E/DX2                !
 ! A9    A(5,4,9)              120.1911         estimate D2E/DX2                !
 ! A10   A(4,5,6)              110.3029         estimate D2E/DX2                !
 ! A11   A(4,5,7)              110.5987         estimate D2E/DX2                !
 ! A12   A(4,5,8)              112.2605         estimate D2E/DX2                !
 ! A13   A(6,5,7)              108.6044         estimate D2E/DX2                !
 ! A14   A(6,5,8)              107.4629         estimate D2E/DX2                !
 ! A15   A(7,5,8)              107.4694         estimate D2E/DX2                !
 ! A16   A(4,9,10)             118.4582         estimate D2E/DX2                !
 ! A17   A(4,9,11)             127.9201         estimate D2E/DX2                !
 ! A18   A(10,9,11)            113.6143         estimate D2E/DX2                !
 ! A19   A(9,11,12)            109.735          estimate D2E/DX2                !
 ! A20   A(9,11,13)            113.8206         estimate D2E/DX2                !
 ! A21   A(9,11,14)            109.4259         estimate D2E/DX2                !
 ! A22   A(12,11,13)           108.2252         estimate D2E/DX2                !
 ! A23   A(12,11,14)           108.0886         estimate D2E/DX2                !
 ! A24   A(13,11,14)           107.3724         estimate D2E/DX2                !
 ! A25   A(16,15,17)           108.5747         estimate D2E/DX2                !
 ! A26   A(16,15,18)           107.6498         estimate D2E/DX2                !
 ! A27   A(16,15,19)           110.2169         estimate D2E/DX2                !
 ! A28   A(17,15,18)           107.6499         estimate D2E/DX2                !
 ! A29   A(17,15,19)           110.2753         estimate D2E/DX2                !
 ! A30   A(18,15,19)           112.3474         estimate D2E/DX2                !
 ! A31   A(15,19,20)           114.2978         estimate D2E/DX2                !
 ! A32   A(15,19,24)           120.5333         estimate D2E/DX2                !
 ! A33   A(20,19,24)           125.1645         estimate D2E/DX2                !
 ! A34   A(19,20,21)           113.4219         estimate D2E/DX2                !
 ! A35   A(19,20,22)           110.0534         estimate D2E/DX2                !
 ! A36   A(19,20,23)           110.105          estimate D2E/DX2                !
 ! A37   A(21,20,22)           106.7893         estimate D2E/DX2                !
 ! A38   A(21,20,23)           107.9652         estimate D2E/DX2                !
 ! A39   A(22,20,23)           108.3291         estimate D2E/DX2                !
 ! A40   A(19,24,25)           118.3771         estimate D2E/DX2                !
 ! A41   A(19,24,26)           127.8959         estimate D2E/DX2                !
 ! A42   A(25,24,26)           113.7248         estimate D2E/DX2                !
 ! A43   A(1,26,24)            113.2185         estimate D2E/DX2                !
 ! A44   A(1,26,27)            110.3014         estimate D2E/DX2                !
 ! A45   A(1,26,28)            108.7141         estimate D2E/DX2                !
 ! A46   A(24,26,27)           108.1859         estimate D2E/DX2                !
 ! A47   A(24,26,28)           111.0129         estimate D2E/DX2                !
 ! A48   A(27,26,28)           105.101          estimate D2E/DX2                !
 ! D1    D(2,1,4,5)            158.5009         estimate D2E/DX2                !
 ! D2    D(2,1,4,9)            -19.9037         estimate D2E/DX2                !
 ! D3    D(3,1,4,5)             44.1642         estimate D2E/DX2                !
 ! D4    D(3,1,4,9)           -134.2404         estimate D2E/DX2                !
 ! D5    D(26,1,4,5)           -76.671          estimate D2E/DX2                !
 ! D6    D(26,1,4,9)           104.9244         estimate D2E/DX2                !
 ! D7    D(2,1,26,24)           59.4578         estimate D2E/DX2                !
 ! D8    D(2,1,26,27)         -179.1564         estimate D2E/DX2                !
 ! D9    D(2,1,26,28)          -64.4101         estimate D2E/DX2                !
 ! D10   D(3,1,26,24)          173.0006         estimate D2E/DX2                !
 ! D11   D(3,1,26,27)          -65.6135         estimate D2E/DX2                !
 ! D12   D(3,1,26,28)           49.1328         estimate D2E/DX2                !
 ! D13   D(4,1,26,24)          -66.3806         estimate D2E/DX2                !
 ! D14   D(4,1,26,27)           55.0052         estimate D2E/DX2                !
 ! D15   D(4,1,26,28)          169.7515         estimate D2E/DX2                !
 ! D16   D(1,4,5,6)            -57.2631         estimate D2E/DX2                !
 ! D17   D(1,4,5,7)             62.8993         estimate D2E/DX2                !
 ! D18   D(1,4,5,8)           -177.0763         estimate D2E/DX2                !
 ! D19   D(9,4,5,6)            121.2203         estimate D2E/DX2                !
 ! D20   D(9,4,5,7)           -118.6173         estimate D2E/DX2                !
 ! D21   D(9,4,5,8)              1.4072         estimate D2E/DX2                !
 ! D22   D(1,4,9,10)           178.6327         estimate D2E/DX2                !
 ! D23   D(1,4,9,11)            -2.4284         estimate D2E/DX2                !
 ! D24   D(5,4,9,10)             0.305          estimate D2E/DX2                !
 ! D25   D(5,4,9,11)           179.2439         estimate D2E/DX2                !
 ! D26   D(4,9,11,12)          116.117          estimate D2E/DX2                !
 ! D27   D(4,9,11,13)           -5.3218         estimate D2E/DX2                !
 ! D28   D(4,9,11,14)         -125.4397         estimate D2E/DX2                !
 ! D29   D(10,9,11,12)         -64.9012         estimate D2E/DX2                !
 ! D30   D(10,9,11,13)         173.6601         estimate D2E/DX2                !
 ! D31   D(10,9,11,14)          53.5422         estimate D2E/DX2                !
 ! D32   D(16,15,19,20)        -59.6667         estimate D2E/DX2                !
 ! D33   D(16,15,19,24)        121.0649         estimate D2E/DX2                !
 ! D34   D(17,15,19,20)         60.1959         estimate D2E/DX2                !
 ! D35   D(17,15,19,24)       -119.0725         estimate D2E/DX2                !
 ! D36   D(18,15,19,20)       -179.7153         estimate D2E/DX2                !
 ! D37   D(18,15,19,24)          1.0163         estimate D2E/DX2                !
 ! D38   D(15,19,20,21)       -172.3494         estimate D2E/DX2                !
 ! D39   D(15,19,20,22)        -52.796          estimate D2E/DX2                !
 ! D40   D(15,19,20,23)         66.5518         estimate D2E/DX2                !
 ! D41   D(24,19,20,21)          6.8798         estimate D2E/DX2                !
 ! D42   D(24,19,20,22)        126.4332         estimate D2E/DX2                !
 ! D43   D(24,19,20,23)       -114.219          estimate D2E/DX2                !
 ! D44   D(15,19,24,25)          0.5698         estimate D2E/DX2                !
 ! D45   D(15,19,24,26)       -178.8599         estimate D2E/DX2                !
 ! D46   D(20,19,24,25)       -178.6145         estimate D2E/DX2                !
 ! D47   D(20,19,24,26)          1.9558         estimate D2E/DX2                !
 ! D48   D(19,24,26,1)        -102.9223         estimate D2E/DX2                !
 ! D49   D(19,24,26,27)        134.5089         estimate D2E/DX2                !
 ! D50   D(19,24,26,28)         19.6779         estimate D2E/DX2                !
 ! D51   D(25,24,26,1)          77.6258         estimate D2E/DX2                !
 ! D52   D(25,24,26,27)        -44.943          estimate D2E/DX2                !
 ! D53   D(25,24,26,28)       -159.774          estimate D2E/DX2                !
 --------------------------------------------------------------------------------
 Trust Radius=3.00D-01 FncErr=1.00D-07 GrdErr=1.00D-07 EigMax=2.50D+02 EigMin=1.00D-04
 Number of steps in this run=    138 maximum allowed number of steps=    168.
 GradGradGradGradGradGradGradGradGradGradGradGradGradGradGradGradGradGrad

 Leave Link  103 at Tue Sep  6 13:42:21 2022, MaxMem=   131072000 cpu:               0.0 elap:               0.0
 (Enter /opt/g16/l202.exe)
                          Input orientation:                          
 ---------------------------------------------------------------------
 Center     Atomic      Atomic             Coordinates (Angstroms)
 Number     Number       Type             X           Y           Z
 ---------------------------------------------------------------------
      1          6           0        0.820200   -0.197000   -1.330400
      2          1           0        0.591000   -1.163400   -0.868200
      3          1           0        1.123300   -0.445300   -2.356400
      4          6           0        1.993600    0.479000   -0.645500
      5          6           0        2.703400    1.519900   -1.474500
      6          1           0        3.060800    1.080400   -2.411500
      7          1           0        2.029000    2.348200   -1.712300
      8          1           0        3.571800    1.941200   -0.956800
      9          6           0        2.431500    0.186500    0.595600
     10          1           0        3.299800    0.721500    0.979400
     11          6           0        1.855200   -0.795400    1.566400
     12          1           0        2.578800   -1.593500    1.758200
     13          1           0        0.923300   -1.253200    1.229600
     14          1           0        1.647000   -0.290100    2.515100
     15          6           0       -2.623600    0.739200    1.876600
     16          1           0       -3.658000    1.093900    1.821300
     17          1           0       -2.582600   -0.110400    2.566100
     18          1           0       -2.018800    1.544900    2.306100
     19          6           0       -2.141000    0.326600    0.510500
     20          6           0       -2.945500   -0.773800   -0.123500
     21          1           0       -2.508400   -1.152700   -1.050100
     22          1           0       -3.022500   -1.625300    0.561400
     23          1           0       -3.956900   -0.419500   -0.347400
     24          6           0       -1.063600    0.917500   -0.042200
     25          1           0       -0.547900    1.691400    0.527100
     26          6           0       -0.456400    0.654300   -1.395000
     27          1           0       -0.245900    1.620500   -1.869600
     28          1           0       -1.174300    0.161100   -2.058300
 ---------------------------------------------------------------------
                    Distance matrix (angstroms):
                    1          2          3          4          5
     1  C    0.000000
     2  H    1.095486   0.000000
     3  H    1.098271   1.736016   0.000000
     4  C    1.517541   2.171258   2.130477   0.000000
     5  C    2.552441   3.468419   2.671418   1.508154   0.000000
     6  H    2.796572   3.676456   2.466719   2.149268   1.094926
     7  H    2.843429   3.887375   3.006460   2.152493   1.094278
     8  H    3.504680   4.304830   3.694511   2.173856   1.095274
     9  C    2.540243   2.711527   3.290116   1.348199   2.477337
    10  H    3.511016   3.782072   4.150438   2.098872   2.648539
    11  C    3.133809   2.767834   4.005822   2.556512   3.914988
    12  H    3.818683   3.321793   4.512957   3.227304   4.489892
    13  H    2.771243   2.125853   3.681317   2.768042   4.262745
    14  H    3.934480   3.650275   4.902026   3.271244   4.506550
    15  C    4.798029   4.635458   5.775863   5.267564   6.341632
    16  H    5.626181   5.512061   6.533234   6.197079   7.177129
    17  H    5.173902   4.793220   6.170645   5.621688   6.850264
    18  H    4.931356   4.921598   5.964277   5.093863   6.049193
    19  C    3.525872   3.403636   4.412550   4.295868   5.369581
    20  C    3.996224   3.634996   4.652837   5.122177   6.244704
    21  H    3.474408   3.104752   3.923784   4.805637   5.872458
    22  H    4.515007   3.913373   5.205153   5.571889   6.842741
    23  H    4.882262   4.637673   5.463074   6.025331   7.027889
    24  C    2.539739   2.783904   3.463420   3.146860   4.074881
    25  H    2.981285   3.375476   3.958910   3.050267   3.821880
    26  C    1.535771   2.163007   2.151479   2.568069   3.277182
    27  H    2.174997   3.074622   2.525710   2.795855   2.977347
    28  H    2.153161   2.507374   2.394901   3.483196   4.150147
                    6          7          8          9         10
     6  H    0.000000
     7  H    1.777866   0.000000
     8  H    1.765857   1.765407   0.000000
     9  C    3.199645   3.187688   2.605610   0.000000
    10  H    3.418206   3.392099   2.304457   1.089712   0.000000
    11  C    4.560240   4.545580   4.099053   1.496229   2.175413
    12  H    4.976792   5.280497   4.566331   2.131135   2.546683
    13  H    4.824127   4.779899   4.690319   2.179302   3.099967
    14  H    5.305515   4.997746   4.553860   2.127691   2.472541
    15  C    7.128578   6.092271   6.917799   5.244089   5.990989
    16  H    7.940973   6.811870   7.791390   6.277557   7.018437
    17  H    7.618561   6.753982   7.382176   5.395574   6.149171
    18  H    6.947938   5.759993   6.485243   4.957442   5.543070
    19  C    6.013736   5.139709   6.115226   4.575437   5.475228
    20  C    6.689443   6.084145   7.109206   5.509211   6.515833
    21  H    6.152734   5.769125   6.822738   5.376281   6.431694
    22  H    7.291467   6.817336   7.649160   5.747165   6.756750
    23  H    7.467150   6.734546   7.913634   6.485996   7.464715
    24  C    4.759285   3.794774   4.834396   3.627241   4.485682
    25  H    4.693763   3.476595   4.385919   3.338599   3.993755
    26  C    3.685855   3.024432   4.251415   3.538544   4.444247
    27  H    3.394058   2.393629   3.938386   3.911782   4.636485
    28  H    4.348096   3.894131   5.187246   4.477234   5.436841
                   11         12         13         14         15
    11  C    0.000000
    12  H    1.094234   0.000000
    13  H    1.091537   1.770848   0.000000
    14  H    1.094855   1.772005   1.761764   0.000000
    15  C    4.744562   5.702672   4.119316   4.439050   0.000000
    16  H    5.833507   6.791449   5.181438   5.526286   1.094922
    17  H    4.600293   5.430685   3.922188   4.233723   1.094948
    18  H    4.586070   5.593539   4.200496   4.104753   1.095174
    19  C    4.282922   5.245956   3.521762   4.329860   1.506443
    20  C    5.089494   5.893267   4.126538   5.318574   2.528476
    21  H    5.100465   5.827560   4.121128   5.542750   3.486851
    22  H    5.048833   5.727818   4.019240   5.234877   2.734910
    23  H    6.130615   6.966147   5.195992   6.293993   2.840150
    24  C    3.747134   4.776363   3.205805   3.917325   2.479352
    25  H    3.610984   4.699194   3.365799   3.563155   2.652615
    26  C    4.026787   4.920134   3.525713   4.539280   3.925217
    27  H    4.696519   5.609782   4.385228   5.143837   4.523733
    28  H    4.819877   5.632944   4.148549   5.392523   4.232979
                   16         17         18         19         20
    16  H    0.000000
    17  H    1.778075   0.000000
    18  H    1.767883   1.767905   0.000000
    19  C    2.146680   2.147434   2.173331   0.000000
    20  C    2.788944   2.793876   3.483977   1.503348   0.000000
    21  H    3.822791   3.764146   4.333686   2.181464   1.092341
    22  H    3.063537   2.550932   3.755204   2.142323   1.095477
    23  H    2.661387   3.236159   3.828337   2.142464   1.094801
    24  C    3.199166   3.188600   2.611618   1.347379   2.531532
    25  H    3.421211   3.397647   2.312974   2.097838   3.499854
    26  C    4.559394   4.560242   4.114900   2.564409   3.138758
    27  H    5.053957   5.303925   4.537109   3.306124   4.008663
    28  H    4.700019   4.841704   4.655757   2.749660   2.784715
                   21         22         23         24         25
    21  H    0.000000
    22  H    1.756298   0.000000
    23  H    1.769045   1.775662   0.000000
    24  C    2.718278   3.266107   3.201859   0.000000
    25  H    3.797371   4.138275   4.103892   1.090399   0.000000
    26  C    2.755886   3.950816   3.808413   1.505999   2.185959
    27  H    3.671665   4.914721   4.500024   2.121847   2.416692
    28  H    2.126584   3.670136   3.317701   2.156167   3.068956
                   26         27         28
    26  C    0.000000
    27  H    1.096858   0.000000
    28  H    1.094803   1.739938   0.000000
 Stoichiometry    C10H18
 Framework group  C1[X(C10H18)]
 Deg. of freedom    78
 Full point group                 C1      NOp   1
 Largest Abelian subgroup         C1      NOp   1
 Largest concise Abelian subgroup C1      NOp   1
                         Standard orientation:                         
 ---------------------------------------------------------------------
 Center     Atomic      Atomic             Coordinates (Angstroms)
 Number     Number       Type             X           Y           Z
 ---------------------------------------------------------------------
      1          6           0        1.027967   -0.895899    0.833126
      2          1           0        0.608875   -0.279828    1.636188
      3          1           0        1.542994   -1.715298    1.352290
      4          6           0        2.060630   -0.128058    0.028789
      5          6           0        3.038565   -0.983632   -0.736826
      6          1           0        3.567617   -1.658160   -0.055666
      7          1           0        2.517939   -1.584540   -1.488693
      8          1           0        3.793091   -0.385451   -1.258837
      9          6           0        2.162029    1.215821   -0.007930
     10          1           0        2.958630    1.660366   -0.603984
     11          6           0        1.284749    2.222923    0.666479
     12          1           0        1.866638    2.785757    1.402666
     13          1           0        0.422432    1.786799    1.174078
     14          1           0        0.903136    2.929710   -0.077517
     15          6           0       -2.981417    0.992186   -1.005640
     16          1           0       -3.936447    0.589277   -1.358393
     17          1           0       -3.182804    1.859827   -0.368809
     18          1           0       -2.426034    1.344717   -1.881241
     19          6           0       -2.226660   -0.058226   -0.233404
     20          6           0       -2.953087   -0.578532    0.975580
     21          1           0       -2.343964   -1.238334    1.597543
     22          1           0       -3.267657    0.255368    1.612546
     23          1           0       -3.845755   -1.133021    0.668537
     24          6           0       -0.999747   -0.449597   -0.629565
     25          1           0       -0.566697    0.018925   -1.513830
     26          6           0       -0.114163   -1.493460   -0.001772
     27          1           0        0.289782   -2.125807   -0.801812
     28          1           0       -0.694975   -2.171472    0.631908
 ---------------------------------------------------------------------
 Rotational constants (GHZ):           1.8849806           0.6991687           0.6021007
 Leave Link  202 at Tue Sep  6 13:42:21 2022, MaxMem=   131072000 cpu:               0.0 elap:               0.0
 (Enter /opt/g16/l301.exe)
 Standard basis: VSTO-6G (5D, 7F)
 Ernie: Thresh=  0.10000D-02 Tol=  0.10000D-05 Strict=F.
  NNHCO=     0 NNPyr=     0 NCTC=     0               EPep=         0.000000000
    EC=       253.569438892  ECS=         3.521390366   EG=         0.892421880
   EHC=         0.000000000  EAt=       -49.524085099  AtH=         4.217842293
 EPDDG=         0.000000000  ECC=       257.983251139 EAtT=        53.741927392
 There are    58 symmetry adapted cartesian basis functions of A   symmetry.
 There are    58 symmetry adapted basis functions of A   symmetry.
    58 basis functions,   348 primitive gaussians,    58 cartesian basis functions
    29 alpha electrons       29 beta electrons
       nuclear repulsion energy       311.7251785307 Hartrees.
 IExCor=    0 DFT=F Ex=HF Corr=None ExCW=0 ScaHFX=  1.000000
 ScaDFX=  1.000000  1.000000  1.000000  1.000000 ScalE2=  1.000000  1.000000
 IRadAn=      5 IRanWt=     -1 IRanGd=            0 ICorTp=0 IEmpDi=  4
 Integral buffers will be    131072 words long.
 Regular integral format.
 Two-electron integral symmetry is turned off.
 Leave Link  301 at Tue Sep  6 13:42:22 2022, MaxMem=   131072000 cpu:               0.0 elap:               0.0
 (Enter /opt/g16/l302.exe)
 Do NDO integrals.
 NPDir=0 NMtPBC=     1 NCelOv=     1 NCel=       1 NClECP=     1 NCelD=      1
         NCelK=      1 NCelE2=     1 NClLst=     1 CellRange=     0.0.
 One-electron integrals computed using PRISM.
 NBasis=    58 RedAO= F EigKep=  0.00D+00  NBF=    58
 NBsUse=    58 1.00D-04 EigRej=  0.00D+00 NBFU=    58
 Leave Link  302 at Tue Sep  6 13:42:22 2022, MaxMem=   131072000 cpu:               0.0 elap:               0.1
 (Enter /opt/g16/l303.exe)
 DipDrv:  MaxL=1.
 Leave Link  303 at Tue Sep  6 13:42:22 2022, MaxMem=   131072000 cpu:               0.0 elap:               0.0
 (Enter /opt/g16/l401.exe)
 Simple Huckel Guess.
 JPrj=0 DoOrth=F DoCkMO=F.
 Leave Link  401 at Tue Sep  6 13:42:22 2022, MaxMem=   131072000 cpu:               0.0 elap:               0.0
 (Enter /opt/g16/l502.exe)
 Keep J ints in memory in canonical form, NReq=866866.
 FoFCou: FMM=F IPFlag=           0 FMFlag=           0 FMFlg1=           0
         NFxFlg=           0 DoJE=F BraDBF=F KetDBF=F FulRan=T
         wScrn=  0.000000 ICntrl=       600 IOpCl=  2 I1Cent=           0 NGrid=           0
         NMat0=    1 NMatS0=    118 NMatT0=    0 NMatD0=    1 NMtDS0=    0 NMtDT0=    0
 Symmetry not used in FoFCou.
 Two-electron integral symmetry not used.
 Closed shell SCF:
 Using DIIS extrapolation, IDIIS=  1040.
 Overlap will be assumed to be unity.
 NGot=   131072000 LenX=   130997697 LenY=   130993892
 Requested convergence on RMS density matrix=1.00D-08 within 128 cycles.
 Requested convergence on MAX density matrix=1.00D-06.
 Requested convergence on             energy=1.00D-06.
 No special actions if energy rises.

 Cycle   1  Pass 1  IDiag  1:
 E= 0.217352350219130    
 DIIS: error= 2.74D-02 at cycle   1 NSaved=   1.
 NSaved= 1 IEnMin= 1 EnMin= 0.217352350219130     IErMin= 1 ErrMin= 2.74D-02
 ErrMax= 2.74D-02  0.00D+00 EMaxC= 1.00D-01 BMatC= 9.41D-02 BMatP= 9.41D-02
 IDIUse=3 WtCom= 7.26D-01 WtEn= 2.74D-01
 Coeff-Com:  0.100D+01
 Coeff-En:   0.100D+01
 Coeff:      0.100D+01
 GapD=    2.000 DampG=2.000 DampE=0.500 DampFc=1.0000 IDamp=-1.
 RMSDP=7.14D-03 MaxDP=8.49D-02              OVMax= 0.00D+00

 Cycle   2  Pass 1  IDiag  1:
 E=-0.156477787464837E-02 Delta-E=       -0.218917128094 Rises=F Damp=F
 DIIS: error= 7.99D-03 at cycle   2 NSaved=   2.
 NSaved= 2 IEnMin= 2 EnMin=-0.156477787464837E-02 IErMin= 2 ErrMin= 7.99D-03
 ErrMax= 7.99D-03  0.00D+00 EMaxC= 1.00D-01 BMatC= 6.06D-03 BMatP= 9.41D-02
 IDIUse=3 WtCom= 9.20D-01 WtEn= 7.99D-02
 Coeff-Com: -0.318D+00 0.132D+01
 Coeff-En:   0.000D+00 0.100D+01
 Coeff:     -0.293D+00 0.129D+01
 RMSDP=2.60D-03 MaxDP=2.87D-02 DE=-2.19D-01 OVMax= 0.00D+00

 Cycle   3  Pass 1  IDiag  3:
 E=-0.189519784632353E-01 Delta-E=       -0.017387200589 Rises=F Damp=F
 DIIS: error= 9.53D-04 at cycle   3 NSaved=   3.
 NSaved= 3 IEnMin= 3 EnMin=-0.189519784632353E-01 IErMin= 3 ErrMin= 9.53D-04
 ErrMax= 9.53D-04  0.00D+00 EMaxC= 1.00D-01 BMatC= 7.50D-05 BMatP= 6.06D-03
 IDIUse=3 WtCom= 9.90D-01 WtEn= 9.53D-03
 Coeff-Com:  0.110D+00-0.514D+00 0.140D+01
 Coeff-En:   0.000D+00 0.000D+00 0.100D+01
 Coeff:      0.109D+00-0.509D+00 0.140D+01
 Gap=     0.377 Goal=   None    Shift=    0.000
 RMSDP=4.35D-04 MaxDP=4.17D-03 DE=-1.74D-02 OVMax= 5.87D-03

 Cycle   4  Pass 1  IDiag  3:
 E=-0.192979687194565E-01 Delta-E=       -0.000345990256 Rises=F Damp=F
 DIIS: error= 1.51D-04 at cycle   4 NSaved=   4.
 NSaved= 4 IEnMin= 4 EnMin=-0.192979687194565E-01 IErMin= 4 ErrMin= 1.51D-04
 ErrMax= 1.51D-04  0.00D+00 EMaxC= 1.00D-01 BMatC= 3.32D-06 BMatP= 7.50D-05
 IDIUse=3 WtCom= 9.98D-01 WtEn= 1.51D-03
 Coeff-Com: -0.486D-01 0.232D+00-0.744D+00 0.156D+01
 Coeff-En:   0.000D+00 0.000D+00 0.000D+00 0.100D+01
 Coeff:     -0.485D-01 0.232D+00-0.742D+00 0.156D+01
 Gap=     0.377 Goal=   None    Shift=    0.000
 RMSDP=1.11D-04 MaxDP=1.14D-03 DE=-3.46D-04 OVMax= 8.29D-04

 Cycle   5  Pass 1  IDiag  3:
 E=-0.193168922413065E-01 Delta-E=       -0.000018923522 Rises=F Damp=F
 DIIS: error= 4.26D-05 at cycle   5 NSaved=   5.
 NSaved= 5 IEnMin= 5 EnMin=-0.193168922413065E-01 IErMin= 5 ErrMin= 4.26D-05
 ErrMax= 4.26D-05  0.00D+00 EMaxC= 1.00D-01 BMatC= 1.89D-07 BMatP= 3.32D-06
 IDIUse=1 WtCom= 1.00D+00 WtEn= 0.00D+00
 Coeff-Com:  0.135D-01-0.646D-01 0.215D+00-0.599D+00 0.144D+01
 Coeff:      0.135D-01-0.646D-01 0.215D+00-0.599D+00 0.144D+01
 Gap=     0.377 Goal=   None    Shift=    0.000
 RMSDP=2.76D-05 MaxDP=3.02D-04 DE=-1.89D-05 OVMax= 2.24D-04

 Cycle   6  Pass 1  IDiag  3:
 E=-0.193180651193074E-01 Delta-E=       -0.000001172878 Rises=F Damp=F
 DIIS: error= 1.53D-05 at cycle   6 NSaved=   6.
 NSaved= 6 IEnMin= 6 EnMin=-0.193180651193074E-01 IErMin= 6 ErrMin= 1.53D-05
 ErrMax= 1.53D-05  0.00D+00 EMaxC= 1.00D-01 BMatC= 1.62D-08 BMatP= 1.89D-07
 IDIUse=1 WtCom= 1.00D+00 WtEn= 0.00D+00
 Coeff-Com: -0.508D-02 0.242D-01-0.794D-01 0.228D+00-0.760D+00 0.159D+01
 Coeff:     -0.508D-02 0.242D-01-0.794D-01 0.228D+00-0.760D+00 0.159D+01
 Gap=     0.377 Goal=   None    Shift=    0.000
 RMSDP=9.44D-06 MaxDP=1.15D-04 DE=-1.17D-06 OVMax= 9.74D-05

 Cycle   7  Pass 1  IDiag  3:
 E=-0.193181775964604E-01 Delta-E=       -0.000000112477 Rises=F Damp=F
 DIIS: error= 4.23D-06 at cycle   7 NSaved=   7.
 NSaved= 7 IEnMin= 7 EnMin=-0.193181775964604E-01 IErMin= 7 ErrMin= 4.23D-06
 ErrMax= 4.23D-06  0.00D+00 EMaxC= 1.00D-01 BMatC= 1.10D-09 BMatP= 1.62D-08
 IDIUse=1 WtCom= 1.00D+00 WtEn= 0.00D+00
 Coeff-Com:  0.130D-02-0.617D-02 0.199D-01-0.590D-01 0.261D+00-0.797D+00
 Coeff-Com:  0.158D+01
 Coeff:      0.130D-02-0.617D-02 0.199D-01-0.590D-01 0.261D+00-0.797D+00
 Coeff:      0.158D+01
 Gap=     0.377 Goal=   None    Shift=    0.000
 RMSDP=2.52D-06 MaxDP=3.13D-05 DE=-1.12D-07 OVMax= 3.22D-05

 Cycle   8  Pass 1  IDiag  3:
 E=-0.193181849706434E-01 Delta-E=       -0.000000007374 Rises=F Damp=F
 DIIS: error= 1.06D-06 at cycle   8 NSaved=   8.
 NSaved= 8 IEnMin= 8 EnMin=-0.193181849706434E-01 IErMin= 8 ErrMin= 1.06D-06
 ErrMax= 1.06D-06  0.00D+00 EMaxC= 1.00D-01 BMatC= 4.76D-11 BMatP= 1.10D-09
 IDIUse=1 WtCom= 1.00D+00 WtEn= 0.00D+00
 Coeff-Com: -0.110D-03 0.509D-03-0.155D-02 0.513D-02-0.414D-01 0.173D+00
 Coeff-Com: -0.511D+00 0.137D+01
 Coeff:     -0.110D-03 0.509D-03-0.155D-02 0.513D-02-0.414D-01 0.173D+00
 Coeff:     -0.511D+00 0.137D+01
 Gap=     0.377 Goal=   None    Shift=    0.000
 RMSDP=4.69D-07 MaxDP=7.30D-06 DE=-7.37D-09 OVMax= 7.27D-06

 Cycle   9  Pass 1  IDiag  3:
 E=-0.193181852781663E-01 Delta-E=       -0.000000000308 Rises=F Damp=F
 DIIS: error= 2.28D-07 at cycle   9 NSaved=   9.
 NSaved= 9 IEnMin= 9 EnMin=-0.193181852781663E-01 IErMin= 9 ErrMin= 2.28D-07
 ErrMax= 2.28D-07  0.00D+00 EMaxC= 1.00D-01 BMatC= 4.56D-12 BMatP= 4.76D-11
 IDIUse=1 WtCom= 1.00D+00 WtEn= 0.00D+00
 Coeff-Com:  0.377D-04-0.172D-03 0.480D-03-0.154D-02 0.167D-01-0.770D-01
 Coeff-Com:  0.244D+00-0.853D+00 0.167D+01
 Coeff:      0.377D-04-0.172D-03 0.480D-03-0.154D-02 0.167D-01-0.770D-01
 Coeff:      0.244D+00-0.853D+00 0.167D+01
 Gap=     0.377 Goal=   None    Shift=    0.000
 RMSDP=1.64D-07 MaxDP=2.22D-06 DE=-3.08D-10 OVMax= 2.40D-06

 Cycle  10  Pass 1  IDiag  3:
 E=-0.193181853097144E-01 Delta-E=       -0.000000000032 Rises=F Damp=F
 DIIS: error= 5.58D-08 at cycle  10 NSaved=  10.
 NSaved=10 IEnMin=10 EnMin=-0.193181853097144E-01 IErMin=10 ErrMin= 5.58D-08
 ErrMax= 5.58D-08  0.00D+00 EMaxC= 1.00D-01 BMatC= 2.51D-13 BMatP= 4.56D-12
 IDIUse=1 WtCom= 1.00D+00 WtEn= 0.00D+00
 Coeff-Com: -0.351D-05 0.139D-04-0.188D-04 0.124D-03-0.416D-02 0.219D-01
 Coeff-Com: -0.740D-01 0.293D+00-0.776D+00 0.154D+01
 Coeff:     -0.351D-05 0.139D-04-0.188D-04 0.124D-03-0.416D-02 0.219D-01
 Coeff:     -0.740D-01 0.293D+00-0.776D+00 0.154D+01
 Gap=     0.377 Goal=   None    Shift=    0.000
 RMSDP=3.86D-08 MaxDP=4.89D-07 DE=-3.15D-11 OVMax= 4.59D-07

 Cycle  11  Pass 1  IDiag  3:
 E=-0.193181853114197E-01 Delta-E=       -0.000000000002 Rises=F Damp=F
 DIIS: error= 8.85D-09 at cycle  11 NSaved=  11.
 NSaved=11 IEnMin=11 EnMin=-0.193181853114197E-01 IErMin=11 ErrMin= 8.85D-09
 ErrMax= 8.85D-09  0.00D+00 EMaxC= 1.00D-01 BMatC= 7.99D-15 BMatP= 2.51D-13
 IDIUse=1 WtCom= 1.00D+00 WtEn= 0.00D+00
 Coeff-Com:  0.250D-06-0.253D-06-0.821D-05 0.207D-05 0.125D-02-0.701D-02
 Coeff-Com:  0.243D-01-0.990D-01 0.282D+00-0.671D+00 0.147D+01
 Coeff:      0.250D-06-0.253D-06-0.821D-05 0.207D-05 0.125D-02-0.701D-02
 Coeff:      0.243D-01-0.990D-01 0.282D+00-0.671D+00 0.147D+01
 Gap=     0.377 Goal=   None    Shift=    0.000
 RMSDP=5.71D-09 MaxDP=7.82D-08 DE=-1.71D-12 OVMax= 5.08D-08

 Cycle  12  Pass 2  IDiag  1:
 SCF Done:  E(RPM3) = -0.193181853114E-01 A.U. after   12 cycles
            NFock= 11  Conv=0.57D-08     -V/T= 0.9998
 KE=-7.900991699911D+01 PE=-5.058188185208D+02 EE= 2.730842388039D+02
 Leave Link  502 at Tue Sep  6 13:42:22 2022, MaxMem=   131072000 cpu:               0.0 elap:               0.0
 (Enter /opt/g16/l601.exe)
 Copying SCF densities to generalized density rwf, IOpCl= 0 IROHF=0.

 **********************************************************************

            Population analysis using the SCF density.

 **********************************************************************

 Orbital symmetries:
       Occupied  (A) (A) (A) (A) (A) (A) (A) (A) (A) (A) (A) (A)
                 (A) (A) (A) (A) (A) (A) (A) (A) (A) (A) (A) (A)
                 (A) (A) (A) (A) (A)
       Virtual   (A) (A) (A) (A) (A) (A) (A) (A) (A) (A) (A) (A)
                 (A) (A) (A) (A) (A) (A) (A) (A) (A) (A) (A) (A)
                 (A) (A) (A) (A) (A)
 The electronic state is 1-A.
 Alpha  occ. eigenvalues --   -1.45698  -1.34168  -1.17893  -1.10493  -1.01203
 Alpha  occ. eigenvalues --   -0.95186  -0.86795  -0.80237  -0.67416  -0.63356
 Alpha  occ. eigenvalues --   -0.60763  -0.58937  -0.56669  -0.56335  -0.55134
 Alpha  occ. eigenvalues --   -0.54048  -0.51168  -0.50074  -0.48885  -0.48531
 Alpha  occ. eigenvalues --   -0.48290  -0.47490  -0.47043  -0.46822  -0.45469
 Alpha  occ. eigenvalues --   -0.43202  -0.42294  -0.35316  -0.34097
 Alpha virt. eigenvalues --    0.03633   0.04329   0.12159   0.12201   0.13299
 Alpha virt. eigenvalues --    0.13550   0.14113   0.14421   0.14966   0.15277
 Alpha virt. eigenvalues --    0.15469   0.15812   0.15984   0.16187   0.16469
 Alpha virt. eigenvalues --    0.16564   0.16610   0.16787   0.16949   0.17108
 Alpha virt. eigenvalues --    0.17258   0.17341   0.17643   0.17975   0.18094
 Alpha virt. eigenvalues --    0.20965   0.21165   0.22511   0.22605
          Condensed to atoms (all electrons):
               1          2          3          4          5          6
     1  C    4.045860   0.000000   0.000000   0.000000   0.000000   0.000000
     2  H    0.000000   0.943879   0.000000   0.000000   0.000000   0.000000
     3  H    0.000000   0.000000   0.952432   0.000000   0.000000   0.000000
     4  C    0.000000   0.000000   0.000000   4.125172   0.000000   0.000000
     5  C    0.000000   0.000000   0.000000   0.000000   4.067589   0.000000
     6  H    0.000000   0.000000   0.000000   0.000000   0.000000   0.957020
     7  H    0.000000   0.000000   0.000000   0.000000   0.000000   0.000000
     8  H    0.000000   0.000000   0.000000   0.000000   0.000000   0.000000
     9  C    0.000000   0.000000   0.000000   0.000000   0.000000   0.000000
    10  H    0.000000   0.000000   0.000000   0.000000   0.000000   0.000000
    11  C    0.000000   0.000000   0.000000   0.000000   0.000000   0.000000
    12  H    0.000000   0.000000   0.000000   0.000000   0.000000   0.000000
    13  H    0.000000   0.000000   0.000000   0.000000   0.000000   0.000000
    14  H    0.000000   0.000000   0.000000   0.000000   0.000000   0.000000
    15  C    0.000000   0.000000   0.000000   0.000000   0.000000   0.000000
    16  H    0.000000   0.000000   0.000000   0.000000   0.000000   0.000000
    17  H    0.000000   0.000000   0.000000   0.000000   0.000000   0.000000
    18  H    0.000000   0.000000   0.000000   0.000000   0.000000   0.000000
    19  C    0.000000   0.000000   0.000000   0.000000   0.000000   0.000000
    20  C    0.000000   0.000000   0.000000   0.000000   0.000000   0.000000
    21  H    0.000000   0.000000   0.000000   0.000000   0.000000   0.000000
    22  H    0.000000   0.000000   0.000000   0.000000   0.000000   0.000000
    23  H    0.000000   0.000000   0.000000   0.000000   0.000000   0.000000
    24  C    0.000000   0.000000   0.000000   0.000000   0.000000   0.000000
    25  H    0.000000   0.000000   0.000000   0.000000   0.000000   0.000000
    26  C    0.000000   0.000000   0.000000   0.000000   0.000000   0.000000
    27  H    0.000000   0.000000   0.000000   0.000000   0.000000   0.000000
    28  H    0.000000   0.000000   0.000000   0.000000   0.000000   0.000000
               7          8          9         10         11         12
     1  C    0.000000   0.000000   0.000000   0.000000   0.000000   0.000000
     2  H    0.000000   0.000000   0.000000   0.000000   0.000000   0.000000
     3  H    0.000000   0.000000   0.000000   0.000000   0.000000   0.000000
     4  C    0.000000   0.000000   0.000000   0.000000   0.000000   0.000000
     5  C    0.000000   0.000000   0.000000   0.000000   0.000000   0.000000
     6  H    0.000000   0.000000   0.000000   0.000000   0.000000   0.000000
     7  H    0.954531   0.000000   0.000000   0.000000   0.000000   0.000000
     8  H    0.000000   0.960146   0.000000   0.000000   0.000000   0.000000
     9  C    0.000000   0.000000   4.148401   0.000000   0.000000   0.000000
    10  H    0.000000   0.000000   0.000000   0.907599   0.000000   0.000000
    11  C    0.000000   0.000000   0.000000   0.000000   4.069945   0.000000
    12  H    0.000000   0.000000   0.000000   0.000000   0.000000   0.957344
    13  H    0.000000   0.000000   0.000000   0.000000   0.000000   0.000000
    14  H    0.000000   0.000000   0.000000   0.000000   0.000000   0.000000
    15  C    0.000000   0.000000   0.000000   0.000000   0.000000   0.000000
    16  H    0.000000   0.000000   0.000000   0.000000   0.000000   0.000000
    17  H    0.000000   0.000000   0.000000   0.000000   0.000000   0.000000
    18  H    0.000000   0.000000   0.000000   0.000000   0.000000   0.000000
    19  C    0.000000   0.000000   0.000000   0.000000   0.000000   0.000000
    20  C    0.000000   0.000000   0.000000   0.000000   0.000000   0.000000
    21  H    0.000000   0.000000   0.000000   0.000000   0.000000   0.000000
    22  H    0.000000   0.000000   0.000000   0.000000   0.000000   0.000000
    23  H    0.000000   0.000000   0.000000   0.000000   0.000000   0.000000
    24  C    0.000000   0.000000   0.000000   0.000000   0.000000   0.000000
    25  H    0.000000   0.000000   0.000000   0.000000   0.000000   0.000000
    26  C    0.000000   0.000000   0.000000   0.000000   0.000000   0.000000
    27  H    0.000000   0.000000   0.000000   0.000000   0.000000   0.000000
    28  H    0.000000   0.000000   0.000000   0.000000   0.000000   0.000000
              13         14         15         16         17         18
     1  C    0.000000   0.000000   0.000000   0.000000   0.000000   0.000000
     2  H    0.000000   0.000000   0.000000   0.000000   0.000000   0.000000
     3  H    0.000000   0.000000   0.000000   0.000000   0.000000   0.000000
     4  C    0.000000   0.000000   0.000000   0.000000   0.000000   0.000000
     5  C    0.000000   0.000000   0.000000   0.000000   0.000000   0.000000
     6  H    0.000000   0.000000   0.000000   0.000000   0.000000   0.000000
     7  H    0.000000   0.000000   0.000000   0.000000   0.000000   0.000000
     8  H    0.000000   0.000000   0.000000   0.000000   0.000000   0.000000
     9  C    0.000000   0.000000   0.000000   0.000000   0.000000   0.000000
    10  H    0.000000   0.000000   0.000000   0.000000   0.000000   0.000000
    11  C    0.000000   0.000000   0.000000   0.000000   0.000000   0.000000
    12  H    0.000000   0.000000   0.000000   0.000000   0.000000   0.000000
    13  H    0.952095   0.000000   0.000000   0.000000   0.000000   0.000000
    14  H    0.000000   0.957852   0.000000   0.000000   0.000000   0.000000
    15  C    0.000000   0.000000   4.067785   0.000000   0.000000   0.000000
    16  H    0.000000   0.000000   0.000000   0.956608   0.000000   0.000000
    17  H    0.000000   0.000000   0.000000   0.000000   0.956554   0.000000
    18  H    0.000000   0.000000   0.000000   0.000000   0.000000   0.958583
    19  C    0.000000   0.000000   0.000000   0.000000   0.000000   0.000000
    20  C    0.000000   0.000000   0.000000   0.000000   0.000000   0.000000
    21  H    0.000000   0.000000   0.000000   0.000000   0.000000   0.000000
    22  H    0.000000   0.000000   0.000000   0.000000   0.000000   0.000000
    23  H    0.000000   0.000000   0.000000   0.000000   0.000000   0.000000
    24  C    0.000000   0.000000   0.000000   0.000000   0.000000   0.000000
    25  H    0.000000   0.000000   0.000000   0.000000   0.000000   0.000000
    26  C    0.000000   0.000000   0.000000   0.000000   0.000000   0.000000
    27  H    0.000000   0.000000   0.000000   0.000000   0.000000   0.000000
    28  H    0.000000   0.000000   0.000000   0.000000   0.000000   0.000000
              19         20         21         22         23         24
     1  C    0.000000   0.000000   0.000000   0.000000   0.000000   0.000000
     2  H    0.000000   0.000000   0.000000   0.000000   0.000000   0.000000
     3  H    0.000000   0.000000   0.000000   0.000000   0.000000   0.000000
     4  C    0.000000   0.000000   0.000000   0.000000   0.000000   0.000000
     5  C    0.000000   0.000000   0.000000   0.000000   0.000000   0.000000
     6  H    0.000000   0.000000   0.000000   0.000000   0.000000   0.000000
     7  H    0.000000   0.000000   0.000000   0.000000   0.000000   0.000000
     8  H    0.000000   0.000000   0.000000   0.000000   0.000000   0.000000
     9  C    0.000000   0.000000   0.000000   0.000000   0.000000   0.000000
    10  H    0.000000   0.000000   0.000000   0.000000   0.000000   0.000000
    11  C    0.000000   0.000000   0.000000   0.000000   0.000000   0.000000
    12  H    0.000000   0.000000   0.000000   0.000000   0.000000   0.000000
    13  H    0.000000   0.000000   0.000000   0.000000   0.000000   0.000000
    14  H    0.000000   0.000000   0.000000   0.000000   0.000000   0.000000
    15  C    0.000000   0.000000   0.000000   0.000000   0.000000   0.000000
    16  H    0.000000   0.000000   0.000000   0.000000   0.000000   0.000000
    17  H    0.000000   0.000000   0.000000   0.000000   0.000000   0.000000
    18  H    0.000000   0.000000   0.000000   0.000000   0.000000   0.000000
    19  C    4.124290   0.000000   0.000000   0.000000   0.000000   0.000000
    20  C    0.000000   4.066346   0.000000   0.000000   0.000000   0.000000
    21  H    0.000000   0.000000   0.955978   0.000000   0.000000   0.000000
    22  H    0.000000   0.000000   0.000000   0.956954   0.000000   0.000000
    23  H    0.000000   0.000000   0.000000   0.000000   0.955432   0.000000
    24  C    0.000000   0.000000   0.000000   0.000000   0.000000   4.152490
    25  H    0.000000   0.000000   0.000000   0.000000   0.000000   0.000000
    26  C    0.000000   0.000000   0.000000   0.000000   0.000000   0.000000
    27  H    0.000000   0.000000   0.000000   0.000000   0.000000   0.000000
    28  H    0.000000   0.000000   0.000000   0.000000   0.000000   0.000000
              25         26         27         28
     1  C    0.000000   0.000000   0.000000   0.000000
     2  H    0.000000   0.000000   0.000000   0.000000
     3  H    0.000000   0.000000   0.000000   0.000000
     4  C    0.000000   0.000000   0.000000   0.000000
     5  C    0.000000   0.000000   0.000000   0.000000
     6  H    0.000000   0.000000   0.000000   0.000000
     7  H    0.000000   0.000000   0.000000   0.000000
     8  H    0.000000   0.000000   0.000000   0.000000
     9  C    0.000000   0.000000   0.000000   0.000000
    10  H    0.000000   0.000000   0.000000   0.000000
    11  C    0.000000   0.000000   0.000000   0.000000
    12  H    0.000000   0.000000   0.000000   0.000000
    13  H    0.000000   0.000000   0.000000   0.000000
    14  H    0.000000   0.000000   0.000000   0.000000
    15  C    0.000000   0.000000   0.000000   0.000000
    16  H    0.000000   0.000000   0.000000   0.000000
    17  H    0.000000   0.000000   0.000000   0.000000
    18  H    0.000000   0.000000   0.000000   0.000000
    19  C    0.000000   0.000000   0.000000   0.000000
    20  C    0.000000   0.000000   0.000000   0.000000
    21  H    0.000000   0.000000   0.000000   0.000000
    22  H    0.000000   0.000000   0.000000   0.000000
    23  H    0.000000   0.000000   0.000000   0.000000
    24  C    0.000000   0.000000   0.000000   0.000000
    25  H    0.901102   0.000000   0.000000   0.000000
    26  C    0.000000   4.049454   0.000000   0.000000
    27  H    0.000000   0.000000   0.948120   0.000000
    28  H    0.000000   0.000000   0.000000   0.950439
 Mulliken charges:
               1
     1  C   -0.045860
     2  H    0.056121
     3  H    0.047568
     4  C   -0.125172
     5  C   -0.067589
     6  H    0.042980
     7  H    0.045469
     8  H    0.039854
     9  C   -0.148401
    10  H    0.092401
    11  C   -0.069945
    12  H    0.042656
    13  H    0.047905
    14  H    0.042148
    15  C   -0.067785
    16  H    0.043392
    17  H    0.043446
    18  H    0.041417
    19  C   -0.124290
    20  C   -0.066346
    21  H    0.044022
    22  H    0.043046
    23  H    0.044568
    24  C   -0.152490
    25  H    0.098898
    26  C   -0.049454
    27  H    0.051880
    28  H    0.049561
 Sum of Mulliken charges =   0.00000
 Mulliken charges with hydrogens summed into heavy atoms:
               1
     1  C    0.057829
     4  C   -0.125172
     5  C    0.060714
     9  C   -0.056000
    11  C    0.062765
    15  C    0.060469
    19  C   -0.124290
    20  C    0.065290
    24  C   -0.053592
    26  C    0.051988
 Charge=              0.0000 electrons
 Dipole moment (field-independent basis, Debye):
    X=             -0.2284    Y=             -0.0354    Z=              0.1371  Tot=              0.2687
 N-N= 3.117251785307D+02 E-N=-5.058188187528D+02  KE=-7.900991699911D+01
 Leave Link  601 at Tue Sep  6 13:42:22 2022, MaxMem=   131072000 cpu:               0.0 elap:               0.0
 (Enter /opt/g16/l701.exe)
 ... and contract with generalized density number  0.
 Compute integral first derivatives.
 Leave Link  701 at Tue Sep  6 13:42:22 2022, MaxMem=   131072000 cpu:               0.0 elap:               0.0
 (Enter /opt/g16/l702.exe)
 L702 exits ... SP integral derivatives will be done elsewhere.
 Leave Link  702 at Tue Sep  6 13:42:22 2022, MaxMem=   131072000 cpu:               0.0 elap:               0.0
 (Enter /opt/g16/l703.exe)
 Integral derivatives from FoFJK, PRISM(SPDF).
 Compute integral first derivatives, UseDBF=F ICtDFT=           0.
 Calling FoFJK, ICntrl=      2127 FMM=F ISym2X=0 I1Cent= 0 IOpClX= 0 NMat=1 NMatS=1 NMatT=0.
 FoFJK:  IHMeth= 9 ICntrl=    2127 DoSepK=F KAlg= 0 I1Cent=           0 FoldK=F
 IRaf=         0 NMat=       1 IRICut=       1 DoRegI=T DoRafI=F ISym2E= 0 IDoP0=3 IntGTp=3.
 FoFCou: FMM=F IPFlag=           0 FMFlag=      100000 FMFlg1=         800
         NFxFlg=           0 DoJE=F BraDBF=F KetDBF=F FulRan=T
         wScrn=  0.000000 ICntrl=      2127 IOpCl=  0 I1Cent=           0 NGrid=           0
         NMat0=    1 NMatS0=      1 NMatT0=    0 NMatD0=    1 NMtDS0=    0 NMtDT0=    0
 Symmetry not used in FoFCou.
 Leave Link  703 at Tue Sep  6 13:42:22 2022, MaxMem=   131072000 cpu:               0.0 elap:               0.0
 (Enter /opt/g16/l716.exe)
 Dipole        =-8.98594263D-02-1.39129644D-02 5.39382304D-02
 ***** Axes restored to original set *****
 -------------------------------------------------------------------
 Center     Atomic                   Forces (Hartrees/Bohr)
 Number     Number              X              Y              Z
 -------------------------------------------------------------------
      1        6           0.005423779    0.015454824    0.009108367
      2        1          -0.001096672   -0.006028906    0.007727365
      3        1           0.002804632   -0.000335547   -0.007053061
      4        6          -0.005041679   -0.002543744    0.000533336
      5        6          -0.006074742   -0.011613813    0.010003484
      6        1          -0.000043089   -0.000172650   -0.002161423
      7        1          -0.001985749    0.001260140   -0.001322631
      8        1           0.001465692    0.000750765    0.001061282
      9        6          -0.012837257   -0.004795906   -0.006496907
     10        1           0.004905767    0.002542097    0.001519542
     11        6           0.005770258    0.011478109   -0.012403722
     12        1           0.001215229   -0.001984969    0.000579687
     13        1          -0.003384123   -0.001615714   -0.003347092
     14        1          -0.000338503    0.000615352    0.002281951
     15        6           0.005681055   -0.002847573   -0.013911081
     16        1          -0.001899737   -0.000196238    0.000389260
     17        1          -0.000789801   -0.001352260    0.001164174
     18        1           0.000995482    0.001320040    0.000734895
     19        6           0.002366834   -0.002720865   -0.003513878
     20        6           0.008689526    0.011502955    0.007178531
     21        1           0.002872631    0.001078855   -0.004044905
     22        1          -0.001091582   -0.001151280    0.001775909
     23        1          -0.001917112    0.000294450   -0.000176164
     24        6          -0.005748759   -0.009522390   -0.006268727
     25        1           0.002934653    0.003265141    0.002953731
     26        6           0.001469923   -0.003905039    0.019708449
     27        1           0.002650488    0.007143493   -0.002211102
     28        1          -0.006997140   -0.005919327   -0.003809268
 -------------------------------------------------------------------
 Cartesian Forces:  Max     0.019708449 RMS     0.005739961
 Leave Link  716 at Tue Sep  6 13:42:22 2022, MaxMem=   131072000 cpu:               0.0 elap:               0.0
 (Enter /opt/g16/l103.exe)

 GradGradGradGradGradGradGradGradGradGradGradGradGradGradGradGradGradGrad
 Berny optimization.
 FormGI is forming the generalized inverse of G from B-inverse, IUseBI=4.
 Internal  Forces:  Max     0.019750871 RMS     0.005144288
 Search for a local minimum.
 Step number   1 out of a maximum of  138
 All quantities printed in internal units (Hartrees-Bohrs-Radians)
 RMS Force = .51443D-02 SwitMx=.10000D-02 MixMth= 1
 Mixed Optimization -- RFO/linear search
 Second derivative matrix not updated -- first step.
 ITU=  0
     Eigenvalues ---    0.00293   0.00534   0.00658   0.00681   0.00687
     Eigenvalues ---    0.00722   0.00816   0.01200   0.01290   0.01566
     Eigenvalues ---    0.01639   0.02774   0.02785   0.03745   0.03947
     Eigenvalues ---    0.05331   0.05348   0.06983   0.07002   0.07080
     Eigenvalues ---    0.07092   0.07245   0.07301   0.07351   0.07509
     Eigenvalues ---    0.09521   0.09665   0.12946   0.13079   0.15999
     Eigenvalues ---    0.16000   0.16000   0.16000   0.16000   0.16000
     Eigenvalues ---    0.16000   0.16000   0.16000   0.16000   0.16000
     Eigenvalues ---    0.16000   0.16000   0.16000   0.21889   0.21905
     Eigenvalues ---    0.22000   0.22000   0.24989   0.24994   0.24997
     Eigenvalues ---    0.24999   0.28897   0.30605   0.31537   0.31711
     Eigenvalues ---    0.31756   0.32029   0.32776   0.33874   0.34032
     Eigenvalues ---    0.34186   0.34187   0.34210   0.34222   0.34247
     Eigenvalues ---    0.34249   0.34250   0.34258   0.34263   0.34264
     Eigenvalues ---    0.34323   0.34328   0.34543   0.34636   0.34767
     Eigenvalues ---    0.34846   0.55406   0.55583
 RFO step:  Lambda=-1.08400300D-02 EMin= 2.92766438D-03
 Linear search not attempted -- first point.
 Iteration  1 RMS(Cart)=  0.09679700 RMS(Int)=  0.00138152
 Iteration  2 RMS(Cart)=  0.00304223 RMS(Int)=  0.00010916
 Iteration  3 RMS(Cart)=  0.00000436 RMS(Int)=  0.00010914
 Iteration  4 RMS(Cart)=  0.00000000 RMS(Int)=  0.00010914
 ITry= 1 IFail=0 DXMaxC= 3.13D-01 DCOld= 1.00D+10 DXMaxT= 3.00D-01 DXLimC= 3.00D+00 Rises=F
 Variable       Old X    -DE/DX   Delta X   Delta X   Delta X     New X
                                 (Linear)    (Quad)   (Total)
    R1        2.07017   0.00881   0.00000   0.02497   0.02497   2.09514
    R2        2.07543   0.00744   0.00000   0.02128   0.02128   2.09671
    R3        2.86774  -0.01975   0.00000  -0.06233  -0.06233   2.80541
    R4        2.90219  -0.00933   0.00000  -0.03111  -0.03111   2.87107
    R5        2.85000  -0.01404   0.00000  -0.04303  -0.04303   2.80697
    R6        2.54773  -0.01932   0.00000  -0.03420  -0.03420   2.51353
    R7        2.06911   0.00190   0.00000   0.00539   0.00539   2.07450
    R8        2.06789   0.00247   0.00000   0.00696   0.00696   2.07485
    R9        2.06977   0.00195   0.00000   0.00553   0.00553   2.07530
   R10        2.05926   0.00569   0.00000   0.01584   0.01584   2.07510
   R11        2.82746  -0.01519   0.00000  -0.04487  -0.04487   2.78259
   R12        2.06780   0.00235   0.00000   0.00664   0.00664   2.07445
   R13        2.06271   0.00460   0.00000   0.01288   0.01288   2.07558
   R14        2.06898   0.00233   0.00000   0.00658   0.00658   2.07556
   R15        2.06910   0.00171   0.00000   0.00484   0.00484   2.07395
   R16        2.06915   0.00175   0.00000   0.00496   0.00496   2.07411
   R17        2.06958   0.00181   0.00000   0.00512   0.00512   2.07470
   R18        2.84676  -0.01266   0.00000  -0.03860  -0.03860   2.80816
   R19        2.84092  -0.01516   0.00000  -0.04577  -0.04577   2.79515
   R20        2.54618  -0.01879   0.00000  -0.03315  -0.03315   2.51302
   R21        2.06423   0.00421   0.00000   0.01181   0.01181   2.07603
   R22        2.07015   0.00208   0.00000   0.00590   0.00590   2.07605
   R23        2.06887   0.00190   0.00000   0.00538   0.00538   2.07426
   R24        2.06056   0.00525   0.00000   0.01464   0.01464   2.07519
   R25        2.84593  -0.01726   0.00000  -0.05255  -0.05255   2.79338
   R26        2.07276   0.00776   0.00000   0.02209   0.02209   2.09485
   R27        2.06888   0.00956   0.00000   0.02705   0.02705   2.09593
    A1        1.82601   0.00082   0.00000   0.02811   0.02800   1.85401
    A2        1.94370  -0.00014   0.00000  -0.01809  -0.01845   1.92525
    A3        1.91010   0.00220   0.00000   0.00443   0.00366   1.91376
    A4        1.88487   0.00159   0.00000   0.00861   0.00885   1.89372
    A5        1.89171   0.00182   0.00000   0.01513   0.01513   1.90683
    A6        1.99852  -0.00566   0.00000  -0.03158  -0.03187   1.96665
    A7        2.00785   0.00238   0.00000   0.00918   0.00917   2.01702
    A8        2.17727  -0.00588   0.00000  -0.02248  -0.02250   2.15477
    A9        2.09773   0.00351   0.00000   0.01354   0.01352   2.11125
   A10        1.92515   0.00055   0.00000   0.00263   0.00262   1.92777
   A11        1.93031  -0.00060   0.00000  -0.00495  -0.00496   1.92535
   A12        1.95932   0.00012   0.00000   0.00277   0.00276   1.96208
   A13        1.89550  -0.00081   0.00000  -0.00875  -0.00877   1.88674
   A14        1.87558   0.00021   0.00000   0.00404   0.00403   1.87961
   A15        1.87569   0.00050   0.00000   0.00411   0.00411   1.87981
   A16        2.06749   0.00509   0.00000   0.02164   0.02160   2.08908
   A17        2.23263  -0.01083   0.00000  -0.04684  -0.04689   2.18574
   A18        1.98294   0.00575   0.00000   0.02547   0.02542   2.00837
   A19        1.91524   0.00088   0.00000   0.00449   0.00444   1.91968
   A20        1.98654  -0.00304   0.00000  -0.01924  -0.01924   1.96731
   A21        1.90984   0.00131   0.00000   0.00976   0.00976   1.91960
   A22        1.88889   0.00033   0.00000  -0.00183  -0.00187   1.88701
   A23        1.88650  -0.00045   0.00000   0.00037   0.00032   1.88682
   A24        1.87400   0.00104   0.00000   0.00717   0.00722   1.88122
   A25        1.89499  -0.00093   0.00000  -0.00850  -0.00850   1.88649
   A26        1.87884   0.00011   0.00000   0.00224   0.00224   1.88108
   A27        1.92365   0.00028   0.00000   0.00094   0.00093   1.92458
   A28        1.87885   0.00006   0.00000   0.00173   0.00173   1.88057
   A29        1.92467   0.00029   0.00000   0.00086   0.00085   1.92552
   A30        1.96083   0.00014   0.00000   0.00236   0.00235   1.96318
   A31        1.99487   0.00312   0.00000   0.01200   0.01197   2.00684
   A32        2.10370   0.00288   0.00000   0.01109   0.01105   2.11475
   A33        2.18453  -0.00599   0.00000  -0.02291  -0.02295   2.16159
   A34        1.97958  -0.00363   0.00000  -0.02161  -0.02162   1.95796
   A35        1.92079   0.00078   0.00000   0.00672   0.00674   1.92754
   A36        1.92169   0.00066   0.00000   0.00205   0.00200   1.92370
   A37        1.86383   0.00211   0.00000   0.01559   0.01564   1.87946
   A38        1.88435   0.00080   0.00000   0.00086   0.00079   1.88514
   A39        1.89070  -0.00059   0.00000  -0.00280  -0.00281   1.88789
   A40        2.06607   0.00601   0.00000   0.02620   0.02616   2.09223
   A41        2.23221  -0.01186   0.00000  -0.05135  -0.05139   2.18082
   A42        1.98487   0.00585   0.00000   0.02528   0.02525   2.01012
   A43        1.97604  -0.00474   0.00000  -0.02596  -0.02609   1.94995
   A44        1.92512   0.00056   0.00000   0.00142   0.00138   1.92650
   A45        1.89742   0.00187   0.00000   0.00701   0.00676   1.90418
   A46        1.88820   0.00187   0.00000   0.00774   0.00770   1.89590
   A47        1.93754   0.00023   0.00000  -0.00793  -0.00802   1.92952
   A48        1.83436   0.00061   0.00000   0.02122   0.02117   1.85553
    D1        2.76636   0.00150   0.00000   0.03878   0.03844   2.80481
    D2       -0.34738   0.00121   0.00000   0.02861   0.02836  -0.31902
    D3        0.77081  -0.00033   0.00000   0.00977   0.00977   0.78058
    D4       -2.34294  -0.00062   0.00000  -0.00041  -0.00031  -2.34325
    D5       -1.33816  -0.00012   0.00000   0.00474   0.00493  -1.33323
    D6        1.83128  -0.00042   0.00000  -0.00543  -0.00515   1.82613
    D7        1.03773  -0.00243   0.00000  -0.04407  -0.04413   0.99360
    D8       -3.12687  -0.00291   0.00000  -0.05108  -0.05113   3.10518
    D9       -1.12417  -0.00083   0.00000  -0.02097  -0.02099  -1.14516
   D10        3.01943   0.00064   0.00000  -0.00061  -0.00052   3.01891
   D11       -1.14517   0.00016   0.00000  -0.00763  -0.00752  -1.15269
   D12        0.85753   0.00225   0.00000   0.02248   0.02262   0.88015
   D13       -1.15856   0.00028   0.00000   0.00069   0.00060  -1.15796
   D14        0.96002  -0.00020   0.00000  -0.00633  -0.00640   0.95362
   D15        2.96272   0.00189   0.00000   0.02378   0.02374   2.98646
   D16       -0.99943   0.00046   0.00000  -0.00160  -0.00167  -1.00110
   D17        1.09780  -0.00058   0.00000  -0.01402  -0.01409   1.08371
   D18       -3.09056  -0.00027   0.00000  -0.01036  -0.01043  -3.10100
   D19        2.11569   0.00057   0.00000   0.00745   0.00752   2.12321
   D20       -2.07026  -0.00046   0.00000  -0.00498  -0.00490  -2.07516
   D21        0.02456  -0.00015   0.00000  -0.00131  -0.00125   0.02331
   D22        3.11773   0.00022   0.00000   0.00434   0.00431   3.12204
   D23       -0.04238   0.00075   0.00000   0.02403   0.02400  -0.01838
   D24        0.00532  -0.00006   0.00000  -0.00622  -0.00619  -0.00087
   D25        3.12840   0.00047   0.00000   0.01347   0.01350  -3.14129
   D26        2.02662  -0.00071   0.00000  -0.00911  -0.00911   2.01751
   D27       -0.09288   0.00031   0.00000   0.00323   0.00320  -0.08968
   D28       -2.18934   0.00006   0.00000  -0.00014  -0.00010  -2.18944
   D29       -1.13274  -0.00020   0.00000   0.00979   0.00978  -1.12296
   D30        3.03094   0.00082   0.00000   0.02213   0.02209   3.05303
   D31        0.93449   0.00057   0.00000   0.01875   0.01879   0.95328
   D32       -1.04138   0.00058   0.00000   0.01332   0.01342  -1.02796
   D33        2.11298   0.00028   0.00000  -0.00101  -0.00112   2.11186
   D34        1.05062  -0.00021   0.00000   0.00391   0.00401   1.05463
   D35       -2.07821  -0.00051   0.00000  -0.01042  -0.01053  -2.08874
   D36       -3.13662   0.00015   0.00000   0.00826   0.00837  -3.12826
   D37        0.01774  -0.00014   0.00000  -0.00607  -0.00617   0.01157
   D38       -3.00806  -0.00096   0.00000  -0.02422  -0.02411  -3.03218
   D39       -0.92146  -0.00014   0.00000  -0.01396  -0.01392  -0.93539
   D40        1.16155   0.00003   0.00000  -0.01194  -0.01190   1.14965
   D41        0.12008  -0.00057   0.00000  -0.00882  -0.00884   0.11124
   D42        2.20668   0.00025   0.00000   0.00144   0.00136   2.20803
   D43       -1.99350   0.00042   0.00000   0.00347   0.00338  -1.99012
   D44        0.00995  -0.00006   0.00000   0.00416   0.00412   0.01407
   D45       -3.12169  -0.00050   0.00000  -0.01277  -0.01284  -3.13453
   D46       -3.11741  -0.00047   0.00000  -0.01212  -0.01205  -3.12946
   D47        0.03414  -0.00091   0.00000  -0.02905  -0.02901   0.00513
   D48       -1.79633  -0.00025   0.00000  -0.01108  -0.01119  -1.80752
   D49        2.34762   0.00085   0.00000  -0.00122  -0.00123   2.34639
   D50        0.34344  -0.00108   0.00000  -0.02684  -0.02675   0.31669
   D51        1.35483  -0.00068   0.00000  -0.02738  -0.02747   1.32736
   D52       -0.78440   0.00042   0.00000  -0.01752  -0.01751  -0.80191
   D53       -2.78858  -0.00151   0.00000  -0.04314  -0.04303  -2.83161
         Item               Value     Threshold  Converged?
 Maximum Force            0.019751     0.000450     NO 
 RMS     Force            0.005144     0.000300     NO 
 Maximum Displacement     0.312765     0.001800     NO 
 RMS     Displacement     0.095907     0.001200     NO 
 Predicted change in Energy=-5.698421D-03
 Lowest energy point so far.  Saving SCF results.
 GradGradGradGradGradGradGradGradGradGradGradGradGradGradGradGradGradGrad

 Leave Link  103 at Tue Sep  6 13:42:22 2022, MaxMem=   131072000 cpu:               0.0 elap:               0.0
 (Enter /opt/g16/l202.exe)
                          Input orientation:                          
 ---------------------------------------------------------------------
 Center     Atomic      Atomic             Coordinates (Angstroms)
 Number     Number       Type             X           Y           Z
 ---------------------------------------------------------------------
      1          6           0        0.808031   -0.224821   -1.277851
      2          1           0        0.584389   -1.165782   -0.735821
      3          1           0        1.109623   -0.521954   -2.303430
      4          6           0        1.946742    0.480436   -0.637644
      5          6           0        2.633910    1.488974   -1.484410
      6          1           0        3.003580    1.026092   -2.408641
      7          1           0        1.938610    2.292831   -1.759899
      8          1           0        3.491419    1.948961   -0.975355
      9          6           0        2.359706    0.231972    0.602075
     10          1           0        3.221451    0.778164    1.008134
     11          6           0        1.750710   -0.744524    1.520656
     12          1           0        2.466403   -1.546257    1.744404
     13          1           0        0.841242   -1.203358    1.109907
     14          1           0        1.481492   -0.253739    2.465640
     15          6           0       -2.539031    0.692243    1.880596
     16          1           0       -3.574464    1.052855    1.832513
     17          1           0       -2.513763   -0.184267    2.540717
     18          1           0       -1.931228    1.479282    2.345887
     19          6           0       -2.056530    0.329756    0.522643
     20          6           0       -2.847727   -0.714931   -0.163255
     21          1           0       -2.390108   -1.025585   -1.112454
     22          1           0       -2.937540   -1.606973    0.471659
     23          1           0       -3.858461   -0.345071   -0.378788
     24          6           0       -0.990591    0.920605   -0.009460
     25          1           0       -0.443957    1.681495    0.563392
     26          6           0       -0.444457    0.631922   -1.352387
     27          1           0       -0.225188    1.592956   -1.859552
     28          1           0       -1.200963    0.115218   -1.977575
 ---------------------------------------------------------------------
                    Distance matrix (angstroms):
                    1          2          3          4          5
     1  C    0.000000
     2  H    1.108702   0.000000
     3  H    1.109531   1.774200   0.000000
     4  C    1.484559   2.139084   2.116695   0.000000
     5  C    2.512686   3.436371   2.652937   1.485382   0.000000
     6  H    2.768376   3.668123   2.448385   2.133326   1.097779
     7  H    2.801633   3.852876   2.984235   2.131735   1.097963
     8  H    3.466612   4.267297   3.679967   2.157925   1.098202
     9  C    2.480015   2.625916   3.251626   1.330104   2.451257
    10  H    3.472218   3.711388   4.137219   2.102881   2.657673
    11  C    2.998395   2.574772   3.883834   2.489421   3.846944
    12  H    3.691939   3.136599   4.390331   3.170439   4.434627
    13  H    2.580702   1.863893   3.491018   2.666688   4.146418
    14  H    3.803697   3.447604   4.791060   3.222707   4.468558
    15  C    4.692507   4.478130   5.682696   5.148646   6.222328
    16  H    5.523864   5.367937   6.444123   6.075611   7.052381
    17  H    5.061365   4.614934   6.058772   5.517238   6.745362
    18  H    4.851699   4.777198   5.904902   4.993776   5.959173
    19  C    3.428563   3.285547   4.328582   4.170750   5.231851
    20  C    3.853193   3.508635   4.503133   4.963958   6.054005
    21  H    3.301012   3.001523   3.730977   4.615389   5.630463
    22  H    4.358949   3.749219   5.025726   5.426237   6.667244
    23  H    4.753833   4.532103   5.330797   5.869314   6.836446
    24  C    2.481100   2.713149   3.428437   3.035834   3.954179
    25  H    2.931159   3.294304   3.935413   2.932656   3.701867
    26  C    1.519306   2.161115   2.156636   2.500328   3.198173
    27  H    2.170307   3.086879   2.539999   2.729110   2.885478
    28  H    2.154368   2.523964   2.418880   3.440472   4.103251
                    6          7          8          9         10
     6  H    0.000000
     7  H    1.777542   0.000000
     8  H    1.773128   1.773406   0.000000
     9  C    3.179562   3.162812   2.591739   0.000000
    10  H    3.432679   3.406156   2.319025   1.098096   0.000000
    11  C    4.488223   4.474692   4.063866   1.472485   2.178150
    12  H    4.914602   5.224681   4.545800   2.116223   2.552474
    13  H    4.693222   4.654389   4.616153   2.150302   3.098739
    14  H    5.264346   4.954710   4.553256   2.116613   2.493312
    15  C    7.016378   5.988686   6.789855   5.083708   5.826811
    16  H    7.826798   6.696039   7.655966   6.115733   6.851242
    17  H    7.510139   6.667453   7.278436   5.261395   6.013964
    18  H    6.867550   5.700437   6.376233   4.796746   5.369474
    19  C    5.889144   5.002479   5.970390   4.418032   5.319197
    20  C    6.504668   5.874088   6.923914   5.347869   6.358962
    21  H    5.914504   5.492620   6.592350   5.204017   6.264184
    22  H    7.108169   6.630623   7.487993   5.608881   6.626451
    23  H    7.286151   6.517056   7.722643   6.321445   7.301395
    24  C    4.660537   3.677942   4.698817   3.474576   4.335561
    25  H    4.598701   3.383495   4.233966   3.156444   3.801187
    26  C    3.627672   2.933205   4.167477   3.441396   4.362605
    27  H    3.323820   2.276352   3.836888   3.820152   4.557064
    28  H    4.323620   3.827049   5.136683   4.398476   5.376960
                   11         12         13         14         15
    11  C    0.000000
    12  H    1.097750   0.000000
    13  H    1.098351   1.778009   0.000000
    14  H    1.098337   1.777874   1.774742   0.000000
    15  C    4.538253   5.484871   3.951394   4.171542   0.000000
    16  H    5.628970   6.576870   5.011099   5.260297   1.097485
    17  H    4.420423   5.224097   3.787060   3.996564   1.097573
    18  H    4.379839   5.371669   4.051024   3.829407   1.097885
    19  C    4.079851   5.046687   3.330525   4.078394   1.486015
    20  C    4.897147   5.707035   3.932937   5.085855   2.500551
    21  H    4.915144   5.658484   3.925826   5.328019   3.454194
    22  H    4.880973   5.552132   3.853500   5.033393   2.725859
    23  H    5.935507   6.778989   5.004006   6.050967   2.814557
    24  C    3.553680   4.594808   3.019903   3.690040   2.454002
    25  H    3.408590   4.503706   3.205120   3.327316   2.665142
    26  C    3.868816   4.775739   3.329289   4.367036   3.852669
    27  H    4.560021   5.485236   4.215961   5.003031   4.489305
    28  H    4.657161   5.482992   3.929604   5.203254   4.124181
                   16         17         18         19         20
    16  H    0.000000
    17  H    1.776826   0.000000
    18  H    1.773589   1.773331   0.000000
    19  C    2.131374   2.132113   2.159011   0.000000
    20  C    2.763386   2.775716   3.456926   1.479128   0.000000
    21  H    3.794132   3.750835   4.294770   2.149829   1.098589
    22  H    3.054878   2.546504   3.748382   2.128309   1.098600
    23  H    2.631483   3.218319   3.803465   2.124835   1.097649
    24  C    3.175964   3.169258   2.597032   1.329835   2.479432
    25  H    3.435975   3.416866   2.330268   2.104578   3.471164
    26  C    4.485278   4.483799   4.075014   2.491149   3.000625
    27  H    5.014050   5.268630   4.539736   3.259499   3.883487
    28  H    4.585786   4.714668   4.591980   2.651247   2.587032
                   21         22         23         24         25
    21  H    0.000000
    22  H    1.774008   0.000000
    23  H    1.776914   1.778693   0.000000
    24  C    2.638731   3.226567   3.156425   0.000000
    25  H    3.731521   4.128001   4.080871   1.098145   0.000000
    26  C    2.567189   3.815136   3.682097   1.478193   2.184448
    27  H    3.478763   4.799056   4.375989   2.112046   2.434411
    28  H    1.861164   3.461270   3.135328   2.136910   3.079415
                   26         27         28
    26  C    0.000000
    27  H    1.108549   0.000000
[...]
    27  H    4.667842   5.601710   4.416554   5.082614   4.386696
    28  H    4.925382   5.801950   4.283990   5.421147   4.126403
                   16         17         18         19         20
    16  H    0.000000
    17  H    1.772099   0.000000
    18  H    1.772414   1.772271   0.000000
    19  C    2.137854   2.138479   2.163206   0.000000
    20  C    2.771268   2.800423   3.469279   1.485964   0.000000
    21  H    3.816110   3.753560   4.302769   2.154643   1.102628
    22  H    3.013801   2.560938   3.756068   2.141199   1.097946
    23  H    2.689450   3.297760   3.840916   2.136072   1.098173
    24  C    3.197170   3.178353   2.608373   1.339796   2.490440
    25  H    3.467239   3.429320   2.352565   2.118255   3.486313
    26  C    4.505904   4.498447   4.093936   2.500539   3.000218
    27  H    4.827928   5.186100   4.562182   3.091346   3.534243
    28  H    4.701070   4.607477   4.608287   2.646713   2.556987
                   21         22         23         24         25
    21  H    0.000000
    22  H    1.777925   0.000000
    23  H    1.777181   1.773303   0.000000
    24  C    2.644453   3.263853   3.147879   0.000000
    25  H    3.737291   4.168342   4.084121   1.098758   0.000000
    26  C    2.562182   3.856126   3.635022   1.485829   2.193326
    27  H    3.109511   4.534407   3.876376   2.125645   2.655088
    28  H    1.776206   3.335626   3.225610   2.144711   3.093639
                   26         27         28
    26  C    0.000000
    27  H    1.115075   0.000000
    28  H    1.112903   1.780674   0.000000
 Stoichiometry    C10H18
 Framework group  C1[X(C10H18)]
 Deg. of freedom    78
 Full point group                 C1      NOp   1
 RotChk:  IX=0 Diff= 9.95D-16
 Largest Abelian subgroup         C1      NOp   1
 Largest concise Abelian subgroup C1      NOp   1
                         Standard orientation:                         
 ---------------------------------------------------------------------
 Center     Atomic      Atomic             Coordinates (Angstroms)
 Number     Number       Type             X           Y           Z
 ---------------------------------------------------------------------
      1          6           0        1.004860   -0.669442    0.941393
      2          1           0        0.824516    0.217292    1.589029
      3          1           0        1.385354   -1.465890    1.611266
      4          6           0        2.060803   -0.366682   -0.074565
      5          6           0        2.469381   -1.515947   -0.927550
      6          1           0        3.096651   -2.214721   -0.358090
      7          1           0        1.575345   -2.068249   -1.265743
      8          1           0        3.033398   -1.207611   -1.816719
      9          6           0        2.622644    0.840474   -0.222418
     10          1           0        3.398670    0.988579   -0.984707
     11          6           0        2.281091    2.036497    0.577064
     12          1           0        3.172359    2.433293    1.080581
     13          1           0        1.524763    1.823822    1.350780
     14          1           0        1.881877    2.829336   -0.069400
     15          6           0       -3.088741    1.336570   -0.764639
     16          1           0       -3.859568    1.002068   -1.472181
     17          1           0       -3.587980    1.934720    0.009957
     18          1           0       -2.405515    2.002252   -1.308436
     19          6           0       -2.392257    0.169830   -0.158866
     20          6           0       -3.270123   -0.793802    0.554473
     21          1           0       -2.686688   -1.533417    1.127504
     22          1           0       -3.936069   -0.275080    1.256561
     23          1           0       -3.899257   -1.344024   -0.157867
     24          6           0       -1.065119    0.021559   -0.267378
     25          1           0       -0.465632    0.771640   -0.801476
     26          6           0       -0.299268   -1.121403    0.293691
     27          1           0       -0.072626   -1.839955   -0.528324
     28          1           0       -0.919225   -1.679978    1.030033
 ---------------------------------------------------------------------
 Rotational constants (GHZ):           2.0210821           0.6366666           0.5488737
 Leave Link  202 at Tue Sep  6 13:42:30 2022, MaxMem=   131072000 cpu:               0.0 elap:               0.0
 (Enter /opt/g16/l601.exe)
 Copying SCF densities to generalized density rwf, IOpCl= 0 IROHF=0.

 **********************************************************************

            Population analysis using the SCF density.

 **********************************************************************

 Orbital symmetries:
       Occupied  (A) (A) (A) (A) (A) (A) (A) (A) (A) (A) (A) (A)
                 (A) (A) (A) (A) (A) (A) (A) (A) (A) (A) (A) (A)
                 (A) (A) (A) (A) (A)
       Virtual   (A) (A) (A) (A) (A) (A) (A) (A) (A) (A) (A) (A)
                 (A) (A) (A) (A) (A) (A) (A) (A) (A) (A) (A) (A)
                 (A) (A) (A) (A) (A)
 The electronic state is 1-A.
 Alpha  occ. eigenvalues --   -1.47903  -1.35721  -1.17831  -1.10227  -1.01280
 Alpha  occ. eigenvalues --   -0.94897  -0.86876  -0.79492  -0.67049  -0.64123
 Alpha  occ. eigenvalues --   -0.61247  -0.59909  -0.57803  -0.56517  -0.55214
 Alpha  occ. eigenvalues --   -0.53680  -0.51063  -0.50316  -0.48455  -0.48256
 Alpha  occ. eigenvalues --   -0.47918  -0.47611  -0.47258  -0.46945  -0.45744
 Alpha  occ. eigenvalues --   -0.42773  -0.42397  -0.35103  -0.34030
 Alpha virt. eigenvalues --    0.03678   0.04295   0.12391   0.12449   0.13237
 Alpha virt. eigenvalues --    0.13579   0.13946   0.14237   0.14753   0.14953
 Alpha virt. eigenvalues --    0.15499   0.15819   0.15908   0.16093   0.16348
 Alpha virt. eigenvalues --    0.16442   0.16450   0.16640   0.16960   0.17077
 Alpha virt. eigenvalues --    0.17188   0.17251   0.17803   0.17922   0.18001
 Alpha virt. eigenvalues --    0.21126   0.21398   0.22490   0.22584
          Condensed to atoms (all electrons):
               1          2          3          4          5          6
     1  C    4.060989   0.000000   0.000000   0.000000   0.000000   0.000000
     2  H    0.000000   0.934234   0.000000   0.000000   0.000000   0.000000
     3  H    0.000000   0.000000   0.946340   0.000000   0.000000   0.000000
     4  C    0.000000   0.000000   0.000000   4.126688   0.000000   0.000000
     5  C    0.000000   0.000000   0.000000   0.000000   4.076921   0.000000
     6  H    0.000000   0.000000   0.000000   0.000000   0.000000   0.954898
     7  H    0.000000   0.000000   0.000000   0.000000   0.000000   0.000000
     8  H    0.000000   0.000000   0.000000   0.000000   0.000000   0.000000
     9  C    0.000000   0.000000   0.000000   0.000000   0.000000   0.000000
    10  H    0.000000   0.000000   0.000000   0.000000   0.000000   0.000000
    11  C    0.000000   0.000000   0.000000   0.000000   0.000000   0.000000
    12  H    0.000000   0.000000   0.000000   0.000000   0.000000   0.000000
    13  H    0.000000   0.000000   0.000000   0.000000   0.000000   0.000000
    14  H    0.000000   0.000000   0.000000   0.000000   0.000000   0.000000
    15  C    0.000000   0.000000   0.000000   0.000000   0.000000   0.000000
    16  H    0.000000   0.000000   0.000000   0.000000   0.000000   0.000000
    17  H    0.000000   0.000000   0.000000   0.000000   0.000000   0.000000
    18  H    0.000000   0.000000   0.000000   0.000000   0.000000   0.000000
    19  C    0.000000   0.000000   0.000000   0.000000   0.000000   0.000000
    20  C    0.000000   0.000000   0.000000   0.000000   0.000000   0.000000
    21  H    0.000000   0.000000   0.000000   0.000000   0.000000   0.000000
    22  H    0.000000   0.000000   0.000000   0.000000   0.000000   0.000000
    23  H    0.000000   0.000000   0.000000   0.000000   0.000000   0.000000
    24  C    0.000000   0.000000   0.000000   0.000000   0.000000   0.000000
    25  H    0.000000   0.000000   0.000000   0.000000   0.000000   0.000000
    26  C    0.000000   0.000000   0.000000   0.000000   0.000000   0.000000
    27  H    0.000000   0.000000   0.000000   0.000000   0.000000   0.000000
    28  H    0.000000   0.000000   0.000000   0.000000   0.000000   0.000000
               7          8          9         10         11         12
     1  C    0.000000   0.000000   0.000000   0.000000   0.000000   0.000000
     2  H    0.000000   0.000000   0.000000   0.000000   0.000000   0.000000
     3  H    0.000000   0.000000   0.000000   0.000000   0.000000   0.000000
     4  C    0.000000   0.000000   0.000000   0.000000   0.000000   0.000000
     5  C    0.000000   0.000000   0.000000   0.000000   0.000000   0.000000
     6  H    0.000000   0.000000   0.000000   0.000000   0.000000   0.000000
     7  H    0.949563   0.000000   0.000000   0.000000   0.000000   0.000000
     8  H    0.000000   0.956398   0.000000   0.000000   0.000000   0.000000
     9  C    0.000000   0.000000   4.151759   0.000000   0.000000   0.000000
    10  H    0.000000   0.000000   0.000000   0.902136   0.000000   0.000000
    11  C    0.000000   0.000000   0.000000   0.000000   4.079834   0.000000
    12  H    0.000000   0.000000   0.000000   0.000000   0.000000   0.955978
    13  H    0.000000   0.000000   0.000000   0.000000   0.000000   0.000000
    14  H    0.000000   0.000000   0.000000   0.000000   0.000000   0.000000
    15  C    0.000000   0.000000   0.000000   0.000000   0.000000   0.000000
    16  H    0.000000   0.000000   0.000000   0.000000   0.000000   0.000000
    17  H    0.000000   0.000000   0.000000   0.000000   0.000000   0.000000
    18  H    0.000000   0.000000   0.000000   0.000000   0.000000   0.000000
    19  C    0.000000   0.000000   0.000000   0.000000   0.000000   0.000000
    20  C    0.000000   0.000000   0.000000   0.000000   0.000000   0.000000
    21  H    0.000000   0.000000   0.000000   0.000000   0.000000   0.000000
    22  H    0.000000   0.000000   0.000000   0.000000   0.000000   0.000000
    23  H    0.000000   0.000000   0.000000   0.000000   0.000000   0.000000
    24  C    0.000000   0.000000   0.000000   0.000000   0.000000   0.000000
    25  H    0.000000   0.000000   0.000000   0.000000   0.000000   0.000000
    26  C    0.000000   0.000000   0.000000   0.000000   0.000000   0.000000
    27  H    0.000000   0.000000   0.000000   0.000000   0.000000   0.000000
    28  H    0.000000   0.000000   0.000000   0.000000   0.000000   0.000000
              13         14         15         16         17         18
     1  C    0.000000   0.000000   0.000000   0.000000   0.000000   0.000000
     2  H    0.000000   0.000000   0.000000   0.000000   0.000000   0.000000
     3  H    0.000000   0.000000   0.000000   0.000000   0.000000   0.000000
     4  C    0.000000   0.000000   0.000000   0.000000   0.000000   0.000000
     5  C    0.000000   0.000000   0.000000   0.000000   0.000000   0.000000
     6  H    0.000000   0.000000   0.000000   0.000000   0.000000   0.000000
     7  H    0.000000   0.000000   0.000000   0.000000   0.000000   0.000000
     8  H    0.000000   0.000000   0.000000   0.000000   0.000000   0.000000
     9  C    0.000000   0.000000   0.000000   0.000000   0.000000   0.000000
    10  H    0.000000   0.000000   0.000000   0.000000   0.000000   0.000000
    11  C    0.000000   0.000000   0.000000   0.000000   0.000000   0.000000
    12  H    0.000000   0.000000   0.000000   0.000000   0.000000   0.000000
    13  H    0.950279   0.000000   0.000000   0.000000   0.000000   0.000000
    14  H    0.000000   0.955366   0.000000   0.000000   0.000000   0.000000
    15  C    0.000000   0.000000   4.067336   0.000000   0.000000   0.000000
    16  H    0.000000   0.000000   0.000000   0.957149   0.000000   0.000000
    17  H    0.000000   0.000000   0.000000   0.000000   0.956791   0.000000
    18  H    0.000000   0.000000   0.000000   0.000000   0.000000   0.958192
    19  C    0.000000   0.000000   0.000000   0.000000   0.000000   0.000000
    20  C    0.000000   0.000000   0.000000   0.000000   0.000000   0.000000
    21  H    0.000000   0.000000   0.000000   0.000000   0.000000   0.000000
    22  H    0.000000   0.000000   0.000000   0.000000   0.000000   0.000000
    23  H    0.000000   0.000000   0.000000   0.000000   0.000000   0.000000
    24  C    0.000000   0.000000   0.000000   0.000000   0.000000   0.000000
    25  H    0.000000   0.000000   0.000000   0.000000   0.000000   0.000000
    26  C    0.000000   0.000000   0.000000   0.000000   0.000000   0.000000
    27  H    0.000000   0.000000   0.000000   0.000000   0.000000   0.000000
    28  H    0.000000   0.000000   0.000000   0.000000   0.000000   0.000000
              19         20         21         22         23         24
     1  C    0.000000   0.000000   0.000000   0.000000   0.000000   0.000000
     2  H    0.000000   0.000000   0.000000   0.000000   0.000000   0.000000
     3  H    0.000000   0.000000   0.000000   0.000000   0.000000   0.000000
     4  C    0.000000   0.000000   0.000000   0.000000   0.000000   0.000000
     5  C    0.000000   0.000000   0.000000   0.000000   0.000000   0.000000
     6  H    0.000000   0.000000   0.000000   0.000000   0.000000   0.000000
     7  H    0.000000   0.000000   0.000000   0.000000   0.000000   0.000000
     8  H    0.000000   0.000000   0.000000   0.000000   0.000000   0.000000
     9  C    0.000000   0.000000   0.000000   0.000000   0.000000   0.000000
    10  H    0.000000   0.000000   0.000000   0.000000   0.000000   0.000000
    11  C    0.000000   0.000000   0.000000   0.000000   0.000000   0.000000
    12  H    0.000000   0.000000   0.000000   0.000000   0.000000   0.000000
    13  H    0.000000   0.000000   0.000000   0.000000   0.000000   0.000000
    14  H    0.000000   0.000000   0.000000   0.000000   0.000000   0.000000
    15  C    0.000000   0.000000   0.000000   0.000000   0.000000   0.000000
    16  H    0.000000   0.000000   0.000000   0.000000   0.000000   0.000000
    17  H    0.000000   0.000000   0.000000   0.000000   0.000000   0.000000
    18  H    0.000000   0.000000   0.000000   0.000000   0.000000   0.000000
    19  C    4.128288   0.000000   0.000000   0.000000   0.000000   0.000000
    20  C    0.000000   4.074992   0.000000   0.000000   0.000000   0.000000
    21  H    0.000000   0.000000   0.951591   0.000000   0.000000   0.000000
    22  H    0.000000   0.000000   0.000000   0.955291   0.000000   0.000000
    23  H    0.000000   0.000000   0.000000   0.000000   0.954078   0.000000
    24  C    0.000000   0.000000   0.000000   0.000000   0.000000   4.155982
    25  H    0.000000   0.000000   0.000000   0.000000   0.000000   0.000000
    26  C    0.000000   0.000000   0.000000   0.000000   0.000000   0.000000
    27  H    0.000000   0.000000   0.000000   0.000000   0.000000   0.000000
    28  H    0.000000   0.000000   0.000000   0.000000   0.000000   0.000000
              25         26         27         28
     1  C    0.000000   0.000000   0.000000   0.000000
     2  H    0.000000   0.000000   0.000000   0.000000
     3  H    0.000000   0.000000   0.000000   0.000000
     4  C    0.000000   0.000000   0.000000   0.000000
     5  C    0.000000   0.000000   0.000000   0.000000
     6  H    0.000000   0.000000   0.000000   0.000000
     7  H    0.000000   0.000000   0.000000   0.000000
     8  H    0.000000   0.000000   0.000000   0.000000
     9  C    0.000000   0.000000   0.000000   0.000000
    10  H    0.000000   0.000000   0.000000   0.000000
    11  C    0.000000   0.000000   0.000000   0.000000
    12  H    0.000000   0.000000   0.000000   0.000000
    13  H    0.000000   0.000000   0.000000   0.000000
    14  H    0.000000   0.000000   0.000000   0.000000
    15  C    0.000000   0.000000   0.000000   0.000000
    16  H    0.000000   0.000000   0.000000   0.000000
    17  H    0.000000   0.000000   0.000000   0.000000
    18  H    0.000000   0.000000   0.000000   0.000000
    19  C    0.000000   0.000000   0.000000   0.000000
    20  C    0.000000   0.000000   0.000000   0.000000
    21  H    0.000000   0.000000   0.000000   0.000000
    22  H    0.000000   0.000000   0.000000   0.000000
    23  H    0.000000   0.000000   0.000000   0.000000
    24  C    0.000000   0.000000   0.000000   0.000000
    25  H    0.891598   0.000000   0.000000   0.000000
    26  C    0.000000   4.072176   0.000000   0.000000
    27  H    0.000000   0.000000   0.935119   0.000000
    28  H    0.000000   0.000000   0.000000   0.940034
 Mulliken charges:
               1
     1  C   -0.060989
     2  H    0.065766
     3  H    0.053660
     4  C   -0.126688
     5  C   -0.076921
     6  H    0.045102
     7  H    0.050437
     8  H    0.043602
     9  C   -0.151759
    10  H    0.097864
    11  C   -0.079834
    12  H    0.044022
    13  H    0.049721
    14  H    0.044634
    15  C   -0.067336
    16  H    0.042851
    17  H    0.043209
    18  H    0.041808
    19  C   -0.128288
    20  C   -0.074992
    21  H    0.048409
    22  H    0.044709
    23  H    0.045922
    24  C   -0.155982
    25  H    0.108402
    26  C   -0.072176
    27  H    0.064881
    28  H    0.059966
 Sum of Mulliken charges =  -0.00000
 Mulliken charges with hydrogens summed into heavy atoms:
               1
     1  C    0.058437
     4  C   -0.126688
     5  C    0.062219
     9  C   -0.053895
    11  C    0.058544
    15  C    0.060532
    19  C   -0.128288
    20  C    0.064048
    24  C   -0.047580
    26  C    0.052671
 Charge=             -0.0000 electrons
 Dipole moment (field-independent basis, Debye):
    X=             -0.2247    Y=             -0.1560    Z=              0.1065  Tot=              0.2935
 N-N= 3.104075261092D+02 E-N=-5.029937789300D+02  KE=-7.912378906774D+01
 Leave Link  601 at Tue Sep  6 13:42:30 2022, MaxMem=   131072000 cpu:               0.0 elap:               0.0
 (Enter /opt/g16/l9999.exe)
 1\1\GINC-TOTEM2\FOpt\RPM3\ZDO\C10H18\JRAMOS\06-Sep-2022\0\\#p opt pm3\
 \Conformer number 008. Energy MM = 23.486 kcal/mol\\0,1\C,0.9571001032
 ,-0.4684837345,-0.9926038902\H,0.8779563314,-1.3087225653,-0.267353253
 8\H,1.2363796176,-0.9260068602,-1.9624031842\C,2.0484728716,0.47055407
 55,-0.5852183896\C,2.3247623123,1.5764245302,-1.5423216538\H,2.8613070
 989,1.1988701735,-2.4230082493\H,1.3742726,2.0154545082,-1.8923698419\
 H,2.927415235,2.3806652848,-1.1020766027\C,2.7496690173,0.3443700767,0
 .5493087753\H,3.5430759167,1.0670503172,0.7805539769\C,2.5458203854,-0
 .718999388,1.5562820009\H,3.4740767963,-1.2825345815,1.7178472698\H,1.
 7642853496,-1.437315516,1.2577479374\H,2.2473620768,-0.2837818224,2.51
 92923931\C,-2.8595183902,0.6369450485,1.81873811\H,-3.6594027363,1.386
 8049953,1.7510707443\H,-3.2902255859,-0.2660340072,2.2727671356\H,-2.0
 988096153,1.0245360813,2.5092019736\C,-2.3096412723,0.3346988789,0.469
 8067517\C,-3.2999292258,-0.152259654,-0.5253263987\H,-2.8117513186,-0.
 5246699702,-1.4411767186\H,-3.9050280461,-0.9696863516,-0.1116184978\H
 ,-3.9844964554,0.655537676,-0.8165551717\C,-1.0084920094,0.5023951974,
 0.1978848797\H,-0.3210590146,0.8591253999,0.9772742348\C,-0.3866162602
 ,0.2395056652,-1.1256889662\H,-0.2404547775,1.2110015998,-1.6531590865
 \H,-1.0732310044,-0.3589450573,-1.765196278\\Version=ES64L-G16RevA.03\
 State=1-A\HF=-0.0276486\RMSD=2.301e-09\RMSF=2.152e-06\Dipole=-0.095324
 5,-0.0282433,-0.0587563\PG=C01 [X(C10H18)]\\@


 MORNING PEOPLE ARE USUALLY ADMIRED AS EARLY BIRDS.
 RECALL BEN FRANKLIN'S APHORISM THAT THE EARLY BIRD GETS THE WORM.
 I IDENTIFY WITH THE WORM. --  CRAIG JAGGER, MINNEAPOLIS, KS.
 Job cpu time:       0 days  0 hours  0 minutes  8.2 seconds.
 Elapsed time:       0 days  0 hours  0 minutes  6.8 seconds.
 File lengths (MBytes):  RWF=      6 Int=      0 D2E=      0 Chk=      2 Scr=      1
 Normal termination of Gaussian 16 at Tue Sep  6 13:42:30 2022.
